<event>
 8    1  0.1137518E+005  0.1043930E+01  0.7957747E-01            NaN
         13   -1    0    0    0    0  0.00000000000E+00  0.00000000000E+00  0.74505805969E-08  0.10566000000E+00  0.10566000000E+00 0.  1.
     999900   -1    0    0    0    0 -0.00000000000E+00 -0.00000000000E+00 -0.74505805969E-08  0.93827000000E+00  0.93827000000E+00 0.  1.
     999902    2    1    2    0    0 -0.20872092759E-02  0.11331787281E-01 -0.13002269350E-01  0.10265568928E+01  0.10264098739E+01 0.  0.
     999903    2    3    3    0    0 -0.11789154621E+00 -0.30662234396E-01  0.55661999242E-01  0.13532800857E+00  0.19411915333E-01 0.  0.
         14    1    1    2    0    0  0.20872092759E-02 -0.11331787281E-01  0.13002269350E-01  0.17373107201E-01  0.00000000000E+00 0.  1.
     999901    1    3    3    0    0  0.11580433693E+00  0.41994021677E-01 -0.68664268592E-01  0.89122888423E+00  0.88000000000E+00 0. -1.
        -11    1    4    4    0    0 -0.10994617457E+00 -0.23821421257E-01  0.53665000065E-01  0.12464274855E+00  0.51100000000E-03 0.  1.
         11    1    4    4    0    0 -0.79453716452E-02 -0.68408131389E-02  0.19969991769E-02  0.10685260020E-01  0.51100000000E-03 0. -1.
</event>
<event>
 8    1  0.1137518E+005  0.1043930E+01  0.7957747E-01            NaN
         13   -1    0    0    0    0  0.00000000000E+00  0.00000000000E+00  0.74505805969E-08  0.10566000000E+00  0.10566000000E+00 0. -1.
     999900   -1    0    0    0    0 -0.00000000000E+00 -0.00000000000E+00 -0.74505805969E-08  0.93827000000E+00  0.93827000000E+00 0.  1.
     999902    2    1    2    0    0 -0.89133648145E-02  0.16010125619E-01  0.13562967775E-01  0.10211324938E+01  0.10208779768E+01 0.  0.
     999903    2    3    3    0    0 -0.34897944029E-01  0.12718576672E+00  0.76514755239E-02  0.13373733532E+00  0.20809709955E-01 0.  0.
         14    1    1    2    0    0  0.89133648145E-02 -0.16010125619E-01 -0.13562967775E-01  0.22797506212E-01  0.00000000000E+00 0.  1.
     999901    1    3    3    0    0  0.25984579215E-01 -0.11117564110E+00  0.59114922511E-02  0.88739515847E+00  0.88000000000E+00 0. -1.
        -11    1    4    4    0    0 -0.19988179336E-01  0.87128815229E-01 -0.38357173791E-02  0.89475871637E-01  0.51100000000E-03 0. -1.
         11    1    4    4    0    0 -0.14909764693E-01  0.40056951487E-01  0.11487192903E-01  0.44261463683E-01  0.51100000000E-03 0.  1.
</event>
<event>
 8    1  0.1137518E+005  0.1043930E+01  0.7957747E-01            NaN
         13   -1    0    0    0    0  0.00000000000E+00  0.00000000000E+00  0.74505805969E-08  0.10566000000E+00  0.10566000000E+00 0.  1.
     999900   -1    0    0    0    0 -0.00000000000E+00 -0.00000000000E+00 -0.74505805969E-08  0.93827000000E+00  0.93827000000E+00 0. -1.
     999902    2    1    2    0    0 -0.11425651571E-01  0.14955290186E-01 -0.12940672266E-01  0.10210899646E+01  0.10208344864E+01 0.  0.
     999903    2    3    3    0    0  0.10797884044E+00  0.56205124720E-01  0.42261708992E-01  0.13035639924E+00  0.19705145227E-01 0.  0.
         14    1    1    2    0    0  0.11425651571E-01 -0.14955290186E-01  0.12940672266E-01  0.22840035400E-01  0.00000000000E+00 0. -1.
     999901    1    3    3    0    0 -0.11940449201E+00 -0.41249834534E-01 -0.55202381258E-01  0.89073356536E+00  0.88000000000E+00 0. -1.
        -11    1    4    4    0    0  0.11277283791E-01  0.11933502446E-01  0.16442244629E-02  0.16509094628E-01  0.51100000000E-03 0. -1.
         11    1    4    4    0    0  0.96701556650E-01  0.44271622273E-01  0.40617484529E-01  0.11384730461E+00  0.51100000000E-03 0.  1.
</event>
<event>
 8    1  0.1137518E+005  0.1043930E+01  0.7957747E-01            NaN
         13   -1    0    0    0    0  0.00000000000E+00  0.00000000000E+00  0.74505805969E-08  0.10566000000E+00  0.10566000000E+00 0.  1.
     999900   -1    0    0    0    0 -0.00000000000E+00 -0.00000000000E+00 -0.74505805969E-08  0.93827000000E+00  0.93827000000E+00 0. -1.
     999902    2    1    2    0    0 -0.20345257585E-01  0.10945913031E-01 -0.74207188005E-03  0.10208152171E+01  0.10205534843E+01 0.  0.
     999903    2    3    3    0    0 -0.53142139223E-01  0.76396112058E-01  0.92713376165E-01  0.13284377342E+00  0.19779917056E-01 0.  0.
         14    1    1    2    0    0  0.20345257585E-01 -0.10945913031E-01  0.74207188005E-03  0.23114782910E-01  0.00000000000E+00 0.  1.
     999901    1    3    3    0    0  0.32796881637E-01 -0.65450199027E-01 -0.93455448045E-01  0.88797144367E+00  0.88000000000E+00 0. -1.
        -11    1    4    4    0    0 -0.43341134052E-01  0.64071097494E-01  0.65329491118E-01  0.10125098995E+00  0.51100000000E-03 0. -1.
         11    1    4    4    0    0 -0.98010051702E-02  0.12325014564E-01  0.27383885048E-01  0.31592783474E-01  0.51100000000E-03 0.  1.
</event>
<event>
 8    1  0.1137518E+005  0.1043930E+01  0.7957747E-01            NaN
         13   -1    0    0    0    0  0.00000000000E+00  0.00000000000E+00  0.74505805969E-08  0.10566000000E+00  0.10566000000E+00 0.  1.
     999900   -1    0    0    0    0 -0.00000000000E+00 -0.00000000000E+00 -0.74505805969E-08  0.93827000000E+00  0.93827000000E+00 0. -1.
     999902    2    1    2    0    0  0.60420531816E-02  0.11150612034E-01 -0.19389578701E-01  0.10207610916E+01  0.10204981175E+01 0.  0.
     999903    2    3    3    0    0  0.67187598003E-01  0.98680991437E-01 -0.56164395692E-01  0.13354480896E+00  0.20680069167E-01 0.  0.
         14    1    1    2    0    0 -0.60420531816E-02 -0.11150612034E-01  0.19389578701E-01  0.23168908425E-01  0.00000000000E+00 0.  1.
     999901    1    3    3    0    0 -0.61145544822E-01 -0.87530379402E-01  0.36774816990E-01  0.88721628261E+00  0.88000000000E+00 0. -1.
        -11    1    4    4    0    0  0.28968827681E-01  0.25491954513E-01 -0.17783051202E-01  0.42491537430E-01  0.51100000000E-03 0. -1.
         11    1    4    4    0    0  0.38218770323E-01  0.73189036924E-01 -0.38381344490E-01  0.91053271532E-01  0.51100000000E-03 0.  1.
</event>
<event>
 8    1  0.1137518E+005  0.1043930E+01  0.7957747E-01            NaN
         13   -1    0    0    0    0  0.00000000000E+00  0.00000000000E+00  0.74505805969E-08  0.10566000000E+00  0.10566000000E+00 0.  1.
     999900   -1    0    0    0    0 -0.00000000000E+00 -0.00000000000E+00 -0.74505805969E-08  0.93827000000E+00  0.93827000000E+00 0. -1.
     999902    2    1    2    0    0 -0.77846938635E-02 -0.11302000583E-01  0.19512616906E-01  0.10200746255E+01  0.10197956475E+01 0.  0.
     999903    2    3    3    0    0  0.27900359631E-01 -0.11583198802E+00  0.54516383119E-01  0.13247944467E+00  0.19577735175E-01 0.  0.
         14    1    1    2    0    0  0.77846938635E-02  0.11302000583E-01 -0.19512616906E-01  0.23855374536E-01  0.00000000000E+00 0. -1.
     999901    1    3    3    0    0 -0.35685053495E-01  0.10452998744E+00 -0.35003766213E-01  0.88759518079E+00  0.88000000000E+00 0. -1.
        -11    1    4    4    0    0  0.27653619422E-01 -0.77454971480E-01  0.39858643729E-01  0.91394572459E-01  0.51100000000E-03 0.  1.
         11    1    4    4    0    0  0.24674020923E-03 -0.38377016545E-01  0.14657739390E-01  0.41084872211E-01  0.51100000000E-03 0. -1.
</event>
<event>
 8    1  0.1137518E+005  0.1043930E+01  0.7957747E-01            NaN
         13   -1    0    0    0    0  0.00000000000E+00  0.00000000000E+00  0.74505805969E-08  0.10566000000E+00  0.10566000000E+00 0. -1.
     999900   -1    0    0    0    0 -0.00000000000E+00 -0.00000000000E+00 -0.74505805969E-08  0.93827000000E+00  0.93827000000E+00 0.  1.
     999902    2    1    2    0    0  0.51467440347E-02  0.22558584223E-01 -0.81375918590E-02  0.10194024828E+01  0.10191073658E+01 0.  0.
     999903    2    3    3    0    0 -0.29052685413E-01  0.54750653749E-01 -0.11454033096E+00  0.13174969420E+00  0.19919886757E-01 0.  0.
         14    1    1    2    0    0 -0.51467440347E-02 -0.22558584223E-01  0.81375918590E-02  0.24527517150E-01  0.00000000000E+00 0.  1.
     999901    1    3    3    0    0  0.34199429447E-01 -0.32192069526E-01  0.10640273910E+00  0.88765278865E+00  0.88000000000E+00 0. -1.
        -11    1    4    4    0    0 -0.13381137551E-01  0.42502859917E-01 -0.70193768143E-01  0.83144297161E-01  0.51100000000E-03 0. -1.
         11    1    4    4    0    0 -0.15671547862E-01  0.12247793832E-01 -0.44346562819E-01  0.48605397036E-01  0.51100000000E-03 0.  1.
</event>
<event>
 8    1  0.1137518E+005  0.1043930E+01  0.7957747E-01            NaN
         13   -1    0    0    0    0  0.00000000000E+00  0.00000000000E+00  0.74505805969E-08  0.10566000000E+00  0.10566000000E+00 0. -1.
     999900   -1    0    0    0    0 -0.00000000000E+00 -0.00000000000E+00 -0.74505805969E-08  0.93827000000E+00  0.93827000000E+00 0.  1.
     999902    2    1    2    0    0  0.13874226886E-01 -0.18330539207E-01 -0.40746223613E-02  0.10205825079E+01  0.10203154170E+01 0.  0.
     999903    2    3    3    0    0 -0.88940111032E-01 -0.93669003040E-01 -0.11669856254E-01  0.13136692112E+00  0.20901122923E-01 0.  0.
         14    1    1    2    0    0 -0.13874226886E-01  0.18330539207E-01  0.40746223613E-02  0.23347492086E-01  0.00000000000E+00 0.  1.
     999901    1    3    3    0    0  0.10281433792E+00  0.75338463833E-01  0.75952338928E-02  0.88921558679E+00  0.88000000000E+00 0. -1.
        -11    1    4    4    0    0 -0.56001755554E-01 -0.70293825788E-01 -0.13743869506E-01  0.90920699728E-01  0.51100000000E-03 0. -1.
         11    1    4    4    0    0 -0.32938355478E-01 -0.23375177252E-01  0.20740132519E-02  0.40446221396E-01  0.51100000000E-03 0.  1.
</event>
<event>
 8    1  0.1137518E+005  0.1043930E+01  0.7957747E-01            NaN
         13   -1    0    0    0    0  0.00000000000E+00  0.00000000000E+00  0.74505805969E-08  0.10566000000E+00  0.10566000000E+00 0.  1.
     999900   -1    0    0    0    0 -0.00000000000E+00 -0.00000000000E+00 -0.74505805969E-08  0.93827000000E+00  0.93827000000E+00 0. -1.
     999902    2    1    2    0    0 -0.16778195707E-01  0.14170167344E-01  0.89257889075E-02  0.10202240682E+01  0.10199486155E+01 0.  0.
     999903    2    3    3    0    0  0.25470026661E-02  0.12738989346E+00  0.30187838538E-01  0.13250550673E+00  0.20291168965E-01 0.  0.
         14    1    1    2    0    0  0.16778195707E-01 -0.14170167344E-01 -0.89257889075E-02  0.23705931776E-01  0.00000000000E+00 0. -1.
     999901    1    3    3    0    0 -0.19325198373E-01 -0.11321972612E+00 -0.21262049631E-01  0.88771856150E+00  0.88000000000E+00 0. -1.
        -11    1    4    4    0    0 -0.84864961049E-02  0.41554537240E-01  0.79963527660E-02  0.43162517998E-01  0.51100000000E-03 0.  1.
         11    1    4    4    0    0  0.11033498771E-01  0.85835356223E-01  0.22191485772E-01  0.89342988728E-01  0.51100000000E-03 0. -1.
</event>
<event>
 8    1  0.1137518E+005  0.1043930E+01  0.7957747E-01            NaN
         13   -1    0    0    0    0  0.00000000000E+00  0.00000000000E+00  0.74505805969E-08  0.10566000000E+00  0.10566000000E+00 0. -1.
     999900   -1    0    0    0    0 -0.00000000000E+00 -0.00000000000E+00 -0.74505805969E-08  0.93827000000E+00  0.93827000000E+00 0.  1.
     999902    2    1    2    0    0  0.10066384217E-01  0.21274525173E-01 -0.63567431286E-02  0.10195507938E+01  0.10192592778E+01 0.  0.
     999903    2    3    3    0    0 -0.34880820070E-01  0.24514828010E-02  0.12236076123E+00  0.12885289100E+00  0.20204708695E-01 0.  0.
         14    1    1    2    0    0 -0.10066384217E-01 -0.21274525173E-01  0.63567431286E-02  0.24379206217E-01  0.00000000000E+00 0. -1.
     999901    1    3    3    0    0  0.44947204288E-01  0.18823042372E-01 -0.12871750436E+00  0.89069790278E+00  0.88000000000E+00 0.  1.
        -11    1    4    4    0    0 -0.33846530302E-01 -0.37236574313E-02  0.10092478214E+00  0.10651537921E+00  0.51100000000E-03 0.  1.
         11    1    4    4    0    0 -0.10342897686E-02  0.61751402324E-02  0.21435979088E-01  0.22337511783E-01  0.51100000000E-03 0. -1.
</event>
<event>
 8    1  0.1137518E+005  0.1043930E+01  0.7957747E-01            NaN
         13   -1    0    0    0    0  0.00000000000E+00  0.00000000000E+00  0.74505805969E-08  0.10566000000E+00  0.10566000000E+00 0. -1.
     999900   -1    0    0    0    0 -0.00000000000E+00 -0.00000000000E+00 -0.74505805969E-08  0.93827000000E+00  0.93827000000E+00 0.  1.
     999902    2    1    2    0    0 -0.89581070328E-02 -0.11380821641E-01  0.96382564144E-02  0.10265326792E+01  0.10263852468E+01 0.  0.
     999903    2    3    3    0    0 -0.53073507982E-01  0.95533273845E-01 -0.76186387490E-01  0.13482495699E+00  0.20736434815E-01 0.  0.
         14    1    1    2    0    0  0.89581070328E-02  0.11380821641E-01 -0.96382564144E-02  0.17397320758E-01  0.00000000000E+00 0.  1.
     999901    1    3    3    0    0  0.44115400949E-01 -0.10691409549E+00  0.85824643904E-01  0.89170772225E+00  0.88000000000E+00 0. -1.
        -11    1    4    4    0    0 -0.46736597438E-01  0.77389798099E-01 -0.70879014879E-01  0.11488074800E+00  0.51100000000E-03 0. -1.
         11    1    4    4    0    0 -0.63369105444E-02  0.18143475746E-01 -0.53073726107E-02  0.19944208995E-01  0.51100000000E-03 0.  1.
</event>
<event>
 8    1  0.1137518E+005  0.1043930E+01  0.7957747E-01            NaN
         13   -1    0    0    0    0  0.00000000000E+00  0.00000000000E+00  0.74505805969E-08  0.10566000000E+00  0.10566000000E+00 0.  1.
     999900   -1    0    0    0    0 -0.00000000000E+00 -0.00000000000E+00 -0.74505805969E-08  0.93827000000E+00  0.93827000000E+00 0. -1.
     999902    2    1    2    0    0 -0.12488563129E-01  0.19003219560E-01 -0.88098151688E-02  0.10195435405E+01  0.10192518490E+01 0.  0.
     999903    2    3    3    0    0  0.10013807978E+00  0.29206610201E-01 -0.75063089338E-01  0.12983664147E+00  0.18504728752E-01 0.  0.
         14    1    1    2    0    0  0.12488563129E-01 -0.19003219560E-01  0.88098151688E-02  0.24386459480E-01  0.00000000000E+00 0. -1.
     999901    1    3    3    0    0 -0.11262664291E+00 -0.10203390641E-01  0.66253274169E-01  0.88970689905E+00  0.88000000000E+00 0.  1.
        -11    1    4    4    0    0  0.60170607450E-01  0.82192374821E-02 -0.45244485674E-01  0.75732307971E-01  0.51100000000E-03 0. -1.
         11    1    4    4    0    0  0.39967472332E-01  0.20987372719E-01 -0.29818603664E-01  0.54104333502E-01  0.51100000000E-03 0.  1.
</event>
<event>
 8    1  0.1137518E+005  0.1043930E+01  0.7957747E-01            NaN
         13   -1    0    0    0    0  0.00000000000E+00  0.00000000000E+00  0.74505805969E-08  0.10566000000E+00  0.10566000000E+00 0. -1.
     999900   -1    0    0    0    0 -0.00000000000E+00 -0.00000000000E+00 -0.74505805969E-08  0.93827000000E+00  0.93827000000E+00 0.  1.
     999902    2    1    2    0    0 -0.63121202179E-03  0.24777073347E-01  0.61806212547E-03  0.10191371826E+01  0.10188355673E+01 0.  0.
     999903    2    3    3    0    0 -0.12069887952E+00  0.41480815274E-01 -0.18029267298E-01  0.13063114288E+00  0.21226480125E-01 0.  0.
         14    1    1    2    0    0  0.63121202179E-03 -0.24777073347E-01 -0.61806212547E-03  0.24792817368E-01  0.00000000000E+00 0. -1.
     999901    1    3    3    0    0  0.12006766750E+00 -0.16703741927E-01  0.18647329423E-01  0.88850603975E+00  0.88000000000E+00 0.  1.
        -11    1    4    4    0    0 -0.96191759620E-01  0.37115632141E-01 -0.21978683643E-01  0.10542176447E+00  0.51100000000E-03 0.  1.
         11    1    4    4    0    0 -0.24507119901E-01  0.43651831327E-02  0.39494163450E-02  0.25209378416E-01  0.51100000000E-03 0. -1.
</event>
<event>
 8    1  0.1137518E+005  0.1043930E+01  0.7957747E-01            NaN
         13   -1    0    0    0    0  0.00000000000E+00  0.00000000000E+00  0.74505805969E-08  0.10566000000E+00  0.10566000000E+00 0.  1.
     999900   -1    0    0    0    0 -0.00000000000E+00 -0.00000000000E+00 -0.74505805969E-08  0.93827000000E+00  0.93827000000E+00 0.  1.
     999902    2    1    2    0    0  0.13639702426E-01  0.17589387579E-01  0.85966429614E-02  0.10200693565E+01  0.10197902538E+01 0.  0.
     999903    2    3    3    0    0  0.19045719322E-01  0.12969983624E+00  0.10040717113E-01  0.13293911631E+00  0.19677543035E-01 0.  0.
         14    1    1    2    0    0 -0.13639702426E-01 -0.17589387579E-01 -0.85966429614E-02  0.23860643492E-01  0.00000000000E+00 0.  1.
     999901    1    3    3    0    0 -0.54060168964E-02 -0.11211044866E+00 -0.14440741516E-02  0.88713024019E+00  0.88000000000E+00 0. -1.
        -11    1    4    4    0    0  0.21414207602E-01  0.85762052360E-01  0.36401264324E-02  0.88471518319E-01  0.51100000000E-03 0.  1.
         11    1    4    4    0    0 -0.23684882796E-02  0.43937783883E-01  0.64005906806E-02  0.44467597994E-01  0.51100000000E-03 0. -1.
</event>
<event>
 8    1  0.1137518E+005  0.1043930E+01  0.7957747E-01            NaN
         13   -1    0    0    0    0  0.00000000000E+00  0.00000000000E+00  0.74505805969E-08  0.10566000000E+00  0.10566000000E+00 0.  1.
     999900   -1    0    0    0    0 -0.00000000000E+00 -0.00000000000E+00 -0.74505805969E-08  0.93827000000E+00  0.93827000000E+00 0.  1.
     999902    2    1    2    0    0 -0.82794895280E-02 -0.20408219252E-01 -0.81052674211E-02  0.10204621343E+01  0.10201922499E+01 0.  0.
     999903    2    3    3    0    0  0.66690464588E-01 -0.66249232112E-01 -0.90780265591E-01  0.13222959280E+00  0.20174978792E-01 0.  0.
         14    1    1    2    0    0  0.82794895280E-02  0.20408219252E-01  0.81052674211E-02  0.23467865686E-01  0.00000000000E+00 0.  1.
     999901    1    3    3    0    0 -0.74969954116E-01  0.45841012860E-01  0.82674998170E-01  0.88823254151E+00  0.88000000000E+00 0. -1.
        -11    1    4    4    0    0  0.25520896582E-01 -0.39531886563E-01 -0.45118946466E-01  0.65192535376E-01  0.51100000000E-03 0. -1.
         11    1    4    4    0    0  0.41169568006E-01 -0.26717345549E-01 -0.45661319125E-01  0.67037057425E-01  0.51100000000E-03 0.  1.
</event>
<event>
 8    1  0.1137518E+005  0.1043930E+01  0.7957747E-01            NaN
         13   -1    0    0    0    0  0.00000000000E+00  0.00000000000E+00  0.74505805969E-08  0.10566000000E+00  0.10566000000E+00 0.  1.
     999900   -1    0    0    0    0 -0.00000000000E+00 -0.00000000000E+00 -0.74505805969E-08  0.93827000000E+00  0.93827000000E+00 0.  1.
     999902    2    1    2    0    0 -0.18549342983E-01 -0.14113378339E-01  0.72325954959E-02  0.10195255739E+01  0.10192334472E+01 0.  0.
     999903    2    3    3    0    0  0.28992381993E-01 -0.76975113759E-01  0.10012333561E+00  0.13113348540E+00  0.20139074167E-01 0.  0.
         14    1    1    2    0    0  0.18549342983E-01  0.14113378339E-01 -0.72325954959E-02  0.24404426050E-01  0.00000000000E+00 0. -1.
     999901    1    3    3    0    0 -0.47541724977E-01  0.62861735421E-01 -0.92890740114E-01  0.88839208855E+00  0.88000000000E+00 0.  1.
        -11    1    4    4    0    0  0.11825580902E-01 -0.53437401254E-01  0.73690159903E-01  0.91792706704E-01  0.51100000000E-03 0. -1.
         11    1    4    4    0    0  0.17166801091E-01 -0.23537712505E-01  0.26433175707E-01  0.39340778699E-01  0.51100000000E-03 0.  1.
</event>
<event>
 8    1  0.1137518E+005  0.1043930E+01  0.7957747E-01            NaN
         13   -1    0    0    0    0  0.00000000000E+00  0.00000000000E+00  0.74505805969E-08  0.10566000000E+00  0.10566000000E+00 0.  1.
     999900   -1    0    0    0    0 -0.00000000000E+00 -0.00000000000E+00 -0.74505805969E-08  0.93827000000E+00  0.93827000000E+00 0. -1.
     999902    2    1    2    0    0  0.15047731251E-01 -0.20337054681E-01  0.67793912151E-02  0.10177385863E+01  0.10174015136E+01 0.  0.
     999903    2    3    3    0    0 -0.20808714638E-01  0.65124887184E-01 -0.10393771088E+00  0.12597196604E+00  0.19789768829E-01 0.  0.
         14    1    1    2    0    0 -0.15047731251E-01  0.20337054681E-01 -0.67793912151E-02  0.26191413749E-01  0.00000000000E+00 0. -1.
     999901    1    3    3    0    0  0.35856445889E-01 -0.85461941865E-01  0.11071710210E+00  0.89176662021E+00  0.88000000000E+00 0.  1.
        -11    1    4    4    0    0  0.11471127954E-02  0.26746753183E-01 -0.43620782338E-01  0.51183380568E-01  0.51100000000E-03 0. -1.
         11    1    4    4    0    0 -0.21955827434E-01  0.38378134001E-01 -0.60316928542E-01  0.74788585476E-01  0.51100000000E-03 0.  1.
</event>
<event>
 8    1  0.1137518E+005  0.1043930E+01  0.7957747E-01            NaN
         13   -1    0    0    0    0  0.00000000000E+00  0.00000000000E+00  0.74505805969E-08  0.10566000000E+00  0.10566000000E+00 0.  1.
     999900   -1    0    0    0    0 -0.00000000000E+00 -0.00000000000E+00 -0.74505805969E-08  0.93827000000E+00  0.93827000000E+00 0.  1.
     999902    2    1    2    0    0 -0.46957312119E-02 -0.99593390872E-02 -0.21111424104E-01  0.10201196965E+01  0.10198417841E+01 0.  0.
     999903    2    3    3    0    0  0.73092066368E-01 -0.52176093885E-01 -0.95422574462E-01  0.13256387123E+00  0.20072800009E-01 0.  0.
         14    1    1    2    0    0  0.46957312119E-02  0.99593390872E-02  0.21111424104E-01  0.23810303534E-01  0.00000000000E+00 0.  1.
     999901    1    3    3    0    0 -0.77787797580E-01  0.42216754798E-01  0.74311150357E-01  0.88755582523E+00  0.88000000000E+00 0. -1.
        -11    1    4    4    0    0  0.32066400502E-01 -0.20583817834E-01 -0.54805337360E-01  0.66752031594E-01  0.51100000000E-03 0.  1.
         11    1    4    4    0    0  0.41025665867E-01 -0.31592276051E-01 -0.40617237102E-01  0.65811839639E-01  0.51100000000E-03 0. -1.
</event>
<event>
 8    1  0.1137518E+005  0.1043930E+01  0.7957747E-01            NaN
         13   -1    0    0    0    0  0.00000000000E+00  0.00000000000E+00  0.74505805969E-08  0.10566000000E+00  0.10566000000E+00 0.  1.
     999900   -1    0    0    0    0 -0.00000000000E+00 -0.00000000000E+00 -0.74505805969E-08  0.93827000000E+00  0.93827000000E+00 0.  1.
     999902    2    1    2    0    0 -0.19011143384E-01  0.96998064058E-02 -0.10174466216E-01  0.10202861936E+01  0.10200121996E+01 0.  0.
     999903    2    3    3    0    0  0.12485683784E+00  0.25769553068E-02 -0.23672146841E-01  0.12847291810E+00  0.18682866345E-01 0.  0.
         14    1    1    2    0    0  0.19011143384E-01 -0.96998064058E-02  0.10174466216E-01  0.23643806375E-01  0.00000000000E+00 0. -1.
     999901    1    3    3    0    0 -0.14386798122E+00  0.71228510990E-02  0.13497680624E-01  0.89181327553E+00  0.88000000000E+00 0.  1.
        -11    1    4    4    0    0  0.68365171099E-01 -0.12014335906E-02 -0.21994128600E-01  0.71827869772E-01  0.51100000000E-03 0. -1.
         11    1    4    4    0    0  0.56491666737E-01  0.37783888973E-02 -0.16780182407E-02  0.56645048324E-01  0.51100000000E-03 0.  1.
</event>
<event>
 7    1  0.1137518E+005  0.1043930E+01  0.7957747E-01            NaN
         13   -1    0    0    0    0  0.00000000000E+00  0.00000000000E+00  0.74505805969E-08  0.10566000000E+00  0.10566000000E+00 0. -1.
     999900   -1    0    0    0    0 -0.00000000000E+00 -0.00000000000E+00 -0.74505805969E-08  0.93827000000E+00  0.93827000000E+00 0. -1.
     999903    2    1    2    0    0 -0.26908214064E-01 -0.38388796269E-02  0.47109617444E-01  0.57914959637E-01  0.19900691271E-01 0.  0.
         14    1    1    2    0    0 -0.36213855287E-02  0.80419295578E-01 -0.62678947654E-01  0.10202464415E+00  0.00000000000E+00 0.  1.
     999901    1    1    2    0    0  0.30529599593E-01 -0.76580415951E-01  0.15569330210E-01  0.88399039622E+00  0.88000000000E+00 0.  1.
        -11    1    3    3    0    0 -0.87726799607E-02 -0.10309744344E-01  0.13188346156E-01  0.18906198387E-01  0.51100000000E-03 0.  1.
         11    1    3    3    0    0 -0.18135534103E-01  0.64708647170E-02  0.33921271288E-01  0.39008761249E-01  0.51100000000E-03 0. -1.
</event>
<event>
 8    1  0.1137518E+005  0.1043930E+01  0.7957747E-01            NaN
         13   -1    0    0    0    0  0.00000000000E+00  0.00000000000E+00  0.74505805969E-08  0.10566000000E+00  0.10566000000E+00 0. -1.
     999900   -1    0    0    0    0 -0.00000000000E+00 -0.00000000000E+00 -0.74505805969E-08  0.93827000000E+00  0.93827000000E+00 0. -1.
     999902    2    1    2    0    0  0.18804990116E-01  0.77405605227E-03  0.13360147943E-01  0.10208492641E+01  0.10205883106E+01 0.  0.
     999903    2    3    3    0    0  0.47618546393E-01 -0.97702729292E-01  0.73826110442E-01  0.13282672448E+00  0.19475494374E-01 0.  0.
         14    1    1    2    0    0 -0.18804990116E-01 -0.77405605227E-03 -0.13360147943E-01  0.23080735887E-01  0.00000000000E+00 0.  1.
     999901    1    3    3    0    0 -0.28813556277E-01  0.98476785345E-01 -0.60465962499E-01  0.88802253963E+00  0.88000000000E+00 0.  1.
        -11    1    4    4    0    0  0.23996125627E-01 -0.59848335854E-01  0.33419063361E-01  0.72627352055E-01  0.51100000000E-03 0. -1.
         11    1    4    4    0    0  0.23622420765E-01 -0.37854393438E-01  0.40407047081E-01  0.60199372424E-01  0.51100000000E-03 0.  1.
</event>
<event>
 8    1  0.1137518E+005  0.1043930E+01  0.7957747E-01            NaN
         13   -1    0    0    0    0  0.00000000000E+00  0.00000000000E+00  0.74505805969E-08  0.10566000000E+00  0.10566000000E+00 0.  1.
     999900   -1    0    0    0    0 -0.00000000000E+00 -0.00000000000E+00 -0.74505805969E-08  0.93827000000E+00  0.93827000000E+00 0.  1.
     999902    2    1    2    0    0  0.17401560207E-01 -0.12654272568E-01 -0.10415995924E-01  0.10200252330E+01  0.10197450849E+01 0.  0.
     999903    2    3    3    0    0 -0.48130890168E-01  0.82801252918E-01 -0.84609691516E-01  0.12934517609E+00  0.19968590495E-01 0.  0.
         14    1    1    2    0    0 -0.17401560207E-01  0.12654272568E-01  0.10415995924E-01  0.23904766951E-01  0.00000000000E+00 0.  1.
     999901    1    3    3    0    0  0.65532450376E-01 -0.95455525486E-01  0.74193695591E-01  0.89068005696E+00  0.88000000000E+00 0. -1.
        -11    1    4    4    0    0 -0.17784232174E-01  0.47830978481E-01 -0.37841323675E-01  0.63531947199E-01  0.51100000000E-03 0.  1.
         11    1    4    4    0    0 -0.30346657995E-01  0.34970274438E-01 -0.46768367840E-01  0.65813228892E-01  0.51100000000E-03 0. -1.
</event>
<event>
 8    1  0.1137518E+005  0.1043930E+01  0.7957747E-01            NaN
         13   -1    0    0    0    0  0.00000000000E+00  0.00000000000E+00  0.74505805969E-08  0.10566000000E+00  0.10566000000E+00 0.  1.
     999900   -1    0    0    0    0 -0.00000000000E+00 -0.00000000000E+00 -0.74505805969E-08  0.93827000000E+00  0.93827000000E+00 0.  1.
     999902    2    1    2    0    0 -0.12800596148E-01  0.74838176607E-02  0.17443571512E-01  0.10210358746E+01  0.10207791712E+01 0.  0.
     999903    2    3    3    0    0  0.88062384142E-02  0.13019411742E+00  0.52700916478E-02  0.13217544321E+00  0.20359662977E-01 0.  0.
         14    1    1    2    0    0  0.12800596148E-01 -0.74838176607E-02 -0.17443571512E-01  0.22894125352E-01  0.00000000000E+00 0. -1.
     999901    1    3    3    0    0 -0.21606834563E-01 -0.12271029976E+00  0.12173479865E-01  0.88886043144E+00  0.88000000000E+00 0.  1.
        -11    1    4    4    0    0  0.13366234611E-02  0.58275696206E-01 -0.74187364950E-02  0.58763441890E-01  0.51100000000E-03 0.  1.
         11    1    4    4    0    0  0.74696149531E-02  0.71918421210E-01  0.12688828143E-01  0.73412001318E-01  0.51100000000E-03 0. -1.
</event>
<event>
 8    1  0.1137518E+005  0.1043930E+01  0.7957747E-01            NaN
         13   -1    0    0    0    0  0.00000000000E+00  0.00000000000E+00  0.74505805969E-08  0.10566000000E+00  0.10566000000E+00 0.  1.
     999900   -1    0    0    0    0 -0.00000000000E+00 -0.00000000000E+00 -0.74505805969E-08  0.93827000000E+00  0.93827000000E+00 0.  1.
     999902    2    1    2    0    0 -0.15705596392E-01  0.17073705787E-01  0.52210798203E-02  0.10201510837E+01  0.10198739121E+01 0.  0.
     999903    2    3    3    0    0 -0.60643434960E-01 -0.11070483679E+00  0.22329452617E-01  0.12962345260E+00  0.19247023632E-01 0.  0.
         14    1    1    2    0    0  0.15705596392E-01 -0.17073705787E-01 -0.52210798203E-02  0.23778916330E-01  0.00000000000E+00 0. -1.
     999901    1    3    3    0    0  0.44937838569E-01  0.12777854257E+00 -0.17108372797E-01  0.89052763107E+00  0.88000000000E+00 0.  1.
        -11    1    4    4    0    0 -0.24601542046E-01 -0.64279945006E-01  0.14350446298E-01  0.70308915729E-01  0.51100000000E-03 0.  1.
         11    1    4    4    0    0 -0.36041892914E-01 -0.46424891779E-01  0.79790063192E-02  0.59314536873E-01  0.51100000000E-03 0. -1.
</event>
<event>
 8    1  0.1137518E+005  0.1043930E+01  0.7957747E-01            NaN
         13   -1    0    0    0    0  0.00000000000E+00  0.00000000000E+00  0.74505805969E-08  0.10566000000E+00  0.10566000000E+00 0. -1.
     999900   -1    0    0    0    0 -0.00000000000E+00 -0.00000000000E+00 -0.74505805969E-08  0.93827000000E+00  0.93827000000E+00 0. -1.
     999902    2    1    2    0    0  0.17231561258E-01  0.87752172275E-03 -0.16792997711E-01  0.10198530085E+01  0.10195687605E+01 0.  0.
     999903    2    3    3    0    0  0.61247176942E-01 -0.25741194318E-01 -0.11350171302E+00  0.13306187972E+00  0.20223728785E-01 0.  0.
         14    1    1    2    0    0 -0.17231561258E-01 -0.87752172275E-03  0.16792997711E-01  0.24076991504E-01  0.00000000000E+00 0.  1.
     999901    1    3    3    0    0 -0.44015615684E-01  0.26618716041E-01  0.96708715311E-01  0.88679112878E+00  0.88000000000E+00 0.  1.
        -11    1    4    4    0    0  0.92306651634E-02 -0.22337928158E-02 -0.33218000669E-01  0.34552737940E-01  0.51100000000E-03 0. -1.
         11    1    4    4    0    0  0.52016511779E-01 -0.23507401502E-01 -0.80283712353E-01  0.98509141775E-01  0.51100000000E-03 0.  1.
</event>
<event>
 8    1  0.1137518E+005  0.1043930E+01  0.7957747E-01            NaN
         13   -1    0    0    0    0  0.00000000000E+00  0.00000000000E+00  0.74505805969E-08  0.10566000000E+00  0.10566000000E+00 0. -1.
     999900   -1    0    0    0    0 -0.00000000000E+00 -0.00000000000E+00 -0.74505805969E-08  0.93827000000E+00  0.93827000000E+00 0.  1.
     999902    2    1    2    0    0 -0.19533597110E-01  0.14062243528E-01  0.42254718839E-02  0.10194930869E+01  0.10192001724E+01 0.  0.
     999903    2    3    3    0    0 -0.48204695787E-02  0.71293034748E-01 -0.10753644991E+00  0.13045846061E+00  0.18691927563E-01 0.  0.
         14    1    1    2    0    0  0.19533597110E-01 -0.14062243528E-01 -0.42254718839E-02  0.24436913097E-01  0.00000000000E+00 0.  1.
     999901    1    3    3    0    0 -0.14713127531E-01 -0.57230791220E-01  0.11176192179E+00  0.88903462629E+00  0.88000000000E+00 0. -1.
        -11    1    4    4    0    0 -0.45194725996E-02  0.58733543041E-01 -0.73629990629E-01  0.94295765290E-01  0.51100000000E-03 0. -1.
         11    1    4    4    0    0 -0.30099697907E-03  0.12559491707E-01 -0.33906459277E-01  0.36162695320E-01  0.51100000000E-03 0.  1.
</event>
<event>
 8    1  0.1137518E+005  0.1043930E+01  0.7957747E-01            NaN
         13   -1    0    0    0    0  0.00000000000E+00  0.00000000000E+00  0.74505805969E-08  0.10566000000E+00  0.10566000000E+00 0. -1.
     999900   -1    0    0    0    0 -0.00000000000E+00 -0.00000000000E+00 -0.74505805969E-08  0.93827000000E+00  0.93827000000E+00 0.  1.
     999902    2    1    2    0    0 -0.12794609408E-01  0.16601341367E-01 -0.99020845885E-02  0.10207490198E+01  0.10204857684E+01 0.  0.
     999903    2    3    3    0    0  0.59224869853E-01 -0.33738577341E-01  0.10704573272E+00  0.12867407629E+00  0.21268573206E-01 0.  0.
         14    1    1    2    0    0  0.12794609408E-01 -0.16601341367E-01  0.99020845885E-02  0.23180980227E-01  0.00000000000E+00 0. -1.
     999901    1    3    3    0    0 -0.72019479260E-01  0.50339918708E-01 -0.11694781731E+00  0.89207494348E+00  0.88000000000E+00 0.  1.
        -11    1    4    4    0    0  0.23003996530E-01 -0.24401312047E-01  0.57876152531E-01  0.66891838357E-01  0.51100000000E-03 0. -1.
         11    1    4    4    0    0  0.36220873323E-01 -0.93372652937E-02  0.49169580191E-01  0.61782237937E-01  0.51100000000E-03 0.  1.
</event>
<event>
 8    1  0.1137518E+005  0.1043930E+01  0.7957747E-01            NaN
         13   -1    0    0    0    0  0.00000000000E+00  0.00000000000E+00  0.74505805969E-08  0.10566000000E+00  0.10566000000E+00 0.  1.
     999900   -1    0    0    0    0 -0.00000000000E+00 -0.00000000000E+00 -0.74505805969E-08  0.93827000000E+00  0.93827000000E+00 0.  1.
     999902    2    1    2    0    0  0.22005449833E-01 -0.12836938038E-01  0.79068447017E-02  0.10172551993E+01  0.10169054014E+01 0.  0.
     999903    2    3    3    0    0  0.10988739078E+00 -0.21652111350E-01 -0.63273513497E-01  0.12997419181E+00  0.18593021449E-01 0.  0.
         14    1    1    2    0    0 -0.22005449833E-01  0.12836938038E-01 -0.79068447017E-02  0.26674800724E-01  0.00000000000E+00 0. -1.
     999901    1    3    3    0    0 -0.87881940948E-01  0.88151733117E-02  0.71180358199E-01  0.88728100747E+00  0.88000000000E+00 0. -1.
        -11    1    4    4    0    0  0.40237882639E-01  0.94052682389E-03 -0.20483058860E-01  0.45164018989E-01  0.51100000000E-03 0. -1.
         11    1    4    4    0    0  0.69649508142E-01 -0.22592638173E-01 -0.42790454638E-01  0.84810172816E-01  0.51100000000E-03 0.  1.
</event>
<event>
 8    1  0.1137518E+005  0.1043930E+01  0.7957747E-01            NaN
         13   -1    0    0    0    0  0.00000000000E+00  0.00000000000E+00  0.74505805969E-08  0.10566000000E+00  0.10566000000E+00 0. -1.
     999900   -1    0    0    0    0 -0.00000000000E+00 -0.00000000000E+00 -0.74505805969E-08  0.93827000000E+00  0.93827000000E+00 0. -1.
     999902    2    1    2    0    0  0.18773153158E-01  0.11569549171E-01  0.86257644175E-02  0.10202511158E+01  0.10199762986E+01 0.  0.
     999903    2    3    3    0    0 -0.81482351218E-01 -0.28660196365E-01  0.94625061338E-01  0.12948432379E+00  0.18748532189E-01 0.  0.
         14    1    1    2    0    0 -0.18773153158E-01 -0.11569549171E-01 -0.86257644175E-02  0.23678884250E-01  0.00000000000E+00 0.  1.
     999901    1    3    3    0    0  0.10025550438E+00  0.40229745536E-01 -0.85999296921E-01  0.89076679196E+00  0.88000000000E+00 0. -1.
        -11    1    4    4    0    0 -0.56040768966E-01 -0.26969820714E-01  0.59457464673E-01  0.86042955796E-01  0.51100000000E-03 0. -1.
         11    1    4    4    0    0 -0.25441582251E-01 -0.16903756509E-02  0.35167596665E-01  0.43441367997E-01  0.51100000000E-03 0.  1.
</event>
<event>
 8    1  0.1137518E+005  0.1043930E+01  0.7957747E-01            NaN
         13   -1    0    0    0    0  0.00000000000E+00  0.00000000000E+00  0.74505805969E-08  0.10566000000E+00  0.10566000000E+00 0. -1.
     999900   -1    0    0    0    0 -0.00000000000E+00 -0.00000000000E+00 -0.74505805969E-08  0.93827000000E+00  0.93827000000E+00 0.  1.
     999902    2    1    2    0    0 -0.43437375440E-02  0.91422514299E-02 -0.21368858948E-01  0.10202851919E+01  0.10200111744E+01 0.  0.
     999903    2    3    3    0    0  0.11404475214E-01  0.15501814099E-01  0.12494015383E+00  0.12804375739E+00  0.20366479168E-01 0.  0.
         14    1    1    2    0    0  0.43437375440E-02 -0.91422514299E-02  0.21368858948E-01  0.23644808094E-01  0.00000000000E+00 0. -1.
     999901    1    3    3    0    0 -0.15748212758E-01 -0.63595626691E-02 -0.14630901278E+00  0.89224143451E+00  0.88000000000E+00 0.  1.
        -11    1    4    4    0    0 -0.38783492991E-02  0.78981248010E-02  0.22055041820E-01  0.23750957019E-01  0.51100000000E-03 0. -1.
         11    1    4    4    0    0  0.15282824513E-01  0.76036892980E-02  0.10288511201E+00  0.10429280037E+00  0.51100000000E-03 0.  1.
</event>
<event>
 8    1  0.1137518E+005  0.1043930E+01  0.7957747E-01            NaN
         13   -1    0    0    0    0  0.00000000000E+00  0.00000000000E+00  0.74505805969E-08  0.10566000000E+00  0.10566000000E+00 0.  1.
     999900   -1    0    0    0    0 -0.00000000000E+00 -0.00000000000E+00 -0.74505805969E-08  0.93827000000E+00  0.93827000000E+00 0. -1.
     999902    2    1    2    0    0 -0.21722506935E-02  0.22509471821E-01 -0.63845567889E-02  0.10204319669E+01  0.10201613801E+01 0.  0.
     999903    2    3    3    0    0  0.86189813014E-01  0.11518269617E-01  0.95229568485E-01  0.13012073407E+00  0.17360308712E-01 0.  0.
         14    1    1    2    0    0  0.21722506935E-02 -0.22509471821E-01  0.63845567889E-02  0.23498033112E-01  0.00000000000E+00 0. -1.
     999901    1    3    3    0    0 -0.88362063708E-01  0.10991202204E-01 -0.10161412527E+00  0.89031123282E+00  0.88000000000E+00 0. -1.
        -11    1    4    4    0    0  0.60674691042E-01  0.14618782107E-01  0.60609214778E-01  0.86999223907E-01  0.51100000000E-03 0. -1.
         11    1    4    4    0    0  0.25515121973E-01 -0.31005124899E-02  0.34620353706E-01  0.43121510163E-01  0.51100000000E-03 0.  1.
</event>
<event>
 8    1  0.1137518E+005  0.1043930E+01  0.7957747E-01            NaN
         13   -1    0    0    0    0  0.00000000000E+00  0.00000000000E+00  0.74505805969E-08  0.10566000000E+00  0.10566000000E+00 0. -1.
     999900   -1    0    0    0    0 -0.00000000000E+00 -0.00000000000E+00 -0.74505805969E-08  0.93827000000E+00  0.93827000000E+00 0.  1.
     999902    2    1    2    0    0  0.22248532135E-01  0.45053384370E-02 -0.11907190595E-02  0.10211986765E+01  0.10209456517E+01 0.  0.
     999903    2    3    3    0    0  0.84540278997E-01  0.16830014974E-01  0.99449674299E-01  0.13318930258E+00  0.20465689008E-01 0.  0.
         14    1    1    2    0    0 -0.22248532135E-01 -0.45053384370E-02  0.11907190595E-02  0.22731323509E-01  0.00000000000E+00 0. -1.
     999901    1    3    3    0    0 -0.62291746861E-01 -0.12324676537E-01 -0.10064039336E+00  0.88800937391E+00  0.88000000000E+00 0.  1.
        -11    1    4    4    0    0  0.26003875161E-01  0.98075323933E-02  0.19957664677E-01  0.34219274034E-01  0.51100000000E-03 0. -1.
         11    1    4    4    0    0  0.58536403835E-01  0.70224825812E-02  0.79492009622E-01  0.98970028545E-01  0.51100000000E-03 0.  1.
</event>
<event>
 8    1  0.1137518E+005  0.1043930E+01  0.7957747E-01            NaN
         13   -1    0    0    0    0  0.00000000000E+00  0.00000000000E+00  0.74505805969E-08  0.10566000000E+00  0.10566000000E+00 0. -1.
     999900   -1    0    0    0    0 -0.00000000000E+00 -0.00000000000E+00 -0.74505805969E-08  0.93827000000E+00  0.93827000000E+00 0. -1.
     999902    2    1    2    0    0  0.69077331246E-02  0.22666330594E-01  0.82091839490E-02  0.10188527190E+01  0.10185440555E+01 0.  0.
     999903    2    3    3    0    0  0.14140289763E-01  0.73220566582E-01 -0.10491377322E+00  0.13014306786E+00  0.19212473458E-01 0.  0.
         14    1    1    2    0    0 -0.69077331246E-02 -0.22666330594E-01 -0.82091839490E-02  0.25077280965E-01  0.00000000000E+00 0.  1.
     999901    1    3    3    0    0 -0.72325566381E-02 -0.50554235988E-01  0.11312295717E+00  0.88870965117E+00  0.88000000000E+00 0.  1.
        -11    1    4    4    0    0 -0.46581702230E-02  0.10068365046E-01 -0.15893841104E-01  0.19389322592E-01  0.51100000000E-03 0. -1.
         11    1    4    4    0    0  0.18798459986E-01  0.63152201536E-01 -0.89019932113E-01  0.11075374527E+00  0.51100000000E-03 0.  1.
</event>
<event>
 8    1  0.1137518E+005  0.1043930E+01  0.7957747E-01            NaN
         13   -1    0    0    0    0  0.00000000000E+00  0.00000000000E+00  0.74505805969E-08  0.10566000000E+00  0.10566000000E+00 0. -1.
     999900   -1    0    0    0    0 -0.00000000000E+00 -0.00000000000E+00 -0.74505805969E-08  0.93827000000E+00  0.93827000000E+00 0. -1.
     999902    2    1    2    0    0  0.19342858581E-01 -0.11729446655E-01 -0.46445326854E-02  0.10208367590E+01  0.10205755194E+01 0.  0.
     999903    2    3    3    0    0 -0.13077239112E-02  0.50356535995E-01  0.11806636454E+00  0.12991640334E+00  0.20027844655E-01 0.  0.
         14    1    1    2    0    0 -0.19342858581E-01  0.11729446655E-01  0.46445326854E-02  0.23093241020E-01  0.00000000000E+00 0. -1.
     999901    1    3    3    0    0  0.20650582492E-01 -0.62085982650E-01 -0.12271089723E+00  0.89092035564E+00  0.88000000000E+00 0. -1.
        -11    1    4    4    0    0 -0.93508741651E-02  0.23578886811E-01  0.67859638050E-01  0.72447183162E-01  0.51100000000E-03 0.  1.
         11    1    4    4    0    0  0.80431502539E-02  0.26777649184E-01  0.50206726490E-01  0.57469220176E-01  0.51100000000E-03 0. -1.
</event>
<event>
 8    1  0.1137518E+005  0.1043930E+01  0.7957747E-01            NaN
         13   -1    0    0    0    0  0.00000000000E+00  0.00000000000E+00  0.74505805969E-08  0.10566000000E+00  0.10566000000E+00 0. -1.
     999900   -1    0    0    0    0 -0.00000000000E+00 -0.00000000000E+00 -0.74505805969E-08  0.93827000000E+00  0.93827000000E+00 0. -1.
     999902    2    1    2    0    0 -0.36901588437E-02 -0.13225135801E-01 -0.18496566045E-01  0.10208942789E+01  0.10206343539E+01 0.  0.
     999903    2    3    3    0    0  0.13995931988E-02  0.11300629345E+00 -0.62609147747E-01  0.13077844425E+00  0.20266101707E-01 0.  0.
         14    1    1    2    0    0  0.36901588437E-02  0.13225135801E-01  0.18496566045E-01  0.23035721059E-01  0.00000000000E+00 0. -1.
     999901    1    3    3    0    0 -0.50897520426E-02 -0.12623142925E+00  0.44112581702E-01  0.89011583469E+00  0.88000000000E+00 0.  1.
        -11    1    4    4    0    0 -0.91212545152E-02  0.52655574174E-01 -0.26287862886E-01  0.59557700019E-01  0.51100000000E-03 0. -1.
         11    1    4    4    0    0  0.10520847714E-01  0.60350719275E-01 -0.36321284861E-01  0.71220744229E-01  0.51100000000E-03 0.  1.
</event>
<event>
 7    1  0.1137518E+005  0.1043930E+01  0.7957747E-01            NaN
         13   -1    0    0    0    0  0.00000000000E+00  0.00000000000E+00  0.74505805969E-08  0.10566000000E+00  0.10566000000E+00 0. -1.
     999900   -1    0    0    0    0 -0.00000000000E+00 -0.00000000000E+00 -0.74505805969E-08  0.93827000000E+00  0.93827000000E+00 0.  1.
     999902    2    1    2    0    0  0.98609450306E-02 -0.15758694723E-01 -0.13710481532E-01  0.10208312554E+01  0.10205698899E+01 0.  0.
         14    1    1    2    0    0 -0.98609450306E-02  0.15758694723E-01  0.13710481532E-01  0.23098744557E-01  0.00000000000E+00 0. -1.
     999901    1    3    3    0    0  0.11078786583E+00 -0.53349480872E-01  0.26246725850E-01  0.88893701067E+00  0.88000000000E+00 0. -1.
        -11    1    3    3    0    0 -0.10539973972E+00  0.24921210265E-01 -0.23830761481E-01  0.11089787269E+00  0.51100000000E-03 0.  1.
         11    1    3    3    0    0  0.44728189186E-02  0.12669575885E-01 -0.16126445902E-01  0.20996372082E-01  0.51100000000E-03 0. -1.
</event>
<event>
 8    1  0.1137518E+005  0.1043930E+01  0.7957747E-01            NaN
         13   -1    0    0    0    0  0.00000000000E+00  0.00000000000E+00  0.74505805969E-08  0.10566000000E+00  0.10566000000E+00 0.  1.
     999900   -1    0    0    0    0 -0.00000000000E+00 -0.00000000000E+00 -0.74505805969E-08  0.93827000000E+00  0.93827000000E+00 0. -1.
     999902    2    1    2    0    0  0.15667008387E-01  0.18244348698E-01  0.33966670350E-02  0.10196431979E+01  0.10193539141E+01 0.  0.
     999903    2    3    3    0    0  0.65896903406E-02 -0.29380863365E-01 -0.12389511919E+00  0.12916368806E+00  0.20654263584E-01 0.  0.
         14    1    1    2    0    0 -0.15667008387E-01 -0.18244348698E-01 -0.33966670350E-02  0.24286802139E-01  0.00000000000E+00 0.  1.
     999901    1    3    3    0    0  0.90773180465E-02  0.47625212063E-01  0.12729178623E+00  0.89047950980E+00  0.88000000000E+00 0.  1.
        -11    1    4    4    0    0  0.13909393756E-01 -0.18637834894E-01 -0.86357267159E-01  0.89435333266E-01  0.51100000000E-03 0. -1.
         11    1    4    4    0    0 -0.73197034156E-02 -0.10743028472E-01 -0.37537852031E-01  0.39728354798E-01  0.51100000000E-03 0.  1.
</event>
<event>
 8    1  0.1137518E+005  0.1043930E+01  0.7957747E-01            NaN
         13   -1    0    0    0    0  0.00000000000E+00  0.00000000000E+00  0.74505805969E-08  0.10566000000E+00  0.10566000000E+00 0. -1.
     999900   -1    0    0    0    0 -0.00000000000E+00 -0.00000000000E+00 -0.74505805969E-08  0.93827000000E+00  0.93827000000E+00 0.  1.
     999902    2    1    2    0    0 -0.49779505363E-03  0.90253939794E-02  0.21886852907E-01  0.10202500535E+01  0.10199752114E+01 0.  0.
     999903    2    3    3    0    0 -0.10909151003E+00 -0.66021546044E-01  0.19265036850E-01  0.13040090220E+00  0.19324894478E-01 0.  0.
         14    1    1    2    0    0  0.49779505363E-03 -0.90253939794E-02 -0.21886852907E-01  0.23679946507E-01  0.00000000000E+00 0. -1.
     999901    1    3    3    0    0  0.10859371498E+00  0.75046940023E-01  0.26218160565E-02  0.88984915129E+00  0.88000000000E+00 0.  1.
        -11    1    4    4    0    0 -0.73423475653E-01 -0.52133690743E-01  0.75422361287E-02  0.90366337395E-01  0.51100000000E-03 0.  1.
         11    1    4    4    0    0 -0.35668034378E-01 -0.13887855301E-01  0.11722800721E-01  0.40034564804E-01  0.51100000000E-03 0. -1.
</event>
<event>
 8    1  0.1137518E+005  0.1043930E+01  0.7957747E-01            NaN
         13   -1    0    0    0    0  0.00000000000E+00  0.00000000000E+00  0.74505805969E-08  0.10566000000E+00  0.10566000000E+00 0.  1.
     999900   -1    0    0    0    0 -0.00000000000E+00 -0.00000000000E+00 -0.74505805969E-08  0.93827000000E+00  0.93827000000E+00 0. -1.
     999902    2    1    2    0    0 -0.90739743020E-02  0.69293052569E-03  0.21431197511E-01  0.10206466714E+01  0.10203810634E+01 0.  0.
     999903    2    3    3    0    0 -0.77469232227E-01 -0.17578480229E-01 -0.10029553694E+00  0.12945132044E+00  0.19696820178E-01 0.  0.
         14    1    1    2    0    0  0.90739743020E-02 -0.69293052569E-03 -0.21431197511E-01  0.23283328565E-01  0.00000000000E+00 0. -1.
     999901    1    3    3    0    0  0.68395257925E-01  0.18271410755E-01  0.12172673445E+00  0.89119535100E+00  0.88000000000E+00 0.  1.
        -11    1    4    4    0    0 -0.64649074375E-01 -0.69752683802E-02 -0.76336257728E-01  0.10027782682E+00  0.51100000000E-03 0. -1.
         11    1    4    4    0    0 -0.12820157852E-01 -0.10603211849E-01 -0.23959279208E-01  0.29173493620E-01  0.51100000000E-03 0.  1.
</event>
<event>
 8    1  0.1137518E+005  0.1043930E+01  0.7957747E-01            NaN
         13   -1    0    0    0    0  0.00000000000E+00  0.00000000000E+00  0.74505805969E-08  0.10566000000E+00  0.10566000000E+00 0.  1.
     999900   -1    0    0    0    0 -0.00000000000E+00 -0.00000000000E+00 -0.74505805969E-08  0.93827000000E+00  0.93827000000E+00 0.  1.
     999902    2    1    2    0    0 -0.28419317342E-02 -0.21929586810E-01 -0.88440978264E-02  0.10201140092E+01  0.10198359624E+01 0.  0.
     999903    2    3    3    0    0 -0.56859867647E-02  0.12389398155E+00  0.21858892913E-01  0.12758094233E+00  0.20421472398E-01 0.  0.
         14    1    1    2    0    0  0.28419317342E-02  0.21929586810E-01  0.88440978264E-02  0.23815990847E-01  0.00000000000E+00 0. -1.
     999901    1    3    3    0    0  0.28440550304E-02 -0.14582356836E+00 -0.30702990740E-01  0.89253306683E+00  0.88000000000E+00 0.  1.
        -11    1    4    4    0    0  0.44298961253E-02  0.94481573028E-01  0.16387256846E-01  0.95995806832E-01  0.51100000000E-03 0. -1.
         11    1    4    4    0    0 -0.10115882890E-01  0.29412408525E-01  0.54716360676E-02  0.31585135494E-01  0.51100000000E-03 0.  1.
</event>
<event>
 8    1  0.1137518E+005  0.1043930E+01  0.7957747E-01            NaN
         13   -1    0    0    0    0  0.00000000000E+00  0.00000000000E+00  0.74505805969E-08  0.10566000000E+00  0.10566000000E+00 0.  1.
     999900   -1    0    0    0    0 -0.00000000000E+00 -0.00000000000E+00 -0.74505805969E-08  0.93827000000E+00  0.93827000000E+00 0. -1.
     999902    2    1    2    0    0  0.16038696653E-01  0.15384874019E-01  0.10453640737E-01  0.10193696103E+01  0.10190736919E+01 0.  0.
     999903    2    3    3    0    0  0.11883346275E+00 -0.18384378807E-01  0.51260927570E-01  0.13180419802E+00  0.16890431234E-01 0.  0.
         14    1    1    2    0    0 -0.16038696653E-01 -0.15384874019E-01 -0.10453640737E-01  0.24560389728E-01  0.00000000000E+00 0. -1.
     999901    1    3    3    0    0 -0.10279476609E+00  0.33769252827E-01 -0.40807286832E-01  0.88756541225E+00  0.88000000000E+00 0. -1.
        -11    1    4    4    0    0  0.56289225527E-01 -0.44650698698E-02  0.31952985913E-01  0.64881955806E-01  0.51100000000E-03 0. -1.
         11    1    4    4    0    0  0.62544237219E-01 -0.13919308937E-01  0.19307941656E-01  0.66922242212E-01  0.51100000000E-03 0.  1.
</event>
<event>
 8    1  0.1137518E+005  0.1043930E+01  0.7957747E-01            NaN
         13   -1    0    0    0    0  0.00000000000E+00  0.00000000000E+00  0.74505805969E-08  0.10566000000E+00  0.10566000000E+00 0. -1.
     999900   -1    0    0    0    0 -0.00000000000E+00 -0.00000000000E+00 -0.74505805969E-08  0.93827000000E+00  0.93827000000E+00 0.  1.
     999902    2    1    2    0    0  0.22593202542E-01 -0.62922404664E-02 -0.55474188806E-02  0.10198298144E+01  0.10195450119E+01 0.  0.
     999903    2    3    3    0    0 -0.10609438891E+00 -0.51733472035E-01 -0.46754966428E-01  0.12835717671E+00  0.18898847587E-01 0.  0.
         14    1    1    2    0    0 -0.22593202542E-01  0.62922404664E-02  0.55474188806E-02  0.24100185630E-01  0.00000000000E+00 0. -1.
     999901    1    3    3    0    0  0.12868759145E+00  0.45441231569E-01  0.41207547548E-01  0.89147263766E+00  0.88000000000E+00 0. -1.
        -11    1    4    4    0    0 -0.69493940296E-01 -0.40560133589E-01 -0.24632516505E-01  0.84151970654E-01  0.51100000000E-03 0.  1.
         11    1    4    4    0    0 -0.36600448615E-01 -0.11173338446E-01 -0.22122449923E-01  0.44205206056E-01  0.51100000000E-03 0. -1.
</event>
<event>
 8    1  0.1137518E+005  0.1043930E+01  0.7957747E-01            NaN
         13   -1    0    0    0    0  0.00000000000E+00  0.00000000000E+00  0.74505805969E-08  0.10566000000E+00  0.10566000000E+00 0.  1.
     999900   -1    0    0    0    0 -0.00000000000E+00 -0.00000000000E+00 -0.74505805969E-08  0.93827000000E+00  0.93827000000E+00 0.  1.
     999902    2    1    2    0    0 -0.19166733378E-01  0.94902626377E-02  0.12940643169E-01  0.10189322201E+01  0.10186255348E+01 0.  0.
     999903    2    3    3    0    0 -0.27447368580E-02 -0.67603753061E-01  0.10979500424E+00  0.13011618939E+00  0.17247573067E-01 0.  0.
         14    1    1    2    0    0  0.19166733378E-01 -0.94902626377E-02 -0.12940643169E-01  0.24997779881E-01  0.00000000000E+00 0. -1.
     999901    1    3    3    0    0 -0.16421996520E-01  0.77094015698E-01 -0.96854361070E-01  0.88881603073E+00  0.88000000000E+00 0.  1.
        -11    1    4    4    0    0  0.10578538228E-04 -0.52662806459E-01  0.70622481661E-01  0.88097487666E-01  0.51100000000E-03 0. -1.
         11    1    4    4    0    0 -0.27553153962E-02 -0.14940946601E-01  0.39172522579E-01  0.42018701723E-01  0.51100000000E-03 0.  1.
</event>
<event>
 8    1  0.1137518E+005  0.1043930E+01  0.7957747E-01            NaN
         13   -1    0    0    0    0  0.00000000000E+00  0.00000000000E+00  0.74505805969E-08  0.10566000000E+00  0.10566000000E+00 0.  1.
     999900   -1    0    0    0    0 -0.00000000000E+00 -0.00000000000E+00 -0.74505805969E-08  0.93827000000E+00  0.93827000000E+00 0.  1.
     999902    2    1    2    0    0 -0.11546830289E-01  0.20977878156E-01 -0.11754211160E-02  0.10199553827E+01  0.10196735754E+01 0.  0.
     999903    2    3    3    0    0 -0.12034956412E+00 -0.32031032252E-01 -0.35031466817E-01  0.13102669525E+00  0.20755399073E-01 0.  0.
         14    1    1    2    0    0  0.11546830289E-01 -0.20977878156E-01  0.11754211160E-02  0.23974617337E-01  0.00000000000E+00 0. -1.
     999901    1    3    3    0    0  0.10880273383E+00  0.53008910408E-01  0.33856045701E-01  0.88892868741E+00  0.88000000000E+00 0.  1.
        -11    1    4    4    0    0 -0.20121803682E-01  0.21346588455E-03 -0.11348118535E-01  0.23107865899E-01  0.51100000000E-03 0. -1.
         11    1    4    4    0    0 -0.10022776044E+00 -0.32244498136E-01 -0.23683348282E-01  0.10791882935E+00  0.51100000000E-03 0.  1.
</event>
<event>
 8    1  0.1137518E+005  0.1043930E+01  0.7957747E-01            NaN
         13   -1    0    0    0    0  0.00000000000E+00  0.00000000000E+00  0.74505805969E-08  0.10566000000E+00  0.10566000000E+00 0. -1.
     999900   -1    0    0    0    0 -0.00000000000E+00 -0.00000000000E+00 -0.74505805969E-08  0.93827000000E+00  0.93827000000E+00 0. -1.
     999902    2    1    2    0    0  0.27932068239E-02 -0.15204447460E-01  0.18489484483E-01  0.10198294136E+01  0.10195446016E+01 0.  0.
     999903    2    3    3    0    0 -0.36952898097E-01 -0.12733476594E-01 -0.12060373756E+00  0.12801509273E+00  0.17746671451E-01 0.  0.
         14    1    1    2    0    0 -0.27932068239E-02  0.15204447460E-01 -0.18489484483E-01  0.24100586369E-01  0.00000000000E+00 0.  1.
     999901    1    3    3    0    0  0.39746104921E-01 -0.24709708655E-02  0.13909322204E+00  0.89181432091E+00  0.88000000000E+00 0.  1.
        -11    1    4    4    0    0 -0.16587884899E-01 -0.14589279857E-01 -0.71000868020E-01  0.74359864126E-01  0.51100000000E-03 0.  1.
         11    1    4    4    0    0 -0.20365013197E-01  0.18558032625E-02 -0.49602869542E-01  0.53655228599E-01  0.51100000000E-03 0. -1.
</event>
<event>
 8    1  0.1137518E+005  0.1043930E+01  0.7957747E-01            NaN
         13   -1    0    0    0    0  0.00000000000E+00  0.00000000000E+00  0.74505805969E-08  0.10566000000E+00  0.10566000000E+00 0.  1.
     999900   -1    0    0    0    0 -0.00000000000E+00 -0.00000000000E+00 -0.74505805969E-08  0.93827000000E+00  0.93827000000E+00 0.  1.
     999902    2    1    2    0    0  0.18852989849E-01  0.14385676643E-01  0.27640157754E-04  0.10202153699E+01  0.10199397125E+01 0.  0.
     999903    2    3    3    0    0 -0.47744966694E-01 -0.65779342518E-01  0.96441378843E-01  0.12883591804E+00  0.26291642746E-01 0.  0.
         14    1    1    2    0    0 -0.18852989849E-01 -0.14385676643E-01 -0.27640157754E-04  0.23714630140E-01  0.00000000000E+00 0. -1.
     999901    1    3    3    0    0  0.66597956543E-01  0.80165019161E-01 -0.96413738685E-01  0.89137945182E+00  0.88000000000E+00 0.  1.
        -11    1    4    4    0    0 -0.32970482814E-01 -0.50670646043E-01  0.86357943729E-01  0.10541595075E+00  0.51100000000E-03 0. -1.
         11    1    4    4    0    0 -0.14774483880E-01 -0.15108696475E-01  0.10083435113E-01  0.23419967289E-01  0.51100000000E-03 0.  1.
</event>
<event>
 8    1  0.1137518E+005  0.1043930E+01  0.7957747E-01            NaN
         13   -1    0    0    0    0  0.00000000000E+00  0.00000000000E+00  0.74505805969E-08  0.10566000000E+00  0.10566000000E+00 0. -1.
     999900   -1    0    0    0    0 -0.00000000000E+00 -0.00000000000E+00 -0.74505805969E-08  0.93827000000E+00  0.93827000000E+00 0.  1.
     999902    2    1    2    0    0 -0.18047890259E-01 -0.11031760846E-01  0.99507341308E-02  0.10205538754E+01  0.10202861214E+01 0.  0.
     999903    2    3    3    0    0 -0.92294108057E-01 -0.62775665688E-01  0.71434693000E-01  0.13377870114E+00  0.18298604564E-01 0.  0.
         14    1    1    2    0    0  0.18047890259E-01  0.11031760846E-01 -0.99507341308E-02  0.23376124570E-01  0.00000000000E+00 0.  1.
     999901    1    3    3    0    0  0.74246217798E-01  0.51743904841E-01 -0.61483958870E-01  0.88677517429E+00  0.88000000000E+00 0.  1.
        -11    1    4    4    0    0 -0.45032767216E-01 -0.21913392201E-01  0.38351977645E-01  0.63081551908E-01  0.51100000000E-03 0.  1.
         11    1    4    4    0    0 -0.47261340841E-01 -0.40862273487E-01  0.33082715355E-01  0.70697149228E-01  0.51100000000E-03 0. -1.
</event>
<event>
 8    1  0.1284150E+005  0.1043930E+01  0.7957747E-01            NaN
         13   -1    0    0    0    0  0.00000000000E+00  0.00000000000E+00  0.74505805969E-08  0.10566000000E+00  0.10566000000E+00 0. -1.
     999900   -1    0    0    0    0 -0.00000000000E+00 -0.00000000000E+00 -0.74505805969E-08  0.93827000000E+00  0.93827000000E+00 0.  1.
     999902    2    1    2    0    0  0.94343420334E-02  0.17722637263E-01 -0.12459173739E-01  0.10203009989E+01  0.10200273520E+01 0.  0.
     999903    2    3    3    0    0  0.52962675588E-01  0.62224425460E-02 -0.12040795888E+00  0.13256234904E+00  0.15196579337E-01 0.  0.
         14    1    1    2    0    0 -0.94343420334E-02 -0.17722637263E-01  0.12459173739E-01  0.23629001067E-01  0.00000000000E+00 0. -1.
     999901    1    3    3    0    0 -0.43528333555E-01  0.11500194717E-01  0.10794878515E+00  0.88773864989E+00  0.88000000000E+00 0. -1.
        -11    1    4    4    0    0  0.23123062371E-01  0.90032565887E-02 -0.44542090821E-01  0.50990132559E-01  0.51100000000E-03 0. -1.
         11    1    4    4    0    0  0.29839613217E-01 -0.27808140427E-02 -0.75865868063E-01  0.81572216481E-01  0.51100000000E-03 0.  1.
</event>
<event>
 8    1  0.1137518E+005  0.1043930E+01  0.7957747E-01            NaN
         13   -1    0    0    0    0  0.00000000000E+00  0.00000000000E+00  0.74505805969E-08  0.10566000000E+00  0.10566000000E+00 0. -1.
     999900   -1    0    0    0    0 -0.00000000000E+00 -0.00000000000E+00 -0.74505805969E-08  0.93827000000E+00  0.93827000000E+00 0. -1.
     999902    2    1    2    0    0 -0.21231242476E-01  0.88131311087E-02 -0.38370269063E-02  0.10206242129E+01  0.10203580863E+01 0.  0.
     999903    2    3    3    0    0 -0.11370267002E+00  0.67547021066E-01  0.55264676050E-02  0.13378245149E+00  0.19398589063E-01 0.  0.
         14    1    1    2    0    0  0.21231242476E-01 -0.88131311087E-02  0.38370269063E-02  0.23305787103E-01  0.00000000000E+00 0.  1.
     999901    1    3    3    0    0  0.92471427547E-01 -0.58733889957E-01 -0.93634945112E-02  0.88684176140E+00  0.88000000000E+00 0.  1.
        -11    1    4    4    0    0 -0.12256727637E-01  0.14020974937E-01 -0.25140762749E-02  0.18798851323E-01  0.51100000000E-03 0.  1.
         11    1    4    4    0    0 -0.10144594239E+00  0.53526046129E-01  0.80405438799E-02  0.11498360017E+00  0.51100000000E-03 0. -1.
</event>
<event>
 8    1  0.1137518E+005  0.1043930E+01  0.7957747E-01            NaN
         13   -1    0    0    0    0  0.00000000000E+00  0.00000000000E+00  0.74505805969E-08  0.10566000000E+00  0.10566000000E+00 0.  1.
     999900   -1    0    0    0    0 -0.00000000000E+00 -0.00000000000E+00 -0.74505805969E-08  0.93827000000E+00  0.93827000000E+00 0. -1.
     999902    2    1    2    0    0  0.24145105372E-02  0.18843248053E-03 -0.22620178132E-01  0.10211805423E+01  0.10209271091E+01 0.  0.
     999903    2    3    3    0    0 -0.11454093805E+00 -0.56904162496E-01 -0.23929306278E-01  0.13160769244E+00  0.19755070490E-01 0.  0.
         14    1    1    2    0    0 -0.24145105372E-02 -0.18843248053E-03  0.22620178132E-01  0.22749457723E-01  0.00000000000E+00 0.  1.
     999901    1    3    3    0    0  0.11695544859E+00  0.57092594977E-01  0.13091281453E-02  0.88957284984E+00  0.88000000000E+00 0. -1.
        -11    1    4    4    0    0 -0.94196264099E-01 -0.54735016255E-01 -0.20418713040E-01  0.11084242481E+00  0.51100000000E-03 0.  1.
         11    1    4    4    0    0 -0.20344673955E-01 -0.21691462419E-02 -0.35105932376E-02  0.20765267627E-01  0.51100000000E-03 0. -1.
</event>
<event>
 8    1  0.1137518E+005  0.1043930E+01  0.7957747E-01            NaN
         13   -1    0    0    0    0  0.00000000000E+00  0.00000000000E+00  0.74505805969E-08  0.10566000000E+00  0.10566000000E+00 0.  1.
     999900   -1    0    0    0    0 -0.00000000000E+00 -0.00000000000E+00 -0.74505805969E-08  0.93827000000E+00  0.93827000000E+00 0. -1.
     999902    2    1    2    0    0 -0.11488909668E-01 -0.66360080552E-02  0.20076610387E-01  0.10198654632E+01  0.10195815127E+01 0.  0.
     999903    2    3    3    0    0 -0.53336281899E-01 -0.52961248390E-02 -0.11565698651E+00  0.12847519669E+00  0.16016545491E-01 0.  0.
         14    1    1    2    0    0  0.11488909668E-01  0.66360080552E-02 -0.20076610387E-01  0.24064536831E-01  0.00000000000E+00 0. -1.
     999901    1    3    3    0    0  0.41847372231E-01 -0.13398832163E-02  0.13573359690E+00  0.89139026648E+00  0.88000000000E+00 0.  1.
        -11    1    4    4    0    0 -0.33634043714E-01  0.42998207997E-02 -0.74098062980E-01  0.81489394487E-01  0.51100000000E-03 0. -1.
         11    1    4    4    0    0 -0.19702238184E-01 -0.95959456386E-02 -0.41558923534E-01  0.46985802201E-01  0.51100000000E-03 0.  1.
</event>
<event>
 8    1  0.1137518E+005  0.1043930E+01  0.7957747E-01            NaN
         13   -1    0    0    0    0  0.00000000000E+00  0.00000000000E+00  0.74505805969E-08  0.10566000000E+00  0.10566000000E+00 0.  1.
     999900   -1    0    0    0    0 -0.00000000000E+00 -0.00000000000E+00 -0.74505805969E-08  0.93827000000E+00  0.93827000000E+00 0.  1.
     999902    2    1    2    0    0 -0.19526408012E-01  0.11657335116E-01  0.71429911446E-02  0.10200931295E+01  0.10198145893E+01 0.  0.
     999903    2    3    3    0    0  0.11595659492E+00  0.32922519584E-01  0.40944352884E-01  0.12882976541E+00  0.19769780470E-01 0.  0.
         14    1    1    2    0    0  0.19526408012E-01 -0.11657335116E-01 -0.71429911446E-02  0.23836870482E-01  0.00000000000E+00 0.  1.
     999901    1    3    3    0    0 -0.13548300293E+00 -0.21265184468E-01 -0.33801361739E-01  0.89126336411E+00  0.88000000000E+00 0.  1.
        -11    1    4    4    0    0  0.68815215974E-01  0.11866132507E-01  0.30240405048E-01  0.76099160762E-01  0.51100000000E-03 0. -1.
         11    1    4    4    0    0  0.47141378947E-01  0.21056387077E-01  0.10703947836E-01  0.52730604643E-01  0.51100000000E-03 0.  1.
</event>
<event>
 8    1  0.1137518E+005  0.1043930E+01  0.7957747E-01            NaN
         13   -1    0    0    0    0  0.00000000000E+00  0.00000000000E+00  0.74505805969E-08  0.10566000000E+00  0.10566000000E+00 0. -1.
     999900   -1    0    0    0    0 -0.00000000000E+00 -0.00000000000E+00 -0.74505805969E-08  0.93827000000E+00  0.93827000000E+00 0.  1.
     999902    2    1    2    0    0 -0.71588345799E-03  0.17113569841E-01  0.16638559403E-01  0.10200505440E+01  0.10197709958E+01 0.  0.
     999903    2    3    3    0    0  0.41249230075E-01 -0.44004935021E-01  0.11508594767E+00  0.13146265824E+00  0.19993045619E-01 0.  0.
         14    1    1    2    0    0  0.71588345799E-03 -0.17113569841E-01 -0.16638559403E-01  0.23879456042E-01  0.00000000000E+00 0.  1.
     999901    1    3    3    0    0 -0.41965113533E-01  0.61118504862E-01 -0.98447388263E-01  0.88858788572E+00  0.88000000000E+00 0.  1.
        -11    1    4    4    0    0  0.13809161309E-01 -0.25290371506E-01  0.39467180559E-01  0.48869369642E-01  0.51100000000E-03 0. -1.
         11    1    4    4    0    0  0.27440068766E-01 -0.18714563516E-01  0.75618767108E-01  0.82593288597E-01  0.51100000000E-03 0.  1.
</event>
<event>
 8    1  0.1137518E+005  0.1043930E+01  0.7957747E-01            NaN
         13   -1    0    0    0    0  0.00000000000E+00  0.00000000000E+00  0.74505805969E-08  0.10566000000E+00  0.10566000000E+00 0. -1.
     999900   -1    0    0    0    0 -0.00000000000E+00 -0.00000000000E+00 -0.74505805969E-08  0.93827000000E+00  0.93827000000E+00 0.  1.
     999902    2    1    2    0    0 -0.13088755389E-01  0.13940766276E-01 -0.14621609546E-01  0.10198581918E+01  0.10195740677E+01 0.  0.
     999903    2    3    3    0    0 -0.10369122599E+00  0.57335173118E-01 -0.56870240789E-01  0.13313567095E+00  0.21253003768E-01 0.  0.
         14    1    1    2    0    0  0.13088755389E-01 -0.13940766276E-01  0.14621609546E-01  0.24071808153E-01  0.00000000000E+00 0. -1.
     999901    1    3    3    0    0  0.90602470597E-01 -0.43394406842E-01  0.42248631242E-01  0.88672252090E+00  0.88000000000E+00 0. -1.
        -11    1    4    4    0    0 -0.58538394984E-01  0.44143418609E-01 -0.35703229628E-01  0.81549781242E-01  0.51100000000E-03 0. -1.
         11    1    4    4    0    0 -0.45152831003E-01  0.13191754509E-01 -0.21167011161E-01  0.51585889709E-01  0.51100000000E-03 0.  1.
</event>
<event>
 8    1  0.1137518E+005  0.1043930E+01  0.7957747E-01            NaN
         13   -1    0    0    0    0  0.00000000000E+00  0.00000000000E+00  0.74505805969E-08  0.10566000000E+00  0.10566000000E+00 0.  1.
     999900   -1    0    0    0    0 -0.00000000000E+00 -0.00000000000E+00 -0.74505805969E-08  0.93827000000E+00  0.93827000000E+00 0. -1.
     999902    2    1    2    0    0 -0.21197852754E-01  0.18591281035E-02  0.73239251007E-02  0.10214256627E+01  0.10211777217E+01 0.  0.
     999903    2    3    3    0    0  0.11991581324E+00 -0.42329034101E-01  0.13929987739E-01  0.12906402049E+00  0.17085884103E-01 0.  0.
         14    1    1    2    0    0  0.21197852754E-01 -0.18591281035E-02 -0.73239251007E-02  0.22504337306E-01  0.00000000000E+00 0.  1.
     999901    1    3    3    0    0 -0.14111366599E+00  0.44188162205E-01 -0.66060626388E-02  0.89236164220E+00  0.88000000000E+00 0. -1.
        -11    1    4    4    0    0  0.20442118049E-01 -0.32482853976E-02  0.74024766367E-02  0.21988390794E-01  0.51100000000E-03 0.  1.
         11    1    4    4    0    0  0.99473695186E-01 -0.39080748704E-01  0.65275111028E-02  0.10707562970E+00  0.51100000000E-03 0. -1.
</event>
<event>
 8    1  0.1137518E+005  0.1043930E+01  0.7957747E-01            NaN
         13   -1    0    0    0    0  0.00000000000E+00  0.00000000000E+00  0.74505805969E-08  0.10566000000E+00  0.10566000000E+00 0.  1.
     999900   -1    0    0    0    0 -0.00000000000E+00 -0.00000000000E+00 -0.74505805969E-08  0.93827000000E+00  0.93827000000E+00 0. -1.
     999902    2    1    2    0    0  0.22613576181E-01  0.35678140832E-02  0.14740893865E-02  0.10209892924E+01  0.10207315314E+01 0.  0.
     999903    2    3    3    0    0 -0.15636983022E-01 -0.66165896242E-01 -0.10971311096E+00  0.13043413457E+00  0.18805735358E-01 0.  0.
         14    1    1    2    0    0 -0.22613576181E-01 -0.35678140832E-02 -0.14740893865E-02  0.22940707586E-01  0.00000000000E+00 0. -1.
     999901    1    3    3    0    0  0.38250559203E-01  0.69733710326E-01  0.11118720034E+00  0.89055515784E+00  0.88000000000E+00 0.  1.
        -11    1    4    4    0    0 -0.16869794105E-02 -0.52883415019E-02 -0.19989070124E-02  0.59219258368E-02  0.51100000000E-03 0.  1.
         11    1    4    4    0    0 -0.13950003612E-01 -0.60877554740E-01 -0.10771420395E+00  0.12451220874E+00  0.51100000000E-03 0. -1.
</event>
<event>
 8    1  0.1137518E+005  0.1043930E+01  0.7957747E-01            NaN
         13   -1    0    0    0    0  0.00000000000E+00  0.00000000000E+00  0.74505805969E-08  0.10566000000E+00  0.10566000000E+00 0. -1.
     999900   -1    0    0    0    0 -0.00000000000E+00 -0.00000000000E+00 -0.74505805969E-08  0.93827000000E+00  0.93827000000E+00 0.  1.
     999902    2    1    2    0    0 -0.15841346113E-01  0.16849099298E-01 -0.18865648323E-02  0.10207265623E+01  0.10204627948E+01 0.  0.
     999903    2    3    3    0    0 -0.12924891479E+00  0.21130092147E-01 -0.14551074563E-01  0.13334840541E+00  0.20452400492E-01 0.  0.
         14    1    1    2    0    0  0.15841346113E-01 -0.16849099298E-01  0.18865648323E-02  0.23203437691E-01  0.00000000000E+00 0. -1.
     999901    1    3    3    0    0  0.11340756868E+00 -0.42809928496E-02  0.12664509731E-01  0.88737815690E+00  0.88000000000E+00 0. -1.
        -11    1    4    4    0    0 -0.65241309753E-01  0.20314024249E-01 -0.11213592575E-01  0.69246616227E-01  0.51100000000E-03 0. -1.
         11    1    4    4    0    0 -0.64007605038E-01  0.81606789826E-03 -0.33374819877E-02  0.64101789184E-01  0.51100000000E-03 0.  1.
</event>
<event>
 8    1  0.1137518E+005  0.1043930E+01  0.7957747E-01            NaN
         13   -1    0    0    0    0  0.00000000000E+00  0.00000000000E+00  0.74505805969E-08  0.10566000000E+00  0.10566000000E+00 0.  1.
     999900   -1    0    0    0    0 -0.00000000000E+00 -0.00000000000E+00 -0.74505805969E-08  0.93827000000E+00  0.93827000000E+00 0.  1.
     999902    2    1    2    0    0  0.52124346290E-02 -0.20190716752E-02  0.22777168455E-01  0.10204769506E+01  0.10202074108E+01 0.  0.
     999903    2    3    3    0    0  0.21358665815E-01  0.11726992759E+00  0.52584323885E-01  0.13178182137E+00  0.19821927376E-01 0.  0.
         14    1    1    2    0    0 -0.52124346290E-02  0.20190716752E-02 -0.22777168455E-01  0.23453049439E-01  0.00000000000E+00 0. -1.
     999901    1    3    3    0    0 -0.16146231186E-01 -0.11928899926E+00 -0.29807155430E-01  0.88869512919E+00  0.88000000000E+00 0.  1.
        -11    1    4    4    0    0  0.51381399588E-02  0.41004702121E-01  0.28395409493E-01  0.50143259563E-01  0.51100000000E-03 0. -1.
         11    1    4    4    0    0  0.16220525856E-01  0.76265225464E-01  0.24188914392E-01  0.81638561811E-01  0.51100000000E-03 0.  1.
</event>
<event>
 8    1  0.1137518E+005  0.1043930E+01  0.7957747E-01            NaN
         13   -1    0    0    0    0  0.00000000000E+00  0.00000000000E+00  0.74505805969E-08  0.10566000000E+00  0.10566000000E+00 0. -1.
     999900   -1    0    0    0    0 -0.00000000000E+00 -0.00000000000E+00 -0.74505805969E-08  0.93827000000E+00  0.93827000000E+00 0. -1.
     999902    2    1    2    0    0  0.55021389074E-02 -0.19705340725E-01 -0.55744757106E-02  0.10227250769E+01  0.10225052245E+01 0.  0.
     999903    2    3    3    0    0  0.63660694857E-01  0.10726378674E+00  0.34027849570E-01  0.13083275089E+00  0.20027734380E-01 0.  0.
         14    1    1    2    0    0 -0.55021389074E-02  0.19705340725E-01  0.55744757106E-02  0.21204923134E-01  0.00000000000E+00 0.  1.
     999901    1    3    3    0    0 -0.58158555949E-01 -0.12696912747E+00 -0.39602325281E-01  0.89189232597E+00  0.88000000000E+00 0. -1.
        -11    1    4    4    0    0  0.39488258176E-01  0.81838934774E-01  0.29026988940E-01  0.95392667362E-01  0.51100000000E-03 0. -1.
         11    1    4    4    0    0  0.24172436681E-01  0.25424851968E-01  0.50008606304E-02  0.35440083532E-01  0.51100000000E-03 0.  1.
</event>
<event>
 8    1  0.1137518E+005  0.1043930E+01  0.7957747E-01            NaN
         13   -1    0    0    0    0  0.00000000000E+00  0.00000000000E+00  0.74505805969E-08  0.10566000000E+00  0.10566000000E+00 0. -1.
     999900   -1    0    0    0    0 -0.00000000000E+00 -0.00000000000E+00 -0.74505805969E-08  0.93827000000E+00  0.93827000000E+00 0.  1.
     999902    2    1    2    0    0 -0.92553967479E-02 -0.12216097593E-01 -0.13749868170E-01  0.10233398498E+01  0.10231326864E+01 0.  0.
     999903    2    3    3    0    0 -0.86467846455E-01  0.96638124439E-01 -0.23278755337E-01  0.13322648417E+00  0.19793434954E-01 0.  0.
         14    1    1    2    0    0  0.92553967479E-02  0.12216097593E-01  0.13749868170E-01  0.20590150170E-01  0.00000000000E+00 0. -1.
     999901    1    3    3    0    0  0.77212449707E-01 -0.10885422203E+00  0.95288871671E-02  0.89011336566E+00  0.88000000000E+00 0. -1.
        -11    1    4    4    0    0 -0.45628419565E-01  0.65454916208E-01 -0.14015758786E-01  0.81012353028E-01  0.51100000000E-03 0.  1.
         11    1    4    4    0    0 -0.40839426890E-01  0.31183208231E-01 -0.92629965506E-02  0.52214131137E-01  0.51100000000E-03 0. -1.
</event>
<event>
 8    1  0.1137518E+005  0.1043930E+01  0.7957747E-01            NaN
         13   -1    0    0    0    0  0.00000000000E+00  0.00000000000E+00  0.74505805969E-08  0.10566000000E+00  0.10566000000E+00 0.  1.
     999900   -1    0    0    0    0 -0.00000000000E+00 -0.00000000000E+00 -0.74505805969E-08  0.93827000000E+00  0.93827000000E+00 0. -1.
     999902    2    1    2    0    0 -0.23806831635E-01  0.27962420337E-02 -0.53152391215E-03  0.10199536216E+01  0.10196717725E+01 0.  0.
     999903    2    3    3    0    0  0.77191097709E-01  0.99585104159E-01  0.16852520672E-01  0.12873486590E+00  0.20322394275E-01 0.  0.
         14    1    1    2    0    0  0.23806831635E-01 -0.27962420337E-02  0.53152391215E-03  0.23976378369E-01  0.00000000000E+00 0.  1.
     999901    1    3    3    0    0 -0.10099792934E+00 -0.96788862125E-01 -0.17384044585E-01  0.89121875573E+00  0.88000000000E+00 0. -1.
        -11    1    4    4    0    0  0.65752580801E-01  0.90339515077E-01  0.91122000591E-02  0.11210674903E+00  0.51100000000E-03 0. -1.
         11    1    4    4    0    0  0.11438516908E-01  0.92455890823E-02  0.77403206133E-02  0.16628116873E-01  0.51100000000E-03 0.  1.
</event>
<event>
 8    1  0.1137518E+005  0.1043930E+01  0.7957747E-01            NaN
         13   -1    0    0    0    0  0.00000000000E+00  0.00000000000E+00  0.74505805969E-08  0.10566000000E+00  0.10566000000E+00 0. -1.
     999900   -1    0    0    0    0 -0.00000000000E+00 -0.00000000000E+00 -0.74505805969E-08  0.93827000000E+00  0.93827000000E+00 0.  1.
     999902    2    1    2    0    0  0.73265865291E-02 -0.10746154599E-01  0.19565962115E-01  0.10204356266E+01  0.10201651251E+01 0.  0.
     999903    2    3    3    0    0 -0.27559692549E-01 -0.91811940577E-01  0.90262980974E-01  0.13320015468E+00  0.20147118573E-01 0.  0.
         14    1    1    2    0    0 -0.73265865291E-02  0.10746154599E-01 -0.19565962115E-01  0.23494373418E-01  0.00000000000E+00 0.  1.
     999901    1    3    3    0    0  0.34886279078E-01  0.81065785977E-01 -0.70697018859E-01  0.88723547190E+00  0.88000000000E+00 0.  1.
        -11    1    4    4    0    0 -0.26545971188E-01 -0.68577518324E-01  0.59277456498E-01  0.94454447093E-01  0.51100000000E-03 0.  1.
         11    1    4    4    0    0 -0.10137213610E-02 -0.23234422253E-01  0.30985524476E-01  0.38745707587E-01  0.51100000000E-03 0. -1.
</event>
<event>
 8    1  0.1137518E+005  0.1043930E+01  0.7957747E-01            NaN
         13   -1    0    0    0    0  0.00000000000E+00  0.00000000000E+00  0.74505805969E-08  0.10566000000E+00  0.10566000000E+00 0. -1.
     999900   -1    0    0    0    0 -0.00000000000E+00 -0.00000000000E+00 -0.74505805969E-08  0.93827000000E+00  0.93827000000E+00 0. -1.
     999902    2    1    2    0    0 -0.74352194935E-02 -0.63174106810E-03  0.22628447001E-01  0.10201029524E+01  0.10198246443E+01 0.  0.
     999903    2    3    3    0    0 -0.12622809120E+00  0.23924359072E-01 -0.15540378084E-01  0.13096201436E+00  0.20090791131E-01 0.  0.
         14    1    1    2    0    0  0.74352194935E-02  0.63174106810E-03 -0.22628447001E-01  0.23827047643E-01  0.00000000000E+00 0.  1.
     999901    1    3    3    0    0  0.11879287171E+00 -0.24556100140E-01  0.38168825085E-01  0.88914093800E+00  0.88000000000E+00 0. -1.
        -11    1    4    4    0    0 -0.11346802995E+00  0.17278233902E-01 -0.89398502763E-02  0.11512477245E+00  0.51100000000E-03 0.  1.
         11    1    4    4    0    0 -0.12760061249E-01  0.66461251699E-02 -0.66005278078E-02  0.15837241906E-01  0.51100000000E-03 0. -1.
</event>
<event>
 8    1  0.1137518E+005  0.1043930E+01  0.7957747E-01            NaN
         13   -1    0    0    0    0  0.00000000000E+00  0.00000000000E+00  0.74505805969E-08  0.10566000000E+00  0.10566000000E+00 0. -1.
     999900   -1    0    0    0    0 -0.00000000000E+00 -0.00000000000E+00 -0.74505805969E-08  0.93827000000E+00  0.93827000000E+00 0.  1.
     999902    2    1    2    0    0  0.10099204602E-01  0.18343184585E-01 -0.10813011496E-01  0.10203633377E+01  0.10200911495E+01 0.  0.
     999903    2    3    3    0    0 -0.20976105712E-01  0.12148961745E+00  0.43257004882E-01  0.13214690676E+00  0.19796775871E-01 0.  0.
         14    1    1    2    0    0 -0.10099204602E-01 -0.18343184585E-01  0.10813011496E-01  0.23566662300E-01  0.00000000000E+00 0.  1.
     999901    1    3    3    0    0  0.31075310315E-01 -0.10314643287E+00 -0.54070016378E-01  0.88821643094E+00  0.88000000000E+00 0. -1.
        -11    1    4    4    0    0 -0.10084224231E-01  0.46809767749E-01  0.69219784652E-02  0.48384096994E-01  0.51100000000E-03 0.  1.
         11    1    4    4    0    0 -0.10891881481E-01  0.74679849703E-01  0.36335026417E-01  0.83762809765E-01  0.51100000000E-03 0. -1.
</event>
<event>
 8    1  0.1137518E+005  0.1043930E+01  0.7957747E-01            NaN
         13   -1    0    0    0    0  0.00000000000E+00  0.00000000000E+00  0.74505805969E-08  0.10566000000E+00  0.10566000000E+00 0. -1.
     999900   -1    0    0    0    0 -0.00000000000E+00 -0.00000000000E+00 -0.74505805969E-08  0.93827000000E+00  0.93827000000E+00 0.  1.
     999902    2    1    2    0    0 -0.42816228374E-02 -0.89214912094E-02 -0.19710394354E-01  0.10218749565E+01  0.10216369226E+01 0.  0.
     999903    2    3    3    0    0  0.10595251259E+00  0.25102828139E-01  0.68202891606E-01  0.13000166683E+00  0.19816963701E-01 0.  0.
         14    1    1    2    0    0  0.42816228374E-02  0.89214912094E-02  0.19710394354E-01  0.22055043530E-01  0.00000000000E+00 0. -1.
     999901    1    3    3    0    0 -0.11023413543E+00 -0.34024319348E-01 -0.87913285960E-01  0.89187328964E+00  0.88000000000E+00 0.  1.
        -11    1    4    4    0    0  0.48665942071E-01  0.45109995692E-02  0.22120993676E-01  0.53650000158E-01  0.51100000000E-03 0. -1.
         11    1    4    4    0    0  0.57286570522E-01  0.20591828569E-01  0.46081897930E-01  0.76351666673E-01  0.51100000000E-03 0.  1.
</event>
<event>
 8    1  0.1137518E+005  0.1043930E+01  0.7957747E-01            NaN
         13   -1    0    0    0    0  0.00000000000E+00  0.00000000000E+00  0.74505805969E-08  0.10566000000E+00  0.10566000000E+00 0. -1.
     999900   -1    0    0    0    0 -0.00000000000E+00 -0.00000000000E+00 -0.74505805969E-08  0.93827000000E+00  0.93827000000E+00 0. -1.
     999902    2    1    2    0    0 -0.56163524893E-02  0.12436851073E-01 -0.18951074319E-01  0.10205770152E+01  0.10203097971E+01 0.  0.
     999903    2    3    3    0    0 -0.53777657115E-01 -0.11629954806E+00 -0.64105841125E-02  0.12981900341E+00  0.19855900233E-01 0.  0.
         14    1    1    2    0    0  0.56163524893E-02 -0.12436851073E-01  0.18951074319E-01  0.23352984771E-01  0.00000000000E+00 0. -1.
     999901    1    3    3    0    0  0.48161304625E-01  0.12873639913E+00 -0.12540490206E-01  0.89075801182E+00  0.88000000000E+00 0. -1.
        -11    1    4    4    0    0 -0.30018263936E-01 -0.83155363404E-01  0.74563919320E-03  0.88412260074E-01  0.51100000000E-03 0. -1.
         11    1    4    4    0    0 -0.23759393178E-01 -0.33144184656E-01 -0.71562233057E-02  0.41406743336E-01  0.51100000000E-03 0.  1.
</event>
<event>
 8    1  0.1137518E+005  0.1043930E+01  0.7957747E-01            NaN
         13   -1    0    0    0    0  0.00000000000E+00  0.00000000000E+00  0.74505805969E-08  0.10566000000E+00  0.10566000000E+00 0.  1.
     999900   -1    0    0    0    0 -0.00000000000E+00 -0.00000000000E+00 -0.74505805969E-08  0.93827000000E+00  0.93827000000E+00 0. -1.
     999902    2    1    2    0    0  0.15191712854E-01 -0.16438180783E-01  0.52123222218E-02  0.10209480456E+01  0.10206893462E+01 0.  0.
     999903    2    3    3    0    0  0.54256706311E-01  0.10423522340E+00  0.53415414283E-01  0.13054831383E+00  0.19516244098E-01 0.  0.
         14    1    1    2    0    0 -0.15191712854E-01  0.16438180783E-01 -0.52123222218E-02  0.22981954439E-01  0.00000000000E+00 0. -1.
     999901    1    3    3    0    0 -0.39064993456E-01 -0.12067340418E+00 -0.48203092061E-01  0.89039973174E+00  0.88000000000E+00 0. -1.
        -11    1    4    4    0    0  0.87408141140E-02  0.32902306313E-01  0.10256692251E-01  0.35558746449E-01  0.51100000000E-03 0.  1.
         11    1    4    4    0    0  0.45515892197E-01  0.71332917082E-01  0.43158722032E-01  0.94989567376E-01  0.51100000000E-03 0. -1.
</event>
<event>
 8    1  0.1137518E+005  0.1043930E+01  0.7957747E-01            NaN
         13   -1    0    0    0    0  0.00000000000E+00  0.00000000000E+00  0.74505805969E-08  0.10566000000E+00  0.10566000000E+00 0.  1.
     999900   -1    0    0    0    0 -0.00000000000E+00 -0.00000000000E+00 -0.74505805969E-08  0.93827000000E+00  0.93827000000E+00 0.  1.
     999902    2    1    2    0    0 -0.21803242558E-01 -0.65784229041E-02 -0.68879876099E-02  0.10201371144E+01  0.10198596132E+01 0.  0.
     999903    2    3    3    0    0  0.86666207473E-01 -0.16358005739E-01 -0.92051956713E-01  0.12934299478E+00  0.21850210423E-01 0.  0.
         14    1    1    2    0    0  0.21803242558E-01  0.65784229041E-02  0.68879876099E-02  0.23792885644E-01  0.00000000000E+00 0.  1.
     999901    1    3    3    0    0 -0.10846945003E+00  0.97795828348E-02  0.85163969103E-01  0.89079411957E+00  0.88000000000E+00 0. -1.
        -11    1    4    4    0    0  0.71751429597E-01 -0.12717599464E-01 -0.62354888775E-01  0.95908280458E-01  0.51100000000E-03 0.  1.
         11    1    4    4    0    0  0.14914777877E-01 -0.36404062752E-02 -0.29697067938E-01  0.33434714326E-01  0.51100000000E-03 0. -1.
</event>
<event>
 8    1  0.1137518E+005  0.1043930E+01  0.7957747E-01            NaN
         13   -1    0    0    0    0  0.00000000000E+00  0.00000000000E+00  0.74505805969E-08  0.10566000000E+00  0.10566000000E+00 0.  1.
     999900   -1    0    0    0    0 -0.00000000000E+00 -0.00000000000E+00 -0.74505805969E-08  0.93827000000E+00  0.93827000000E+00 0. -1.
     999902    2    1    2    0    0  0.96248653700E-02 -0.97400824145E-02 -0.21425294517E-01  0.10185026430E+01  0.10181851911E+01 0.  0.
     999903    2    3    3    0    0  0.77126406188E-01 -0.10373737534E+00  0.68123376572E-02  0.13047712931E+00  0.16369109774E-01 0.  0.
         14    1    1    2    0    0 -0.96248653700E-02  0.97400824145E-02  0.21425294517E-01  0.25427356999E-01  0.00000000000E+00 0.  1.
     999901    1    3    3    0    0 -0.67501540818E-01  0.93997292928E-01 -0.28237632174E-01  0.88802551369E+00  0.88000000000E+00 0. -1.
        -11    1    4    4    0    0  0.28247241574E-01 -0.39497535473E-01  0.10446449655E-01  0.49672441015E-01  0.51100000000E-03 0.  1.
         11    1    4    4    0    0  0.48879164614E-01 -0.64239839869E-01 -0.36341119978E-02  0.80804688297E-01  0.51100000000E-03 0. -1.
</event>
<event>
 8    1  0.1137518E+005  0.1043930E+01  0.7957747E-01            NaN
         13   -1    0    0    0    0  0.00000000000E+00  0.00000000000E+00  0.74505805969E-08  0.10566000000E+00  0.10566000000E+00 0.  1.
     999900   -1    0    0    0    0 -0.00000000000E+00 -0.00000000000E+00 -0.74505805969E-08  0.93827000000E+00  0.93827000000E+00 0. -1.
     999902    2    1    2    0    0 -0.49003158961E-02  0.13011204395E-01 -0.18938880777E-01  0.10204356232E+01  0.10201651216E+01 0.  0.
     999903    2    3    3    0    0  0.17041908630E-01 -0.61997046870E-01  0.10872335693E+00  0.12779608459E+00  0.19416756270E-01 0.  0.
         14    1    1    2    0    0  0.49003158961E-02 -0.13011204395E-01  0.18938880777E-01  0.23494376790E-01  0.00000000000E+00 0.  1.
     999901    1    3    3    0    0 -0.21942224526E-01  0.75008251265E-01 -0.12766223770E+00  0.89263953862E+00  0.88000000000E+00 0. -1.
        -11    1    4    4    0    0 -0.31472170564E-02 -0.22641946624E-01  0.34423820416E-01  0.41325818264E-01  0.51100000000E-03 0. -1.
         11    1    4    4    0    0  0.20189125687E-01 -0.39355100246E-01  0.74299536511E-01  0.86470266324E-01  0.51100000000E-03 0.  1.
</event>
<event>
 8    1  0.1137518E+005  0.1043930E+01  0.7957747E-01            NaN
         13   -1    0    0    0    0  0.00000000000E+00  0.00000000000E+00  0.74505805969E-08  0.10566000000E+00  0.10566000000E+00 0.  1.
     999900   -1    0    0    0    0 -0.00000000000E+00 -0.00000000000E+00 -0.74505805969E-08  0.93827000000E+00  0.93827000000E+00 0.  1.
     999902    2    1    2    0    0 -0.13812831067E-01  0.77585451595E-02  0.18042354265E-01  0.10199192551E+01  0.10196365877E+01 0.  0.
     999903    2    3    3    0    0 -0.29259518216E-01 -0.38666014726E-01 -0.11716844689E+00  0.12824902417E+00  0.19188203477E-01 0.  0.
         14    1    1    2    0    0  0.13812831067E-01 -0.77585451595E-02 -0.18042354265E-01  0.24010744939E-01  0.00000000000E+00 0. -1.
     999901    1    3    3    0    0  0.15446687148E-01  0.46424559885E-01  0.13521080116E+00  0.89167023089E+00  0.88000000000E+00 0. -1.
        -11    1    4    4    0    0 -0.21965098814E-01 -0.34321269187E-01 -0.76256980304E-01  0.86462727522E-01  0.51100000000E-03 0.  1.
         11    1    4    4    0    0 -0.72944194020E-02 -0.43447455388E-02 -0.40911466589E-01  0.41786296649E-01  0.51100000000E-03 0. -1.
</event>
<event>
 8    1  0.1137518E+005  0.1043930E+01  0.7957747E-01            NaN
         13   -1    0    0    0    0  0.00000000000E+00  0.00000000000E+00  0.74505805969E-08  0.10566000000E+00  0.10566000000E+00 0.  1.
     999900   -1    0    0    0    0 -0.00000000000E+00 -0.00000000000E+00 -0.74505805969E-08  0.93827000000E+00  0.93827000000E+00 0.  1.
     999902    2    1    2    0    0 -0.60788707514E-02 -0.17789371573E-01  0.12255907176E-01  0.10214884833E+01  0.10212419399E+01 0.  0.
     999903    2    3    3    0    0 -0.85450521030E-01  0.44537452989E-01  0.88549358360E-01  0.13244113777E+00  0.20354111219E-01 0.  0.
         14    1    1    2    0    0  0.60788707514E-02  0.17789371573E-01 -0.12255907176E-01  0.22441516689E-01  0.00000000000E+00 0. -1.
     999901    1    3    3    0    0  0.79371650279E-01 -0.62326824562E-01 -0.76293451184E-01  0.88904734555E+00  0.88000000000E+00 0.  1.
        -11    1    4    4    0    0 -0.71029266163E-01  0.37873777908E-01  0.82953336201E-01  0.11559021071E+00  0.51100000000E-03 0.  1.
         11    1    4    4    0    0 -0.14421254868E-01  0.66636750807E-02  0.55960221588E-02  0.16850927053E-01  0.51100000000E-03 0. -1.
</event>
<event>
 8    1  0.1137518E+005  0.1043930E+01  0.7957747E-01            NaN
         13   -1    0    0    0    0  0.00000000000E+00  0.00000000000E+00  0.74505805969E-08  0.10566000000E+00  0.10566000000E+00 0.  1.
     999900   -1    0    0    0    0 -0.00000000000E+00 -0.00000000000E+00 -0.74505805969E-08  0.93827000000E+00  0.93827000000E+00 0. -1.
     999902    2    1    2    0    0 -0.90426944992E-02 -0.27000745803E-01 -0.12642356723E-02  0.10154272126E+01  0.10150271007E+01 0.  0.
     999903    2    3    3    0    0  0.74849130276E-01  0.25400417681E-01 -0.94941512838E-01  0.12494467349E+00  0.18700455949E-01 0.  0.
         14    1    1    2    0    0  0.90426944992E-02  0.27000745803E-01  0.12642356723E-02  0.28502787400E-01  0.00000000000E+00 0. -1.
     999901    1    3    3    0    0 -0.83891824775E-01 -0.52401163484E-01  0.93677277166E-01  0.89048253911E+00  0.88000000000E+00 0. -1.
        -11    1    4    4    0    0  0.20095010917E-01  0.15860343770E-01 -0.28202577975E-01  0.38092079146E-01  0.51100000000E-03 0.  1.
         11    1    4    4    0    0  0.54754119359E-01  0.95400739117E-02 -0.66738934864E-01  0.86852594347E-01  0.51100000000E-03 0. -1.
</event>
<event>
 8    1  0.1137518E+005  0.1043930E+01  0.7957747E-01            NaN
         13   -1    0    0    0    0  0.00000000000E+00  0.00000000000E+00  0.74505805969E-08  0.10566000000E+00  0.10566000000E+00 0. -1.
     999900   -1    0    0    0    0 -0.00000000000E+00 -0.00000000000E+00 -0.74505805969E-08  0.93827000000E+00  0.93827000000E+00 0.  1.
     999902    2    1    2    0    0  0.42583101711E-02  0.19700515868E-01  0.12393093025E-01  0.10202692247E+01  0.10199948327E+01 0.  0.
     999903    2    3    3    0    0 -0.74067071993E-01  0.36176661168E-01 -0.98102936996E-01  0.12975493429E+00  0.20432199054E-01 0.  0.
         14    1    1    2    0    0 -0.42583101711E-02 -0.19700515868E-01 -0.12393093025E-01  0.23660775256E-01  0.00000000000E+00 0.  1.
     999901    1    3    3    0    0  0.78325382164E-01 -0.16476145300E-01  0.11049603002E+00  0.89051429046E+00  0.88000000000E+00 0. -1.
        -11    1    4    4    0    0 -0.12955525846E-01  0.13571892407E-01 -0.30862393772E-01  0.36121882340E-01  0.51100000000E-03 0. -1.
         11    1    4    4    0    0 -0.61111546147E-01  0.22604768761E-01 -0.67240543224E-01  0.93633051949E-01  0.51100000000E-03 0.  1.
</event>
<event>
 8    1  0.1137518E+005  0.1043930E+01  0.7957747E-01            NaN
         13   -1    0    0    0    0  0.00000000000E+00  0.00000000000E+00  0.74505805969E-08  0.10566000000E+00  0.10566000000E+00 0.  1.
     999900   -1    0    0    0    0 -0.00000000000E+00 -0.00000000000E+00 -0.74505805969E-08  0.93827000000E+00  0.93827000000E+00 0.  1.
     999902    2    1    2    0    0  0.13112416236E-01  0.19962742194E-01 -0.23103328583E-02  0.10199344968E+01  0.10196521925E+01 0.  0.
     999903    2    3    3    0    0 -0.10056780844E+00  0.44299385483E-01  0.66260211806E-01  0.12964387837E+00  0.18460766004E-01 0.  0.
         14    1    1    2    0    0 -0.13112416236E-01 -0.19962742194E-01  0.23103328583E-02  0.23995503191E-01  0.00000000000E+00 0.  1.
     999901    1    3    3    0    0  0.11368022468E+00 -0.24336643289E-01 -0.68570544664E-01  0.89029061844E+00  0.88000000000E+00 0.  1.
        -11    1    4    4    0    0 -0.60539755046E-01  0.22520215755E-01  0.48318226604E-01  0.80666809791E-01  0.51100000000E-03 0. -1.
         11    1    4    4    0    0 -0.40028053393E-01  0.21779169728E-01  0.17941985202E-01  0.48977068577E-01  0.51100000000E-03 0.  1.
</event>
<event>
 8    1  0.1137518E+005  0.1043930E+01  0.7957747E-01            NaN
         13   -1    0    0    0    0  0.00000000000E+00  0.00000000000E+00  0.74505805969E-08  0.10566000000E+00  0.10566000000E+00 0.  1.
     999900   -1    0    0    0    0 -0.00000000000E+00 -0.00000000000E+00 -0.74505805969E-08  0.93827000000E+00  0.93827000000E+00 0.  1.
     999902    2    1    2    0    0 -0.16088397852E-01  0.95047164779E-02 -0.14451309013E-01  0.10203076269E+01  0.10200341352E+01 0.  0.
     999903    2    3    3    0    0  0.36887105199E-02  0.67659749999E-01  0.10872184910E+00  0.12960859305E+00  0.19659566787E-01 0.  0.
         14    1    1    2    0    0  0.16088397852E-01 -0.95047164779E-02  0.14451309013E-01  0.23622373144E-01  0.00000000000E+00 0.  1.
     999901    1    3    3    0    0 -0.19777108372E-01 -0.58155033521E-01 -0.12317315811E+00  0.89069903380E+00  0.88000000000E+00 0.  1.
        -11    1    4    4    0    0 -0.45983233317E-02  0.36719700833E-01  0.71413808873E-01  0.80434285137E-01  0.51100000000E-03 0.  1.
         11    1    4    4    0    0  0.82870338516E-02  0.30940049166E-01  0.37308040226E-01  0.49174307915E-01  0.51100000000E-03 0. -1.
</event>
<event>
 8    1  0.1137518E+005  0.1043930E+01  0.7957747E-01            NaN
         13   -1    0    0    0    0  0.00000000000E+00  0.00000000000E+00  0.74505805969E-08  0.10566000000E+00  0.10566000000E+00 0. -1.
     999900   -1    0    0    0    0 -0.00000000000E+00 -0.00000000000E+00 -0.74505805969E-08  0.93827000000E+00  0.93827000000E+00 0.  1.
     999902    2    1    2    0    0 -0.18286180346E-01  0.91102478481E-02  0.16962174702E-01  0.10173763491E+01  0.10170297632E+01 0.  0.
     999903    2    3    3    0    0 -0.83016378669E-01 -0.76703037388E-01  0.60439689284E-01  0.12977046086E+00  0.20306191151E-01 0.  0.
         14    1    1    2    0    0  0.18286180346E-01 -0.91102478481E-02 -0.16962174702E-01  0.26553650938E-01  0.00000000000E+00 0.  1.
     999901    1    3    3    0    0  0.64730198323E-01  0.85813285236E-01 -0.43477514582E-01  0.88760588820E+00  0.88000000000E+00 0.  1.
        -11    1    4    4    0    0 -0.52179720642E-01 -0.38234627508E-01  0.42006352815E-01  0.77132384799E-01  0.51100000000E-03 0.  1.
         11    1    4    4    0    0 -0.30836658027E-01 -0.38468409880E-01  0.18433336469E-01  0.52638076060E-01  0.51100000000E-03 0. -1.
</event>
<event>
 8    1  0.1137518E+005  0.1043930E+01  0.7957747E-01            NaN
         13   -1    0    0    0    0  0.00000000000E+00  0.00000000000E+00  0.74505805969E-08  0.10566000000E+00  0.10566000000E+00 0. -1.
     999900   -1    0    0    0    0 -0.00000000000E+00 -0.00000000000E+00 -0.74505805969E-08  0.93827000000E+00  0.93827000000E+00 0. -1.
     999902    2    1    2    0    0  0.21140421006E-01  0.86728739971E-02 -0.67366538958E-02  0.10201073501E+01  0.10198291460E+01 0.  0.
     999903    2    3    3    0    0  0.98731344687E-01 -0.84279263993E-01  0.12901251167E-01  0.13159955680E+00  0.17353048886E-01 0.  0.
         14    1    1    2    0    0 -0.21140421006E-01 -0.86728739971E-02  0.67366538958E-02  0.23822649924E-01  0.00000000000E+00 0.  1.
     999901    1    3    3    0    0 -0.77590923681E-01  0.92952137990E-01 -0.19637905063E-01  0.88850779327E+00  0.88000000000E+00 0. -1.
        -11    1    4    4    0    0  0.55050516120E-01 -0.57385263920E-01  0.10851556725E-01  0.80259860731E-01  0.51100000000E-03 0. -1.
         11    1    4    4    0    0  0.43680828567E-01 -0.26894000073E-01  0.20496944417E-02  0.51339696070E-01  0.51100000000E-03 0.  1.
</event>
<event>
 8    1  0.1137518E+005  0.1043930E+01  0.7957747E-01            NaN
         13   -1    0    0    0    0  0.00000000000E+00  0.00000000000E+00  0.74505805969E-08  0.10566000000E+00  0.10566000000E+00 0.  1.
     999900   -1    0    0    0    0 -0.00000000000E+00 -0.00000000000E+00 -0.74505805969E-08  0.93827000000E+00  0.93827000000E+00 0.  1.
     999902    2    1    2    0    0  0.81129565896E-02 -0.17566922897E-01  0.12954065329E-01  0.10206442822E+01  0.10203786190E+01 0.  0.
     999903    2    3    3    0    0  0.71419490907E-02 -0.12340283744E+00  0.46797202019E-01  0.13365637836E+00  0.19869112579E-01 0.  0.
         14    1    1    2    0    0 -0.81129565896E-02  0.17566922897E-01 -0.12954065329E-01  0.23285717795E-01  0.00000000000E+00 0. -1.
     999901    1    3    3    0    0  0.97100749889E-03  0.10583591454E+00 -0.33843136690E-01  0.88698790384E+00  0.88000000000E+00 0.  1.
        -11    1    4    4    0    0  0.10726105992E-01 -0.10218885862E+00  0.32302000825E-01  0.10770929651E+00  0.51100000000E-03 0.  1.
         11    1    4    4    0    0 -0.35841569010E-02 -0.21213978821E-01  0.14495201194E-01  0.25947081854E-01  0.51100000000E-03 0. -1.
</event>
<event>
 8    1  0.1137518E+005  0.1043930E+01  0.7957747E-01            NaN
         13   -1    0    0    0    0  0.00000000000E+00  0.00000000000E+00  0.74505805969E-08  0.10566000000E+00  0.10566000000E+00 0.  1.
     999900   -1    0    0    0    0 -0.00000000000E+00 -0.00000000000E+00 -0.74505805969E-08  0.93827000000E+00  0.93827000000E+00 0.  1.
     999902    2    1    2    0    0  0.16015044213E-01 -0.10774266268E-03  0.15858985121E-01  0.10213911300E+01  0.10211424190E+01 0.  0.
     999903    2    3    3    0    0 -0.80338360240E-01 -0.92641838605E-01  0.41746307567E-01  0.13093243313E+00  0.19073160797E-01 0.  0.
         14    1    1    2    0    0 -0.16015044213E-01  0.10774266268E-03 -0.15858985121E-01  0.22538869951E-01  0.00000000000E+00 0. -1.
     999901    1    3    3    0    0  0.96353404453E-01  0.92534095942E-01 -0.25887322446E-01  0.89045869692E+00  0.88000000000E+00 0. -1.
        -11    1    4    4    0    0 -0.64108121405E-01 -0.83581603554E-01  0.37868051176E-01  0.11193742048E+00  0.51100000000E-03 0.  1.
         11    1    4    4    0    0 -0.16230238835E-01 -0.90602350505E-02  0.38782563908E-02  0.18995012646E-01  0.51100000000E-03 0. -1.
</event>
<event>
 8    1  0.1137518E+005  0.1043930E+01  0.7957747E-01            NaN
         13   -1    0    0    0    0  0.00000000000E+00  0.00000000000E+00  0.74505805969E-08  0.10566000000E+00  0.10566000000E+00 0. -1.
     999900   -1    0    0    0    0 -0.00000000000E+00 -0.00000000000E+00 -0.74505805969E-08  0.93827000000E+00  0.93827000000E+00 0. -1.
     999902    2    1    2    0    0 -0.20376231026E-01  0.12286523259E-01  0.11002992247E-02  0.10201106779E+01  0.10198325525E+01 0.  0.
     999903    2    3    3    0    0 -0.49944022666E-01 -0.29899505594E-01 -0.11565724937E+00  0.13090527958E+00  0.19266734442E-01 0.  0.
         14    1    1    2    0    0  0.20376231026E-01 -0.12286523259E-01 -0.11002992247E-02  0.23819322052E-01  0.00000000000E+00 0.  1.
     999901    1    3    3    0    0  0.29567791640E-01  0.42186028853E-01  0.11675754859E+00  0.88920539837E+00  0.88000000000E+00 0.  1.
        -11    1    4    4    0    0 -0.50190697240E-01 -0.25767088759E-01 -0.10127922972E+00  0.11593443167E+00  0.51100000000E-03 0.  1.
         11    1    4    4    0    0  0.24667457407E-03 -0.41324168350E-02 -0.14378019645E-01  0.14970847911E-01  0.51100000000E-03 0. -1.
</event>
<event>
 8    1  0.1137518E+005  0.1043930E+01  0.7957747E-01            NaN
         13   -1    0    0    0    0  0.00000000000E+00  0.00000000000E+00  0.74505805969E-08  0.10566000000E+00  0.10566000000E+00 0. -1.
     999900   -1    0    0    0    0 -0.00000000000E+00 -0.00000000000E+00 -0.74505805969E-08  0.93827000000E+00  0.93827000000E+00 0. -1.
     999902    2    1    2    0    0 -0.32132225287E-02 -0.22809599474E-01  0.10111363652E-01  0.10187736429E+01  0.10184630053E+01 0.  0.
     999903    2    3    3    0    0  0.68287042745E-01 -0.62690586230E-01  0.90834396847E-01  0.13129463520E+00  0.19853558186E-01 0.  0.
         14    1    1    2    0    0  0.32132225287E-02  0.22809599474E-01 -0.10111363652E-01  0.25156357091E-01  0.00000000000E+00 0.  1.
     999901    1    3    3    0    0 -0.71500265273E-01  0.39880986757E-01 -0.80723033195E-01  0.88747900771E+00  0.88000000000E+00 0. -1.
        -11    1    4    4    0    0  0.18921574160E-01 -0.29298510230E-01  0.28410961187E-01  0.44987470555E-01  0.51100000000E-03 0. -1.
         11    1    4    4    0    0  0.49365468584E-01 -0.33392076001E-01  0.62423435660E-01  0.86307164643E-01  0.51100000000E-03 0.  1.
</event>
<event>
 7    1  0.1137518E+005  0.1043930E+01  0.7957747E-01            NaN
         13   -1    0    0    0    0  0.00000000000E+00  0.00000000000E+00  0.74505805969E-08  0.10566000000E+00  0.10566000000E+00 0. -1.
     999900   -1    0    0    0    0 -0.00000000000E+00 -0.00000000000E+00 -0.74505805969E-08  0.93827000000E+00  0.93827000000E+00 0.  1.
     999903    2    1    2    0    0  0.38550952875E-01  0.11479998716E-01  0.76907095435E-01  0.88946178134E-01  0.19461627328E-01 0.  0.
         14    1    1    2    0    0  0.21848897506E-01 -0.62242474883E-01 -0.22814304581E-01  0.69799659708E-01  0.00000000000E+00 0.  1.
     999901    1    1    2    0    0 -0.60399850381E-01  0.50762476167E-01 -0.54092790855E-01  0.88518416216E+00  0.88000000000E+00 0.  1.
        -11    1    3    3    0    0  0.67837926761E-02  0.84849536201E-02  0.98076639849E-02  0.14644646628E-01  0.51100000000E-03 0. -1.
         11    1    3    3    0    0  0.31767160199E-01  0.29950450964E-02  0.67099431451E-01  0.74301531507E-01  0.51100000000E-03 0.  1.
</event>
<event>
 8    1  0.1137518E+005  0.1043930E+01  0.7957747E-01            NaN
         13   -1    0    0    0    0  0.00000000000E+00  0.00000000000E+00  0.74505805969E-08  0.10566000000E+00  0.10566000000E+00 0. -1.
     999900   -1    0    0    0    0 -0.00000000000E+00 -0.00000000000E+00 -0.74505805969E-08  0.93827000000E+00  0.93827000000E+00 0. -1.
     999902    2    1    2    0    0 -0.17155329726E-01  0.12899746737E-01  0.94667517635E-02  0.10204709251E+01  0.10202012453E+01 0.  0.
     999903    2    3    3    0    0  0.11245554377E+00 -0.24933369242E-01  0.55776284074E-01  0.12896944115E+00  0.15943671464E-01 0.  0.
         14    1    1    2    0    0  0.17155329726E-01 -0.12899746737E-01 -0.94667517635E-02  0.23459074851E-01  0.00000000000E+00 0.  1.
     999901    1    3    3    0    0 -0.12961087349E+00  0.37833115979E-01 -0.46309532310E-01  0.89150148400E+00  0.88000000000E+00 0. -1.
        -11    1    4    4    0    0  0.15816569763E-01  0.16637747596E-02  0.55185927268E-02  0.16841852992E-01  0.51100000000E-03 0.  1.
         11    1    4    4    0    0  0.96638974003E-01 -0.26597144002E-01  0.50257691347E-01  0.11212758816E+00  0.51100000000E-03 0. -1.
</event>
<event>
 8    1  0.1137518E+005  0.1043930E+01  0.7957747E-01            NaN
         13   -1    0    0    0    0  0.00000000000E+00  0.00000000000E+00  0.74505805969E-08  0.10566000000E+00  0.10566000000E+00 0. -1.
     999900   -1    0    0    0    0 -0.00000000000E+00 -0.00000000000E+00 -0.74505805969E-08  0.93827000000E+00  0.93827000000E+00 0. -1.
     999902    2    1    2    0    0  0.49339015932E-02 -0.19708524535E-01 -0.18206125162E-01  0.10166493783E+01  0.10162832903E+01 0.  0.
     999903    2    3    3    0    0 -0.29373191376E-01  0.86938029970E-01 -0.85605748276E-01  0.12699035748E+00  0.19421671612E-01 0.  0.
         14    1    1    2    0    0 -0.49339015932E-02  0.19708524535E-01  0.18206125162E-01  0.27280621652E-01  0.00000000000E+00 0. -1.
     999901    1    3    3    0    0  0.34307092969E-01 -0.10664655451E+00  0.67399623114E-01  0.88965902087E+00  0.88000000000E+00 0.  1.
        -11    1    4    4    0    0 -0.16910744918E-01  0.64530954740E-01 -0.71226658987E-01  0.97589525487E-01  0.51100000000E-03 0. -1.
         11    1    4    4    0    0 -0.12462446458E-01  0.22407075230E-01 -0.14379089290E-01  0.29400831993E-01  0.51100000000E-03 0.  1.
</event>
<event>
 8    1  0.1137518E+005  0.1043930E+01  0.7957747E-01            NaN
         13   -1    0    0    0    0  0.00000000000E+00  0.00000000000E+00  0.74505805969E-08  0.10566000000E+00  0.10566000000E+00 0. -1.
     999900   -1    0    0    0    0 -0.00000000000E+00 -0.00000000000E+00 -0.74505805969E-08  0.93827000000E+00  0.93827000000E+00 0.  1.
     999902    2    1    2    0    0 -0.42537260671E-02 -0.22031110190E-01  0.87525244123E-02  0.10198453434E+01  0.10195609122E+01 0.  0.
     999903    2    3    3    0    0 -0.96774277945E-01  0.51370949832E-01  0.67048988639E-01  0.13004402134E+00  0.20289042621E-01 0.  0.
         14    1    1    2    0    0  0.42537260671E-02  0.22031110190E-01 -0.87525244123E-02  0.24084656635E-01  0.00000000000E+00 0.  1.
     999901    1    3    3    0    0  0.92520551878E-01 -0.73402060022E-01 -0.58296464227E-01  0.88980132202E+00  0.88000000000E+00 0.  1.
        -11    1    4    4    0    0 -0.78012694491E-01  0.40150019030E-01  0.62458918804E-01  0.10770042799E+00  0.51100000000E-03 0. -1.
         11    1    4    4    0    0 -0.18761583454E-01  0.11220930802E-01  0.45900698350E-02  0.22343593351E-01  0.51100000000E-03 0.  1.
</event>
<event>
 8    1  0.1137518E+005  0.1043930E+01  0.7957747E-01            NaN
         13   -1    0    0    0    0  0.00000000000E+00  0.00000000000E+00  0.74505805969E-08  0.10566000000E+00  0.10566000000E+00 0.  1.
     999900   -1    0    0    0    0 -0.00000000000E+00 -0.00000000000E+00 -0.74505805969E-08  0.93827000000E+00  0.93827000000E+00 0.  1.
     999902    2    1    2    0    0 -0.15746919727E-01  0.15585233268E-01  0.98264698830E-02  0.10196931585E+01  0.10194050779E+01 0.  0.
     999903    2    3    3    0    0 -0.84469122160E-01 -0.89689583366E-01 -0.34847677731E-01  0.12963624592E+00  0.20296345703E-01 0.  0.
         14    1    1    2    0    0  0.15746919727E-01 -0.15585233268E-01 -0.98264698830E-02  0.24236841528E-01  0.00000000000E+00 0.  1.
     999901    1    3    3    0    0  0.68722202433E-01  0.10527481663E+00  0.44674147614E-01  0.89005691256E+00  0.88000000000E+00 0. -1.
        -11    1    4    4    0    0 -0.57271152655E-01 -0.54945856293E-01 -0.13099906676E-01  0.80441909016E-01  0.51100000000E-03 0. -1.
         11    1    4    4    0    0 -0.27197969506E-01 -0.34743727073E-01 -0.21747771054E-01  0.49194336900E-01  0.51100000000E-03 0.  1.
</event>
<event>
 8    1  0.1137518E+005  0.1043930E+01  0.7957747E-01            NaN
         13   -1    0    0    0    0  0.00000000000E+00  0.00000000000E+00  0.74505805969E-08  0.10566000000E+00  0.10566000000E+00 0. -1.
     999900   -1    0    0    0    0 -0.00000000000E+00 -0.00000000000E+00 -0.74505805969E-08  0.93827000000E+00  0.93827000000E+00 0. -1.
     999902    2    1    2    0    0  0.23573162472E-01 -0.15910619384E-02 -0.25901815843E-02  0.10201616490E+01  0.10198847266E+01 0.  0.
     999903    2    3    3    0    0  0.11186020821E+00 -0.26353730452E-01  0.63678799609E-01  0.13291908352E+00  0.20131268029E-01 0.  0.
         14    1    1    2    0    0 -0.23573162472E-01  0.15910619384E-02  0.25901815843E-02  0.23768350966E-01  0.00000000000E+00 0. -1.
     999901    1    3    3    0    0 -0.88287045743E-01  0.24762668513E-01 -0.66268981194E-01  0.88724256552E+00  0.88000000000E+00 0. -1.
        -11    1    4    4    0    0  0.84772617047E-01 -0.13824143479E-01  0.54353943926E-01  0.10164701612E+00  0.51100000000E-03 0. -1.
         11    1    4    4    0    0  0.27087591167E-01 -0.12529586972E-01  0.93248556839E-02  0.31272067400E-01  0.51100000000E-03 0.  1.
</event>
<event>
 8    1  0.1137518E+005  0.1043930E+01  0.7957747E-01            NaN
         13   -1    0    0    0    0  0.00000000000E+00  0.00000000000E+00  0.74505805969E-08  0.10566000000E+00  0.10566000000E+00 0.  1.
     999900   -1    0    0    0    0 -0.00000000000E+00 -0.00000000000E+00 -0.74505805969E-08  0.93827000000E+00  0.93827000000E+00 0.  1.
     999902    2    1    2    0    0  0.21593653604E-01 -0.79380918245E-02 -0.49078620882E-02  0.10204058361E+01  0.10201346401E+01 0.  0.
     999903    2    3    3    0    0 -0.15226044419E-01  0.12448991955E+00 -0.25886153097E-01  0.12948891680E+00  0.19175874260E-01 0.  0.
         14    1    1    2    0    0 -0.21593653604E-01  0.79380918245E-02  0.49078620882E-02  0.23524163918E-01  0.00000000000E+00 0.  1.
     999901    1    3    3    0    0  0.36819698023E-01 -0.13242801138E+00  0.20978291009E-01  0.89091691928E+00  0.88000000000E+00 0.  1.
        -11    1    4    4    0    0  0.12816569836E-02  0.58679040777E-01 -0.73693550541E-02  0.59156073113E-01  0.51100000000E-03 0.  1.
         11    1    4    4    0    0 -0.16507701402E-01  0.65810878778E-01 -0.18516798043E-01  0.70332843692E-01  0.51100000000E-03 0. -1.
</event>
<event>
 8    1  0.1137518E+005  0.1043930E+01  0.7957747E-01            NaN
         13   -1    0    0    0    0  0.00000000000E+00  0.00000000000E+00  0.74505805969E-08  0.10566000000E+00  0.10566000000E+00 0. -1.
     999900   -1    0    0    0    0 -0.00000000000E+00 -0.00000000000E+00 -0.74505805969E-08  0.93827000000E+00  0.93827000000E+00 0.  1.
     999902    2    1    2    0    0 -0.10305538691E-01 -0.11444767901E-01  0.16277971120E-01  0.10215210914E+01  0.10212752719E+01 0.  0.
     999903    2    3    3    0    0  0.80236070001E-01 -0.10290854875E+00  0.50168392264E-02  0.13208856491E+00  0.19855074160E-01 0.  0.
         14    1    1    2    0    0  0.10305538691E-01  0.11444767901E-01 -0.16277971120E-01  0.22408908581E-01  0.00000000000E+00 0.  1.
     999901    1    3    3    0    0 -0.90541608692E-01  0.91463780851E-01  0.11261131894E-01  0.88943252650E+00  0.88000000000E+00 0.  1.
        -11    1    4    4    0    0  0.36416319232E-01 -0.33602426532E-01  0.71245749147E-02  0.50062881099E-01  0.51100000000E-03 0. -1.
         11    1    4    4    0    0  0.43819750769E-01 -0.69306122220E-01 -0.21077356882E-02  0.82025683815E-01  0.51100000000E-03 0.  1.
</event>
<event>
 8    1  0.1137518E+005  0.1043930E+01  0.7957747E-01            NaN
         13   -1    0    0    0    0  0.00000000000E+00  0.00000000000E+00  0.74505805969E-08  0.10566000000E+00  0.10566000000E+00 0. -1.
     999900   -1    0    0    0    0 -0.00000000000E+00 -0.00000000000E+00 -0.74505805969E-08  0.93827000000E+00  0.93827000000E+00 0.  1.
     999902    2    1    2    0    0 -0.23693192252E-01  0.55667764237E-02 -0.30205802008E-02  0.10194049054E+01  0.10191098473E+01 0.  0.
     999903    2    3    3    0    0 -0.31663995495E-01 -0.88861342578E-01 -0.87576926852E-01  0.13028737714E+00  0.20152808953E-01 0.  0.
         14    1    1    2    0    0  0.23693192252E-01 -0.55667764237E-02  0.30205802008E-02  0.24525094569E-01  0.00000000000E+00 0.  1.
     999901    1    3    3    0    0  0.79708032431E-02  0.94428119002E-01  0.84556346651E-01  0.88911752830E+00  0.88000000000E+00 0. -1.
        -11    1    4    4    0    0 -0.20272599024E-01 -0.65489789699E-01 -0.51177188364E-01  0.85552653704E-01  0.51100000000E-03 0.  1.
         11    1    4    4    0    0 -0.11391396471E-01 -0.23371552879E-01 -0.36399738488E-01  0.44734723432E-01  0.51100000000E-03 0. -1.
</event>
<event>
 8    1  0.1137518E+005  0.1043930E+01  0.7957747E-01            NaN
         13   -1    0    0    0    0  0.00000000000E+00  0.00000000000E+00  0.74505805969E-08  0.10566000000E+00  0.10566000000E+00 0.  1.
     999900   -1    0    0    0    0 -0.00000000000E+00 -0.00000000000E+00 -0.74505805969E-08  0.93827000000E+00  0.93827000000E+00 0.  1.
     999902    2    1    2    0    0 -0.68844807191E-02  0.17537763044E-01 -0.13517910588E-01  0.10207415737E+01  0.10204781512E+01 0.  0.
     999903    2    3    3    0    0  0.84771081728E-01 -0.78637879918E-01 -0.55541565257E-01  0.12977777872E+00  0.19681308961E-01 0.  0.
         14    1    1    2    0    0  0.68844807191E-02 -0.17537763044E-01  0.13517910588E-01  0.23188426294E-01  0.00000000000E+00 0.  1.
     999901    1    3    3    0    0 -0.91655562447E-01  0.96175642962E-01  0.42023654670E-01  0.89096379499E+00  0.88000000000E+00 0. -1.
        -11    1    4    4    0    0  0.66311712121E-01 -0.61568359852E-01 -0.52047085597E-01  0.10438901446E+00  0.51100000000E-03 0. -1.
         11    1    4    4    0    0  0.18459369607E-01 -0.17069520066E-01 -0.34944796600E-02  0.25388764261E-01  0.51100000000E-03 0.  1.
</event>
<event>
 8    1  0.1137518E+005  0.1043930E+01  0.7957747E-01            NaN
         13   -1    0    0    0    0  0.00000000000E+00  0.00000000000E+00  0.74505805969E-08  0.10566000000E+00  0.10566000000E+00 0. -1.
     999900   -1    0    0    0    0 -0.00000000000E+00 -0.00000000000E+00 -0.74505805969E-08  0.93827000000E+00  0.93827000000E+00 0.  1.
     999902    2    1    2    0    0  0.16654336958E-01  0.21535182440E-02 -0.16403075452E-01  0.10204552164E+01  0.10201851711E+01 0.  0.
     999903    2    3    3    0    0  0.95599203199E-01  0.80570595640E-01 -0.41089733195E-01  0.13310468759E+00  0.19941493150E-01 0.  0.
         14    1    1    2    0    0 -0.16654336958E-01 -0.21535182440E-02  0.16403075452E-01  0.23474783591E-01  0.00000000000E+00 0.  1.
     999901    1    3    3    0    0 -0.78944866241E-01 -0.78417077396E-01  0.24686657743E-01  0.88735052882E+00  0.88000000000E+00 0. -1.
        -11    1    4    4    0    0  0.69432970226E-01  0.68867528940E-01 -0.29132523759E-01  0.10204233905E+00  0.51100000000E-03 0. -1.
         11    1    4    4    0    0  0.26166232973E-01  0.11703066700E-01 -0.11957209437E-01  0.31062348538E-01  0.51100000000E-03 0.  1.
</event>
<event>
 8    1  0.1137518E+005  0.1043930E+01  0.7957747E-01            NaN
         13   -1    0    0    0    0  0.00000000000E+00  0.00000000000E+00  0.74505805969E-08  0.10566000000E+00  0.10566000000E+00 0. -1.
     999900   -1    0    0    0    0 -0.00000000000E+00 -0.00000000000E+00 -0.74505805969E-08  0.93827000000E+00  0.93827000000E+00 0.  1.
     999902    2    1    2    0    0  0.21632657582E-01  0.98819883533E-02  0.38285282923E-03  0.10201440347E+01  0.10198666969E+01 0.  0.
     999903    2    3    3    0    0 -0.42327662277E-01 -0.71538924776E-01  0.96599182177E-01  0.12886525138E+00  0.19115497976E-01 0.  0.
         14    1    1    2    0    0 -0.21632657582E-01 -0.98819883533E-02 -0.38285282923E-03  0.23785965278E-01  0.00000000000E+00 0. -1.
     999901    1    3    3    0    0  0.63960319860E-01  0.81420913129E-01 -0.96216329348E-01  0.89127878335E+00  0.88000000000E+00 0.  1.
        -11    1    4    4    0    0 -0.23118913094E-02 -0.17599374391E-01  0.15551129828E-01  0.23604694031E-01  0.51100000000E-03 0. -1.
         11    1    4    4    0    0 -0.40015770968E-01 -0.53939550385E-01  0.81048052349E-01  0.10526055734E+00  0.51100000000E-03 0.  1.
</event>
<event>
 8    1  0.1137518E+005  0.1043930E+01  0.7957747E-01            NaN
         13   -1    0    0    0    0  0.00000000000E+00  0.00000000000E+00  0.74505805969E-08  0.10566000000E+00  0.10566000000E+00 0.  1.
     999900   -1    0    0    0    0 -0.00000000000E+00 -0.00000000000E+00 -0.74505805969E-08  0.93827000000E+00  0.93827000000E+00 0.  1.
     999902    2    1    2    0    0 -0.21784245697E-01  0.14836776607E-02 -0.96565082886E-02  0.10200552683E+01  0.10197758321E+01 0.  0.
     999903    2    3    3    0    0 -0.77272419669E-01  0.58753928762E-01  0.86144741623E-01  0.13127143713E+00  0.19703368023E-01 0.  0.
         14    1    1    2    0    0  0.21784245697E-01 -0.14836776607E-02  0.96565082886E-02  0.23874731670E-01  0.00000000000E+00 0.  1.
     999901    1    3    3    0    0  0.55488173972E-01 -0.57270251101E-01 -0.95801249912E-01  0.88878383120E+00  0.88000000000E+00 0.  1.
        -11    1    4    4    0    0 -0.65651346485E-01  0.51924597624E-01  0.64108220112E-01  0.10543428352E+00  0.51100000000E-03 0. -1.
         11    1    4    4    0    0 -0.11621073183E-01  0.68293311375E-02  0.22036521511E-01  0.25837153617E-01  0.51100000000E-03 0.  1.
</event>
<event>
 8    1  0.1137518E+005  0.1043930E+01  0.7957747E-01            NaN
         13   -1    0    0    0    0  0.00000000000E+00  0.00000000000E+00  0.74505805969E-08  0.10566000000E+00  0.10566000000E+00 0.  1.
     999900   -1    0    0    0    0 -0.00000000000E+00 -0.00000000000E+00 -0.74505805969E-08  0.93827000000E+00  0.93827000000E+00 0.  1.
     999902    2    1    2    0    0  0.51401701507E-03  0.10305616759E-01 -0.22082781881E-01  0.10195554394E+01  0.10192640358E+01 0.  0.
     999903    2    3    3    0    0  0.64126320658E-01 -0.10944252279E+00 -0.98575644495E-02  0.12908612601E+00  0.21822134492E-01 0.  0.
         14    1    1    2    0    0 -0.51401701507E-03 -0.10305616759E-01  0.22082781881E-01  0.24374560630E-01  0.00000000000E+00 0.  1.
     999901    1    3    3    0    0 -0.63612303643E-01  0.11974813955E+00 -0.12225217432E-01  0.89046931336E+00  0.88000000000E+00 0. -1.
        -11    1    4    4    0    0  0.48793353472E-01 -0.73071855753E-01 -0.15460957582E-01  0.89216533089E-01  0.51100000000E-03 0. -1.
         11    1    4    4    0    0  0.15332967186E-01 -0.36370667042E-01  0.56033931321E-02  0.39869592917E-01  0.51100000000E-03 0.  1.
</event>
<event>
 8    1  0.1137518E+005  0.1043930E+01  0.7957747E-01            NaN
         13   -1    0    0    0    0  0.00000000000E+00  0.00000000000E+00  0.74505805969E-08  0.10566000000E+00  0.10566000000E+00 0.  1.
     999900   -1    0    0    0    0 -0.00000000000E+00 -0.00000000000E+00 -0.74505805969E-08  0.93827000000E+00  0.93827000000E+00 0.  1.
     999902    2    1    2    0    0  0.88793107178E-02 -0.13570918019E-01 -0.13977298110E-01  0.10225202630E+01  0.10222960977E+01 0.  0.
     999903    2    3    3    0    0 -0.11898236285E+00 -0.61227752460E-02 -0.54199951303E-01  0.13233941386E+00  0.19539567348E-01 0.  0.
         14    1    1    2    0    0 -0.88793107178E-02  0.13570918019E-01  0.13977298110E-01  0.21409736971E-01  0.00000000000E+00 0.  1.
     999901    1    3    3    0    0  0.12786167357E+00 -0.74481427733E-02  0.40222653192E-01  0.89018084917E+00  0.88000000000E+00 0. -1.
        -11    1    4    4    0    0 -0.69111482298E-01 -0.13059815504E-01 -0.29875618923E-01  0.76418384526E-01  0.51100000000E-03 0. -1.
         11    1    4    4    0    0 -0.49870880556E-01  0.69370402575E-02 -0.24324332379E-01  0.55921029333E-01  0.51100000000E-03 0.  1.
</event>
<event>
 8    1  0.1137518E+005  0.1043930E+01  0.7957747E-01            NaN
         13   -1    0    0    0    0  0.00000000000E+00  0.00000000000E+00  0.74505805969E-08  0.10566000000E+00  0.10566000000E+00 0. -1.
     999900   -1    0    0    0    0 -0.00000000000E+00 -0.00000000000E+00 -0.74505805969E-08  0.93827000000E+00  0.93827000000E+00 0. -1.
     999902    2    1    2    0    0 -0.13159528200E-01 -0.19032466806E-01 -0.58813921649E-02  0.10200553534E+01  0.10197759192E+01 0.  0.
     999903    2    3    3    0    0 -0.28721847950E-01  0.29519224196E-01  0.12114754786E+00  0.12947363113E+00  0.19757622792E-01 0.  0.
         14    1    1    2    0    0  0.13159528200E-01  0.19032466806E-01  0.58813921649E-02  0.23874646572E-01  0.00000000000E+00 0.  1.
     999901    1    3    3    0    0  0.15562319750E-01 -0.48551691002E-01 -0.12702894002E+00  0.89058172230E+00  0.88000000000E+00 0.  1.
        -11    1    4    4    0    0 -0.15830202051E-02  0.13584848473E-01  0.28291148414E-01  0.31427762576E-01  0.51100000000E-03 0.  1.
         11    1    4    4    0    0 -0.27138827744E-01  0.15934375723E-01  0.92856399443E-01  0.98045868549E-01  0.51100000000E-03 0. -1.
</event>
<event>
 8    1  0.1137518E+005  0.1043930E+01  0.7957747E-01            NaN
         13   -1    0    0    0    0  0.00000000000E+00  0.00000000000E+00  0.74505805969E-08  0.10566000000E+00  0.10566000000E+00 0. -1.
     999900   -1    0    0    0    0 -0.00000000000E+00 -0.00000000000E+00 -0.74505805969E-08  0.93827000000E+00  0.93827000000E+00 0. -1.
     999902    2    1    2    0    0 -0.36197140027E-02  0.20858913610E-01  0.96848774919E-02  0.10206492470E+01  0.10203836984E+01 0.  0.
     999903    2    3    3    0    0  0.34682464500E-01 -0.37928206913E-01  0.11910222999E+00  0.13110153081E+00  0.18995998758E-01 0.  0.
         14    1    1    2    0    0  0.36197140027E-02 -0.20858913610E-01 -0.96848774919E-02  0.23280752962E-01  0.00000000000E+00 0.  1.
     999901    1    3    3    0    0 -0.38302178502E-01  0.58787120523E-01 -0.10941735250E+00  0.88954771623E+00  0.88000000000E+00 0. -1.
        -11    1    4    4    0    0  0.17972689059E-01 -0.19756117790E-01  0.38935032033E-01  0.47217788836E-01  0.51100000000E-03 0.  1.
         11    1    4    4    0    0  0.16709775441E-01 -0.18172089123E-01  0.80167197957E-01  0.83883741974E-01  0.51100000000E-03 0. -1.
</event>
<event>
 8    1  0.1137518E+005  0.1043930E+01  0.7957747E-01            NaN
         13   -1    0    0    0    0  0.00000000000E+00  0.00000000000E+00  0.74505805969E-08  0.10566000000E+00  0.10566000000E+00 0. -1.
     999900   -1    0    0    0    0 -0.00000000000E+00 -0.00000000000E+00 -0.74505805969E-08  0.93827000000E+00  0.93827000000E+00 0. -1.
     999902    2    1    2    0    0 -0.59671153323E-03 -0.17089831583E-01 -0.16541940730E-01  0.10201381062E+01  0.10198606285E+01 0.  0.
     999903    2    3    3    0    0 -0.89205237163E-01 -0.30263916420E-01 -0.90907587921E-01  0.13246965636E+00  0.20261819786E-01 0.  0.
         14    1    1    2    0    0  0.59671153323E-03  0.17089831583E-01  0.16541940730E-01  0.23791893815E-01  0.00000000000E+00 0. -1.
     999901    1    3    3    0    0  0.88608525630E-01  0.13174084837E-01  0.74365647191E-01  0.88766844982E+00  0.88000000000E+00 0.  1.
        -11    1    4    4    0    0 -0.23008889465E-01 -0.15694827633E-01 -0.34085426825E-01  0.44020609398E-01  0.51100000000E-03 0. -1.
         11    1    4    4    0    0 -0.66196347698E-01 -0.14569088786E-01 -0.56822161096E-01  0.88449046966E-01  0.51100000000E-03 0.  1.
</event>
<event>
 8    1  0.1137518E+005  0.1043930E+01  0.7957747E-01            NaN
         13   -1    0    0    0    0  0.00000000000E+00  0.00000000000E+00  0.74505805969E-08  0.10566000000E+00  0.10566000000E+00 0.  1.
     999900   -1    0    0    0    0 -0.00000000000E+00 -0.00000000000E+00 -0.74505805969E-08  0.93827000000E+00  0.93827000000E+00 0. -1.
     999902    2    1    2    0    0 -0.20074854034E-02 -0.22097940665E-01 -0.78156499427E-02  0.10204048355E+01  0.10201336163E+01 0.  0.
     999903    2    3    3    0    0 -0.54905663115E-01 -0.77389736414E-01 -0.90556927661E-01  0.13321741513E+00  0.23292045892E-01 0.  0.
         14    1    1    2    0    0  0.20074854034E-02  0.22097940665E-01  0.78156499427E-02  0.23525164469E-01  0.00000000000E+00 0.  1.
     999901    1    3    3    0    0  0.52898177712E-01  0.55291795749E-01  0.82741277718E-01  0.88718742040E+00  0.88000000000E+00 0.  1.
        -11    1    4    4    0    0 -0.37997718436E-01 -0.52563069546E-01 -0.75750477644E-01  0.99725116550E-01  0.51100000000E-03 0.  1.
         11    1    4    4    0    0 -0.16907944679E-01 -0.24826666867E-01 -0.14806450017E-01  0.33492298579E-01  0.51100000000E-03 0. -1.
</event>
<event>
 8    1  0.1137518E+005  0.1043930E+01  0.7957747E-01            NaN
         13   -1    0    0    0    0  0.00000000000E+00  0.00000000000E+00  0.74505805969E-08  0.10566000000E+00  0.10566000000E+00 0. -1.
     999900   -1    0    0    0    0 -0.00000000000E+00 -0.00000000000E+00 -0.74505805969E-08  0.93827000000E+00  0.93827000000E+00 0.  1.
     999902    2    1    2    0    0 -0.51784154564E-02  0.22347700436E-01 -0.50012108769E-02  0.10204513328E+01  0.10201811971E+01 0.  0.
     999903    2    3    3    0    0  0.12960520576E-01  0.13040629484E+00  0.10821337859E-01  0.13351501389E+00  0.23138296233E-01 0.  0.
         14    1    1    2    0    0  0.51784154564E-02 -0.22347700436E-01  0.50012108769E-02  0.23478667161E-01  0.00000000000E+00 0.  1.
     999901    1    3    3    0    0 -0.18138936033E-01 -0.10805859441E+00 -0.15822548736E-01  0.88693631895E+00  0.88000000000E+00 0. -1.
        -11    1    4    4    0    0 -0.24687333186E-02  0.74889686298E-01  0.11960711762E-01  0.75880692570E-01  0.51100000000E-03 0.  1.
         11    1    4    4    0    0  0.15429253895E-01  0.55516608544E-01 -0.11393739027E-02  0.57634321319E-01  0.51100000000E-03 0. -1.
</event>
<event>
 8    1  0.1137518E+005  0.1043930E+01  0.7957747E-01            NaN
         13   -1    0    0    0    0  0.00000000000E+00  0.00000000000E+00  0.74505805969E-08  0.10566000000E+00  0.10566000000E+00 0. -1.
     999900   -1    0    0    0    0 -0.00000000000E+00 -0.00000000000E+00 -0.74505805969E-08  0.93827000000E+00  0.93827000000E+00 0. -1.
     999902    2    1    2    0    0 -0.14252576479E-01 -0.11292800388E-01  0.15856918543E-01  0.10198031448E+01  0.10195177041E+01 0.  0.
     999903    2    3    3    0    0  0.46306710933E-01  0.11086662878E+00  0.41766050941E-01  0.12892625286E+00  0.21020342800E-01 0.  0.
         14    1    1    2    0    0  0.14252576479E-01  0.11292800388E-01 -0.15856918543E-01  0.24126855215E-01  0.00000000000E+00 0.  1.
     999901    1    3    3    0    0 -0.60559287412E-01 -0.12215942916E+00 -0.25909132398E-01  0.89087689193E+00  0.88000000000E+00 0.  1.
        -11    1    4    4    0    0  0.12238032745E-01  0.13969707386E-01  0.11486336826E-01  0.21843058957E-01  0.51100000000E-03 0. -1.
         11    1    4    4    0    0  0.34068678188E-01  0.96896921390E-01  0.30279714115E-01  0.10708319390E+00  0.51100000000E-03 0.  1.
</event>
<event>
 8    1  0.1137518E+005  0.1043930E+01  0.7957747E-01            NaN
         13   -1    0    0    0    0  0.00000000000E+00  0.00000000000E+00  0.74505805969E-08  0.10566000000E+00  0.10566000000E+00 0. -1.
     999900   -1    0    0    0    0 -0.00000000000E+00 -0.00000000000E+00 -0.74505805969E-08  0.93827000000E+00  0.93827000000E+00 0. -1.
     999902    2    1    2    0    0 -0.13630462473E-01  0.10985046238E-01  0.13665732039E-01  0.10217216011E+01  0.10214802089E+01 0.  0.
     999903    2    3    3    0    0  0.51669542723E-01 -0.11744038147E+00 -0.15256678909E-02  0.12987634561E+00  0.20088619751E-01 0.  0.
         14    1    1    2    0    0  0.13630462473E-01 -0.10985046238E-01 -0.13665732039E-01  0.22208398867E-01  0.00000000000E+00 0.  1.
     999901    1    3    3    0    0 -0.65300005195E-01  0.12842542770E+00  0.15191399930E-01  0.89184525552E+00  0.88000000000E+00 0. -1.
        -11    1    4    4    0    0  0.40570529096E-02 -0.20967162811E-01 -0.60340827787E-02  0.22198037540E-01  0.51100000000E-03 0. -1.
         11    1    4    4    0    0  0.47612489813E-01 -0.96473218655E-01  0.45084148878E-02  0.10767830807E+00  0.51100000000E-03 0.  1.
</event>
<event>
 8    1  0.1137518E+005  0.1043930E+01  0.7957747E-01            NaN
         13   -1    0    0    0    0  0.00000000000E+00  0.00000000000E+00  0.74505805969E-08  0.10566000000E+00  0.10566000000E+00 0. -1.
     999900   -1    0    0    0    0 -0.00000000000E+00 -0.00000000000E+00 -0.74505805969E-08  0.93827000000E+00  0.93827000000E+00 0. -1.
     999902    2    1    2    0    0  0.14798474712E-01 -0.13314315547E-01  0.12986254747E-01  0.10201621927E+01  0.10198852831E+01 0.  0.
     999903    2    3    3    0    0 -0.11666524121E+00  0.26107695985E-02  0.52439707282E-01  0.12938001288E+00  0.19278750180E-01 0.  0.
         14    1    1    2    0    0 -0.14798474712E-01  0.13314315547E-01 -0.12986254747E-01  0.23767807317E-01  0.00000000000E+00 0. -1.
     999901    1    3    3    0    0  0.13146371592E+00 -0.15925085146E-01 -0.39453452535E-01  0.89078217980E+00  0.88000000000E+00 0. -1.
        -11    1    4    4    0    0 -0.51525101870E-01  0.19680600563E-02  0.12827625000E-01  0.53136790148E-01  0.51100000000E-03 0. -1.
         11    1    4    4    0    0 -0.65140139338E-01  0.64270954227E-03  0.39612082283E-01  0.76243222730E-01  0.51100000000E-03 0.  1.
</event>
<event>
 8    1  0.1137518E+005  0.1043930E+01  0.7957747E-01            NaN
         13   -1    0    0    0    0  0.00000000000E+00  0.00000000000E+00  0.74505805969E-08  0.10566000000E+00  0.10566000000E+00 0. -1.
     999900   -1    0    0    0    0 -0.00000000000E+00 -0.00000000000E+00 -0.74505805969E-08  0.93827000000E+00  0.93827000000E+00 0. -1.
     999902    2    1    2    0    0  0.88674912298E-02  0.20930153944E-01  0.81234628741E-02  0.10197909363E+01  0.10195052033E+01 0.  0.
     999903    2    3    3    0    0 -0.69954033921E-01 -0.10095216325E+00  0.29413480354E-01  0.12764666723E+00  0.18536793222E-01 0.  0.
         14    1    1    2    0    0 -0.88674912298E-02 -0.20930153944E-01 -0.81234628741E-02  0.24139063650E-01  0.00000000000E+00 0. -1.
     999901    1    3    3    0    0  0.78821525151E-01  0.12188231719E+00 -0.21290017480E-01  0.89214426912E+00  0.88000000000E+00 0.  1.
        -11    1    4    4    0    0 -0.64334924634E-01 -0.82749987615E-01  0.28232081804E-01  0.10855346398E+00  0.51100000000E-03 0.  1.
         11    1    4    4    0    0 -0.56191092870E-02 -0.18202175634E-01  0.11813985504E-02  0.19093203255E-01  0.51100000000E-03 0. -1.
</event>
<event>
 8    1  0.1137518E+005  0.1043930E+01  0.7957747E-01            NaN
         13   -1    0    0    0    0  0.00000000000E+00  0.00000000000E+00  0.74505805969E-08  0.10566000000E+00  0.10566000000E+00 0. -1.
     999900   -1    0    0    0    0 -0.00000000000E+00 -0.00000000000E+00 -0.74505805969E-08  0.93827000000E+00  0.93827000000E+00 0. -1.
     999902    2    1    2    0    0  0.10932216973E-01 -0.20630963531E-01  0.46683323552E-02  0.10201194277E+01  0.10198415090E+01 0.  0.
     999903    2    3    3    0    0 -0.12364453410E-01 -0.99349879052E-02 -0.12737239935E+00  0.12989929004E+00  0.19962808999E-01 0.  0.
         14    1    1    2    0    0 -0.10932216973E-01  0.20630963531E-01 -0.46683323552E-02  0.23810572256E-01  0.00000000000E+00 0.  1.
     999901    1    3    3    0    0  0.23296670383E-01 -0.10695975626E-01  0.13204073171E+00  0.89022013770E+00  0.88000000000E+00 0.  1.
        -11    1    4    4    0    0  0.18949740510E-02  0.39804203707E-02 -0.41877212517E-01  0.42111717160E-01  0.51100000000E-03 0. -1.
         11    1    4    4    0    0 -0.14259427461E-01 -0.13915408276E-01 -0.85495186835E-01  0.87787572879E-01  0.51100000000E-03 0.  1.
</event>
<event>
 8    1  0.1137518E+005  0.1043930E+01  0.7957747E-01            NaN
         13   -1    0    0    0    0  0.00000000000E+00  0.00000000000E+00  0.74505805969E-08  0.10566000000E+00  0.10566000000E+00 0.  1.
     999900   -1    0    0    0    0 -0.00000000000E+00 -0.00000000000E+00 -0.74505805969E-08  0.93827000000E+00  0.93827000000E+00 0. -1.
     999902    2    1    2    0    0 -0.13633285992E-01  0.16411746341E-01 -0.70007645492E-02  0.10214750983E+01  0.10212282575E+01 0.  0.
     999903    2    3    3    0    0  0.80660999150E-01 -0.98640906703E-01 -0.41162981428E-02  0.12898596936E+00  0.19601304073E-01 0.  0.
         14    1    1    2    0    0  0.13633285992E-01 -0.16411746341E-01  0.70007645492E-02  0.22454901674E-01  0.00000000000E+00 0.  1.
     999901    1    3    3    0    0 -0.94294285143E-01  0.11505265304E+00 -0.28844664064E-02  0.89248912897E+00  0.88000000000E+00 0.  1.
        -11    1    4    4    0    0  0.32063188497E-01 -0.42079741045E-01  0.77637735844E-02  0.53472328959E-01  0.51100000000E-03 0. -1.
         11    1    4    4    0    0  0.48597810654E-01 -0.56561165658E-01 -0.11880071727E-01  0.75513640398E-01  0.51100000000E-03 0.  1.
</event>
<event>
 8    1  0.1137518E+005  0.1043930E+01  0.7957747E-01            NaN
         13   -1    0    0    0    0  0.00000000000E+00  0.00000000000E+00  0.74505805969E-08  0.10566000000E+00  0.10566000000E+00 0.  1.
     999900   -1    0    0    0    0 -0.00000000000E+00 -0.00000000000E+00 -0.74505805969E-08  0.93827000000E+00  0.93827000000E+00 0. -1.
     999902    2    1    2    0    0 -0.12993386948E-01 -0.19814598076E-01 -0.24946504693E-02  0.10201041803E+01  0.10198259014E+01 0.  0.
     999903    2    3    3    0    0  0.33736771525E-01 -0.12403978393E+00  0.24157627939E-01  0.13232214571E+00  0.20038001569E-01 0.  0.
         14    1    1    2    0    0  0.12993386948E-01  0.19814598076E-01  0.24946504693E-02  0.23825819655E-01  0.00000000000E+00 0.  1.
     999901    1    3    3    0    0 -0.46730158473E-01  0.10422518585E+00 -0.26652278409E-01  0.88778203464E+00  0.88000000000E+00 0.  1.
        -11    1    4    4    0    0  0.17349699545E-01 -0.94290310093E-01  0.21461250556E-01  0.98247244482E-01  0.51100000000E-03 0. -1.
         11    1    4    4    0    0  0.16387071980E-01 -0.29749473837E-01  0.26963773835E-02  0.34074901227E-01  0.51100000000E-03 0.  1.
</event>
<event>
 8    1  0.1137518E+005  0.1043930E+01  0.7957747E-01            NaN
         13   -1    0    0    0    0  0.00000000000E+00  0.00000000000E+00  0.74505805969E-08  0.10566000000E+00  0.10566000000E+00 0.  1.
     999900   -1    0    0    0    0 -0.00000000000E+00 -0.00000000000E+00 -0.74505805969E-08  0.93827000000E+00  0.93827000000E+00 0.  1.
     999902    2    1    2    0    0  0.19947805685E-01 -0.88582920405E-02  0.97549296988E-02  0.10200230357E+01  0.10197428354E+01 0.  0.
     999903    2    3    3    0    0  0.45844476680E-01 -0.12167293903E+00 -0.12822473746E-01  0.13215619809E+00  0.19870196925E-01 0.  0.
         14    1    1    2    0    0 -0.19947805685E-01  0.88582920405E-02 -0.97549296988E-02  0.23906964319E-01  0.00000000000E+00 0. -1.
     999901    1    3    3    0    0 -0.25896670996E-01  0.11281464699E+00  0.22577403445E-01  0.88786683759E+00  0.88000000000E+00 0. -1.
        -11    1    4    4    0    0  0.20099811625E-02 -0.13963377522E-01 -0.69105281815E-02  0.15717266201E-01  0.51100000000E-03 0.  1.
         11    1    4    4    0    0  0.43834495518E-01 -0.10770956151E+00 -0.59119455646E-02  0.11643893189E+00  0.51100000000E-03 0. -1.
</event>
<event>
 8    1  0.1137518E+005  0.1043930E+01  0.7957747E-01            NaN
         13   -1    0    0    0    0  0.00000000000E+00  0.00000000000E+00  0.74505805969E-08  0.10566000000E+00  0.10566000000E+00 0. -1.
     999900   -1    0    0    0    0 -0.00000000000E+00 -0.00000000000E+00 -0.74505805969E-08  0.93827000000E+00  0.93827000000E+00 0.  1.
     999902    2    1    2    0    0  0.22031608485E-01  0.71996647024E-03  0.58872554245E-02  0.10211139990E+01  0.10208590643E+01 0.  0.
     999903    2    3    3    0    0 -0.15120591066E-01 -0.76137569946E-01 -0.10281910235E+00  0.13032533775E+00  0.19681565486E-01 0.  0.
         14    1    1    2    0    0 -0.22031608485E-01 -0.71996647024E-03 -0.58872554245E-02  0.22816000977E-01  0.00000000000E+00 0. -1.
     999901    1    3    3    0    0  0.37152199551E-01  0.76857536416E-01  0.10870635777E+00  0.89078866127E+00  0.88000000000E+00 0. -1.
        -11    1    4    4    0    0  0.24968927338E-02 -0.15002053678E-01 -0.29906904329E-01  0.33555627478E-01  0.51100000000E-03 0. -1.
         11    1    4    4    0    0 -0.17617483800E-01 -0.61135516268E-01 -0.72912198019E-01  0.96769710271E-01  0.51100000000E-03 0.  1.
</event>
<event>
 8    1  0.1137518E+005  0.1043930E+01  0.7957747E-01            NaN
         13   -1    0    0    0    0  0.00000000000E+00  0.00000000000E+00  0.74505805969E-08  0.10566000000E+00  0.10566000000E+00 0. -1.
     999900   -1    0    0    0    0 -0.00000000000E+00 -0.00000000000E+00 -0.74505805969E-08  0.93827000000E+00  0.93827000000E+00 0.  1.
     999902    2    1    2    0    0 -0.88726589459E-02  0.31299698300E-02 -0.21145489861E-01  0.10207858316E+01  0.10205234253E+01 0.  0.
     999903    2    3    3    0    0 -0.59049823655E-01 -0.28640791319E-01 -0.11486796579E+00  0.13381850889E+00  0.20138697932E-01 0.  0.
         14    1    1    2    0    0  0.88726589459E-02 -0.31299698300E-02  0.21145489861E-01  0.23144168366E-01  0.00000000000E+00 0. -1.
     999901    1    3    3    0    0  0.50177164709E-01  0.31770761149E-01  0.93722475933E-01  0.88696732274E+00  0.88000000000E+00 0. -1.
        -11    1    4    4    0    0 -0.48976826175E-01 -0.15218010931E-01 -0.93499115668E-01  0.10664268897E+00  0.51100000000E-03 0. -1.
         11    1    4    4    0    0 -0.10072997480E-01 -0.13422780388E-01 -0.21368850126E-01  0.27175819919E-01  0.51100000000E-03 0.  1.
</event>
<event>
 8    1  0.1137518E+005  0.1043930E+01  0.7957747E-01            NaN
         13   -1    0    0    0    0  0.00000000000E+00  0.00000000000E+00  0.74505805969E-08  0.10566000000E+00  0.10566000000E+00 0.  1.
     999900   -1    0    0    0    0 -0.00000000000E+00 -0.00000000000E+00 -0.74505805969E-08  0.93827000000E+00  0.93827000000E+00 0. -1.
     999902    2    1    2    0    0  0.54511636021E-02  0.21352969264E-01 -0.20587529798E-01  0.10137719022E+01  0.10133232252E+01 0.  0.
     999903    2    3    3    0    0 -0.86718175697E-01  0.52642020847E-01 -0.73747546733E-01  0.12681069713E+00  0.18735738663E-01 0.  0.
         14    1    1    2    0    0 -0.54511636021E-02 -0.21352969264E-01  0.20587529798E-01  0.30158097821E-01  0.00000000000E+00 0.  1.
     999901    1    3    3    0    0  0.92169339299E-01 -0.31289051583E-01  0.53160016935E-01  0.88696120505E+00  0.88000000000E+00 0.  1.
        -11    1    4    4    0    0 -0.74535581464E-01  0.51750664345E-01 -0.62361828269E-01  0.11010423657E+00  0.51100000000E-03 0.  1.
         11    1    4    4    0    0 -0.12182594233E-01  0.89135650182E-03 -0.11385718464E-01  0.16706460564E-01  0.51100000000E-03 0. -1.
</event>
<event>
 8    1  0.1137518E+005  0.1043930E+01  0.7957747E-01            NaN
         13   -1    0    0    0    0  0.00000000000E+00  0.00000000000E+00  0.74505805969E-08  0.10566000000E+00  0.10566000000E+00 0.  1.
     999900   -1    0    0    0    0 -0.00000000000E+00 -0.00000000000E+00 -0.74505805969E-08  0.93827000000E+00  0.93827000000E+00 0. -1.
     999902    2    1    2    0    0 -0.11628065301E-01  0.74185843168E-02 -0.18717785250E-01  0.10206791338E+01  0.10204142744E+01 0.  0.
     999903    2    3    3    0    0 -0.54402713640E-01 -0.70742610293E-02  0.11537173673E+00  0.12937687695E+00  0.20445983273E-01 0.  0.
         14    1    1    2    0    0  0.11628065301E-01 -0.74185843168E-02  0.18717785250E-01  0.23250866233E-01  0.00000000000E+00 0.  1.
     999901    1    3    3    0    0  0.42774648339E-01  0.14492845346E-01 -0.13408952198E+00  0.89130225682E+00  0.88000000000E+00 0. -1.
        -11    1    4    4    0    0 -0.46232046288E-01  0.12838704164E-02  0.83961066420E-01  0.95858083763E-01  0.51100000000E-03 0. -1.
         11    1    4    4    0    0 -0.81706673521E-02 -0.83581314457E-02  0.31410670310E-01  0.33518793185E-01  0.51100000000E-03 0.  1.
</event>
<event>
 8    1  0.1137518E+005  0.1043930E+01  0.7957747E-01            NaN
         13   -1    0    0    0    0  0.00000000000E+00  0.00000000000E+00  0.74505805969E-08  0.10566000000E+00  0.10566000000E+00 0. -1.
     999900   -1    0    0    0    0 -0.00000000000E+00 -0.00000000000E+00 -0.74505805969E-08  0.93827000000E+00  0.93827000000E+00 0. -1.
     999902    2    1    2    0    0  0.77448901871E-02 -0.33333543463E-02  0.21862274538E-01  0.10204981067E+01  0.10202290587E+01 0.  0.
     999903    2    3    3    0    0 -0.13893280569E-01  0.11677603664E+00 -0.49426915942E-01  0.12922002164E+00  0.20618632239E-01 0.  0.
         14    1    1    2    0    0 -0.77448901871E-02  0.33333543463E-02 -0.21862274538E-01  0.23431893290E-01  0.00000000000E+00 0.  1.
     999901    1    3    3    0    0  0.21638170757E-01 -0.12010939099E+00  0.71289190480E-01  0.89127808506E+00  0.88000000000E+00 0. -1.
        -11    1    4    4    0    0 -0.15543712406E-03  0.73852191242E-01 -0.25102807919E-01  0.78003733233E-01  0.51100000000E-03 0.  1.
         11    1    4    4    0    0 -0.13737843445E-01  0.42923845401E-01 -0.24324108024E-01  0.51216288412E-01  0.51100000000E-03 0. -1.
</event>
<event>
 8    1  0.1137518E+005  0.1043930E+01  0.7957747E-01            NaN
         13   -1    0    0    0    0  0.00000000000E+00  0.00000000000E+00  0.74505805969E-08  0.10566000000E+00  0.10566000000E+00 0.  1.
     999900   -1    0    0    0    0 -0.00000000000E+00 -0.00000000000E+00 -0.74505805969E-08  0.93827000000E+00  0.93827000000E+00 0.  1.
     999902    2    1    2    0    0  0.18354743292E-01 -0.12674940252E-01 -0.11026270400E-01  0.10190476900E+01  0.10187438663E+01 0.  0.
     999903    2    3    3    0    0  0.17310080787E-01 -0.12863650639E+00 -0.53625428387E-03  0.13137758429E+00  0.20317293403E-01 0.  0.
         14    1    1    2    0    0 -0.18354743292E-01  0.12674940252E-01  0.11026270400E-01  0.24882309994E-01  0.00000000000E+00 0.  1.
     999901    1    3    3    0    0  0.10446625051E-02  0.11596156614E+00 -0.10490016116E-01  0.88767010571E+00  0.88000000000E+00 0. -1.
        -11    1    4    4    0    0 -0.43666254678E-02 -0.28722671646E-01 -0.20199903125E-02  0.29127319930E-01  0.51100000000E-03 0.  1.
         11    1    4    4    0    0  0.21676706255E-01 -0.99913834748E-01  0.14837360286E-02  0.10225026436E+00  0.51100000000E-03 0. -1.
</event>
<event>
 8    1  0.1137518E+005  0.1043930E+01  0.7957747E-01            NaN
         13   -1    0    0    0    0  0.00000000000E+00  0.00000000000E+00  0.74505805969E-08  0.10566000000E+00  0.10566000000E+00 0.  1.
     999900   -1    0    0    0    0 -0.00000000000E+00 -0.00000000000E+00 -0.74505805969E-08  0.93827000000E+00  0.93827000000E+00 0.  1.
     999902    2    1    2    0    0 -0.21143220254E-01  0.34020421747E-02 -0.10558894978E-01  0.10200532348E+01  0.10197737503E+01 0.  0.
     999903    2    3    3    0    0 -0.19817965166E-01 -0.98705274619E-01 -0.81800897010E-01  0.13128831464E+00  0.20242327630E-01 0.  0.
         14    1    1    2    0    0  0.21143220254E-01 -0.34020421747E-02  0.10558894978E-01  0.23876765208E-01  0.00000000000E+00 0.  1.
     999901    1    3    3    0    0 -0.13252550874E-02  0.10210731679E+00  0.71242002032E-01  0.88876492015E+00  0.88000000000E+00 0.  1.
        -11    1    4    4    0    0 -0.23407795178E-01 -0.92974190268E-01 -0.77180254693E-01  0.12308199611E+00  0.51100000000E-03 0.  1.
         11    1    4    4    0    0  0.35898300115E-02 -0.57310843506E-02 -0.46206423166E-02  0.82063185268E-02  0.51100000000E-03 0. -1.
</event>
<event>
 8    1  0.1137518E+005  0.1043930E+01  0.7957747E-01            NaN
         13   -1    0    0    0    0  0.00000000000E+00  0.00000000000E+00  0.74505805969E-08  0.10566000000E+00  0.10566000000E+00 0. -1.
     999900   -1    0    0    0    0 -0.00000000000E+00 -0.00000000000E+00 -0.74505805969E-08  0.93827000000E+00  0.93827000000E+00 0. -1.
     999902    2    1    2    0    0 -0.42433303795E-02 -0.23390306665E-01  0.33540287900E-02  0.10199224635E+01  0.10196398726E+01 0.  0.
     999903    2    3    3    0    0 -0.30776975760E-01 -0.25891450011E-02 -0.12470203145E+00  0.13001512159E+00  0.19985226664E-01 0.  0.
         14    1    1    2    0    0  0.42433303795E-02  0.23390306665E-01 -0.33540287900E-02  0.24007536477E-01  0.00000000000E+00 0.  1.
     999901    1    3    3    0    0  0.26533645380E-01 -0.20801161664E-01  0.12805606024E+00  0.88990734193E+00  0.88000000000E+00 0.  1.
        -11    1    4    4    0    0 -0.10757268226E-02 -0.53304273464E-02 -0.36460985030E-01  0.36867807017E-01  0.51100000000E-03 0.  1.
         11    1    4    4    0    0 -0.29701248937E-01  0.27412823453E-02 -0.88241046421E-01  0.93147314571E-01  0.51100000000E-03 0. -1.
</event>
<event>
 8    1  0.1137518E+005  0.1043930E+01  0.7957747E-01            NaN
         13   -1    0    0    0    0  0.00000000000E+00  0.00000000000E+00  0.74505805969E-08  0.10566000000E+00  0.10566000000E+00 0.  1.
     999900   -1    0    0    0    0 -0.00000000000E+00 -0.00000000000E+00 -0.74505805969E-08  0.93827000000E+00  0.93827000000E+00 0. -1.
     999902    2    1    2    0    0 -0.13037996505E-01 -0.98765495336E-03 -0.19295247517E-01  0.10206218171E+01  0.10203556351E+01 0.  0.
     999903    2    3    3    0    0 -0.49349120779E-02  0.87638775620E-01 -0.97474416305E-01  0.13268472098E+00  0.19976611247E-01 0.  0.
         14    1    1    2    0    0  0.13037996505E-01  0.98765495336E-03  0.19295247517E-01  0.23308182939E-01  0.00000000000E+00 0.  1.
     999901    1    3    3    0    0 -0.81030844274E-02 -0.88626430573E-01  0.78179168788E-01  0.88793709609E+00  0.88000000000E+00 0.  1.
        -11    1    4    4    0    0  0.49989629023E-03  0.28168756917E-01 -0.45482196624E-01  0.53503458704E-01  0.51100000000E-03 0.  1.
         11    1    4    4    0    0 -0.54348083681E-02  0.59470018703E-01 -0.51992219681E-01  0.79181262271E-01  0.51100000000E-03 0. -1.
</event>
<event>
 8    1  0.1137518E+005  0.1043930E+01  0.7957747E-01            NaN
         13   -1    0    0    0    0  0.00000000000E+00  0.00000000000E+00  0.74505805969E-08  0.10566000000E+00  0.10566000000E+00 0. -1.
     999900   -1    0    0    0    0 -0.00000000000E+00 -0.00000000000E+00 -0.74505805969E-08  0.93827000000E+00  0.93827000000E+00 0. -1.
     999902    2    1    2    0    0 -0.16066993544E-01 -0.10835112099E-01 -0.93905401332E-02  0.10223956047E+01  0.10221687935E+01 0.  0.
     999903    2    3    3    0    0  0.95405330399E-01  0.25497867876E-01 -0.84501516685E-01  0.13144789401E+00  0.19639862071E-01 0.  0.
         14    1    1    2    0    0  0.16066993544E-01  0.10835112099E-01  0.93905401332E-02  0.21534395272E-01  0.00000000000E+00 0. -1.
     999901    1    3    3    0    0 -0.11147232394E+00 -0.36332979974E-01  0.75110976552E-01  0.89094771072E+00  0.88000000000E+00 0.  1.
        -11    1    4    4    0    0  0.53367085870E-01  0.43577315319E-02 -0.47642308737E-01  0.71673470553E-01  0.51100000000E-03 0.  1.
         11    1    4    4    0    0  0.42038244529E-01  0.21140136344E-01 -0.36859207948E-01  0.59774423454E-01  0.51100000000E-03 0. -1.
</event>
<event>
 8    1  0.1137518E+005  0.1043930E+01  0.7957747E-01            NaN
         13   -1    0    0    0    0  0.00000000000E+00  0.00000000000E+00  0.74505805969E-08  0.10566000000E+00  0.10566000000E+00 0.  1.
     999900   -1    0    0    0    0 -0.00000000000E+00 -0.00000000000E+00 -0.74505805969E-08  0.93827000000E+00  0.93827000000E+00 0. -1.
     999902    2    1    2    0    0  0.13147681093E-01 -0.13072151423E-01  0.13146304274E-01  0.10212018682E+01  0.10209489153E+01 0.  0.
     999903    2    3    3    0    0 -0.61434800909E-01 -0.10407340343E+00  0.51493092731E-01  0.13254318752E+00  0.17625262958E-01 0.  0.
         14    1    1    2    0    0 -0.13147681093E-01  0.13072151423E-01 -0.13146304274E-01  0.22728131842E-01  0.00000000000E+00 0. -1.
     999901    1    3    3    0    0  0.74582482002E-01  0.91001252009E-01 -0.38346788456E-01  0.88865868064E+00  0.88000000000E+00 0. -1.
        -11    1    4    4    0    0 -0.36791026365E-01 -0.74722226810E-01  0.29542734863E-01  0.88374346417E-01  0.51100000000E-03 0.  1.
         11    1    4    4    0    0 -0.24643774544E-01 -0.29351176622E-01  0.21950357868E-01  0.44168841103E-01  0.51100000000E-03 0. -1.
</event>
<event>
 8    1  0.1137518E+005  0.1043930E+01  0.7957747E-01            NaN
         13   -1    0    0    0    0  0.00000000000E+00  0.00000000000E+00  0.74505805969E-08  0.10566000000E+00  0.10566000000E+00 0.  1.
     999900   -1    0    0    0    0 -0.00000000000E+00 -0.00000000000E+00 -0.74505805969E-08  0.93827000000E+00  0.93827000000E+00 0. -1.
     999902    2    1    2    0    0 -0.12098479414E-01  0.21877542476E-01  0.10498817882E-01  0.10168149627E+01  0.10164533650E+01 0.  0.
     999903    2    3    3    0    0 -0.17215137544E-01  0.12066713757E+00 -0.40447098405E-01  0.12980816982E+00  0.18901696544E-01 0.  0.
         14    1    1    2    0    0  0.12098479414E-01 -0.21877542476E-01 -0.10498817882E-01  0.27115037265E-01  0.00000000000E+00 0.  1.
     999901    1    3    3    0    0  0.51166581302E-02 -0.98789595096E-01  0.50945916287E-01  0.88700679291E+00  0.88000000000E+00 0.  1.
        -11    1    4    4    0    0 -0.14707161701E-01  0.58587852028E-01 -0.12535581286E-01  0.61694723678E-01  0.51100000000E-03 0.  1.
         11    1    4    4    0    0 -0.25079758436E-02  0.62079285544E-01 -0.27911517119E-01  0.68113446143E-01  0.51100000000E-03 0. -1.
</event>
<event>
 8    1  0.1137518E+005  0.1043930E+01  0.7957747E-01            NaN
         13   -1    0    0    0    0  0.00000000000E+00  0.00000000000E+00  0.74505805969E-08  0.10566000000E+00  0.10566000000E+00 0.  1.
     999900   -1    0    0    0    0 -0.00000000000E+00 -0.00000000000E+00 -0.74505805969E-08  0.93827000000E+00  0.93827000000E+00 0. -1.
     999902    2    1    2    0    0  0.16184900877E-01  0.16766089741E-01  0.78469384937E-03  0.10206132994E+01  0.10203469206E+01 0.  0.
     999903    2    3    3    0    0 -0.69898832190E-01 -0.59548023223E-01  0.88104676569E-01  0.12884032813E+00  0.20139074167E-01 0.  0.
         14    1    1    2    0    0 -0.16184900877E-01 -0.16766089741E-01 -0.78469384937E-03  0.23316700582E-01  0.00000000000E+00 0. -1.
     999901    1    3    3    0    0  0.86083733066E-01  0.76314112964E-01 -0.87319982720E-01  0.89177297129E+00  0.88000000000E+00 0.  1.
        -11    1    4    4    0    0 -0.15153892759E-01 -0.33076420652E-02  0.14774572978E-01  0.21427321099E-01  0.51100000000E-03 0. -1.
         11    1    4    4    0    0 -0.54744939431E-01 -0.56240381158E-01  0.73330103591E-01  0.10741300703E+00  0.51100000000E-03 0.  1.
</event>
<event>
 8    1  0.1137518E+005  0.1043930E+01  0.7957747E-01            NaN
         13   -1    0    0    0    0  0.00000000000E+00  0.00000000000E+00  0.74505805969E-08  0.10566000000E+00  0.10566000000E+00 0. -1.
     999900   -1    0    0    0    0 -0.00000000000E+00 -0.00000000000E+00 -0.74505805969E-08  0.93827000000E+00  0.93827000000E+00 0.  1.
     999902    2    1    2    0    0 -0.16475763028E-01  0.37607061319E-02  0.13065287560E-01  0.10225689275E+01  0.10223457909E+01 0.  0.
     999903    2    3    3    0    0 -0.10667363625E+00 -0.75372397541E-01 -0.20832633079E-01  0.13377942858E+00  0.20066736848E-01 0.  0.
         14    1    1    2    0    0  0.16475763028E-01 -0.37607061319E-02 -0.13065287560E-01  0.21361072468E-01  0.00000000000E+00 0. -1.
     999901    1    3    3    0    0  0.90197873220E-01  0.79133103673E-01  0.33897920639E-01  0.88878949896E+00  0.88000000000E+00 0. -1.
        -11    1    4    4    0    0 -0.48388752666E-01 -0.42874773168E-01 -0.30895117394E-02  0.64726530592E-01  0.51100000000E-03 0.  1.
         11    1    4    4    0    0 -0.58284883582E-01 -0.32497624373E-01 -0.17743121339E-01  0.69052897984E-01  0.51100000000E-03 0. -1.
</event>
<event>
 8    1  0.1137518E+005  0.1043930E+01  0.7957747E-01            NaN
         13   -1    0    0    0    0  0.00000000000E+00  0.00000000000E+00  0.74505805969E-08  0.10566000000E+00  0.10566000000E+00 0. -1.
     999900   -1    0    0    0    0 -0.00000000000E+00 -0.00000000000E+00 -0.74505805969E-08  0.93827000000E+00  0.93827000000E+00 0. -1.
     999902    2    1    2    0    0  0.18728104590E-01  0.80626010272E-02 -0.11830201439E-01  0.10203566866E+01  0.10200843430E+01 0.  0.
     999903    2    3    3    0    0  0.14610473433E-01  0.12627129702E+00  0.27287007822E-01  0.13158202073E+00  0.20281543324E-01 0.  0.
         14    1    1    2    0    0 -0.18728104590E-01 -0.80626010272E-02  0.11830201439E-01  0.23573313364E-01  0.00000000000E+00 0. -1.
     999901    1    3    3    0    0  0.41176311576E-02 -0.11820869599E+00 -0.39117209261E-01  0.88877466590E+00  0.88000000000E+00 0.  1.
        -11    1    4    4    0    0  0.10770322922E-01  0.63763083666E-01  0.40957337501E-02  0.64797892330E-01  0.51100000000E-03 0.  1.
         11    1    4    4    0    0  0.38401505107E-02  0.62508213350E-01  0.23191274072E-01  0.66784128401E-01  0.51100000000E-03 0. -1.
</event>
<event>
 8    1  0.1137518E+005  0.1043930E+01  0.7957747E-01            NaN
         13   -1    0    0    0    0  0.00000000000E+00  0.00000000000E+00  0.74505805969E-08  0.10566000000E+00  0.10566000000E+00 0. -1.
     999900   -1    0    0    0    0 -0.00000000000E+00 -0.00000000000E+00 -0.74505805969E-08  0.93827000000E+00  0.93827000000E+00 0. -1.
     999902    2    1    2    0    0  0.12429127273E-01 -0.19616207771E-01  0.29346763976E-02  0.10205229255E+01  0.10202544537E+01 0.  0.
     999903    2    3    3    0    0 -0.89352022258E-02 -0.11958249067E-01  0.12879908164E+00  0.13127778076E+00  0.20538128652E-01 0.  0.
         14    1    1    2    0    0 -0.12429127273E-01  0.19616207771E-01 -0.29346763976E-02  0.23407074521E-01  0.00000000000E+00 0.  1.
     999901    1    3    3    0    0  0.21364329499E-01 -0.76579587038E-02 -0.12586440524E+00  0.88924514472E+00  0.88000000000E+00 0. -1.
        -11    1    4    4    0    0 -0.11056911911E-01 -0.75628616649E-02  0.37104248137E-01  0.39451724023E-01  0.51100000000E-03 0.  1.
         11    1    4    4    0    0  0.21217096856E-02 -0.43953874026E-02  0.91694833505E-01  0.91826056732E-01  0.51100000000E-03 0. -1.
</event>
<event>
 8    1  0.1137518E+005  0.1043930E+01  0.7957747E-01            NaN
         13   -1    0    0    0    0  0.00000000000E+00  0.00000000000E+00  0.74505805969E-08  0.10566000000E+00  0.10566000000E+00 0.  1.
     999900   -1    0    0    0    0 -0.00000000000E+00 -0.00000000000E+00 -0.74505805969E-08  0.93827000000E+00  0.93827000000E+00 0.  1.
     999902    2    1    2    0    0  0.13366451163E-01 -0.43524648866E-02 -0.20050569858E-01  0.10194426294E+01  0.10191484893E+01 0.  0.
     999903    2    3    3    0    0 -0.45003875194E-01  0.59744408379E-01  0.10058477062E+00  0.12699185231E+00  0.20368882068E-01 0.  0.
         14    1    1    2    0    0 -0.13366451163E-01  0.43524648866E-02  0.20050569858E-01  0.24487370600E-01  0.00000000000E+00 0.  1.
     999901    1    3    3    0    0  0.58370326357E-01 -0.64096873266E-01 -0.12063534048E+00  0.89245077709E+00  0.88000000000E+00 0.  1.
        -11    1    4    4    0    0 -0.43244069408E-02  0.20610375190E-01  0.26584180789E-01  0.33918547287E-01  0.51100000000E-03 0.  1.
         11    1    4    4    0    0 -0.40679468253E-01  0.39134033190E-01  0.74000589831E-01  0.93073305020E-01  0.51100000000E-03 0. -1.
</event>
<event>
 8    1  0.1137518E+005  0.1043930E+01  0.7957747E-01            NaN
         13   -1    0    0    0    0  0.00000000000E+00  0.00000000000E+00  0.74505805969E-08  0.10566000000E+00  0.10566000000E+00 0.  1.
     999900   -1    0    0    0    0 -0.00000000000E+00 -0.00000000000E+00 -0.74505805969E-08  0.93827000000E+00  0.93827000000E+00 0. -1.
     999902    2    1    2    0    0 -0.19409670071E-01  0.60734799313E-03  0.14125893999E-01  0.10199165653E+01  0.10196338339E+01 0.  0.
     999903    2    3    3    0    0  0.75573689584E-01  0.54298040982E-01 -0.85026392550E-01  0.12765219583E+00  0.20147849998E-01 0.  0.
         14    1    1    2    0    0  0.19409670071E-01 -0.60734799313E-03 -0.14125893999E-01  0.24013434680E-01  0.00000000000E+00 0. -1.
     999901    1    3    3    0    0 -0.94983359655E-01 -0.53690692989E-01  0.99152286549E-01  0.89226436949E+00  0.88000000000E+00 0.  1.
        -11    1    4    4    0    0  0.49428843174E-01  0.32381681243E-01 -0.65988767153E-01  0.88580823709E-01  0.51100000000E-03 0.  1.
         11    1    4    4    0    0  0.26144846410E-01  0.21916359739E-01 -0.19037625397E-01  0.39071372125E-01  0.51100000000E-03 0. -1.
</event>
<event>
 8    1  0.1137518E+005  0.1043930E+01  0.7957747E-01            NaN
         13   -1    0    0    0    0  0.00000000000E+00  0.00000000000E+00  0.74505805969E-08  0.10566000000E+00  0.10566000000E+00 0. -1.
     999900   -1    0    0    0    0 -0.00000000000E+00 -0.00000000000E+00 -0.74505805969E-08  0.93827000000E+00  0.93827000000E+00 0. -1.
     999902    2    1    2    0    0 -0.86073343918E-02  0.80680345775E-03 -0.21906264764E-01  0.10203795951E+01  0.10201077867E+01 0.  0.
     999903    2    3    3    0    0  0.60994669600E-01  0.11236560228E+00 -0.17228582390E-01  0.13059777614E+00  0.20311986311E-01 0.  0.
         14    1    1    2    0    0  0.86073343918E-02 -0.80680345775E-03  0.21906264764E-01  0.23550404945E-01  0.00000000000E+00 0. -1.
     999901    1    3    3    0    0 -0.69602003992E-01 -0.11155879882E+00 -0.46776823742E-02  0.88978181891E+00  0.88000000000E+00 0. -1.
        -11    1    4    4    0    0  0.46235169848E-01  0.87309665074E-01 -0.21752182474E-01  0.10116366497E+00  0.51100000000E-03 0. -1.
         11    1    4    4    0    0  0.14759499752E-01  0.25055937203E-01  0.45236000839E-02  0.29434111176E-01  0.51100000000E-03 0.  1.
</event>
<event>
 8    1  0.1137518E+005  0.1043930E+01  0.7957747E-01            NaN
         13   -1    0    0    0    0  0.00000000000E+00  0.00000000000E+00  0.74505805969E-08  0.10566000000E+00  0.10566000000E+00 0.  1.
     999900   -1    0    0    0    0 -0.00000000000E+00 -0.00000000000E+00 -0.74505805969E-08  0.93827000000E+00  0.93827000000E+00 0. -1.
     999902    2    1    2    0    0  0.22313870270E-01  0.30464376381E-02  0.79597489276E-02  0.10200438703E+01  0.10197641640E+01 0.  0.
     999903    2    3    3    0    0  0.71941959769E-01  0.74669924698E-01 -0.78420315686E-01  0.13153141303E+00  0.19988083270E-01 0.  0.
         14    1    1    2    0    0 -0.22313870270E-01 -0.30464376381E-02 -0.79597489276E-02  0.23886129692E-01  0.00000000000E+00 0. -1.
     999901    1    3    3    0    0 -0.49628089499E-01 -0.71623487060E-01  0.86380064614E-01  0.88851245727E+00  0.88000000000E+00 0.  1.
        -11    1    4    4    0    0  0.38962699863E-01  0.33729717971E-01 -0.49826644823E-01  0.71685015940E-01  0.51100000000E-03 0.  1.
         11    1    4    4    0    0  0.32979259905E-01  0.40940206727E-01 -0.28593670864E-01  0.59846397095E-01  0.51100000000E-03 0. -1.
</event>
<event>
 8    1  0.1137518E+005  0.1043930E+01  0.7957747E-01            NaN
         13   -1    0    0    0    0  0.00000000000E+00  0.00000000000E+00  0.74505805969E-08  0.10566000000E+00  0.10566000000E+00 0.  1.
     999900   -1    0    0    0    0 -0.00000000000E+00 -0.00000000000E+00 -0.74505805969E-08  0.93827000000E+00  0.93827000000E+00 0. -1.
     999902    2    1    2    0    0 -0.10128544087E-01 -0.20582369114E-01 -0.72166732783E-02  0.10198820958E+01  0.10195985424E+01 0.  0.
     999903    2    3    3    0    0 -0.10459247686E+00  0.38649149911E-02 -0.77726492816E-01  0.13168575548E+00  0.18579739647E-01 0.  0.
         14    1    1    2    0    0  0.10128544087E-01  0.20582369114E-01  0.72166732783E-02  0.24047904210E-01  0.00000000000E+00 0. -1.
     999901    1    3    3    0    0  0.94463932777E-01 -0.24447284105E-01  0.70509819538E-01  0.88819634031E+00  0.88000000000E+00 0. -1.
        -11    1    4    4    0    0 -0.36867809909E-01 -0.73001620226E-02 -0.29841032040E-01  0.47992458650E-01  0.51100000000E-03 0. -1.
         11    1    4    4    0    0 -0.67724666955E-01  0.11165077014E-01 -0.47885460777E-01  0.83693296826E-01  0.51100000000E-03 0.  1.
</event>
<event>
 8    1  0.1137518E+005  0.1043930E+01  0.7957747E-01            NaN
         13   -1    0    0    0    0  0.00000000000E+00  0.00000000000E+00  0.74505805969E-08  0.10566000000E+00  0.10566000000E+00 0.  1.
     999900   -1    0    0    0    0 -0.00000000000E+00 -0.00000000000E+00 -0.74505805969E-08  0.93827000000E+00  0.93827000000E+00 0. -1.
     999902    2    1    2    0    0 -0.69576785571E-02 -0.20972711403E-01 -0.81116441938E-02  0.10203914638E+01  0.10201199325E+01 0.  0.
     999903    2    3    3    0    0 -0.91688466141E-01 -0.92468920748E-01 -0.20989976821E-01  0.13334193545E+00  0.19550357907E-01 0.  0.
         14    1    1    2    0    0  0.69576785571E-02  0.20972711403E-01  0.81116441938E-02  0.23538536191E-01  0.00000000000E+00 0.  1.
     999901    1    3    3    0    0  0.84730787584E-01  0.71496209345E-01  0.12878332627E-01  0.88704952836E+00  0.88000000000E+00 0. -1.
        -11    1    4    4    0    0 -0.10145681924E-01 -0.11142382927E-01  0.37720299679E-02  0.15542743968E-01  0.51100000000E-03 0. -1.
         11    1    4    4    0    0 -0.81542784217E-01 -0.81326537822E-01 -0.24762006789E-01  0.11779919148E+00  0.51100000000E-03 0.  1.
</event>
<event>
 8    1  0.1137518E+005  0.1043930E+01  0.7957747E-01            NaN
         13   -1    0    0    0    0  0.00000000000E+00  0.00000000000E+00  0.74505805969E-08  0.10566000000E+00  0.10566000000E+00 0.  1.
     999900   -1    0    0    0    0 -0.00000000000E+00 -0.00000000000E+00 -0.74505805969E-08  0.93827000000E+00  0.93827000000E+00 0.  1.
     999902    2    1    2    0    0 -0.88950127484E-03  0.12247186321E-01 -0.23144498632E-01  0.10177297595E+01  0.10173924566E+01 0.  0.
     999903    2    3    3    0    0  0.42440962552E-01  0.11235888532E+00 -0.47291020464E-01  0.13066553641E+00  0.20280221306E-01 0.  0.
         14    1    1    2    0    0  0.88950127484E-03 -0.12247186321E-01  0.23144498632E-01  0.26200240499E-01  0.00000000000E+00 0.  1.
     999901    1    3    3    0    0 -0.43330463826E-01 -0.10011169900E+00  0.24146521832E-01  0.88706422309E+00  0.88000000000E+00 0. -1.
        -11    1    4    4    0    0  0.14584855114E-01  0.65838685509E-01 -0.23031942648E-01  0.71261364086E-01  0.51100000000E-03 0.  1.
         11    1    4    4    0    0  0.27856107438E-01  0.46520199810E-01 -0.24259077816E-01  0.59404172324E-01  0.51100000000E-03 0. -1.
</event>
<event>
 8    1  0.1137518E+005  0.1043930E+01  0.7957747E-01            NaN
         13   -1    0    0    0    0  0.00000000000E+00  0.00000000000E+00  0.74505805969E-08  0.10566000000E+00  0.10566000000E+00 0.  1.
     999900   -1    0    0    0    0 -0.00000000000E+00 -0.00000000000E+00 -0.74505805969E-08  0.93827000000E+00  0.93827000000E+00 0.  1.
     999902    2    1    2    0    0 -0.21246106001E-01  0.10594759396E-01  0.10345673815E-02  0.10201662403E+01  0.10198894261E+01 0.  0.
     999903    2    3    3    0    0  0.38456718554E-01  0.70212688525E-01  0.10112341207E+00  0.13048286875E+00  0.19776089994E-01 0.  0.
         14    1    1    2    0    0  0.21246106001E-01 -0.10594759396E-01 -0.10345673815E-02  0.23763759731E-01  0.00000000000E+00 0. -1.
     999901    1    3    3    0    0 -0.59702824555E-01 -0.59617929128E-01 -0.10008884469E+00  0.88968337152E+00  0.88000000000E+00 0.  1.
        -11    1    4    4    0    0  0.28160867330E-01  0.33091411375E-01  0.46549204473E-01  0.63680181482E-01  0.51100000000E-03 0.  1.
         11    1    4    4    0    0  0.10295851224E-01  0.37121277150E-01  0.54574207598E-01  0.66802687264E-01  0.51100000000E-03 0. -1.
</event>
<event>
 8    1  0.1137518E+005  0.1043930E+01  0.7957747E-01            NaN
         13   -1    0    0    0    0  0.00000000000E+00  0.00000000000E+00  0.74505805969E-08  0.10566000000E+00  0.10566000000E+00 0.  1.
     999900   -1    0    0    0    0 -0.00000000000E+00 -0.00000000000E+00 -0.74505805969E-08  0.93827000000E+00  0.93827000000E+00 0. -1.
     999902    2    1    2    0    0  0.11068557245E-01 -0.11977919348E-01  0.17025984843E-01  0.10203531539E+01  0.10200807277E+01 0.  0.
     999903    2    3    3    0    0  0.76564341137E-01 -0.10566640493E+00 -0.16296316135E-01  0.13233423194E+00  0.14808496186E-01 0.  0.
         14    1    1    2    0    0 -0.11068557245E-01  0.11977919348E-01 -0.17025984843E-01  0.23576846083E-01  0.00000000000E+00 0. -1.
     999901    1    3    3    0    0 -0.65495783893E-01  0.93688485586E-01  0.33322300977E-01  0.88801892197E+00  0.88000000000E+00 0. -1.
        -11    1    4    4    0    0  0.15708682454E-01 -0.32909456624E-01 -0.49424607316E-02  0.36803316139E-01  0.51100000000E-03 0. -1.
         11    1    4    4    0    0  0.60855658683E-01 -0.72756948310E-01 -0.11353855403E-01  0.95530915805E-01  0.51100000000E-03 0.  1.
</event>
<event>
 8    1  0.1137518E+005  0.1043930E+01  0.7957747E-01            NaN
         13   -1    0    0    0    0  0.00000000000E+00  0.00000000000E+00  0.74505805969E-08  0.10566000000E+00  0.10566000000E+00 0.  1.
     999900   -1    0    0    0    0 -0.00000000000E+00 -0.00000000000E+00 -0.74505805969E-08  0.93827000000E+00  0.93827000000E+00 0.  1.
     999902    2    1    2    0    0 -0.13027887476E-01  0.17680652129E-01 -0.52612204819E-02  0.10213465602E+01  0.10210968535E+01 0.  0.
     999903    2    3    3    0    0  0.45902340631E-01 -0.81703566258E-01 -0.87954654115E-01  0.12994979186E+00  0.19194520326E-01 0.  0.
         14    1    1    2    0    0  0.13027887476E-01 -0.17680652129E-01  0.52612204819E-02  0.22583439790E-01  0.00000000000E+00 0.  1.
     999901    1    3    3    0    0 -0.58930228107E-01  0.99384218387E-01  0.82693433633E-01  0.89139676834E+00  0.88000000000E+00 0. -1.
        -11    1    4    4    0    0  0.29671640435E-01 -0.42506799153E-01 -0.59232599502E-01  0.78714650384E-01  0.51100000000E-03 0.  1.
         11    1    4    4    0    0  0.16230700196E-01 -0.39196767105E-01 -0.28722054613E-01  0.51235141481E-01  0.51100000000E-03 0. -1.
</event>
<event>
 8    1  0.1137518E+005  0.1043930E+01  0.7957747E-01            NaN
         13   -1    0    0    0    0  0.00000000000E+00  0.00000000000E+00  0.74505805969E-08  0.10566000000E+00  0.10566000000E+00 0. -1.
     999900   -1    0    0    0    0 -0.00000000000E+00 -0.00000000000E+00 -0.74505805969E-08  0.93827000000E+00  0.93827000000E+00 0. -1.
     999902    2    1    2    0    0  0.75919664306E-02 -0.20465690964E-02 -0.22260890084E-01  0.10203212383E+01  0.10200480654E+01 0.  0.
     999903    2    3    3    0    0  0.54825204729E-01 -0.31693431042E-01  0.11053024360E+00  0.12861310201E+00  0.17723391739E-01 0.  0.
         14    1    1    2    0    0 -0.75919664306E-02  0.20465690964E-02  0.22260890084E-01  0.23608761651E-01  0.00000000000E+00 0. -1.
     999901    1    3    3    0    0 -0.47233238298E-01  0.29646861946E-01 -0.13279113368E+00  0.89170813634E+00  0.88000000000E+00 0. -1.
        -11    1    4    4    0    0  0.22266695069E-01 -0.19931528005E-01  0.63808426341E-01  0.70461676896E-01  0.51100000000E-03 0.  1.
         11    1    4    4    0    0  0.32558509659E-01 -0.11761903038E-01  0.46721817258E-01  0.58151425117E-01  0.51100000000E-03 0. -1.
</event>
<event>
 8    1  0.1137518E+005  0.1043930E+01  0.7957747E-01            NaN
         13   -1    0    0    0    0  0.00000000000E+00  0.00000000000E+00  0.74505805969E-08  0.10566000000E+00  0.10566000000E+00 0.  1.
     999900   -1    0    0    0    0 -0.00000000000E+00 -0.00000000000E+00 -0.74505805969E-08  0.93827000000E+00  0.93827000000E+00 0.  1.
     999902    2    1    2    0    0  0.55910203107E-02 -0.13642390346E-01  0.16166034702E-01  0.10220504433E+01  0.10218162231E+01 0.  0.
     999903    2    3    3    0    0  0.63302436771E-01 -0.11240119998E+00 -0.28156929197E-01  0.13354133521E+00  0.19981173401E-01 0.  0.
         14    1    1    2    0    0 -0.55910203107E-02  0.13642390346E-01 -0.16166034702E-01  0.21879556679E-01  0.00000000000E+00 0. -1.
     999901    1    3    3    0    0 -0.57711416461E-01  0.98758809630E-01  0.44322963898E-01  0.88850910811E+00  0.88000000000E+00 0. -1.
        -11    1    4    4    0    0  0.39323849057E-01 -0.86174731670E-01 -0.24310423853E-01  0.97794208990E-01  0.51100000000E-03 0.  1.
         11    1    4    4    0    0  0.23978587715E-01 -0.26226468306E-01 -0.38465053436E-02  0.35747126220E-01  0.51100000000E-03 0. -1.
</event>
<event>
 8    1  0.1137518E+005  0.1043930E+01  0.7957747E-01            NaN
         13   -1    0    0    0    0  0.00000000000E+00  0.00000000000E+00  0.74505805969E-08  0.10566000000E+00  0.10566000000E+00 0. -1.
     999900   -1    0    0    0    0 -0.00000000000E+00 -0.00000000000E+00 -0.74505805969E-08  0.93827000000E+00  0.93827000000E+00 0. -1.
     999902    2    1    2    0    0 -0.11736300731E-01 -0.17032703565E-01  0.11023060192E-01  0.10204915359E+01  0.10202223352E+01 0.  0.
     999903    2    3    3    0    0 -0.63204443053E-01 -0.10013258995E+00 -0.56086623996E-01  0.13253980828E+00  0.19993853931E-01 0.  0.
         14    1    1    2    0    0  0.11736300731E-01  0.17032703565E-01 -0.11023060192E-01  0.23438464147E-01  0.00000000000E+00 0.  1.
     999901    1    3    3    0    0  0.51468142322E-01  0.83099886388E-01  0.67109684187E-01  0.88795172757E+00  0.88000000000E+00 0.  1.
        -11    1    4    4    0    0 -0.36461159578E-01 -0.56530848200E-01 -0.42650140773E-01  0.79652046960E-01  0.51100000000E-03 0.  1.
         11    1    4    4    0    0 -0.26743283475E-01 -0.43601741753E-01 -0.13436483223E-01  0.52887761319E-01  0.51100000000E-03 0. -1.
</event>
<event>
 8    1  0.1137518E+005  0.1043930E+01  0.7957747E-01            NaN
         13   -1    0    0    0    0  0.00000000000E+00  0.00000000000E+00  0.74505805969E-08  0.10566000000E+00  0.10566000000E+00 0. -1.
     999900   -1    0    0    0    0 -0.00000000000E+00 -0.00000000000E+00 -0.74505805969E-08  0.93827000000E+00  0.93827000000E+00 0.  1.
     999902    2    1    2    0    0  0.19837574911E-02 -0.26715281643E-01  0.20743230171E-01  0.10100489852E+01  0.10094805740E+01 0.  0.
     999903    2    3    3    0    0 -0.27228247196E-01 -0.11596565246E+00  0.32094478901E-01  0.12497959765E+00  0.20010853447E-01 0.  0.
         14    1    1    2    0    0 -0.19837574911E-02  0.26715281643E-01 -0.20743230171E-01  0.33881014816E-01  0.00000000000E+00 0.  1.
     999901    1    3    3    0    0  0.29212004687E-01  0.89250370818E-01 -0.11351248730E-01  0.88506938754E+00  0.88000000000E+00 0.  1.
        -11    1    4    4    0    0  0.19420520826E-02 -0.13909509049E-01 -0.12059516200E-03  0.14054240374E-01  0.51100000000E-03 0. -1.
         11    1    4    4    0    0 -0.29170299279E-01 -0.10205614341E+00  0.32215074063E-01  0.11092535727E+00  0.51100000000E-03 0.  1.
</event>
<event>
 8    1  0.1137518E+005  0.1043930E+01  0.7957747E-01            NaN
         13   -1    0    0    0    0  0.00000000000E+00  0.00000000000E+00  0.74505805969E-08  0.10566000000E+00  0.10566000000E+00 0. -1.
     999900   -1    0    0    0    0 -0.00000000000E+00 -0.00000000000E+00 -0.74505805969E-08  0.93827000000E+00  0.93827000000E+00 0. -1.
     999902    2    1    2    0    0 -0.43394142365E-02 -0.75302340366E-02  0.22463821688E-01  0.10198435261E+01  0.10195590515E+01 0.  0.
     999903    2    3    3    0    0  0.68540311046E-01 -0.70940894145E-01  0.85859314746E-01  0.13228994759E+00  0.19960551189E-01 0.  0.
         14    1    1    2    0    0  0.43394142365E-02  0.75302340366E-02 -0.22463821688E-01  0.24086473910E-01  0.00000000000E+00 0.  1.
     999901    1    3    3    0    0 -0.72879725282E-01  0.63410660108E-01 -0.63395493057E-01  0.88755357850E+00  0.88000000000E+00 0. -1.
        -11    1    4    4    0    0  0.46125329749E-01 -0.58459408491E-01  0.57801383150E-01  0.94267223893E-01  0.51100000000E-03 0.  1.
         11    1    4    4    0    0  0.22414981297E-01 -0.12481485654E-01  0.28057931596E-01  0.38022723694E-01  0.51100000000E-03 0. -1.
</event>
<event>
 8    1  0.1137518E+005  0.1043930E+01  0.7957747E-01            NaN
         13   -1    0    0    0    0  0.00000000000E+00  0.00000000000E+00  0.74505805969E-08  0.10566000000E+00  0.10566000000E+00 0. -1.
     999900   -1    0    0    0    0 -0.00000000000E+00 -0.00000000000E+00 -0.74505805969E-08  0.93827000000E+00  0.93827000000E+00 0. -1.
     999902    2    1    2    0    0 -0.96262466616E-02  0.13772268233E-01  0.15884491125E-01  0.10208073476E+01  0.10205454345E+01 0.  0.
     999903    2    3    3    0    0 -0.10053225512E+00 -0.38777010868E-01 -0.70616533462E-01  0.13035366749E+00  0.19874429290E-01 0.  0.
         14    1    1    2    0    0  0.96262466616E-02 -0.13772268233E-01 -0.15884491125E-01  0.23122652429E-01  0.00000000000E+00 0.  1.
     999901    1    3    3    0    0  0.90906008458E-01  0.52549279101E-01  0.86501024587E-01  0.89045368008E+00  0.88000000000E+00 0.  1.
        -11    1    4    4    0    0 -0.43090828060E-01 -0.23173590949E-01 -0.22699869979E-01  0.53938668861E-01  0.51100000000E-03 0.  1.
         11    1    4    4    0    0 -0.57441427060E-01 -0.15603419919E-01 -0.47916663483E-01  0.76414998634E-01  0.51100000000E-03 0. -1.
</event>
<event>
 8    1  0.1137518E+005  0.1043930E+01  0.7957747E-01            NaN
         13   -1    0    0    0    0  0.00000000000E+00  0.00000000000E+00  0.74505805969E-08  0.10566000000E+00  0.10566000000E+00 0.  1.
     999900   -1    0    0    0    0 -0.00000000000E+00 -0.00000000000E+00 -0.74505805969E-08  0.93827000000E+00  0.93827000000E+00 0.  1.
     999902    2    1    2    0    0  0.58043154219E-02 -0.23167962656E-01  0.14009740077E-02  0.10200049650E+01  0.10197243360E+01 0.  0.
     999903    2    3    3    0    0  0.10741641949E-01 -0.11497282553E-01 -0.12800308104E+00  0.13045114908E+00  0.19625064687E-01 0.  0.
         14    1    1    2    0    0 -0.58043154219E-02  0.23167962656E-01 -0.14009740077E-02  0.23925034991E-01  0.00000000000E+00 0.  1.
     999901    1    3    3    0    0 -0.49373265273E-02 -0.11670680103E-01  0.12940405505E+00  0.88955381593E+00  0.88000000000E+00 0. -1.
        -11    1    4    4    0    0  0.16081573266E-01 -0.61740517622E-02 -0.78076797202E-01  0.79956133575E-01  0.51100000000E-03 0. -1.
         11    1    4    4    0    0 -0.53399313167E-02 -0.53232307906E-02 -0.49926283836E-01  0.50495015508E-01  0.51100000000E-03 0.  1.
</event>
<event>
 8    1  0.1137518E+005  0.1043930E+01  0.7957747E-01            NaN
         13   -1    0    0    0    0  0.00000000000E+00  0.00000000000E+00  0.74505805969E-08  0.10566000000E+00  0.10566000000E+00 0.  1.
     999900   -1    0    0    0    0 -0.00000000000E+00 -0.00000000000E+00 -0.74505805969E-08  0.93827000000E+00  0.93827000000E+00 0.  1.
     999902    2    1    2    0    0 -0.16707970767E-01 -0.14664673496E-01 -0.10685427472E-01  0.10192644918E+01  0.10189660038E+01 0.  0.
     999903    2    3    3    0    0  0.23053690047E-01  0.11008300866E+00  0.53024132884E-01  0.12729931198E+00  0.27272967254E-01 0.  0.
         14    1    1    2    0    0  0.16707970767E-01  0.14664673496E-01  0.10685427472E-01  0.24665508228E-01  0.00000000000E+00 0.  1.
     999901    1    3    3    0    0 -0.39761660814E-01 -0.12474768216E+00 -0.63709560357E-01  0.89196517979E+00  0.88000000000E+00 0.  1.
        -11    1    4    4    0    0  0.38060795574E-02  0.18056347101E-01 -0.16580683046E-02  0.18534514392E-01  0.51100000000E-03 0.  1.
         11    1    4    4    0    0  0.19247610489E-01  0.92026661559E-01  0.54682201189E-01  0.10876479759E+00  0.51100000000E-03 0. -1.
</event>
<event>
 8    1  0.1137518E+005  0.1043930E+01  0.7957747E-01            NaN
         13   -1    0    0    0    0  0.00000000000E+00  0.00000000000E+00  0.74505805969E-08  0.10566000000E+00  0.10566000000E+00 0.  1.
     999900   -1    0    0    0    0 -0.00000000000E+00 -0.00000000000E+00 -0.74505805969E-08  0.93827000000E+00  0.93827000000E+00 0.  1.
     999902    2    1    2    0    0  0.75319779592E-02 -0.19980811935E-01  0.77383728214E-02  0.10212177577E+01  0.10209651623E+01 0.  0.
     999903    2    3    3    0    0  0.11073767467E+00 -0.24348550599E-01 -0.64879025421E-01  0.13220494590E+00  0.20326713277E-01 0.  0.
         14    1    1    2    0    0 -0.75319779592E-02  0.19980811935E-01 -0.77383728214E-02  0.22712242326E-01  0.00000000000E+00 0.  1.
     999901    1    3    3    0    0 -0.10320569671E+00  0.43677386647E-02  0.72617398243E-01  0.88901281178E+00  0.88000000000E+00 0. -1.
        -11    1    4    4    0    0  0.67570722643E-01 -0.24696000229E-01 -0.38227044110E-01  0.81469399213E-01  0.51100000000E-03 0.  1.
         11    1    4    4    0    0  0.43166952027E-01  0.34744962974E-03 -0.26651981311E-01  0.50735546685E-01  0.51100000000E-03 0. -1.
</event>
<event>
 8    1  0.1137518E+005  0.1043930E+01  0.7957747E-01            NaN
         13   -1    0    0    0    0  0.00000000000E+00  0.00000000000E+00  0.74505805969E-08  0.10566000000E+00  0.10566000000E+00 0. -1.
     999900   -1    0    0    0    0 -0.00000000000E+00 -0.00000000000E+00 -0.74505805969E-08  0.93827000000E+00  0.93827000000E+00 0.  1.
     999902    2    1    2    0    0  0.68563813064E-02  0.22317270319E-01 -0.48730853519E-02  0.10200801052E+01  0.10198012569E+01 0.  0.
     999903    2    3    3    0    0  0.42126383883E-02 -0.11404974273E+00  0.53819524013E-01  0.12764087817E+00  0.19249999370E-01 0.  0.
         14    1    1    2    0    0 -0.68563813064E-02 -0.22317270319E-01  0.48730853519E-02  0.23849894758E-01  0.00000000000E+00 0. -1.
     999901    1    3    3    0    0  0.26437429181E-02  0.13636701305E+00 -0.58692609365E-01  0.89243922707E+00  0.88000000000E+00 0.  1.
        -11    1    4    4    0    0  0.11371875803E-01 -0.86415343899E-01  0.39357710732E-01  0.95635881004E-01  0.51100000000E-03 0.  1.
         11    1    4    4    0    0 -0.71592374144E-02 -0.27634398832E-01  0.14461813281E-01  0.32004997165E-01  0.51100000000E-03 0. -1.
</event>
<event>
 8    1  0.1137518E+005  0.1043930E+01  0.7957747E-01            NaN
         13   -1    0    0    0    0  0.00000000000E+00  0.00000000000E+00  0.74505805969E-08  0.10566000000E+00  0.10566000000E+00 0.  1.
     999900   -1    0    0    0    0 -0.00000000000E+00 -0.00000000000E+00 -0.74505805969E-08  0.93827000000E+00  0.93827000000E+00 0. -1.
     999902    2    1    2    0    0 -0.11386464833E-01 -0.10150499879E-01  0.17779971028E-01  0.10205032717E+01  0.10202343436E+01 0.  0.
     999903    2    3    3    0    0  0.95430860989E-01  0.83471705844E-01  0.14042248181E-01  0.12910603754E+00  0.19915051811E-01 0.  0.
         14    1    1    2    0    0  0.11386464833E-01  0.10150499879E-01 -0.17779971028E-01  0.23426728302E-01  0.00000000000E+00 0. -1.
     999901    1    3    3    0    0 -0.10681732582E+00 -0.93622205723E-01  0.37377228466E-02  0.89139723416E+00  0.88000000000E+00 0. -1.
        -11    1    4    4    0    0  0.22553282345E-01  0.15253404422E-01 -0.44179373882E-02  0.27587971704E-01  0.51100000000E-03 0. -1.
         11    1    4    4    0    0  0.72877578644E-01  0.68218301422E-01  0.18460185570E-01  0.10151806583E+00  0.51100000000E-03 0.  1.
</event>
<event>
 8    1  0.1137518E+005  0.1043930E+01  0.7957747E-01            NaN
         13   -1    0    0    0    0  0.00000000000E+00  0.00000000000E+00  0.74505805969E-08  0.10566000000E+00  0.10566000000E+00 0.  1.
     999900   -1    0    0    0    0 -0.00000000000E+00 -0.00000000000E+00 -0.74505805969E-08  0.93827000000E+00  0.93827000000E+00 0. -1.
     999902    2    1    2    0    0 -0.19881209041E-01 -0.16799612340E-01 -0.11781065565E-01  0.10153593340E+01  0.10149572869E+01 0.  0.
     999903    2    3    3    0    0  0.10605247142E+00  0.18379984424E-01 -0.59324213904E-01  0.12442878295E+00  0.19447600103E-01 0.  0.
         14    1    1    2    0    0  0.19881209041E-01  0.16799612340E-01  0.11781065565E-01  0.28570665963E-01  0.00000000000E+00 0.  1.
     999901    1    3    3    0    0 -0.12593368046E+00 -0.35179596764E-01  0.47543148339E-01  0.89093055109E+00  0.88000000000E+00 0. -1.
        -11    1    4    4    0    0  0.23338192443E-01  0.11744262218E-01 -0.10597934382E-01  0.28198869760E-01  0.51100000000E-03 0. -1.
         11    1    4    4    0    0  0.82714278977E-01  0.66357222062E-02 -0.48726279522E-01  0.96229913192E-01  0.51100000000E-03 0.  1.
</event>
<event>
 8    1  0.1137518E+005  0.1043930E+01  0.7957747E-01            NaN
         13   -1    0    0    0    0  0.00000000000E+00  0.00000000000E+00  0.74505805969E-08  0.10566000000E+00  0.10566000000E+00 0. -1.
     999900   -1    0    0    0    0 -0.00000000000E+00 -0.00000000000E+00 -0.74505805969E-08  0.93827000000E+00  0.93827000000E+00 0.  1.
     999902    2    1    2    0    0  0.19262335081E-01 -0.12340884184E-01 -0.89897976713E-02  0.10193505078E+01  0.10190541233E+01 0.  0.
     999903    2    3    3    0    0 -0.47391463853E-01 -0.11972656764E-01 -0.11868091287E+00  0.13003897336E+00  0.20872952761E-01 0.  0.
         14    1    1    2    0    0 -0.19262335081E-01  0.12340884184E-01  0.89897976713E-02  0.24579492212E-01  0.00000000000E+00 0.  1.
     999901    1    3    3    0    0  0.66653798935E-01 -0.36822741995E-03  0.10969111520E+00  0.88931153442E+00  0.88000000000E+00 0. -1.
        -11    1    4    4    0    0 -0.21765223811E-01 -0.15544414873E-03 -0.30661257770E-01  0.37604826545E-01  0.51100000000E-03 0. -1.
         11    1    4    4    0    0 -0.25626240043E-01 -0.11817212615E-01 -0.88019655104E-01  0.92434146820E-01  0.51100000000E-03 0.  1.
</event>
<event>
 8    1  0.1137518E+005  0.1043930E+01  0.7957747E-01            NaN
         13   -1    0    0    0    0  0.00000000000E+00  0.00000000000E+00  0.74505805969E-08  0.10566000000E+00  0.10566000000E+00 0. -1.
     999900   -1    0    0    0    0 -0.00000000000E+00 -0.00000000000E+00 -0.74505805969E-08  0.93827000000E+00  0.93827000000E+00 0.  1.
     999902    2    1    2    0    0  0.16899055347E-02  0.42083194845E-03  0.25960365889E-01  0.10179112860E+01  0.10175787010E+01 0.  0.
     999903    2    3    3    0    0 -0.26381666581E-01 -0.32214146431E-01 -0.11644778631E+00  0.12542423469E+00  0.20914304910E-01 0.  0.
         14    1    1    2    0    0 -0.16899055347E-02 -0.42083194845E-03 -0.25960365889E-01  0.26018713983E-01  0.00000000000E+00 0.  1.
     999901    1    3    3    0    0  0.28071572116E-01  0.32634978380E-01  0.14240815220E+00  0.89248705133E+00  0.88000000000E+00 0. -1.
        -11    1    4    4    0    0 -0.59194967799E-02 -0.23263951521E-01 -0.66720643623E-01  0.70909500696E-01  0.51100000000E-03 0. -1.
         11    1    4    4    0    0 -0.20462169801E-01 -0.89501949103E-02 -0.49727142684E-01  0.54514733994E-01  0.51100000000E-03 0.  1.
</event>
<event>
 8    1  0.1137518E+005  0.1043930E+01  0.7957747E-01            NaN
         13   -1    0    0    0    0  0.00000000000E+00  0.00000000000E+00  0.74505805969E-08  0.10566000000E+00  0.10566000000E+00 0. -1.
     999900   -1    0    0    0    0 -0.00000000000E+00 -0.00000000000E+00 -0.74505805969E-08  0.93827000000E+00  0.93827000000E+00 0. -1.
     999902    2    1    2    0    0  0.24438390618E-01 -0.29184750953E-02  0.19227107252E-01  0.10126980598E+01  0.10122163436E+01 0.  0.
     999903    2    3    3    0    0 -0.76888535289E-01 -0.48602414841E-01  0.80940467617E-01  0.12356212697E+00  0.21028512480E-01 0.  0.
         14    1    1    2    0    0 -0.24438390618E-01  0.29184750953E-02 -0.19227107252E-01  0.31231940160E-01  0.00000000000E+00 0. -1.
     999901    1    3    3    0    0  0.10132692591E+00  0.45683939746E-01 -0.61713360364E-01  0.88913593287E+00  0.88000000000E+00 0.  1.
        -11    1    4    4    0    0 -0.37694970534E-01 -0.11681462487E-01  0.32313129455E-01  0.51007517344E-01  0.51100000000E-03 0. -1.
         11    1    4    4    0    0 -0.39193564755E-01 -0.36920952354E-01  0.48627338161E-01  0.72554609630E-01  0.51100000000E-03 0.  1.
</event>
<event>
 8    1  0.1137518E+005  0.1043930E+01  0.7957747E-01            NaN
         13   -1    0    0    0    0  0.00000000000E+00  0.00000000000E+00  0.74505805969E-08  0.10566000000E+00  0.10566000000E+00 0.  1.
     999900   -1    0    0    0    0 -0.00000000000E+00 -0.00000000000E+00 -0.74505805969E-08  0.93827000000E+00  0.93827000000E+00 0. -1.
     999902    2    1    2    0    0 -0.35119399243E-02 -0.18108358678E-01  0.14320607920E-01  0.10205777798E+01  0.10203105794E+01 0.  0.
     999903    2    3    3    0    0 -0.11903005482E+00  0.12371092006E-01 -0.47863395919E-01  0.13033046468E+00  0.19337204714E-01 0.  0.
         14    1    1    2    0    0  0.35119399243E-02  0.18108358678E-01 -0.14320607920E-01  0.23352220178E-01  0.00000000000E+00 0. -1.
     999901    1    3    3    0    0  0.11551811490E+00 -0.30479450684E-01  0.62184003839E-01  0.89024731514E+00  0.88000000000E+00 0.  1.
        -11    1    4    4    0    0 -0.46268943787E-01  0.10702922177E-01 -0.11023660162E-01  0.48756024311E-01  0.51100000000E-03 0. -1.
         11    1    4    4    0    0 -0.72761111037E-01  0.16681698296E-02 -0.36839735757E-01  0.81574440369E-01  0.51100000000E-03 0.  1.
</event>
<event>
 8    1  0.1137518E+005  0.1043930E+01  0.7957747E-01            NaN
         13   -1    0    0    0    0  0.00000000000E+00  0.00000000000E+00  0.74505805969E-08  0.10566000000E+00  0.10566000000E+00 0.  1.
     999900   -1    0    0    0    0 -0.00000000000E+00 -0.00000000000E+00 -0.74505805969E-08  0.93827000000E+00  0.93827000000E+00 0. -1.
     999902    2    1    2    0    0  0.18344934873E-01  0.62172705942E-03  0.21918307985E-01  0.10153409216E+01  0.10149383487E+01 0.  0.
     999903    2    3    3    0    0 -0.40385029966E-01 -0.92407357140E-01  0.74065186777E-01  0.12695873117E+00  0.21512722466E-01 0.  0.
         14    1    1    2    0    0 -0.18344934873E-01 -0.62172705942E-03 -0.21918307985E-01  0.28589078421E-01  0.00000000000E+00 0. -1.
     999901    1    3    3    0    0  0.58729964839E-01  0.93029084199E-01 -0.52146878791E-01  0.88838219041E+00  0.88000000000E+00 0. -1.
        -11    1    4    4    0    0 -0.29821774232E-01 -0.41462525079E-01  0.35849988352E-01  0.62401618489E-01  0.51100000000E-03 0. -1.
         11    1    4    4    0    0 -0.10563255734E-01 -0.50944832061E-01  0.38215198424E-01  0.64557112676E-01  0.51100000000E-03 0.  1.
</event>
<event>
 8    1  0.1137518E+005  0.1043930E+01  0.7957747E-01            NaN
         13   -1    0    0    0    0  0.00000000000E+00  0.00000000000E+00  0.74505805969E-08  0.10566000000E+00  0.10566000000E+00 0.  1.
     999900   -1    0    0    0    0 -0.00000000000E+00 -0.00000000000E+00 -0.74505805969E-08  0.93827000000E+00  0.93827000000E+00 0. -1.
     999902    2    1    2    0    0  0.22232586621E-02  0.22724312747E-01  0.48420774900E-02  0.10205894134E+01  0.10203224822E+01 0.  0.
     999903    2    3    3    0    0  0.12917089881E+00  0.25756234679E-02  0.20643877039E-01  0.13111126870E+00  0.84994225948E-02 0.  0.
         14    1    1    2    0    0 -0.22232586621E-02 -0.22724312747E-01 -0.48420774900E-02  0.23340586611E-01  0.00000000000E+00 0.  1.
     999901    1    3    3    0    0 -0.12694764015E+00  0.20148689280E-01 -0.15801799549E-01  0.88947814469E+00  0.88000000000E+00 0. -1.
        -11    1    4    4    0    0  0.62004665238E-01 -0.25930809711E-02  0.81133874172E-02  0.62589062595E-01  0.51100000000E-03 0. -1.
         11    1    4    4    0    0  0.67166233571E-01  0.51687044390E-02  0.12530489622E-01  0.68522206100E-01  0.51100000000E-03 0.  1.
</event>
<event>
 8    1  0.1137518E+005  0.1043930E+01  0.7957747E-01            NaN
         13   -1    0    0    0    0  0.00000000000E+00  0.00000000000E+00  0.74505805969E-08  0.10566000000E+00  0.10566000000E+00 0. -1.
     999900   -1    0    0    0    0 -0.00000000000E+00 -0.00000000000E+00 -0.74505805969E-08  0.93827000000E+00  0.93827000000E+00 0.  1.
     999902    2    1    2    0    0  0.19271980805E-01  0.11511886819E-01  0.48243423154E-02  0.10209690100E+01  0.10207107878E+01 0.  0.
     999903    2    3    3    0    0 -0.58241014501E-01  0.67109294071E-01  0.94355934920E-01  0.13129758628E+00  0.20984293839E-01 0.  0.
         14    1    1    2    0    0 -0.19271980805E-01 -0.11511886819E-01 -0.48243423154E-02  0.22960989985E-01  0.00000000000E+00 0. -1.
     999901    1    3    3    0    0  0.77512995306E-01 -0.55597407252E-01 -0.89531592604E-01  0.88967142373E+00  0.88000000000E+00 0.  1.
        -11    1    4    4    0    0 -0.24814314095E-01  0.16194026222E-01  0.23226775575E-01  0.37652900206E-01  0.51100000000E-03 0.  1.
         11    1    4    4    0    0 -0.33426700406E-01  0.50915267850E-01  0.71129159344E-01  0.93644686076E-01  0.51100000000E-03 0. -1.
</event>
<event>
 8    1  0.1137518E+005  0.1043930E+01  0.7957747E-01            NaN
         13   -1    0    0    0    0  0.00000000000E+00  0.00000000000E+00  0.74505805969E-08  0.10566000000E+00  0.10566000000E+00 0. -1.
     999900   -1    0    0    0    0 -0.00000000000E+00 -0.00000000000E+00 -0.74505805969E-08  0.93827000000E+00  0.93827000000E+00 0. -1.
     999902    2    1    2    0    0 -0.11375148453E-01  0.29348461910E-02 -0.20104445014E-01  0.10206448967E+01  0.10203792477E+01 0.  0.
     999903    2    3    3    0    0 -0.98983646847E-01  0.36371010087E-01  0.74983890393E-01  0.13056904740E+00  0.17466528069E-01 0.  0.
         14    1    1    2    0    0  0.11375148453E-01 -0.29348461910E-02  0.20104445014E-01  0.23285103260E-01  0.00000000000E+00 0. -1.
     999901    1    3    3    0    0  0.87608498395E-01 -0.33436163896E-01 -0.95088335407E-01  0.89007584934E+00  0.88000000000E+00 0. -1.
        -11    1    4    4    0    0 -0.92339934646E-01  0.29349338967E-01  0.65083066977E-01  0.11672237984E+00  0.51100000000E-03 0.  1.
         11    1    4    4    0    0 -0.66437122016E-02  0.70216711204E-02  0.99008234159E-02  0.13846667558E-01  0.51100000000E-03 0. -1.
</event>
<event>
 8    1  0.1137518E+005  0.1043930E+01  0.7957747E-01            NaN
         13   -1    0    0    0    0  0.00000000000E+00  0.00000000000E+00  0.74505805969E-08  0.10566000000E+00  0.10566000000E+00 0.  1.
     999900   -1    0    0    0    0 -0.00000000000E+00 -0.00000000000E+00 -0.74505805969E-08  0.93827000000E+00  0.93827000000E+00 0. -1.
     999902    2    1    2    0    0  0.92878732924E-02  0.10372254492E-01  0.18911732106E-01  0.10204459232E+01  0.10201756615E+01 0.  0.
     999903    2    3    3    0    0 -0.21204047614E-01 -0.47133434435E-01 -0.11593444726E+00  0.12779809026E+00  0.14845320357E-01 0.  0.
         14    1    1    2    0    0 -0.92878732924E-02 -0.10372254492E-01 -0.18911732106E-01  0.23484076835E-01  0.00000000000E+00 0. -1.
     999901    1    3    3    0    0  0.30491920907E-01  0.57505688927E-01  0.13484617936E+00  0.89264783290E+00  0.88000000000E+00 0. -1.
        -11    1    4    4    0    0 -0.10677357411E-01 -0.38889939953E-01 -0.84360694672E-01  0.93506263519E-01  0.51100000000E-03 0.  1.
         11    1    4    4    0    0 -0.10526690204E-01 -0.82434944817E-02 -0.31573752586E-01  0.34291826742E-01  0.51100000000E-03 0. -1.
</event>
<event>
 8    1  0.1137518E+005  0.1043930E+01  0.7957747E-01            NaN
         13   -1    0    0    0    0  0.00000000000E+00  0.00000000000E+00  0.74505805969E-08  0.10566000000E+00  0.10566000000E+00 0. -1.
     999900   -1    0    0    0    0 -0.00000000000E+00 -0.00000000000E+00 -0.74505805969E-08  0.93827000000E+00  0.93827000000E+00 0.  1.
     999902    2    1    2    0    0 -0.38400668775E-02  0.25265606220E-02  0.23467147728E-01  0.10200168939E+01  0.10197365479E+01 0.  0.
     999903    2    3    3    0    0  0.12407084461E+00 -0.28181733157E-01 -0.15514390228E-01  0.12938579129E+00  0.17669242097E-01 0.  0.
         14    1    1    2    0    0  0.38400668775E-02 -0.25265606220E-02 -0.23467147728E-01  0.23913106128E-01  0.00000000000E+00 0.  1.
     999901    1    3    3    0    0 -0.12791091149E+00  0.30708293779E-01  0.38981537956E-01  0.89063110258E+00  0.88000000000E+00 0. -1.
        -11    1    4    4    0    0  0.44788127633E-01 -0.18380897881E-02 -0.75580351021E-02  0.45461411841E-01  0.51100000000E-03 0.  1.
         11    1    4    4    0    0  0.79282716981E-01 -0.26343643369E-01 -0.79563551258E-02  0.83924379448E-01  0.51100000000E-03 0. -1.
</event>
<event>
 8    1  0.1137518E+005  0.1043930E+01  0.7957747E-01            NaN
         13   -1    0    0    0    0  0.00000000000E+00  0.00000000000E+00  0.74505805969E-08  0.10566000000E+00  0.10566000000E+00 0. -1.
     999900   -1    0    0    0    0 -0.00000000000E+00 -0.00000000000E+00 -0.74505805969E-08  0.93827000000E+00  0.93827000000E+00 0.  1.
     999902    2    1    2    0    0  0.37398594205E-02 -0.78359510563E-02  0.22003416042E-01  0.10202754234E+01  0.10200011767E+01 0.  0.
     999903    2    3    3    0    0 -0.12715987219E-01 -0.35396124715E-01  0.12647187713E+00  0.13351501751E+00  0.20409365990E-01 0.  0.
         14    1    1    2    0    0 -0.37398594205E-02  0.78359510563E-02 -0.22003416042E-01  0.23654576618E-01  0.00000000000E+00 0.  1.
     999901    1    3    3    0    0  0.16455846640E-01  0.27560173659E-01 -0.10446846109E+00  0.88676040587E+00  0.88000000000E+00 0.  1.
        -11    1    4    4    0    0 -0.16515843713E-01 -0.22165395920E-01  0.67227308865E-01  0.72690095942E-01  0.51100000000E-03 0. -1.
         11    1    4    4    0    0  0.37998564941E-02 -0.13230728795E-01  0.59244568265E-01  0.60824921568E-01  0.51100000000E-03 0.  1.
</event>
<event>
 8    1  0.1137518E+005  0.1043930E+01  0.7957747E-01            NaN
         13   -1    0    0    0    0  0.00000000000E+00  0.00000000000E+00  0.74505805969E-08  0.10566000000E+00  0.10566000000E+00 0.  1.
     999900   -1    0    0    0    0 -0.00000000000E+00 -0.00000000000E+00 -0.74505805969E-08  0.93827000000E+00  0.93827000000E+00 0. -1.
     999902    2    1    2    0    0  0.36107421162E-02  0.23589299926E-01  0.15078073674E-02  0.10200183708E+01  0.10197380598E+01 0.  0.
     999903    2    3    3    0    0  0.57661895165E-01  0.11429581621E+00 -0.30183083235E-01  0.13313984933E+00  0.20658489949E-01 0.  0.
         14    1    1    2    0    0 -0.36107421162E-02 -0.23589299926E-01 -0.15078073674E-02  0.23911629235E-01  0.00000000000E+00 0.  1.
     999901    1    3    3    0    0 -0.54051153048E-01 -0.90706516289E-01  0.31690890602E-01  0.88687852144E+00  0.88000000000E+00 0. -1.
        -11    1    4    4    0    0  0.47368619577E-02  0.24433973521E-01 -0.10452677720E-01  0.26999565103E-01  0.51100000000E-03 0.  1.
         11    1    4    4    0    0  0.52925033207E-01  0.89861842693E-01 -0.19730405514E-01  0.10614028422E+00  0.51100000000E-03 0. -1.
</event>
<event>
 8    1  0.1137518E+005  0.1043930E+01  0.7957747E-01            NaN
         13   -1    0    0    0    0  0.00000000000E+00  0.00000000000E+00  0.74505805969E-08  0.10566000000E+00  0.10566000000E+00 0. -1.
     999900   -1    0    0    0    0 -0.00000000000E+00 -0.00000000000E+00 -0.74505805969E-08  0.93827000000E+00  0.93827000000E+00 0. -1.
     999902    2    1    2    0    0  0.15272076219E-01  0.16511047478E-02  0.18613605151E-01  0.10197964392E+01  0.10195108380E+01 0.  0.
     999903    2    3    3    0    0  0.12072149465E+00 -0.12709973820E-02 -0.47172788110E-01  0.13105802548E+00  0.19381418899E-01 0.  0.
         14    1    1    2    0    0 -0.15272076219E-01 -0.16511047478E-02 -0.18613605151E-01  0.24133560774E-01  0.00000000000E+00 0.  1.
     999901    1    3    3    0    0 -0.10544941844E+00  0.29221021298E-02  0.65786393261E-01  0.88873841375E+00  0.88000000000E+00 0. -1.
        -11    1    4    4    0    0  0.97279074011E-01 -0.87086032391E-02 -0.37193440788E-01  0.10451158390E+00  0.51100000000E-03 0. -1.
         11    1    4    4    0    0  0.23442420644E-01  0.74376058570E-02 -0.99793473217E-02  0.26546441579E-01  0.51100000000E-03 0.  1.
</event>
<event>
 8    1  0.1137518E+005  0.1043930E+01  0.7957747E-01            NaN
         13   -1    0    0    0    0  0.00000000000E+00  0.00000000000E+00  0.74505805969E-08  0.10566000000E+00  0.10566000000E+00 0. -1.
     999900   -1    0    0    0    0 -0.00000000000E+00 -0.00000000000E+00 -0.74505805969E-08  0.93827000000E+00  0.93827000000E+00 0.  1.
     999902    2    1    2    0    0  0.75310709447E-02  0.15669506379E-01  0.16752616479E-01  0.10197866651E+01  0.10195008297E+01 0.  0.
     999903    2    3    3    0    0 -0.12838518152E-01 -0.91648388810E-01  0.89065934627E-01  0.13008937573E+00  0.20645828795E-01 0.  0.
         14    1    1    2    0    0 -0.75310709447E-02 -0.15669506379E-01 -0.16752616479E-01  0.24143334870E-01  0.00000000000E+00 0.  1.
     999901    1    3    3    0    0  0.20369589096E-01  0.10731789519E+00 -0.72313318149E-01  0.88969728940E+00  0.88000000000E+00 0.  1.
        -11    1    4    4    0    0 -0.73370051124E-02 -0.20670130023E-01  0.11377815606E-01  0.24714403253E-01  0.51100000000E-03 0. -1.
         11    1    4    4    0    0 -0.55015130393E-02 -0.70978258786E-01  0.77688119022E-01  0.10537497248E+00  0.51100000000E-03 0.  1.
</event>
<event>
 8    1  0.1137518E+005  0.1043930E+01  0.7957747E-01            NaN
         13   -1    0    0    0    0  0.00000000000E+00  0.00000000000E+00  0.74505805969E-08  0.10566000000E+00  0.10566000000E+00 0.  1.
     999900   -1    0    0    0    0 -0.00000000000E+00 -0.00000000000E+00 -0.74505805969E-08  0.93827000000E+00  0.93827000000E+00 0.  1.
     999902    2    1    2    0    0  0.66058313872E-03 -0.13769018292E-01 -0.19520505856E-01  0.10200328792E+01  0.10197529123E+01 0.  0.
     999903    2    3    3    0    0 -0.54419386130E-01 -0.10950293702E+00  0.42255988688E-01  0.13097994403E+00  0.20440507735E-01 0.  0.
         14    1    1    2    0    0 -0.66058313872E-03  0.13769018292E-01  0.19520505856E-01  0.23897120824E-01  0.00000000000E+00 0.  1.
     999901    1    3    3    0    0  0.55079969269E-01  0.95733918725E-01 -0.61776494544E-01  0.88905293514E+00  0.88000000000E+00 0.  1.
        -11    1    4    4    0    0 -0.51116769921E-01 -0.92618100987E-01  0.30368422838E-01  0.11006152381E+00  0.51100000000E-03 0.  1.
         11    1    4    4    0    0 -0.33026162096E-02 -0.16884836030E-01  0.11887565850E-01  0.20918420218E-01  0.51100000000E-03 0. -1.
</event>
<event>
 8    1  0.1137518E+005  0.1043930E+01  0.7957747E-01            NaN
         13   -1    0    0    0    0  0.00000000000E+00  0.00000000000E+00  0.74505805969E-08  0.10566000000E+00  0.10566000000E+00 0. -1.
     999900   -1    0    0    0    0 -0.00000000000E+00 -0.00000000000E+00 -0.74505805969E-08  0.93827000000E+00  0.93827000000E+00 0.  1.
     999902    2    1    2    0    0 -0.60133121353E-02 -0.20632976772E-01  0.98667466576E-02  0.10202819061E+01  0.10200078116E+01 0.  0.
     999903    2    3    3    0    0 -0.29559103652E-01 -0.68566802612E-01  0.10837489099E+00  0.13317655138E+00  0.20389453440E-01 0.  0.
         14    1    1    2    0    0  0.60133121353E-02  0.20632976772E-01 -0.98667466576E-02  0.23648093854E-01  0.00000000000E+00 0. -1.
     999901    1    3    3    0    0  0.23545791517E-01  0.47933825841E-01 -0.98508144329E-01  0.88710535477E+00  0.88000000000E+00 0.  1.
        -11    1    4    4    0    0 -0.27858144009E-01 -0.42996626614E-01  0.79355652050E-01  0.94458280321E-01  0.51100000000E-03 0. -1.
         11    1    4    4    0    0 -0.17009596429E-02 -0.25570175998E-01  0.29019238937E-01  0.38718271058E-01  0.51100000000E-03 0.  1.
</event>
<event>
 8    1  0.1137518E+005  0.1043930E+01  0.7957747E-01            NaN
         13   -1    0    0    0    0  0.00000000000E+00  0.00000000000E+00  0.74505805969E-08  0.10566000000E+00  0.10566000000E+00 0. -1.
     999900   -1    0    0    0    0 -0.00000000000E+00 -0.00000000000E+00 -0.74505805969E-08  0.93827000000E+00  0.93827000000E+00 0.  1.
     999902    2    1    2    0    0 -0.11428665033E-01  0.12406206784E-01 -0.17721274203E-01  0.10194642707E+01  0.10191706566E+01 0.  0.
     999903    2    3    3    0    0 -0.19184962369E-01 -0.11125687511E+00  0.56514558367E-01  0.12768869533E+00  0.19088021571E-01 0.  0.
         14    1    1    2    0    0  0.11428665033E-01 -0.12406206784E-01  0.17721274203E-01  0.24465729309E-01  0.00000000000E+00 0. -1.
     999901    1    3    3    0    0  0.77562973358E-02  0.12366308189E+00 -0.74235832571E-01  0.89177557536E+00  0.88000000000E+00 0.  1.
        -11    1    4    4    0    0 -0.66752059862E-02 -0.86282549299E-01  0.41634672089E-01  0.96036158448E-01  0.51100000000E-03 0.  1.
         11    1    4    4    0    0 -0.12509756383E-01 -0.24974325811E-01  0.14879886278E-01  0.31652536883E-01  0.51100000000E-03 0. -1.
</event>
<event>
 8    1  0.1137518E+005  0.1043930E+01  0.7957747E-01            NaN
         13   -1    0    0    0    0  0.00000000000E+00  0.00000000000E+00  0.74505805969E-08  0.10566000000E+00  0.10566000000E+00 0. -1.
     999900   -1    0    0    0    0 -0.00000000000E+00 -0.00000000000E+00 -0.74505805969E-08  0.93827000000E+00  0.93827000000E+00 0. -1.
     999902    2    1    2    0    0  0.12814341225E-01  0.18478035368E-01 -0.72999902549E-02  0.10202881940E+01  0.10200142469E+01 0.  0.
     999903    2    3    3    0    0 -0.86304028386E-01  0.35878672410E-01  0.87646357323E-01  0.12947842629E+00  0.18631008401E-01 0.  0.
         14    1    1    2    0    0 -0.12814341225E-01 -0.18478035368E-01  0.72999902549E-02  0.23641805976E-01  0.00000000000E+00 0.  1.
     999901    1    3    3    0    0  0.99118369611E-01 -0.17400637042E-01 -0.94946347578E-01  0.89080976773E+00  0.88000000000E+00 0. -1.
        -11    1    4    4    0    0 -0.20433284068E-01  0.17337539077E-01  0.22481883846E-01  0.34982932715E-01  0.51100000000E-03 0. -1.
         11    1    4    4    0    0 -0.65870744318E-01  0.18541133333E-01  0.65164473478E-01  0.94495493580E-01  0.51100000000E-03 0.  1.
</event>
<event>
 8    1  0.1137518E+005  0.1043930E+01  0.7957747E-01            NaN
         13   -1    0    0    0    0  0.00000000000E+00  0.00000000000E+00  0.74505805969E-08  0.10566000000E+00  0.10566000000E+00 0. -1.
     999900   -1    0    0    0    0 -0.00000000000E+00 -0.00000000000E+00 -0.74505805969E-08  0.93827000000E+00  0.93827000000E+00 0. -1.
     999902    2    1    2    0    0  0.64029038766E-02 -0.20868652657E-01 -0.87643663768E-02  0.10204074160E+01  0.10201362569E+01 0.  0.
     999903    2    3    3    0    0 -0.26785348818E-01 -0.46349029298E-01 -0.11955320718E+00  0.13247449228E+00  0.19769530350E-01 0.  0.
         14    1    1    2    0    0 -0.64029038766E-02  0.20868652657E-01  0.87643663768E-02  0.23522584037E-01  0.00000000000E+00 0. -1.
     999901    1    3    3    0    0  0.33188252694E-01  0.25480376640E-01  0.11078884080E+00  0.88793292368E+00  0.88000000000E+00 0.  1.
        -11    1    4    4    0    0 -0.11247894571E-01 -0.17900563124E-01 -0.71082949597E-01  0.74161931857E-01  0.51100000000E-03 0. -1.
         11    1    4    4    0    0 -0.15537454246E-01 -0.28448466174E-01 -0.48470257583E-01  0.58312560425E-01  0.51100000000E-03 0.  1.
</event>
<event>
 8    1  0.1137518E+005  0.1043930E+01  0.7957747E-01            NaN
         13   -1    0    0    0    0  0.00000000000E+00  0.00000000000E+00  0.74505805969E-08  0.10566000000E+00  0.10566000000E+00 0. -1.
     999900   -1    0    0    0    0 -0.00000000000E+00 -0.00000000000E+00 -0.74505805969E-08  0.93827000000E+00  0.93827000000E+00 0.  1.
     999902    2    1    2    0    0 -0.20483717651E-02 -0.10536291424E-01 -0.20741227878E-01  0.10205760325E+01  0.10203087917E+01 0.  0.
     999903    2    3    3    0    0  0.80624275357E-01  0.74678974245E-01 -0.68428996338E-01  0.13132323867E+00  0.22046371665E-01 0.  0.
         14    1    1    2    0    0  0.20483717651E-02  0.10536291424E-01  0.20741227878E-01  0.23353967495E-01  0.00000000000E+00 0. -1.
     999901    1    3    3    0    0 -0.82672647122E-01 -0.85215265669E-01  0.47687768460E-01  0.88925279384E+00  0.88000000000E+00 0. -1.
        -11    1    4    4    0    0  0.59251248465E-01  0.47817224542E-01 -0.36492235106E-01  0.84434245135E-01  0.51100000000E-03 0. -1.
         11    1    4    4    0    0  0.21373026892E-01  0.26861749703E-01 -0.31936761231E-01  0.46888993534E-01  0.51100000000E-03 0.  1.
</event>
<event>
 8    1  0.1137518E+005  0.1043930E+01  0.7957747E-01            NaN
         13   -1    0    0    0    0  0.00000000000E+00  0.00000000000E+00  0.74505805969E-08  0.10566000000E+00  0.10566000000E+00 0. -1.
     999900   -1    0    0    0    0 -0.00000000000E+00 -0.00000000000E+00 -0.74505805969E-08  0.93827000000E+00  0.93827000000E+00 0. -1.
     999902    2    1    2    0    0 -0.43034928175E-02 -0.22087474056E-01 -0.24490812964E-02  0.10212943078E+01  0.10210434313E+01 0.  0.
     999903    2    3    3    0    0 -0.56675854248E-01  0.10308900880E-01  0.11606636394E+00  0.13121661453E+00  0.20687513099E-01 0.  0.
         14    1    1    2    0    0  0.43034928175E-02  0.22087474056E-01  0.24490812964E-02  0.22635692165E-01  0.00000000000E+00 0. -1.
     999901    1    3    3    0    0  0.52372361430E-01 -0.32396374936E-01 -0.11851544524E+00  0.89007769330E+00  0.88000000000E+00 0. -1.
        -11    1    4    4    0    0 -0.28078574522E-01 -0.53572627734E-02  0.55205870071E-01  0.62169573128E-01  0.51100000000E-03 0.  1.
         11    1    4    4    0    0 -0.28597279726E-01  0.15666163653E-01  0.60860493874E-01  0.69047041406E-01  0.51100000000E-03 0. -1.
</event>
<event>
 7    1  0.1137518E+005  0.1043930E+01  0.7957747E-01            NaN
         13   -1    0    0    0    0  0.00000000000E+00  0.00000000000E+00  0.74505805969E-08  0.10566000000E+00  0.10566000000E+00 0.  1.
     999900   -1    0    0    0    0 -0.00000000000E+00 -0.00000000000E+00 -0.74505805969E-08  0.93827000000E+00  0.93827000000E+00 0. -1.
     999903    2    1    2    0    0  0.12140591852E-01  0.10056817078E+00 -0.54050276951E-01  0.11566776982E+00  0.14008911155E-01 0.  0.
         14    1    1    2    0    0 -0.36905828726E-01 -0.15869029038E-01  0.15339503365E-01  0.43001937631E-01  0.00000000000E+00 0.  1.
     999901    1    1    2    0    0  0.24765236874E-01 -0.84699141745E-01  0.38710773587E-01  0.88526029255E+00  0.88000000000E+00 0.  1.
        -11    1    3    3    0    0  0.56344289762E-03  0.61647609158E-01 -0.32338907177E-01  0.69619043524E-01  0.51100000000E-03 0. -1.
         11    1    3    3    0    0  0.11577148955E-01  0.38920561625E-01 -0.21711369775E-01  0.46048726297E-01  0.51100000000E-03 0.  1.
</event>
<event>
 8    1  0.1137518E+005  0.1043930E+01  0.7957747E-01            NaN
         13   -1    0    0    0    0  0.00000000000E+00  0.00000000000E+00  0.74505805969E-08  0.10566000000E+00  0.10566000000E+00 0. -1.
     999900   -1    0    0    0    0 -0.00000000000E+00 -0.00000000000E+00 -0.74505805969E-08  0.93827000000E+00  0.93827000000E+00 0. -1.
     999902    2    1    2    0    0  0.16984176717E-01 -0.95302779829E-02 -0.13589693123E-01  0.10201819850E+01  0.10199055419E+01 0.  0.
     999903    2    3    3    0    0  0.10509233218E+00  0.25604195292E-01  0.71187168054E-01  0.13103374401E+00  0.20056322558E-01 0.  0.
         14    1    1    2    0    0 -0.16984176717E-01  0.95302779829E-02  0.13589693123E-01  0.23748014998E-01  0.00000000000E+00 0.  1.
     999901    1    3    3    0    0 -0.88108155460E-01 -0.35134473275E-01 -0.84776861176E-01  0.88914824099E+00  0.88000000000E+00 0. -1.
        -11    1    4    4    0    0  0.53893483294E-01  0.12914701006E-01  0.24520464321E-01  0.60603723773E-01  0.51100000000E-03 0.  1.
         11    1    4    4    0    0  0.51198848883E-01  0.12689494285E-01  0.46666703733E-01  0.70430020236E-01  0.51100000000E-03 0. -1.
</event>
<event>
 7    1  0.1137518E+005  0.1043930E+01  0.7957747E-01            NaN
         13   -1    0    0    0    0  0.00000000000E+00  0.00000000000E+00  0.74505805969E-08  0.10566000000E+00  0.10566000000E+00 0.  1.
     999900   -1    0    0    0    0 -0.00000000000E+00 -0.00000000000E+00 -0.74505805969E-08  0.93827000000E+00  0.93827000000E+00 0. -1.
     999903    2    1    2    0    0  0.25267691117E-01  0.18451430918E-02  0.23184516796E-01  0.39887115331E-01  0.20287912238E-01 0.  0.
         14    1    1    2    0    0  0.11035345059E+00  0.17667951933E-01 -0.19409599765E-01  0.11343179954E+00  0.00000000000E+00 0. -1.
     999901    1    1    2    0    0 -0.13562114171E+00 -0.19513095025E-01 -0.37749170306E-02  0.89061108513E+00  0.88000000000E+00 0.  1.
        -11    1    3    3    0    0  0.14635242875E-01  0.10804941293E-02  0.25066025540E-01  0.29050379669E-01  0.51100000000E-03 0.  1.
         11    1    3    3    0    0  0.10632448242E-01  0.76464896249E-03 -0.18815087435E-02  0.10836735662E-01  0.51100000000E-03 0. -1.
</event>
<event>
 8    1  0.1137518E+005  0.1043930E+01  0.7957747E-01            NaN
         13   -1    0    0    0    0  0.00000000000E+00  0.00000000000E+00  0.74505805969E-08  0.10566000000E+00  0.10566000000E+00 0.  1.
     999900   -1    0    0    0    0 -0.00000000000E+00 -0.00000000000E+00 -0.74505805969E-08  0.93827000000E+00  0.93827000000E+00 0.  1.
     999902    2    1    2    0    0  0.22001444130E-01  0.77801448101E-02  0.33801750786E-03  0.10205910100E+01  0.10203241158E+01 0.  0.
     999903    2    3    3    0    0  0.73544350832E-01 -0.77702204708E-01 -0.74228632701E-01  0.13181427280E+00  0.20462366573E-01 0.  0.
         14    1    1    2    0    0 -0.22001444130E-01 -0.77801448101E-02 -0.33801750786E-03  0.23338989972E-01  0.00000000000E+00 0.  1.
     999901    1    3    3    0    0 -0.51542906702E-01  0.85482349518E-01  0.74566650209E-01  0.88877673723E+00  0.88000000000E+00 0. -1.
        -11    1    4    4    0    0  0.34330579847E-01 -0.23914648599E-01 -0.22474058412E-01  0.47495721416E-01  0.51100000000E-03 0.  1.
         11    1    4    4    0    0  0.39213770985E-01 -0.53787556109E-01 -0.51754574289E-01  0.84318551387E-01  0.51100000000E-03 0. -1.
</event>
<event>
 8    1  0.1137518E+005  0.1043930E+01  0.7957747E-01            NaN
         13   -1    0    0    0    0  0.00000000000E+00  0.00000000000E+00  0.74505805969E-08  0.10566000000E+00  0.10566000000E+00 0. -1.
     999900   -1    0    0    0    0 -0.00000000000E+00 -0.00000000000E+00 -0.74505805969E-08  0.93827000000E+00  0.93827000000E+00 0.  1.
     999902    2    1    2    0    0 -0.14160174661E-01  0.21686543305E-02 -0.17583946721E-01  0.10212494182E+01  0.10209975345E+01 0.  0.
     999903    2    3    3    0    0 -0.12578774318E+00  0.32693649491E-01 -0.24297867208E-01  0.13364727417E+00  0.19487854951E-01 0.  0.
         14    1    1    2    0    0  0.14160174661E-01 -0.21686543305E-02  0.17583946721E-01  0.22680581790E-01  0.00000000000E+00 0. -1.
     999901    1    3    3    0    0  0.11162756852E+00 -0.30524995161E-01  0.67139204872E-02  0.88760214404E+00  0.88000000000E+00 0.  1.
        -11    1    4    4    0    0 -0.68565391796E-01  0.20798147300E-01 -0.22756232960E-01  0.75179007328E-01  0.51100000000E-03 0.  1.
         11    1    4    4    0    0 -0.57222351381E-01  0.11895502191E-01 -0.15416342487E-02  0.58468266839E-01  0.51100000000E-03 0. -1.
</event>
<event>
 8    1  0.1137518E+005  0.1043930E+01  0.7957747E-01            NaN
         13   -1    0    0    0    0  0.00000000000E+00  0.00000000000E+00  0.74505805969E-08  0.10566000000E+00  0.10566000000E+00 0. -1.
     999900   -1    0    0    0    0 -0.00000000000E+00 -0.00000000000E+00 -0.74505805969E-08  0.93827000000E+00  0.93827000000E+00 0.  1.
     999902    2    1    2    0    0  0.70994945850E-02 -0.28073741888E-02  0.23719053725E-01  0.10190125827E+01  0.10187078905E+01 0.  0.
     999903    2    3    3    0    0 -0.19356149741E-02  0.91282808452E-01  0.92520516406E-01  0.13128050777E+00  0.18390977116E-01 0.  0.
         14    1    1    2    0    0 -0.70994945850E-02  0.28073741888E-02 -0.23719053725E-01  0.24917417258E-01  0.00000000000E+00 0.  1.
     999901    1    3    3    0    0  0.90351095591E-02 -0.94090182640E-01 -0.68801462681E-01  0.88773207498E+00  0.88000000000E+00 0.  1.
        -11    1    4    4    0    0  0.43406437169E-02  0.19377955041E-01  0.28873520384E-01  0.35046934671E-01  0.51100000000E-03 0.  1.
         11    1    4    4    0    0 -0.62762586910E-02  0.71904853411E-01  0.63646996022E-01  0.96233573096E-01  0.51100000000E-03 0. -1.
</event>
<event>
 8    1  0.1137518E+005  0.1043930E+01  0.7957747E-01            NaN
         13   -1    0    0    0    0  0.00000000000E+00  0.00000000000E+00  0.74505805969E-08  0.10566000000E+00  0.10566000000E+00 0. -1.
     999900   -1    0    0    0    0 -0.00000000000E+00 -0.00000000000E+00 -0.74505805969E-08  0.93827000000E+00  0.93827000000E+00 0. -1.
     999902    2    1    2    0    0 -0.21167412839E-01  0.14313214984E-01  0.97092482609E-03  0.10183591145E+01  0.10180380228E+01 0.  0.
     999903    2    3    3    0    0 -0.23398093407E-02 -0.12495294530E+00 -0.13458736091E-01  0.12709161417E+00  0.18773054312E-01 0.  0.
         14    1    1    2    0    0  0.21167412839E-01 -0.14313214984E-01 -0.97092482609E-03  0.25570885485E-01  0.00000000000E+00 0.  1.
     999901    1    3    3    0    0 -0.18827603499E-01  0.13926616029E+00  0.14429660917E-01  0.89126750034E+00  0.88000000000E+00 0.  1.
        -11    1    4    4    0    0 -0.74625531433E-02 -0.55732893191E-01 -0.12829301447E-01  0.57677527508E-01  0.51100000000E-03 0. -1.
         11    1    4    4    0    0  0.51227438027E-02 -0.69220052111E-01 -0.62943464340E-03  0.69414086663E-01  0.51100000000E-03 0.  1.
</event>
<event>
 8    1  0.1137518E+005  0.1043930E+01  0.7957747E-01            NaN
         13   -1    0    0    0    0  0.00000000000E+00  0.00000000000E+00  0.74505805969E-08  0.10566000000E+00  0.10566000000E+00 0.  1.
     999900   -1    0    0    0    0 -0.00000000000E+00 -0.00000000000E+00 -0.74505805969E-08  0.93827000000E+00  0.93827000000E+00 0.  1.
     999902    2    1    2    0    0 -0.21472970940E-01 -0.38091578812E-02 -0.92651086139E-02  0.10202352664E+01  0.10199600768E+01 0.  0.
     999903    2    3    3    0    0  0.10915269264E+00 -0.63014317644E-01 -0.16079875609E-01  0.12859926665E+00  0.19851812101E-01 0.  0.
         14    1    1    2    0    0  0.21472970940E-01  0.38091578812E-02  0.92651086139E-02  0.23694733643E-01  0.00000000000E+00 0.  1.
     999901    1    3    3    0    0 -0.13062566358E+00  0.59205159763E-01  0.68147669954E-02  0.89163599971E+00  0.88000000000E+00 0.  1.
        -11    1    4    4    0    0  0.75851423837E-01 -0.33357016909E-01 -0.76757780415E-02  0.83218434044E-01  0.51100000000E-03 0.  1.
         11    1    4    4    0    0  0.33301268804E-01 -0.29657300736E-01 -0.84040975678E-02  0.45380832604E-01  0.51100000000E-03 0. -1.
</event>
<event>
 8    1  0.1137518E+005  0.1043930E+01  0.7957747E-01            NaN
         13   -1    0    0    0    0  0.00000000000E+00  0.00000000000E+00  0.74505805969E-08  0.10566000000E+00  0.10566000000E+00 0.  1.
     999900   -1    0    0    0    0 -0.00000000000E+00 -0.00000000000E+00 -0.74505805969E-08  0.93827000000E+00  0.93827000000E+00 0.  1.
     999902    2    1    2    0    0 -0.45159254679E-02 -0.12273702065E-01  0.24596275695E-01  0.10160729699E+01  0.10156910289E+01 0.  0.
     999903    2    3    3    0    0  0.45404708328E-01 -0.87247727319E-01  0.81996295343E-01  0.12961488499E+00  0.20071684018E-01 0.  0.
         14    1    1    2    0    0  0.45159254679E-02  0.12273702065E-01 -0.24596275695E-01  0.27857030051E-01  0.00000000000E+00 0. -1.
     999901    1    3    3    0    0 -0.49920633796E-01  0.74974025254E-01 -0.57400019648E-01  0.88645808496E+00  0.88000000000E+00 0.  1.
        -11    1    4    4    0    0  0.17669372507E-01 -0.53652845744E-01  0.41090368671E-01  0.69853518879E-01  0.51100000000E-03 0.  1.
         11    1    4    4    0    0  0.27735335821E-01 -0.33594881574E-01  0.40905926671E-01  0.59761366106E-01  0.51100000000E-03 0. -1.
</event>
<event>
 8    1  0.1137518E+005  0.1043930E+01  0.7957747E-01            NaN
         13   -1    0    0    0    0  0.00000000000E+00  0.00000000000E+00  0.74505805969E-08  0.10566000000E+00  0.10566000000E+00 0.  1.
     999900   -1    0    0    0    0 -0.00000000000E+00 -0.00000000000E+00 -0.74505805969E-08  0.93827000000E+00  0.93827000000E+00 0. -1.
     999902    2    1    2    0    0 -0.18535062516E-01 -0.33593599951E-02  0.97261225244E-02  0.10227302052E+01  0.10225104602E+01 0.  0.
     999903    2    3    3    0    0  0.12802902080E+00 -0.14638552540E-01 -0.33982848946E-02  0.13044073376E+00  0.19937885950E-01 0.  0.
         14    1    1    2    0    0  0.18535062516E-01  0.33593599951E-02 -0.97261225244E-02  0.21199794843E-01  0.00000000000E+00 0. -1.
     999901    1    3    3    0    0 -0.14656408331E+00  0.11279192545E-01  0.13124407419E-01  0.89228947140E+00  0.88000000000E+00 0. -1.
        -11    1    4    4    0    0  0.11720929637E+00 -0.13590407758E-01  0.25809793905E-02  0.11802389976E+00  0.51100000000E-03 0.  1.
         11    1    4    4    0    0  0.10819724427E-01 -0.10481447820E-02 -0.59792642851E-02  0.12416833999E-01  0.51100000000E-03 0. -1.
</event>
<event>
 8    1  0.1137518E+005  0.1043930E+01  0.7957747E-01            NaN
         13   -1    0    0    0    0  0.00000000000E+00  0.00000000000E+00  0.74505805969E-08  0.10566000000E+00  0.10566000000E+00 0. -1.
     999900   -1    0    0    0    0 -0.00000000000E+00 -0.00000000000E+00 -0.74505805969E-08  0.93827000000E+00  0.93827000000E+00 0.  1.
     999902    2    1    2    0    0  0.25594104213E-01 -0.41535333721E-02 -0.53461836279E-02  0.10174556409E+01  0.10171111491E+01 0.  0.
     999903    2    3    3    0    0 -0.44320755716E-01  0.72106611171E-01 -0.92692296655E-01  0.12710007107E+00  0.19971816256E-01 0.  0.
         14    1    1    2    0    0 -0.25594104213E-01  0.41535333721E-02  0.53461836279E-02  0.26474359092E-01  0.00000000000E+00 0. -1.
     999901    1    3    3    0    0  0.69914859928E-01 -0.76260144543E-01  0.87346113027E-01  0.89035556984E+00  0.88000000000E+00 0. -1.
        -11    1    4    4    0    0 -0.29431750403E-01  0.45774762400E-01 -0.72793996746E-01  0.90888854585E-01  0.51100000000E-03 0. -1.
         11    1    4    4    0    0 -0.14889005313E-01  0.26331848771E-01 -0.19898299909E-01  0.36211216483E-01  0.51100000000E-03 0.  1.
</event>
<event>
 8    1  0.1137518E+005  0.1043930E+01  0.7957747E-01            NaN
         13   -1    0    0    0    0  0.00000000000E+00  0.00000000000E+00  0.74505805969E-08  0.10566000000E+00  0.10566000000E+00 0. -1.
     999900   -1    0    0    0    0 -0.00000000000E+00 -0.00000000000E+00 -0.74505805969E-08  0.93827000000E+00  0.93827000000E+00 0.  1.
     999902    2    1    2    0    0 -0.53382667192E-02 -0.19182086488E-01 -0.13242459680E-01  0.10200174035E+01  0.10197370696E+01 0.  0.
     999903    2    3    3    0    0  0.34729904686E-01 -0.78483168847E-01  0.96095325963E-01  0.13036756895E+00  0.19890130449E-01 0.  0.
         14    1    1    2    0    0  0.53382667192E-02  0.19182086488E-01  0.13242459680E-01  0.23912596513E-01  0.00000000000E+00 0. -1.
     999901    1    3    3    0    0 -0.40068171405E-01  0.59301082359E-01 -0.10933778564E+00  0.88964983454E+00  0.88000000000E+00 0.  1.
        -11    1    4    4    0    0  0.16298121769E-01 -0.58028248096E-01  0.70699608098E-01  0.92906415583E-01  0.51100000000E-03 0. -1.
         11    1    4    4    0    0  0.18431782917E-01 -0.20454920751E-01  0.25395717865E-01  0.37461153364E-01  0.51100000000E-03 0.  1.
</event>
<event>
 8    1  0.1137518E+005  0.1043930E+01  0.7957747E-01            NaN
         13   -1    0    0    0    0  0.00000000000E+00  0.00000000000E+00  0.74505805969E-08  0.10566000000E+00  0.10566000000E+00 0.  1.
     999900   -1    0    0    0    0 -0.00000000000E+00 -0.00000000000E+00 -0.74505805969E-08  0.93827000000E+00  0.93827000000E+00 0.  1.
     999902    2    1    2    0    0  0.15066425607E-01  0.82280521477E-02  0.15387971938E-01  0.10208759829E+01  0.10206156401E+01 0.  0.
     999903    2    3    3    0    0  0.10110473842E+00  0.54568524884E-01 -0.62129191822E-01  0.13207963879E+00  0.19624027789E-01 0.  0.
         14    1    1    2    0    0 -0.15066425607E-01 -0.82280521477E-02 -0.15387971938E-01  0.23054017070E-01  0.00000000000E+00 0. -1.
     999901    1    3    3    0    0 -0.86038312813E-01 -0.46340472736E-01  0.77517163760E-01  0.88879634414E+00  0.88000000000E+00 0.  1.
        -11    1    4    4    0    0  0.78806114950E-01  0.45716251455E-01 -0.40238680059E-01  0.99598152064E-01  0.51100000000E-03 0.  1.
         11    1    4    4    0    0  0.22298623469E-01  0.88522734288E-02 -0.21890511762E-01  0.32481486722E-01  0.51100000000E-03 0. -1.
</event>
<event>
 8    1  0.1137518E+005  0.1043930E+01  0.7957747E-01            NaN
         13   -1    0    0    0    0  0.00000000000E+00  0.00000000000E+00  0.74505805969E-08  0.10566000000E+00  0.10566000000E+00 0.  1.
     999900   -1    0    0    0    0 -0.00000000000E+00 -0.00000000000E+00 -0.74505805969E-08  0.93827000000E+00  0.93827000000E+00 0. -1.
     999902    2    1    2    0    0  0.30289624810E-02 -0.18226958385E-01  0.14689777270E-01  0.10203252085E+01  0.10200521285E+01 0.  0.
     999903    2    3    3    0    0 -0.60639471495E-01 -0.10924149771E-01  0.11530748978E+00  0.13227626583E+00  0.20117424047E-01 0.  0.
         14    1    1    2    0    0 -0.30289624810E-02  0.18226958385E-01 -0.14689777270E-01  0.23604791504E-01  0.00000000000E+00 0. -1.
     999901    1    3    3    0    0  0.63668433976E-01 -0.73028086140E-02 -0.10061771251E+00  0.88804894267E+00  0.88000000000E+00 0. -1.
        -11    1    4    4    0    0 -0.26763914813E-01 -0.56215566503E-02  0.72102895421E-01  0.77116779525E-01  0.51100000000E-03 0. -1.
         11    1    4    4    0    0 -0.33875556683E-01 -0.53025931209E-02  0.43204594363E-01  0.55159486305E-01  0.51100000000E-03 0.  1.
</event>
<event>
 8    1  0.1137518E+005  0.1043930E+01  0.7957747E-01            NaN
         13   -1    0    0    0    0  0.00000000000E+00  0.00000000000E+00  0.74505805969E-08  0.10566000000E+00  0.10566000000E+00 0. -1.
     999900   -1    0    0    0    0 -0.00000000000E+00 -0.00000000000E+00 -0.74505805969E-08  0.93827000000E+00  0.93827000000E+00 0.  1.
     999902    2    1    2    0    0 -0.13133338979E-01  0.15601253007E-01 -0.12362117336E-01  0.10200824502E+01  0.10198036573E+01 0.  0.
     999903    2    3    3    0    0 -0.30764715654E-01  0.64092290091E-01  0.10802890205E+00  0.13038798369E+00  0.16628085711E-01 0.  0.
         14    1    1    2    0    0  0.13133338979E-01 -0.15601253007E-01  0.12362117336E-01  0.23847549836E-01  0.00000000000E+00 0. -1.
     999901    1    3    3    0    0  0.17631376676E-01 -0.48491037084E-01 -0.12039101939E+00  0.88969446647E+00  0.88000000000E+00 0.  1.
        -11    1    4    4    0    0  0.29967427758E-03  0.14345577294E-01  0.21713439686E-01  0.26031134753E-01  0.51100000000E-03 0.  1.
         11    1    4    4    0    0 -0.31064389932E-01  0.49746712798E-01  0.86315462366E-01  0.10435684894E+00  0.51100000000E-03 0. -1.
</event>
<event>
 8    1  0.1137518E+005  0.1043930E+01  0.7957747E-01            NaN
         13   -1    0    0    0    0  0.00000000000E+00  0.00000000000E+00  0.74505805969E-08  0.10566000000E+00  0.10566000000E+00 0.  1.
     999900   -1    0    0    0    0 -0.00000000000E+00 -0.00000000000E+00 -0.74505805969E-08  0.93827000000E+00  0.93827000000E+00 0. -1.
     999902    2    1    2    0    0 -0.17357037715E-02 -0.20511221387E-01  0.98851095915E-02  0.10210949773E+01  0.10208396125E+01 0.  0.
     999903    2    3    3    0    0  0.82836189731E-01  0.79800030574E-01  0.57426152651E-01  0.13009839862E+00  0.19948711872E-01 0.  0.
         14    1    1    2    0    0  0.17357037715E-02  0.20511221387E-01 -0.98851095915E-02  0.22835022706E-01  0.00000000000E+00 0. -1.
     999901    1    3    3    0    0 -0.84571893502E-01 -0.10031125196E+00 -0.47541043059E-01  0.89099657868E+00  0.88000000000E+00 0. -1.
        -11    1    4    4    0    0  0.97984898234E-02  0.20227404725E-01  0.11461784276E-01  0.25234736466E-01  0.51100000000E-03 0. -1.
         11    1    4    4    0    0  0.73037699908E-01  0.59572625849E-01  0.45964368375E-01  0.10486366215E+00  0.51100000000E-03 0.  1.
</event>
<event>
 8    1  0.1137518E+005  0.1043930E+01  0.7957747E-01            NaN
         13   -1    0    0    0    0  0.00000000000E+00  0.00000000000E+00  0.74505805969E-08  0.10566000000E+00  0.10566000000E+00 0.  1.
     999900   -1    0    0    0    0 -0.00000000000E+00 -0.00000000000E+00 -0.74505805969E-08  0.93827000000E+00  0.93827000000E+00 0. -1.
     999902    2    1    2    0    0  0.13619611999E-01 -0.18936547113E-01 -0.14075879022E-02  0.10205619031E+01  0.10202943351E+01 0.  0.
     999903    2    3    3    0    0  0.77907349077E-01 -0.85448542543E-01 -0.63814021668E-01  0.13351549981E+00  0.19574239813E-01 0.  0.
         14    1    1    2    0    0 -0.13619611999E-01  0.18936547113E-01  0.14075879022E-02  0.23368096869E-01  0.00000000000E+00 0.  1.
     999901    1    3    3    0    0 -0.64287737079E-01  0.66511995430E-01  0.62406433766E-01  0.88704640332E+00  0.88000000000E+00 0.  1.
        -11    1    4    4    0    0  0.65929973042E-01 -0.76542461420E-01 -0.48282247224E-01  0.11196850568E+00  0.51100000000E-03 0.  1.
         11    1    4    4    0    0  0.11977376035E-01 -0.89060811239E-02 -0.15531774444E-01  0.21546994130E-01  0.51100000000E-03 0. -1.
</event>
<event>
 8    1  0.1137518E+005  0.1043930E+01  0.7957747E-01            NaN
         13   -1    0    0    0    0  0.00000000000E+00  0.00000000000E+00  0.74505805969E-08  0.10566000000E+00  0.10566000000E+00 0.  1.
     999900   -1    0    0    0    0 -0.00000000000E+00 -0.00000000000E+00 -0.74505805969E-08  0.93827000000E+00  0.93827000000E+00 0. -1.
     999902    2    1    2    0    0 -0.22367705109E-01 -0.79773333619E-02 -0.41788335044E-02  0.10198174570E+01  0.10195323589E+01 0.  0.
     999903    2    3    3    0    0  0.39698039977E-01 -0.74334765436E-01  0.96307851708E-01  0.12945065654E+00  0.19510982712E-01 0.  0.
         14    1    1    2    0    0  0.22367705109E-01  0.79773333619E-02  0.41788335044E-02  0.24112542978E-01  0.00000000000E+00 0. -1.
     999901    1    3    3    0    0 -0.62065745086E-01  0.66357432074E-01 -0.10048668521E+00  0.89036680049E+00  0.88000000000E+00 0. -1.
        -11    1    4    4    0    0  0.15848543671E-01 -0.49756172392E-01  0.59731087394E-01  0.79340512664E-01  0.51100000000E-03 0.  1.
         11    1    4    4    0    0  0.23849496307E-01 -0.24578593044E-01  0.36576764314E-01  0.50110143871E-01  0.51100000000E-03 0. -1.
</event>
<event>
 8    1  0.1137518E+005  0.1043930E+01  0.7957747E-01            NaN
         13   -1    0    0    0    0  0.00000000000E+00  0.00000000000E+00  0.74505805969E-08  0.10566000000E+00  0.10566000000E+00 0.  1.
     999900   -1    0    0    0    0 -0.00000000000E+00 -0.00000000000E+00 -0.74505805969E-08  0.93827000000E+00  0.93827000000E+00 0. -1.
     999902    2    1    2    0    0  0.81661795202E-02 -0.23263029416E-01  0.10989543757E-02  0.10192508038E+01  0.10189519804E+01 0.  0.
     999903    2    3    3    0    0  0.31803542767E-01 -0.53732205881E-02  0.12451680924E+00  0.13014409640E+00  0.19816993046E-01 0.  0.
         14    1    1    2    0    0 -0.81661795202E-02  0.23263029416E-01 -0.10989543757E-02  0.24679196225E-01  0.00000000000E+00 0. -1.
     999901    1    3    3    0    0 -0.23637363247E-01 -0.17889808828E-01 -0.12341785486E+00  0.88910670738E+00  0.88000000000E+00 0. -1.
        -11    1    4    4    0    0  0.27495917291E-01 -0.11778241292E-01  0.93086304334E-01  0.97775628923E-01  0.51100000000E-03 0.  1.
         11    1    4    4    0    0  0.43076254768E-02  0.64050207036E-02  0.31430504902E-01  0.32368467477E-01  0.51100000000E-03 0. -1.
</event>
<event>
 8    1  0.1137518E+005  0.1043930E+01  0.7957747E-01            NaN
         13   -1    0    0    0    0  0.00000000000E+00  0.00000000000E+00  0.74505805969E-08  0.10566000000E+00  0.10566000000E+00 0.  1.
     999900   -1    0    0    0    0 -0.00000000000E+00 -0.00000000000E+00 -0.74505805969E-08  0.93827000000E+00  0.93827000000E+00 0. -1.
     999902    2    1    2    0    0  0.15083953755E-01  0.13115946705E-01  0.13321213599E-01  0.10199089998E+01  0.10196260880E+01 0.  0.
     999903    2    3    3    0    0  0.25582432213E-02 -0.55916015558E-01 -0.11394346935E+00  0.12799050310E+00  0.16288316995E-01 0.  0.
         14    1    1    2    0    0 -0.15083953755E-01 -0.13115946705E-01 -0.13321213599E-01  0.24021000200E-01  0.00000000000E+00 0. -1.
     999901    1    3    3    0    0  0.12525710533E-01  0.69031962263E-01  0.12726468295E+00  0.89191849671E+00  0.88000000000E+00 0.  1.
        -11    1    4    4    0    0  0.53490794642E-02 -0.18000714781E-01 -0.25085342430E-01  0.31339653948E-01  0.51100000000E-03 0. -1.
         11    1    4    4    0    0 -0.27908362430E-02 -0.37915300776E-01 -0.88858126921E-01  0.96650849147E-01  0.51100000000E-03 0.  1.
</event>
<event>
 8    1  0.1137518E+005  0.1043930E+01  0.7957747E-01            NaN
         13   -1    0    0    0    0  0.00000000000E+00  0.00000000000E+00  0.74505805969E-08  0.10566000000E+00  0.10566000000E+00 0. -1.
     999900   -1    0    0    0    0 -0.00000000000E+00 -0.00000000000E+00 -0.74505805969E-08  0.93827000000E+00  0.93827000000E+00 0.  1.
     999902    2    1    2    0    0 -0.49917731886E-02  0.17315302468E-01  0.12826878315E-01  0.10218106350E+01  0.10215711955E+01 0.  0.
     999903    2    3    3    0    0  0.10072266728E+00 -0.51949155493E-01  0.65127885749E-01  0.13124424030E+00  0.11816879782E-01 0.  0.
         14    1    1    2    0    0  0.49917731886E-02 -0.17315302468E-01 -0.12826878315E-01  0.22119364964E-01  0.00000000000E+00 0.  1.
     999901    1    3    3    0    0 -0.10571444047E+00  0.69264457960E-01 -0.52301007435E-01  0.89056639474E+00  0.88000000000E+00 0.  1.
        -11    1    4    4    0    0  0.60795800031E-01 -0.26083784174E-01  0.33915262016E-01  0.74343790708E-01  0.51100000000E-03 0.  1.
         11    1    4    4    0    0  0.39926867252E-01 -0.25865371319E-01  0.31212623733E-01  0.56900449589E-01  0.51100000000E-03 0. -1.
</event>
<event>
 8    1  0.1137518E+005  0.1043930E+01  0.7957747E-01            NaN
         13   -1    0    0    0    0  0.00000000000E+00  0.00000000000E+00  0.74505805969E-08  0.10566000000E+00  0.10566000000E+00 0.  1.
     999900   -1    0    0    0    0 -0.00000000000E+00 -0.00000000000E+00 -0.74505805969E-08  0.93827000000E+00  0.93827000000E+00 0. -1.
     999902    2    1    2    0    0 -0.20158882709E-01  0.60137013815E-02 -0.14728008492E-01  0.10182500586E+01  0.10179261871E+01 0.  0.
     999903    2    3    3    0    0 -0.80235515270E-01 -0.94328135309E-01 -0.35451756697E-01  0.13027080225E+00  0.19445303885E-01 0.  0.
         14    1    1    2    0    0  0.20158882709E-01 -0.60137013815E-02  0.14728008492E-01  0.25679941404E-01  0.00000000000E+00 0.  1.
     999901    1    3    3    0    0  0.60076632561E-01  0.10034183669E+00  0.20723748205E-01  0.88797925635E+00  0.88000000000E+00 0. -1.
        -11    1    4    4    0    0 -0.64958600186E-01 -0.63007638731E-01 -0.25073896930E-01  0.93907101461E-01  0.51100000000E-03 0.  1.
         11    1    4    4    0    0 -0.15276915084E-01 -0.31320496577E-01 -0.10377859767E-01  0.36363700784E-01  0.51100000000E-03 0. -1.
</event>
<event>
 8    1  0.1137518E+005  0.1043930E+01  0.7957747E-01            NaN
         13   -1    0    0    0    0  0.00000000000E+00  0.00000000000E+00  0.74505805969E-08  0.10566000000E+00  0.10566000000E+00 0. -1.
     999900   -1    0    0    0    0 -0.00000000000E+00 -0.00000000000E+00 -0.74505805969E-08  0.93827000000E+00  0.93827000000E+00 0.  1.
     999902    2    1    2    0    0 -0.83841314982E-02 -0.19754516175E-01 -0.75269542540E-02  0.10211881968E+01  0.10209349361E+01 0.  0.
     999903    2    3    3    0    0 -0.12044156272E+00  0.39666263756E-01  0.27826754481E-01  0.13139182593E+00  0.20246015536E-01 0.  0.
         14    1    1    2    0    0  0.83841314982E-02  0.19754516175E-01  0.75269542540E-02  0.22741803153E-01  0.00000000000E+00 0.  1.
     999901    1    3    3    0    0  0.11205743122E+00 -0.59420779931E-01 -0.35353708736E-01  0.88979637092E+00  0.88000000000E+00 0.  1.
        -11    1    4    4    0    0 -0.93482811280E-01  0.21598653109E-01  0.21399561688E-01  0.98304324332E-01  0.51100000000E-03 0. -1.
         11    1    4    4    0    0 -0.26958751440E-01  0.18067610647E-01  0.64271927936E-02  0.33087501596E-01  0.51100000000E-03 0.  1.
</event>
<event>
 8    1  0.1137518E+005  0.1043930E+01  0.7957747E-01            NaN
         13   -1    0    0    0    0  0.00000000000E+00  0.00000000000E+00  0.74505805969E-08  0.10566000000E+00  0.10566000000E+00 0. -1.
     999900   -1    0    0    0    0 -0.00000000000E+00 -0.00000000000E+00 -0.74505805969E-08  0.93827000000E+00  0.93827000000E+00 0. -1.
     999902    2    1    2    0    0 -0.12251869610E-01 -0.18052011189E-01  0.46325949942E-02  0.10216265394E+01  0.10213830534E+01 0.  0.
     999903    2    3    3    0    0  0.87273776764E-01  0.84794138560E-01  0.37728697013E-01  0.12945052722E+00  0.22961410533E-01 0.  0.
         14    1    1    2    0    0  0.12251869610E-01  0.18052011189E-01 -0.46325949942E-02  0.22303460567E-01  0.00000000000E+00 0.  1.
     999901    1    3    3    0    0 -0.99525646374E-01 -0.10284614975E+00 -0.33096102018E-01  0.89217601222E+00  0.88000000000E+00 0. -1.
        -11    1    4    4    0    0  0.60540273984E-01  0.60649277606E-01  0.37196446427E-01  0.93419999979E-01  0.51100000000E-03 0.  1.
         11    1    4    4    0    0  0.26733502780E-01  0.24144860954E-01  0.53225058505E-03  0.36030527238E-01  0.51100000000E-03 0. -1.
</event>
<event>
 8    1  0.1137518E+005  0.1043930E+01  0.7957747E-01            NaN
         13   -1    0    0    0    0  0.00000000000E+00  0.00000000000E+00  0.74505805969E-08  0.10566000000E+00  0.10566000000E+00 0.  1.
     999900   -1    0    0    0    0 -0.00000000000E+00 -0.00000000000E+00 -0.74505805969E-08  0.93827000000E+00  0.93827000000E+00 0.  1.
     999902    2    1    2    0    0 -0.71823296729E-02  0.15862133621E-01  0.16505261375E-01  0.10199379848E+01  0.10196557635E+01 0.  0.
     999903    2    3    3    0    0  0.11034574196E+00 -0.44134809686E-01 -0.43581742938E-01  0.12807312452E+00  0.19475438729E-01 0.  0.
         14    1    1    2    0    0  0.71823296729E-02 -0.15862133621E-01 -0.16505261375E-01  0.23992015247E-01  0.00000000000E+00 0.  1.
     999901    1    3    3    0    0 -0.11752807163E+00  0.59996943307E-01  0.60087004313E-01  0.89186486023E+00  0.88000000000E+00 0.  1.
        -11    1    4    4    0    0  0.30960128828E-01 -0.21903278374E-01 -0.11856660435E-01  0.39738202001E-01  0.51100000000E-03 0.  1.
         11    1    4    4    0    0  0.79385613128E-01 -0.22231531312E-01 -0.31725082502E-01  0.88334922522E-01  0.51100000000E-03 0. -1.
</event>
<event>
 8    1  0.1137518E+005  0.1043930E+01  0.7957747E-01            NaN
         13   -1    0    0    0    0  0.00000000000E+00  0.00000000000E+00  0.74505805969E-08  0.10566000000E+00  0.10566000000E+00 0. -1.
     999900   -1    0    0    0    0 -0.00000000000E+00 -0.00000000000E+00 -0.74505805969E-08  0.93827000000E+00  0.93827000000E+00 0.  1.
     999902    2    1    2    0    0  0.24853746118E-01  0.14460228091E-04 -0.12284016443E-03  0.10190759461E+01  0.10187728206E+01 0.  0.
     999903    2    3    3    0    0 -0.47753595575E-01 -0.11387138152E+00  0.28996477945E-01  0.12829553225E+00  0.19283424040E-01 0.  0.
         14    1    1    2    0    0 -0.24853746118E-01 -0.14460228091E-04  0.12284016443E-03  0.24854053893E-01  0.00000000000E+00 0. -1.
     999901    1    3    3    0    0  0.72607341693E-01  0.11388584175E+00 -0.29119318109E-01  0.89078041385E+00  0.88000000000E+00 0.  1.
        -11    1    4    4    0    0 -0.15147112641E-01 -0.25377098313E-01 -0.22991268300E-03  0.29559196894E-01  0.51100000000E-03 0.  1.
         11    1    4    4    0    0 -0.32606482933E-01 -0.88494283209E-01  0.29226390628E-01  0.98736335359E-01  0.51100000000E-03 0. -1.
</event>
<event>
 8    1  0.1137518E+005  0.1043930E+01  0.7957747E-01            NaN
         13   -1    0    0    0    0  0.00000000000E+00  0.00000000000E+00  0.74505805969E-08  0.10566000000E+00  0.10566000000E+00 0. -1.
     999900   -1    0    0    0    0 -0.00000000000E+00 -0.00000000000E+00 -0.74505805969E-08  0.93827000000E+00  0.93827000000E+00 0.  1.
     999902    2    1    2    0    0 -0.12142298672E-01  0.18134475904E-01 -0.10191172119E-01  0.10198436009E+01  0.10195591281E+01 0.  0.
     999903    2    3    3    0    0  0.79407027471E-01  0.98862761948E-01  0.24656370587E-01  0.13073579723E+00  0.20114431496E-01 0.  0.
         14    1    1    2    0    0  0.12142298672E-01 -0.18134475904E-01  0.10191172119E-01  0.24086399119E-01  0.00000000000E+00 0. -1.
     999901    1    3    3    0    0 -0.91549326143E-01 -0.80728286044E-01 -0.34847542706E-01  0.88910780365E+00  0.88000000000E+00 0.  1.
        -11    1    4    4    0    0  0.22964741758E-01  0.40855276772E-01  0.30759514728E-02  0.46970795210E-01  0.51100000000E-03 0.  1.
         11    1    4    4    0    0  0.56442285713E-01  0.58007485176E-01  0.21580419115E-01  0.83765002018E-01  0.51100000000E-03 0. -1.
</event>
<event>
 8    1  0.1137518E+005  0.1043930E+01  0.7957747E-01            NaN
         13   -1    0    0    0    0  0.00000000000E+00  0.00000000000E+00  0.74505805969E-08  0.10566000000E+00  0.10566000000E+00 0. -1.
     999900   -1    0    0    0    0 -0.00000000000E+00 -0.00000000000E+00 -0.74505805969E-08  0.93827000000E+00  0.93827000000E+00 0. -1.
     999902    2    1    2    0    0 -0.12740024639E-01 -0.39395974536E-02 -0.19285118832E-01  0.10204833699E+01  0.10202139794E+01 0.  0.
     999903    2    3    3    0    0  0.11904656872E+00 -0.21241758355E-01 -0.43776645313E-01  0.13016494042E+00  0.20080319165E-01 0.  0.
         14    1    1    2    0    0  0.12740024639E-01  0.39395974536E-02  0.19285118832E-01  0.23446630126E-01  0.00000000000E+00 0. -1.
     999901    1    3    3    0    0 -0.13178659336E+00  0.17302160902E-01  0.24491526481E-01  0.89031842946E+00  0.88000000000E+00 0. -1.
        -11    1    4    4    0    0  0.55935619624E-01 -0.11339370524E-01 -0.31224097952E-01  0.65058283719E-01  0.51100000000E-03 0. -1.
         11    1    4    4    0    0  0.63110949093E-01 -0.99023878317E-02 -0.12552547361E-01  0.65106656699E-01  0.51100000000E-03 0.  1.
</event>
<event>
 8    1  0.1137518E+005  0.1043930E+01  0.7957747E-01            NaN
         13   -1    0    0    0    0  0.00000000000E+00  0.00000000000E+00  0.74505805969E-08  0.10566000000E+00  0.10566000000E+00 0. -1.
     999900   -1    0    0    0    0 -0.00000000000E+00 -0.00000000000E+00 -0.74505805969E-08  0.93827000000E+00  0.93827000000E+00 0.  1.
     999902    2    1    2    0    0  0.81216746665E-02  0.40161183490E-02  0.21681481313E-01  0.10204315439E+01  0.10201609473E+01 0.  0.
     999903    2    3    3    0    0  0.41243974034E-01 -0.59027383469E-01  0.11015929655E+00  0.13313233079E+00  0.20096006903E-01 0.  0.
         14    1    1    2    0    0 -0.81216746665E-02 -0.40161183490E-02 -0.21681481313E-01  0.23498456075E-01  0.00000000000E+00 0.  1.
     999901    1    3    3    0    0 -0.33122299368E-01  0.63043501818E-01 -0.88477815233E-01  0.88729921313E+00  0.88000000000E+00 0.  1.
        -11    1    4    4    0    0  0.76857918220E-02 -0.22290139963E-01  0.24076529312E-01  0.33702553616E-01  0.51100000000E-03 0.  1.
         11    1    4    4    0    0  0.33558182212E-01 -0.36737243505E-01  0.86082767234E-01  0.99429777177E-01  0.51100000000E-03 0. -1.
</event>
<event>
 8    1  0.1137518E+005  0.1043930E+01  0.7957747E-01            NaN
         13   -1    0    0    0    0  0.00000000000E+00  0.00000000000E+00  0.74505805969E-08  0.10566000000E+00  0.10566000000E+00 0. -1.
     999900   -1    0    0    0    0 -0.00000000000E+00 -0.00000000000E+00 -0.74505805969E-08  0.93827000000E+00  0.93827000000E+00 0. -1.
     999902    2    1    2    0    0  0.11345404846E-01  0.17218307902E-01 -0.11224645207E-01  0.10204527557E+01  0.10201826531E+01 0.  0.
     999903    2    3    3    0    0 -0.10724995363E+00  0.47729192630E-01  0.52364641858E-01  0.12970061818E+00  0.17307982463E-01 0.  0.
         14    1    1    2    0    0 -0.11345404846E-01 -0.17218307902E-01  0.11224645207E-01  0.23477244263E-01  0.00000000000E+00 0. -1.
     999901    1    3    3    0    0  0.11859535847E+00 -0.30510884728E-01 -0.63589287064E-01  0.89075213756E+00  0.88000000000E+00 0. -1.
        -11    1    4    4    0    0 -0.50150213702E-01  0.25386928351E-01  0.33988880890E-01  0.65689003727E-01  0.51100000000E-03 0. -1.
         11    1    4    4    0    0 -0.57099739923E-01  0.22342264279E-01  0.18375760967E-01  0.64011614451E-01  0.51100000000E-03 0.  1.
</event>
<event>
 8    1  0.1137518E+005  0.1043930E+01  0.7957747E-01            NaN
         13   -1    0    0    0    0  0.00000000000E+00  0.00000000000E+00  0.74505805969E-08  0.10566000000E+00  0.10566000000E+00 0.  1.
     999900   -1    0    0    0    0 -0.00000000000E+00 -0.00000000000E+00 -0.74505805969E-08  0.93827000000E+00  0.93827000000E+00 0.  1.
     999902    2    1    2    0    0  0.14643181824E-01 -0.13702173798E-01 -0.10635629354E-01  0.10212300231E+01  0.10209777035E+01 0.  0.
     999903    2    3    3    0    0 -0.70548522454E-01 -0.10036582563E+00  0.41856824921E-01  0.13132908882E+00  0.21093667393E-01 0.  0.
         14    1    1    2    0    0 -0.14643181824E-01  0.13702173798E-01  0.10635629354E-01  0.22699976927E-01  0.00000000000E+00 0.  1.
     999901    1    3    3    0    0  0.85191704278E-01  0.86663651828E-01 -0.52492454275E-01  0.88990093425E+00  0.88000000000E+00 0. -1.
        -11    1    4    4    0    0 -0.18845399639E-01 -0.33625508423E-01  0.22770573864E-01  0.44772581558E-01  0.51100000000E-03 0.  1.
         11    1    4    4    0    0 -0.51703122815E-01 -0.66740317203E-01  0.19086251057E-01  0.86556507264E-01  0.51100000000E-03 0. -1.
</event>
<event>
 8    1  0.1137518E+005  0.1043930E+01  0.7957747E-01            NaN
         13   -1    0    0    0    0  0.00000000000E+00  0.00000000000E+00  0.74505805969E-08  0.10566000000E+00  0.10566000000E+00 0. -1.
     999900   -1    0    0    0    0 -0.00000000000E+00 -0.00000000000E+00 -0.74505805969E-08  0.93827000000E+00  0.93827000000E+00 0.  1.
     999902    2    1    2    0    0 -0.14464047639E-01  0.16709347445E-01  0.75909948433E-02  0.10205626260E+01  0.10202950747E+01 0.  0.
     999903    2    3    3    0    0  0.86829753354E-01 -0.39134877547E-01 -0.83644901635E-01  0.12831658346E+00  0.19943202152E-01 0.  0.
         14    1    1    2    0    0  0.14464047639E-01 -0.16709347445E-01 -0.75909948433E-02  0.23367374026E-01  0.00000000000E+00 0.  1.
     999901    1    3    3    0    0 -0.10129380099E+00  0.55844224992E-01  0.91235896478E-01  0.89224604252E+00  0.88000000000E+00 0.  1.
        -11    1    4    4    0    0  0.10050808553E-01 -0.54396783103E-02 -0.20031015485E-01  0.23067543325E-01  0.51100000000E-03 0.  1.
         11    1    4    4    0    0  0.76778944801E-01 -0.33695199237E-01 -0.63613886151E-01  0.10524904013E+00  0.51100000000E-03 0. -1.
</event>
<event>
 8    1  0.1137518E+005  0.1043930E+01  0.7957747E-01            NaN
         13   -1    0    0    0    0  0.00000000000E+00  0.00000000000E+00  0.74505805969E-08  0.10566000000E+00  0.10566000000E+00 0. -1.
     999900   -1    0    0    0    0 -0.00000000000E+00 -0.00000000000E+00 -0.74505805969E-08  0.93827000000E+00  0.93827000000E+00 0. -1.
     999902    2    1    2    0    0  0.59484882554E-02 -0.19783164100E-01  0.11625130792E-01  0.10202255329E+01  0.10199501146E+01 0.  0.
     999903    2    3    3    0    0  0.62884035708E-01 -0.77032685683E-01 -0.83929839833E-01  0.13137801128E+00  0.18097713213E-01 0.  0.
         14    1    1    2    0    0 -0.59484882554E-02  0.19783164100E-01 -0.11625130792E-01  0.23704467095E-01  0.00000000000E+00 0.  1.
     999901    1    3    3    0    0 -0.56935547453E-01  0.57249521583E-01  0.95554970624E-01  0.88884752162E+00  0.88000000000E+00 0.  1.
        -11    1    4    4    0    0  0.28078198309E-02 -0.12563249565E-01 -0.91453933402E-02  0.15799317459E-01  0.51100000000E-03 0.  1.
         11    1    4    4    0    0  0.60076215877E-01 -0.64469436118E-01 -0.74784446492E-01  0.11557869382E+00  0.51100000000E-03 0. -1.
</event>
<event>
 8    1  0.1137518E+005  0.1043930E+01  0.7957747E-01            NaN
         13   -1    0    0    0    0  0.00000000000E+00  0.00000000000E+00  0.74505805969E-08  0.10566000000E+00  0.10566000000E+00 0.  1.
     999900   -1    0    0    0    0 -0.00000000000E+00 -0.00000000000E+00 -0.74505805969E-08  0.93827000000E+00  0.93827000000E+00 0.  1.
     999902    2    1    2    0    0  0.60672472578E-02  0.22582250682E-01  0.39196108285E-02  0.10202206583E+01  0.10199451253E+01 0.  0.
     999903    2    3    3    0    0  0.12212803365E+00  0.96819119939E-02  0.44599948162E-01  0.13157482630E+00  0.17713935654E-01 0.  0.
         14    1    1    2    0    0 -0.60672472578E-02 -0.22582250682E-01 -0.39196108285E-02  0.23709341707E-01  0.00000000000E+00 0. -1.
     999901    1    3    3    0    0 -0.11606078639E+00  0.12900338688E-01 -0.40680337333E-01  0.88864583199E+00  0.88000000000E+00 0.  1.
        -11    1    4    4    0    0  0.74104831048E-01  0.32158037659E-02  0.18139858891E-01  0.76362182918E-01  0.51100000000E-03 0.  1.
         11    1    4    4    0    0  0.48023202602E-01  0.64661082280E-02  0.26460089271E-01  0.55212643380E-01  0.51100000000E-03 0. -1.
</event>
<event>
 8    1  0.1137518E+005  0.1043930E+01  0.7957747E-01            NaN
         13   -1    0    0    0    0  0.00000000000E+00  0.00000000000E+00  0.74505805969E-08  0.10566000000E+00  0.10566000000E+00 0.  1.
     999900   -1    0    0    0    0 -0.00000000000E+00 -0.00000000000E+00 -0.74505805969E-08  0.93827000000E+00  0.93827000000E+00 0. -1.
     999902    2    1    2    0    0  0.11151921744E-01  0.34806445209E-02 -0.13395236767E-01  0.10261560693E+01  0.10260021276E+01 0.  0.
     999903    2    3    3    0    0  0.65366838228E-01 -0.11608093341E+00 -0.22124962715E-01  0.13637495227E+00  0.19000183968E-01 0.  0.
         14    1    1    2    0    0 -0.11151921744E-01 -0.34806445209E-02  0.13395236767E-01  0.17773930711E-01  0.00000000000E+00 0.  1.
     999901    1    3    3    0    0 -0.54214916483E-01  0.11956157793E+00  0.87297259472E-02  0.88978111702E+00  0.88000000000E+00 0.  1.
        -11    1    4    4    0    0  0.49188207049E-01 -0.84687484822E-01 -0.24561636200E-01  0.10097021785E+00  0.51100000000E-03 0. -1.
         11    1    4    4    0    0  0.16178631179E-01 -0.31393448587E-01  0.24366734852E-02  0.35404734424E-01  0.51100000000E-03 0.  1.
</event>
<event>
 8    1  0.1137518E+005  0.1043930E+01  0.7957747E-01            NaN
         13   -1    0    0    0    0  0.00000000000E+00  0.00000000000E+00  0.74505805969E-08  0.10566000000E+00  0.10566000000E+00 0. -1.
     999900   -1    0    0    0    0 -0.00000000000E+00 -0.00000000000E+00 -0.74505805969E-08  0.93827000000E+00  0.93827000000E+00 0.  1.
     999902    2    1    2    0    0 -0.32837210572E-02  0.13729686558E-01 -0.18198676203E-01  0.10208978717E+01  0.10206380287E+01 0.  0.
     999903    2    3    3    0    0  0.30189514166E-01  0.11040560212E+00 -0.66302571921E-01  0.13366584182E+00  0.19228168901E-01 0.  0.
         14    1    1    2    0    0  0.32837210572E-02 -0.13729686558E-01  0.18198676203E-01  0.23032128267E-01  0.00000000000E+00 0. -1.
     999901    1    3    3    0    0 -0.33473235223E-01 -0.96675915565E-01  0.48103895718E-01  0.88723202992E+00  0.88000000000E+00 0. -1.
        -11    1    4    4    0    0  0.26036625499E-01  0.74151635101E-01 -0.53136198942E-01  0.94868791573E-01  0.51100000000E-03 0. -1.
         11    1    4    4    0    0  0.41528886676E-02  0.36253967022E-01 -0.13166372978E-01  0.38797050243E-01  0.51100000000E-03 0.  1.
</event>
<event>
 8    1  0.1137518E+005  0.1043930E+01  0.7957747E-01            NaN
         13   -1    0    0    0    0  0.00000000000E+00  0.00000000000E+00  0.74505805969E-08  0.10566000000E+00  0.10566000000E+00 0.  1.
     999900   -1    0    0    0    0 -0.00000000000E+00 -0.00000000000E+00 -0.74505805969E-08  0.93827000000E+00  0.93827000000E+00 0.  1.
     999902    2    1    2    0    0 -0.33150735932E-02  0.54110298002E-02 -0.22785831302E-01  0.10202770284E+01  0.10200028194E+01 0.  0.
     999903    2    3    3    0    0 -0.16569483566E-01  0.89553501880E-01 -0.95120743278E-01  0.13320996530E+00  0.20063936994E-01 0.  0.
         14    1    1    2    0    0  0.33150735932E-02 -0.54110298002E-02  0.22785831302E-01  0.23652971579E-01  0.00000000000E+00 0.  1.
     999901    1    3    3    0    0  0.13254409973E-01 -0.84142472079E-01  0.72334911976E-01  0.88706706313E+00  0.88000000000E+00 0.  1.
        -11    1    4    4    0    0 -0.92408181168E-02  0.19593369298E-01 -0.13820949270E-01  0.25701606946E-01  0.51100000000E-03 0.  1.
         11    1    4    4    0    0 -0.73286654493E-02  0.69960132582E-01 -0.81299794008E-01  0.10750835835E+00  0.51100000000E-03 0. -1.
</event>
<event>
 8    1  0.1137518E+005  0.1043930E+01  0.7957747E-01            NaN
         13   -1    0    0    0    0  0.00000000000E+00  0.00000000000E+00  0.74505805969E-08  0.10566000000E+00  0.10566000000E+00 0. -1.
     999900   -1    0    0    0    0 -0.00000000000E+00 -0.00000000000E+00 -0.74505805969E-08  0.93827000000E+00  0.93827000000E+00 0.  1.
     999902    2    1    2    0    0 -0.19943157762E-01  0.28427673740E-04  0.12507088131E-01  0.10203894477E+01  0.10201178693E+01 0.  0.
     999903    2    3    3    0    0 -0.12923238776E+00  0.13732965505E-01 -0.55163888876E-02  0.13333995872E+00  0.29317395123E-01 0.  0.
         14    1    1    2    0    0  0.19943157762E-01 -0.28427673740E-04 -0.12507088131E-01  0.23540552313E-01  0.00000000000E+00 0.  1.
     999901    1    3    3    0    0  0.10928923000E+00 -0.13704537832E-01  0.18023477019E-01  0.88704948897E+00  0.88000000000E+00 0.  1.
        -11    1    4    4    0    0 -0.27345149209E-01  0.15264056964E-01 -0.82193573329E-03  0.31331857902E-01  0.51100000000E-03 0. -1.
         11    1    4    4    0    0 -0.10188723855E+00 -0.15310914582E-02 -0.46944531543E-02  0.10200810082E+00  0.51100000000E-03 0.  1.
</event>
<event>
 8    1  0.1137518E+005  0.1043930E+01  0.7957747E-01            NaN
         13   -1    0    0    0    0  0.00000000000E+00  0.00000000000E+00  0.74505805969E-08  0.10566000000E+00  0.10566000000E+00 0. -1.
     999900   -1    0    0    0    0 -0.00000000000E+00 -0.00000000000E+00 -0.74505805969E-08  0.93827000000E+00  0.93827000000E+00 0.  1.
     999902    2    1    2    0    0 -0.14530460581E-01  0.90746089670E-02  0.15718871333E-01  0.10206799306E+01  0.10204150895E+01 0.  0.
     999903    2    3    3    0    0  0.41379863705E-01 -0.11690837954E+00 -0.28171567734E-01  0.12887050676E+00  0.20835257520E-01 0.  0.
         14    1    1    2    0    0  0.14530460581E-01 -0.90746089670E-02 -0.15718871333E-01  0.23250069432E-01  0.00000000000E+00 0.  1.
     999901    1    3    3    0    0 -0.55910324286E-01  0.12598298851E+00  0.43890439067E-01  0.89180942381E+00  0.88000000000E+00 0. -1.
        -11    1    4    4    0    0  0.51665610490E-02 -0.20620134383E-01  0.27713669879E-02  0.21443527952E-01  0.51100000000E-03 0. -1.
         11    1    4    4    0    0  0.36213302656E-01 -0.96288245159E-01 -0.30942934722E-01  0.10742697881E+00  0.51100000000E-03 0.  1.
</event>
<event>
 8    1  0.1137518E+005  0.1043930E+01  0.7957747E-01            NaN
         13   -1    0    0    0    0  0.00000000000E+00  0.00000000000E+00  0.74505805969E-08  0.10566000000E+00  0.10566000000E+00 0.  1.
     999900   -1    0    0    0    0 -0.00000000000E+00 -0.00000000000E+00 -0.74505805969E-08  0.93827000000E+00  0.93827000000E+00 0. -1.
     999902    2    1    2    0    0  0.23500876438E-01 -0.44344513781E-02  0.65993702732E-03  0.10200053042E+01  0.10197246832E+01 0.  0.
     999903    2    3    3    0    0 -0.11150690492E-01  0.11264292763E+00  0.59817204497E-01  0.12960796252E+00  0.20183135332E-01 0.  0.
         14    1    1    2    0    0 -0.23500876438E-01  0.44344513781E-02 -0.65993702732E-03  0.23924695803E-01  0.00000000000E+00 0.  1.
     999901    1    3    3    0    0  0.34651566930E-01 -0.11707737901E+00 -0.59157267470E-01  0.89039734167E+00  0.88000000000E+00 0.  1.
        -11    1    4    4    0    0 -0.10398388963E-01  0.43017672072E-01  0.32046230566E-01  0.54643102199E-01  0.51100000000E-03 0. -1.
         11    1    4    4    0    0 -0.75230152903E-03  0.69625255559E-01  0.27770973932E-01  0.74964860324E-01  0.51100000000E-03 0.  1.
</event>
<event>
 8    1  0.1137518E+005  0.1043930E+01  0.7957747E-01            NaN
         13   -1    0    0    0    0  0.00000000000E+00  0.00000000000E+00  0.74505805969E-08  0.10566000000E+00  0.10566000000E+00 0.  1.
     999900   -1    0    0    0    0 -0.00000000000E+00 -0.00000000000E+00 -0.74505805969E-08  0.93827000000E+00  0.93827000000E+00 0.  1.
     999902    2    1    2    0    0 -0.21114238144E-02 -0.16304032290E-01  0.16471259099E-01  0.10206580865E+01  0.10203927419E+01 0.  0.
     999903    2    3    3    0    0 -0.33594741439E-01  0.75930900525E-01  0.99721392637E-01  0.13137238057E+00  0.20499705376E-01 0.  0.
         14    1    1    2    0    0  0.21114238144E-02  0.16304032290E-01 -0.16471259099E-01  0.23271913452E-01  0.00000000000E+00 0. -1.
     999901    1    3    3    0    0  0.31483317625E-01 -0.92234932815E-01 -0.83250133538E-01  0.88928570598E+00  0.88000000000E+00 0.  1.
        -11    1    4    4    0    0 -0.67813294898E-02  0.30246248339E-02  0.54871248781E-02  0.92468613845E-02  0.51100000000E-03 0. -1.
         11    1    4    4    0    0 -0.26813411949E-01  0.72906275692E-01  0.94234267759E-01  0.12212551919E+00  0.51100000000E-03 0.  1.
</event>
<event>
 8    1  0.1137518E+005  0.1043930E+01  0.7957747E-01            NaN
         13   -1    0    0    0    0  0.00000000000E+00  0.00000000000E+00  0.74505805969E-08  0.10566000000E+00  0.10566000000E+00 0.  1.
     999900   -1    0    0    0    0 -0.00000000000E+00 -0.00000000000E+00 -0.74505805969E-08  0.93827000000E+00  0.93827000000E+00 0.  1.
     999902    2    1    2    0    0  0.17609908618E-01 -0.12254323076E-01  0.10343837008E-03  0.10224756761E+01  0.10222505662E+01 0.  0.
     999903    2    3    3    0    0  0.61965856521E-01  0.25166414076E-01  0.11328417590E+00  0.13333134525E+00  0.21698556309E-01 0.  0.
         14    1    1    2    0    0 -0.17609908618E-01  0.12254323076E-01 -0.10343837008E-03  0.21454323925E-01  0.00000000000E+00 0.  1.
     999901    1    3    3    0    0 -0.44355947903E-01 -0.37420737152E-01 -0.11318073753E+00  0.88914433082E+00  0.88000000000E+00 0.  1.
        -11    1    4    4    0    0  0.49123439761E-01  0.11294665459E-01  0.71666008940E-01  0.87618261568E-01  0.51100000000E-03 0. -1.
         11    1    4    4    0    0  0.12842416760E-01  0.13871748617E-01  0.41618166960E-01  0.45713083686E-01  0.51100000000E-03 0.  1.
</event>
<event>
 8    1  0.1137518E+005  0.1043930E+01  0.7957747E-01            NaN
         13   -1    0    0    0    0  0.00000000000E+00  0.00000000000E+00  0.74505805969E-08  0.10566000000E+00  0.10566000000E+00 0.  1.
     999900   -1    0    0    0    0 -0.00000000000E+00 -0.00000000000E+00 -0.74505805969E-08  0.93827000000E+00  0.93827000000E+00 0.  1.
     999902    2    1    2    0    0 -0.96066093078E-02 -0.26721892708E-01 -0.39967739705E-02  0.10152538654E+01  0.10148488018E+01 0.  0.
     999903    2    3    3    0    0 -0.76910199096E-01  0.85978252379E-01 -0.43086719301E-01  0.12465905310E+00  0.19390088528E-01 0.  0.
         14    1    1    2    0    0  0.96066093078E-02  0.26721892708E-01  0.39967739705E-02  0.28676134581E-01  0.00000000000E+00 0. -1.
     999901    1    3    3    0    0  0.67303589788E-01 -0.11270014509E+00  0.39089945331E-01  0.89059481232E+00  0.88000000000E+00 0. -1.
        -11    1    4    4    0    0 -0.26631223859E-01  0.37986931141E-01 -0.90692089352E-02  0.47273044047E-01  0.51100000000E-03 0.  1.
         11    1    4    4    0    0 -0.50278975237E-01  0.47991321238E-01 -0.34017510366E-01  0.77386009055E-01  0.51100000000E-03 0. -1.
</event>
<event>
 8    1  0.1137518E+005  0.1043930E+01  0.7957747E-01            NaN
         13   -1    0    0    0    0  0.00000000000E+00  0.00000000000E+00  0.74505805969E-08  0.10566000000E+00  0.10566000000E+00 0. -1.
     999900   -1    0    0    0    0 -0.00000000000E+00 -0.00000000000E+00 -0.74505805969E-08  0.93827000000E+00  0.93827000000E+00 0.  1.
     999902    2    1    2    0    0 -0.13978852608E-01 -0.16350498113E-01  0.12460745621E-01  0.10190700465E+01  0.10187667752E+01 0.  0.
     999903    2    3    3    0    0 -0.11379898968E+00  0.59043395751E-01 -0.62772711856E-02  0.13002594616E+00  0.20760778120E-01 0.  0.
         14    1    1    2    0    0  0.13978852608E-01  0.16350498113E-01 -0.12460745621E-01  0.24859953544E-01  0.00000000000E+00 0.  1.
     999901    1    3    3    0    0  0.99820137069E-01 -0.75393893864E-01  0.18738016807E-01  0.88904410030E+00  0.88000000000E+00 0. -1.
        -11    1    4    4    0    0 -0.18991951430E-01  0.13929018990E-01 -0.83968248601E-02  0.25009589719E-01  0.51100000000E-03 0.  1.
         11    1    4    4    0    0 -0.94807038246E-01  0.45114376761E-01  0.21195536745E-02  0.10501635644E+00  0.51100000000E-03 0. -1.
</event>
<event>
 8    1  0.1137518E+005  0.1043930E+01  0.7957747E-01            NaN
         13   -1    0    0    0    0  0.00000000000E+00  0.00000000000E+00  0.74505805969E-08  0.10566000000E+00  0.10566000000E+00 0.  1.
     999900   -1    0    0    0    0 -0.00000000000E+00 -0.00000000000E+00 -0.74505805969E-08  0.93827000000E+00  0.93827000000E+00 0. -1.
     999902    2    1    2    0    0 -0.85317473931E-03 -0.22595084544E-01 -0.62913407454E-02  0.10204598760E+01  0.10201899391E+01 0.  0.
     999903    2    3    3    0    0 -0.83884644154E-01 -0.80765800906E-01  0.59142080257E-01  0.13222590358E+00  0.20643541367E-01 0.  0.
         14    1    1    2    0    0  0.85317473931E-03  0.22595084544E-01  0.62913407454E-02  0.23470124010E-01  0.00000000000E+00 0.  1.
     999901    1    3    3    0    0  0.83031469415E-01  0.58170716362E-01 -0.65433421003E-01  0.88823397241E+00  0.88000000000E+00 0. -1.
        -11    1    4    4    0    0 -0.62117371916E-01 -0.57181607843E-01  0.32352240310E-01  0.90416993665E-01  0.51100000000E-03 0.  1.
         11    1    4    4    0    0 -0.21767272238E-01 -0.23584193062E-01  0.26789839947E-01  0.41808909917E-01  0.51100000000E-03 0. -1.
</event>
<event>
 8    1  0.1137518E+005  0.1043930E+01  0.7957747E-01            NaN
         13   -1    0    0    0    0  0.00000000000E+00  0.00000000000E+00  0.74505805969E-08  0.10566000000E+00  0.10566000000E+00 0.  1.
     999900   -1    0    0    0    0 -0.00000000000E+00 -0.00000000000E+00 -0.74505805969E-08  0.93827000000E+00  0.93827000000E+00 0. -1.
     999902    2    1    2    0    0  0.69611302229E-02  0.22215934534E-01 -0.19757404203E-02  0.10205653123E+01  0.10202978232E+01 0.  0.
     999903    2    3    3    0    0 -0.21445656179E-01  0.81686356762E-01  0.99891038191E-01  0.13224075606E+00  0.19411877859E-01 0.  0.
         14    1    1    2    0    0 -0.69611302229E-02 -0.22215934534E-01  0.19757404203E-02  0.23364687702E-01  0.00000000000E+00 0. -1.
     999901    1    3    3    0    0  0.28406786401E-01 -0.59470422227E-01 -0.10186677861E+00  0.88832455624E+00  0.88000000000E+00 0. -1.
        -11    1    4    4    0    0 -0.56096065537E-02  0.39826344630E-01  0.60304728350E-01  0.72488114851E-01  0.51100000000E-03 0.  1.
         11    1    4    4    0    0 -0.15836049625E-01  0.41860012132E-01  0.39586309841E-01  0.59752641207E-01  0.51100000000E-03 0. -1.
</event>
<event>
 8    1  0.1137518E+005  0.1043930E+01  0.7957747E-01            NaN
         13   -1    0    0    0    0  0.00000000000E+00  0.00000000000E+00  0.74505805969E-08  0.10566000000E+00  0.10566000000E+00 0. -1.
     999900   -1    0    0    0    0 -0.00000000000E+00 -0.00000000000E+00 -0.74505805969E-08  0.93827000000E+00  0.93827000000E+00 0.  1.
     999902    2    1    2    0    0 -0.10128074432E-01  0.20989865746E-01  0.45451664414E-02  0.10201852976E+01  0.10199089324E+01 0.  0.
     999903    2    3    3    0    0 -0.74453850292E-01  0.24285974876E-01  0.10468373985E+00  0.13216705245E+00  0.19397421582E-01 0.  0.
         14    1    1    2    0    0  0.10128074432E-01 -0.20989865746E-01 -0.45451664414E-02  0.23744702435E-01  0.00000000000E+00 0. -1.
     999901    1    3    3    0    0  0.64325775860E-01 -0.32961091302E-02 -0.10013857341E+00  0.88801824512E+00  0.88000000000E+00 0.  1.
        -11    1    4    4    0    0 -0.18663695283E-01  0.15333203289E-01  0.30194859483E-01  0.38670806882E-01  0.51100000000E-03 0.  1.
         11    1    4    4    0    0 -0.55790155008E-01  0.89527715871E-02  0.74488880371E-01  0.93496245566E-01  0.51100000000E-03 0. -1.
</event>
<event>
 8    1  0.1137518E+005  0.1043930E+01  0.7957747E-01            NaN
         13   -1    0    0    0    0  0.00000000000E+00  0.00000000000E+00  0.74505805969E-08  0.10566000000E+00  0.10566000000E+00 0. -1.
     999900   -1    0    0    0    0 -0.00000000000E+00 -0.00000000000E+00 -0.74505805969E-08  0.93827000000E+00  0.93827000000E+00 0.  1.
     999902    2    1    2    0    0  0.24040974903E-01 -0.27120312929E-02  0.63446110301E-04  0.10197364551E+01  0.10194494153E+01 0.  0.
     999903    2    3    3    0    0 -0.27299414409E-01 -0.12282731024E+00  0.22849306605E-01  0.12980235012E+00  0.22243046505E-01 0.  0.
         14    1    1    2    0    0 -0.24040974903E-01  0.27120312929E-02 -0.63446110301E-04  0.24193544871E-01  0.00000000000E+00 0. -1.
     999901    1    3    3    0    0  0.51340389312E-01  0.12011527895E+00 -0.22785860495E-01  0.88993410500E+00  0.88000000000E+00 0. -1.
        -11    1    4    4    0    0 -0.20765715299E-01 -0.63026817266E-01  0.29093586164E-02  0.66425297253E-01  0.51100000000E-03 0.  1.
         11    1    4    4    0    0 -0.65336991098E-02 -0.59800492973E-01  0.19939947989E-01  0.63377052872E-01  0.51100000000E-03 0. -1.
</event>
<event>
 8    1  0.1137518E+005  0.1043930E+01  0.7957747E-01            NaN
         13   -1    0    0    0    0  0.00000000000E+00  0.00000000000E+00  0.74505805969E-08  0.10566000000E+00  0.10566000000E+00 0.  1.
     999900   -1    0    0    0    0 -0.00000000000E+00 -0.00000000000E+00 -0.74505805969E-08  0.93827000000E+00  0.93827000000E+00 0.  1.
     999902    2    1    2    0    0 -0.28834112860E-02  0.97948830164E-02  0.21622273342E-01  0.10200181515E+01  0.10197378354E+01 0.  0.
     999903    2    3    3    0    0 -0.12197192157E+00 -0.41359201586E-01  0.86865401470E-02  0.13043052409E+00  0.18679733062E-01 0.  0.
         14    1    1    2    0    0  0.28834112860E-02 -0.97948830164E-02 -0.21622273342E-01  0.23911848495E-01  0.00000000000E+00 0. -1.
     999901    1    3    3    0    0  0.11908851029E+00  0.51154084603E-01  0.12935733195E-01  0.88958762741E+00  0.88000000000E+00 0. -1.
        -11    1    4    4    0    0 -0.92873350637E-01 -0.38955297340E-01  0.99293885529E-02  0.10120191860E+00  0.51100000000E-03 0. -1.
         11    1    4    4    0    0 -0.29098570935E-01 -0.24039042464E-02 -0.12428484059E-02  0.29228605497E-01  0.51100000000E-03 0.  1.
</event>
<event>
 8    1  0.1137518E+005  0.1043930E+01  0.7957747E-01            NaN
         13   -1    0    0    0    0  0.00000000000E+00  0.00000000000E+00  0.74505805969E-08  0.10566000000E+00  0.10566000000E+00 0.  1.
     999900   -1    0    0    0    0 -0.00000000000E+00 -0.00000000000E+00 -0.74505805969E-08  0.93827000000E+00  0.93827000000E+00 0. -1.
     999902    2    1    2    0    0 -0.13393079461E-01  0.18919508446E-01  0.21061179733E-02  0.10206543022E+01  0.10203888702E+01 0.  0.
     999903    2    3    3    0    0  0.85273019277E-01  0.55221199737E-01  0.80150783770E-01  0.13096683923E+00  0.20181578758E-01 0.  0.
         14    1    1    2    0    0  0.13393079461E-01 -0.18919508446E-01 -0.21061179733E-02  0.23275697846E-01  0.00000000000E+00 0.  1.
     999901    1    3    3    0    0 -0.98666098738E-01 -0.36301691291E-01 -0.78044665796E-01  0.88968746293E+00  0.88000000000E+00 0. -1.
        -11    1    4    4    0    0  0.27142028729E-01  0.69701793432E-02  0.21493170010E-01  0.35319832979E-01  0.51100000000E-03 0.  1.
         11    1    4    4    0    0  0.58130990548E-01  0.48251020394E-01  0.58657613760E-01  0.95647006248E-01  0.51100000000E-03 0. -1.
</event>
<event>
 8    1  0.1137518E+005  0.1043930E+01  0.7957747E-01            NaN
         13   -1    0    0    0    0  0.00000000000E+00  0.00000000000E+00  0.74505805969E-08  0.10566000000E+00  0.10566000000E+00 0.  1.
     999900   -1    0    0    0    0 -0.00000000000E+00 -0.00000000000E+00 -0.74505805969E-08  0.93827000000E+00  0.93827000000E+00 0.  1.
     999902    2    1    2    0    0 -0.46955195836E-02  0.81469083854E-02 -0.18278222316E-01  0.10233748685E+01  0.10231684163E+01 0.  0.
     999903    2    3    3    0    0  0.15243599681E-01  0.13080236000E+00 -0.19930300333E-01  0.13464281795E+00  0.19744539571E-01 0.  0.
         14    1    1    2    0    0  0.46955195836E-02 -0.81469083854E-02  0.18278222316E-01  0.20555131511E-01  0.00000000000E+00 0.  1.
     999901    1    3    3    0    0 -0.19939119264E-01 -0.12265545161E+00  0.16520780170E-02  0.88873205054E+00  0.88000000000E+00 0. -1.
        -11    1    4    4    0    0 -0.26389356157E-02  0.54345053361E-01 -0.43106658791E-02  0.54581972915E-01  0.51100000000E-03 0.  1.
         11    1    4    4    0    0  0.17882535296E-01  0.76457306637E-01 -0.15619634454E-01  0.80060845038E-01  0.51100000000E-03 0. -1.
</event>
<event>
 8    1  0.1137518E+005  0.1043930E+01  0.7957747E-01            NaN
         13   -1    0    0    0    0  0.00000000000E+00  0.00000000000E+00  0.74505805969E-08  0.10566000000E+00  0.10566000000E+00 0.  1.
     999900   -1    0    0    0    0 -0.00000000000E+00 -0.00000000000E+00 -0.74505805969E-08  0.93827000000E+00  0.93827000000E+00 0.  1.
     999902    2    1    2    0    0  0.99204502172E-02 -0.21021867732E-01 -0.44194128533E-02  0.10202685236E+01  0.10199941151E+01 0.  0.
     999903    2    3    3    0    0 -0.10540527890E+00  0.66122874068E-01 -0.23900889431E-01  0.12826305403E+00  0.19941193972E-01 0.  0.
         14    1    1    2    0    0 -0.99204502172E-02  0.21021867732E-01  0.44194128533E-02  0.23661476400E-01  0.00000000000E+00 0.  1.
     999901    1    3    3    0    0  0.11532572912E+00 -0.87144741800E-01  0.19481476577E-01  0.89200546957E+00  0.88000000000E+00 0.  1.
        -11    1    4    4    0    0 -0.47059300074E-01  0.36998125079E-01 -0.19255360562E-01  0.62884568968E-01  0.51100000000E-03 0.  1.
         11    1    4    4    0    0 -0.58345978828E-01  0.29124748988E-01 -0.46455288686E-02  0.65378485058E-01  0.51100000000E-03 0. -1.
</event>
<event>
 8    1  0.1137518E+005  0.1043930E+01  0.7957747E-01            NaN
         13   -1    0    0    0    0  0.00000000000E+00  0.00000000000E+00  0.74505805969E-08  0.10566000000E+00  0.10566000000E+00 0. -1.
     999900   -1    0    0    0    0 -0.00000000000E+00 -0.00000000000E+00 -0.74505805969E-08  0.93827000000E+00  0.93827000000E+00 0.  1.
     999902    2    1    2    0    0  0.22854734545E-01  0.50900650288E-02  0.16584528044E-02  0.10204566509E+01  0.10201866389E+01 0.  0.
     999903    2    3    3    0    0  0.79221861868E-01  0.58483914622E-01  0.87741260533E-01  0.13285403371E+00  0.15974786586E-01 0.  0.
         14    1    1    2    0    0 -0.22854734545E-01 -0.50900650288E-02 -0.16584528044E-02  0.23473349119E-01  0.00000000000E+00 0.  1.
     999901    1    3    3    0    0 -0.56367127323E-01 -0.53393849593E-01 -0.86082807729E-01  0.88760261717E+00  0.88000000000E+00 0.  1.
        -11    1    4    4    0    0  0.47714567098E-01  0.25832789420E-01  0.51016261353E-01  0.74477734700E-01  0.51100000000E-03 0. -1.
         11    1    4    4    0    0  0.31507294770E-01  0.32651125202E-01  0.36724999181E-01  0.58376299014E-01  0.51100000000E-03 0.  1.
</event>
<event>
 8    1  0.1137518E+005  0.1043930E+01  0.7957747E-01            NaN
         13   -1    0    0    0    0  0.00000000000E+00  0.00000000000E+00  0.74505805969E-08  0.10566000000E+00  0.10566000000E+00 0.  1.
     999900   -1    0    0    0    0 -0.00000000000E+00 -0.00000000000E+00 -0.74505805969E-08  0.93827000000E+00  0.93827000000E+00 0.  1.
     999902    2    1    2    0    0  0.51384735921E-02  0.91095312938E-02  0.20682458073E-01  0.10207534700E+01  0.10204903209E+01 0.  0.
     999903    2    3    3    0    0  0.62314440166E-01 -0.96268367304E-01  0.61716873561E-01  0.13167674894E+00  0.19470637689E-01 0.  0.
         14    1    1    2    0    0 -0.51384735921E-02 -0.91095312938E-02 -0.20682458073E-01  0.23176530008E-01  0.00000000000E+00 0. -1.
     999901    1    3    3    0    0 -0.57175966574E-01  0.10537789860E+00 -0.41034415488E-01  0.88907672105E+00  0.88000000000E+00 0. -1.
        -11    1    4    4    0    0  0.31487068487E-01 -0.62513005471E-01  0.30713022860E-01  0.76438617394E-01  0.51100000000E-03 0. -1.
         11    1    4    4    0    0  0.30827371679E-01 -0.33755361833E-01  0.31003850701E-01  0.55238131543E-01  0.51100000000E-03 0.  1.
</event>
<event>
 8    1  0.1137518E+005  0.1043930E+01  0.7957747E-01            NaN
         13   -1    0    0    0    0  0.00000000000E+00  0.00000000000E+00  0.74505805969E-08  0.10566000000E+00  0.10566000000E+00 0. -1.
     999900   -1    0    0    0    0 -0.00000000000E+00 -0.00000000000E+00 -0.74505805969E-08  0.93827000000E+00  0.93827000000E+00 0. -1.
     999902    2    1    2    0    0  0.64129355252E-02 -0.17194712646E-01  0.15176319618E-01  0.10201160427E+01  0.10198380440E+01 0.  0.
     999903    2    3    3    0    0  0.19426321212E-02  0.33588165182E-01 -0.12261050165E+00  0.12793663675E+00  0.14230574410E-01 0.  0.
         14    1    1    2    0    0 -0.64129355252E-02  0.17194712646E-01 -0.15176319618E-01  0.23813957297E-01  0.00000000000E+00 0.  1.
     999901    1    3    3    0    0  0.44703034040E-02 -0.50782877828E-01  0.13778682127E+00  0.89217940595E+00  0.88000000000E+00 0.  1.
        -11    1    4    4    0    0 -0.29019646558E-02  0.18542672224E-01 -0.86512889973E-01  0.88526794501E-01  0.51100000000E-03 0.  1.
         11    1    4    4    0    0  0.48445967769E-02  0.15045492959E-01 -0.36097611676E-01  0.39409842248E-01  0.51100000000E-03 0. -1.
</event>
<event>
 8    1  0.1137518E+005  0.1043930E+01  0.7957747E-01            NaN
         13   -1    0    0    0    0  0.00000000000E+00  0.00000000000E+00  0.74505805969E-08  0.10566000000E+00  0.10566000000E+00 0. -1.
     999900   -1    0    0    0    0 -0.00000000000E+00 -0.00000000000E+00 -0.74505805969E-08  0.93827000000E+00  0.93827000000E+00 0.  1.
     999902    2    1    2    0    0  0.23781245727E-02  0.13528994816E-01  0.18956941004E-01  0.10205194300E+01  0.10202508771E+01 0.  0.
     999903    2    3    3    0    0 -0.91820363089E-01 -0.83704806109E-01  0.33303727971E-01  0.13005123996E+00  0.19149753881E-01 0.  0.
         14    1    1    2    0    0 -0.23781245727E-02 -0.13528994816E-01 -0.18956941004E-01  0.23410570036E-01  0.00000000000E+00 0.  1.
     999901    1    3    3    0    0  0.94198487662E-01  0.97233800925E-01 -0.14346786967E-01  0.89046819001E+00  0.88000000000E+00 0.  1.
        -11    1    4    4    0    0 -0.47570081247E-01 -0.45501939760E-01  0.27354746114E-01  0.71287322910E-01  0.51100000000E-03 0.  1.
         11    1    4    4    0    0 -0.44250281842E-01 -0.38202866349E-01  0.59489818572E-02  0.58763917045E-01  0.51100000000E-03 0. -1.
</event>
<event>
 8    1  0.1137518E+005  0.1043930E+01  0.7957747E-01            NaN
         13   -1    0    0    0    0  0.00000000000E+00  0.00000000000E+00  0.74505805969E-08  0.10566000000E+00  0.10566000000E+00 0.  1.
     999900   -1    0    0    0    0 -0.00000000000E+00 -0.00000000000E+00 -0.74505805969E-08  0.93827000000E+00  0.93827000000E+00 0.  1.
     999902    2    1    2    0    0  0.75803389429E-02  0.22104842471E-01 -0.18031453971E-02  0.10204920621E+01  0.10202228736E+01 0.  0.
     999903    2    3    3    0    0  0.85416980402E-03 -0.23125131376E-01 -0.12684617201E+00  0.13047703393E+00  0.19970070652E-01 0.  0.
         14    1    1    2    0    0 -0.75803389429E-02 -0.22104842471E-01  0.18031453971E-02  0.23437937889E-01  0.00000000000E+00 0. -1.
     999901    1    3    3    0    0  0.67261691389E-02  0.45229973847E-01  0.12504302661E+00  0.89001502818E+00  0.88000000000E+00 0. -1.
        -11    1    4    4    0    0  0.76515261255E-02 -0.51889520493E-02 -0.66825615655E-01  0.67464028223E-01  0.51100000000E-03 0. -1.
         11    1    4    4    0    0 -0.67973563215E-02 -0.17936179327E-01 -0.60020556356E-01  0.63013005706E-01  0.51100000000E-03 0.  1.
</event>
<event>
 8    1  0.1137518E+005  0.1043930E+01  0.7957747E-01            NaN
         13   -1    0    0    0    0  0.00000000000E+00  0.00000000000E+00  0.74505805969E-08  0.10566000000E+00  0.10566000000E+00 0. -1.
     999900   -1    0    0    0    0 -0.00000000000E+00 -0.00000000000E+00 -0.74505805969E-08  0.93827000000E+00  0.93827000000E+00 0.  1.
     999902    2    1    2    0    0  0.19711797754E-01  0.11378163376E-01  0.43613270453E-02  0.10207559036E+01  0.10204928103E+01 0.  0.
     999903    2    3    3    0    0  0.12487804287E+00  0.43010949831E-01 -0.33528760058E-02  0.13389622964E+00  0.21736861234E-01 0.  0.
         14    1    1    2    0    0 -0.19711797754E-01 -0.11378163376E-01 -0.43613270453E-02  0.23174096446E-01  0.00000000000E+00 0.  1.
     999901    1    3    3    0    0 -0.10516624512E+00 -0.31632786456E-01  0.77142030511E-02  0.88685967392E+00  0.88000000000E+00 0.  1.
        -11    1    4    4    0    0  0.86855294764E-01  0.33019064988E-01  0.71637277019E-02  0.93197001007E-01  0.51100000000E-03 0.  1.
         11    1    4    4    0    0  0.38022748109E-01  0.99918848436E-02 -0.10516603708E-01  0.40699228630E-01  0.51100000000E-03 0. -1.
</event>
<event>
 8    1  0.1137518E+005  0.1043930E+01  0.7957747E-01            NaN
         13   -1    0    0    0    0  0.00000000000E+00  0.00000000000E+00  0.74505805969E-08  0.10566000000E+00  0.10566000000E+00 0. -1.
     999900   -1    0    0    0    0 -0.00000000000E+00 -0.00000000000E+00 -0.74505805969E-08  0.93827000000E+00  0.93827000000E+00 0. -1.
     999902    2    1    2    0    0  0.12491140031E-01 -0.20324466015E-01  0.30845180463E-02  0.10198753383E+01  0.10195916236E+01 0.  0.
     999903    2    3    3    0    0  0.11680133951E+00 -0.37714934114E-01 -0.44947802734E-01  0.13224357347E+00  0.20077066176E-01 0.  0.
         14    1    1    2    0    0 -0.12491140031E-01  0.20324466015E-01 -0.30845180463E-02  0.24054661703E-01  0.00000000000E+00 0. -1.
     999901    1    3    3    0    0 -0.10431019948E+00  0.17390468099E-01  0.48032320781E-01  0.88763176483E+00  0.88000000000E+00 0.  1.
        -11    1    4    4    0    0  0.64734987902E-01 -0.10635996147E-01 -0.21408659735E-01  0.69009672549E-01  0.51100000000E-03 0. -1.
         11    1    4    4    0    0  0.52066351608E-01 -0.27078937967E-01 -0.23539143000E-01  0.63233900918E-01  0.51100000000E-03 0.  1.
</event>
<event>
 8    1  0.1137518E+005  0.1043930E+01  0.7957747E-01            NaN
         13   -1    0    0    0    0  0.00000000000E+00  0.00000000000E+00  0.74505805969E-08  0.10566000000E+00  0.10566000000E+00 0. -1.
     999900   -1    0    0    0    0 -0.00000000000E+00 -0.00000000000E+00 -0.74505805969E-08  0.93827000000E+00  0.93827000000E+00 0.  1.
     999902    2    1    2    0    0  0.23427132465E-02 -0.11337214383E-01  0.21210850376E-01  0.10197655445E+01  0.10194792028E+01 0.  0.
     999903    2    3    3    0    0 -0.12923900761E-01  0.17484135677E-01 -0.12383257463E+00  0.12729630983E+00  0.19927913678E-01 0.  0.
         14    1    1    2    0    0 -0.23427132465E-02  0.11337214383E-01 -0.21210850376E-01  0.24164455487E-01  0.00000000000E+00 0.  1.
     999901    1    3    3    0    0  0.15266614008E-01 -0.28821350061E-01  0.14504342501E+00  0.89246923469E+00  0.88000000000E+00 0. -1.
        -11    1    4    4    0    0  0.36434792274E-02  0.10292900766E-01 -0.58444209808E-01  0.59457594368E-01  0.51100000000E-03 0. -1.
         11    1    4    4    0    0 -0.16567379989E-01  0.71912349114E-02 -0.65388364827E-01  0.67838715458E-01  0.51100000000E-03 0.  1.
</event>
<event>
 8    1  0.1137518E+005  0.1043930E+01  0.7957747E-01            NaN
         13   -1    0    0    0    0  0.00000000000E+00  0.00000000000E+00  0.74505805969E-08  0.10566000000E+00  0.10566000000E+00 0.  1.
     999900   -1    0    0    0    0 -0.00000000000E+00 -0.00000000000E+00 -0.74505805969E-08  0.93827000000E+00  0.93827000000E+00 0.  1.
     999902    2    1    2    0    0 -0.14110446231E-01 -0.16939924757E-01  0.11816528491E-01  0.10189160821E+01  0.10186089958E+01 0.  0.
     999903    2    3    3    0    0  0.40168899630E-01 -0.97691267663E-01 -0.72377188871E-01  0.12955923087E+00  0.19748735652E-01 0.  0.
         14    1    1    2    0    0  0.14110446231E-01  0.16939924757E-01 -0.11816528491E-01  0.25013917910E-01  0.00000000000E+00 0. -1.
     999901    1    3    3    0    0 -0.54279345861E-01  0.80751342906E-01  0.84193717361E-01  0.88935685122E+00  0.88000000000E+00 0.  1.
        -11    1    4    4    0    0  0.13861103798E-02 -0.17641066466E-01 -0.18291044995E-01  0.25454900826E-01  0.51100000000E-03 0.  1.
         11    1    4    4    0    0  0.38782789250E-01 -0.80050201197E-01 -0.54086143875E-01  0.10410433004E+00  0.51100000000E-03 0. -1.
</event>
<event>
 8    1  0.1137518E+005  0.1043930E+01  0.7957747E-01            NaN
         13   -1    0    0    0    0  0.00000000000E+00  0.00000000000E+00  0.74505805969E-08  0.10566000000E+00  0.10566000000E+00 0. -1.
     999900   -1    0    0    0    0 -0.00000000000E+00 -0.00000000000E+00 -0.74505805969E-08  0.93827000000E+00  0.93827000000E+00 0.  1.
     999902    2    1    2    0    0 -0.23954293360E-01  0.20607573362E-02  0.54413529493E-02  0.10192791742E+01  0.10189810458E+01 0.  0.
     999903    2    3    3    0    0 -0.47481107082E-01 -0.41996191922E-02  0.12090504008E+00  0.13140273779E+00  0.19405114001E-01 0.  0.
         14    1    1    2    0    0  0.23954293360E-01 -0.20607573362E-02 -0.54413529493E-02  0.24650825809E-01  0.00000000000E+00 0. -1.
     999901    1    3    3    0    0  0.23526813723E-01  0.62603765284E-02 -0.11546368713E+00  0.88787643641E+00  0.88000000000E+00 0.  1.
        -11    1    4    4    0    0 -0.14108276147E-01  0.13640671319E-02  0.17070332024E-01  0.22193726397E-01  0.51100000000E-03 0.  1.
         11    1    4    4    0    0 -0.33372830936E-01 -0.55636863240E-02  0.10383470806E+00  0.10920901139E+00  0.51100000000E-03 0. -1.
</event>
<event>
 8    1  0.1137518E+005  0.1043930E+01  0.7957747E-01            NaN
         13   -1    0    0    0    0  0.00000000000E+00  0.00000000000E+00  0.74505805969E-08  0.10566000000E+00  0.10566000000E+00 0. -1.
     999900   -1    0    0    0    0 -0.00000000000E+00 -0.00000000000E+00 -0.74505805969E-08  0.93827000000E+00  0.93827000000E+00 0.  1.
     999902    2    1    2    0    0  0.25604793698E-01 -0.16626403155E-01 -0.45770293466E-02  0.10130594325E+01  0.10125889698E+01 0.  0.
     999903    2    3    3    0    0 -0.28630666199E-01  0.35708670845E-01 -0.11291123729E+00  0.12321857833E+00  0.18413210461E-01 0.  0.
         14    1    1    2    0    0 -0.25604793698E-01  0.16626403155E-01  0.45770293466E-02  0.30870567533E-01  0.00000000000E+00 0. -1.
     999901    1    3    3    0    0  0.54235459896E-01 -0.52335074000E-01  0.10833420794E+00  0.88984085414E+00  0.88000000000E+00 0. -1.
        -11    1    4    4    0    0 -0.18207939039E-01  0.13847997825E-01 -0.36685004030E-01  0.43235942566E-01  0.51100000000E-03 0.  1.
         11    1    4    4    0    0 -0.10422727159E-01  0.21860673019E-01 -0.76226233257E-01  0.79982635764E-01  0.51100000000E-03 0. -1.
</event>
<event>
 8    1  0.1137518E+005  0.1043930E+01  0.7957747E-01            NaN
         13   -1    0    0    0    0  0.00000000000E+00  0.00000000000E+00  0.74505805969E-08  0.10566000000E+00  0.10566000000E+00 0. -1.
     999900   -1    0    0    0    0 -0.00000000000E+00 -0.00000000000E+00 -0.74505805969E-08  0.93827000000E+00  0.93827000000E+00 0.  1.
     999902    2    1    2    0    0  0.84382494305E-03 -0.22871382799E-01 -0.74948118732E-02  0.10198471348E+01  0.10195627464E+01 0.  0.
     999903    2    3    3    0    0 -0.36943765316E-01  0.30311594429E-01  0.11789012293E+00  0.12856843936E+00  0.18658187590E-01 0.  0.
         14    1    1    2    0    0 -0.84382494305E-03  0.22871382799E-01  0.74948118732E-02  0.24082865210E-01  0.00000000000E+00 0. -1.
     999901    1    3    3    0    0  0.37787590259E-01 -0.53182977229E-01 -0.12538493480E+00  0.89127869543E+00  0.88000000000E+00 0.  1.
        -11    1    4    4    0    0 -0.15947958469E-01  0.22212242222E-01  0.79415414903E-01  0.83992799269E-01  0.51100000000E-03 0. -1.
         11    1    4    4    0    0 -0.20995806846E-01  0.80993522077E-02  0.38474708025E-01  0.44575640095E-01  0.51100000000E-03 0.  1.
</event>
<event>
 8    1  0.1137518E+005  0.1043930E+01  0.7957747E-01            NaN
         13   -1    0    0    0    0  0.00000000000E+00  0.00000000000E+00  0.74505805969E-08  0.10566000000E+00  0.10566000000E+00 0.  1.
     999900   -1    0    0    0    0 -0.00000000000E+00 -0.00000000000E+00 -0.74505805969E-08  0.93827000000E+00  0.93827000000E+00 0.  1.
     999902    2    1    2    0    0 -0.68443785685E-02  0.22912387404E-01 -0.13790918934E-01  0.10163254268E+01  0.10159504716E+01 0.  0.
     999903    2    3    3    0    0  0.40052577503E-01 -0.10527402742E+00  0.47184546361E-01  0.12371740043E+00  0.19818777475E-01 0.  0.
         14    1    1    2    0    0  0.68443785685E-02 -0.22912387404E-01  0.13790918934E-01  0.27604573164E-01  0.00000000000E+00 0.  1.
     999901    1    3    3    0    0 -0.46896956072E-01  0.12818641482E+00 -0.60975465295E-01  0.89260802640E+00  0.88000000000E+00 0. -1.
        -11    1    4    4    0    0  0.30681936884E-01 -0.91248229364E-01  0.46282822710E-01  0.10681751454E+00  0.51100000000E-03 0. -1.
         11    1    4    4    0    0  0.93706406189E-02 -0.14025798054E-01  0.90172365161E-03  0.16899885893E-01  0.51100000000E-03 0.  1.
</event>
<event>
 8    1  0.1137518E+005  0.1043930E+01  0.7957747E-01            NaN
         13   -1    0    0    0    0  0.00000000000E+00  0.00000000000E+00  0.74505805969E-08  0.10566000000E+00  0.10566000000E+00 0. -1.
     999900   -1    0    0    0    0 -0.00000000000E+00 -0.00000000000E+00 -0.74505805969E-08  0.93827000000E+00  0.93827000000E+00 0.  1.
     999902    2    1    2    0    0 -0.90088328158E-02 -0.13164685100E-01  0.16810637084E-01  0.10207553259E+01  0.10204922193E+01 0.  0.
     999903    2    3    3    0    0 -0.39608784667E-01  0.10053356714E+00  0.71857524524E-01  0.13120835721E+00  0.19397815002E-01 0.  0.
         14    1    1    2    0    0  0.90088328158E-02  0.13164685100E-01 -0.16810637084E-01  0.23174674143E-01  0.00000000000E+00 0.  1.
     999901    1    3    3    0    0  0.30599951851E-01 -0.11369825224E+00 -0.55046887440E-01  0.88954696865E+00  0.88000000000E+00 0.  1.
        -11    1    4    4    0    0 -0.23466662145E-01  0.38052273528E-01  0.35853010020E-01  0.57309329096E-01  0.51100000000E-03 0.  1.
         11    1    4    4    0    0 -0.16142122522E-01  0.62481293607E-01  0.36004514504E-01  0.73899028113E-01  0.51100000000E-03 0. -1.
</event>
<event>
 8    1  0.1137518E+005  0.1043930E+01  0.7957747E-01            NaN
         13   -1    0    0    0    0  0.00000000000E+00  0.00000000000E+00  0.74505805969E-08  0.10566000000E+00  0.10566000000E+00 0. -1.
     999900   -1    0    0    0    0 -0.00000000000E+00 -0.00000000000E+00 -0.74505805969E-08  0.93827000000E+00  0.93827000000E+00 0. -1.
     999902    2    1    2    0    0 -0.94428530558E-02  0.12027091740E-02 -0.20431366972E-01  0.10213899304E+01  0.10211411925E+01 0.  0.
     999903    2    3    3    0    0  0.34030592548E-01  0.12510286398E+00  0.44990717026E-02  0.13129852179E+00  0.20254687640E-01 0.  0.
         14    1    1    2    0    0  0.94428530558E-02 -0.12027091740E-02  0.20431366972E-01  0.22540069643E-01  0.00000000000E+00 0. -1.
     999901    1    3    3    0    0 -0.43473445604E-01 -0.12390015481E+00 -0.24930438674E-01  0.89009140857E+00  0.88000000000E+00 0. -1.
        -11    1    4    4    0    0  0.69872484967E-02  0.47705539585E-01  0.95566878031E-02  0.49155178277E-01  0.51100000000E-03 0. -1.
         11    1    4    4    0    0  0.27043344051E-01  0.77397324399E-01 -0.50576161005E-02  0.82143343511E-01  0.51100000000E-03 0.  1.
</event>
<event>
 7    1  0.1137518E+005  0.1043930E+01  0.7957747E-01            NaN
         13   -1    0    0    0    0  0.00000000000E+00  0.00000000000E+00  0.74505805969E-08  0.10566000000E+00  0.10566000000E+00 0.  1.
     999900   -1    0    0    0    0 -0.00000000000E+00 -0.00000000000E+00 -0.74505805969E-08  0.93827000000E+00  0.93827000000E+00 0. -1.
     999902    2    1    2    0    0  0.10872902285E-01  0.19437633524E-01 -0.48985566457E-02  0.10211256702E+01  0.10208709991E+01 0.  0.
         14    1    1    2    0    0 -0.10872902285E-01 -0.19437633524E-01  0.48985566457E-02  0.22804329815E-01  0.00000000000E+00 0.  1.
     999901    1    3    3    0    0  0.26949891780E-01 -0.26772013636E-02  0.11935838610E+00  0.88847053322E+00  0.88000000000E+00 0.  1.
        -11    1    3    3    0    0  0.92801786056E-02  0.81736397867E-02 -0.14108963330E-01  0.18768432795E-01  0.51100000000E-03 0.  1.
         11    1    3    3    0    0 -0.25357168101E-01  0.13941195101E-01 -0.11014797942E+00  0.11388670417E+00  0.51100000000E-03 0. -1.
</event>
<event>
 8    1  0.1137518E+005  0.1043930E+01  0.7957747E-01            NaN
         13   -1    0    0    0    0  0.00000000000E+00  0.00000000000E+00  0.74505805969E-08  0.10566000000E+00  0.10566000000E+00 0. -1.
     999900   -1    0    0    0    0 -0.00000000000E+00 -0.00000000000E+00 -0.74505805969E-08  0.93827000000E+00  0.93827000000E+00 0. -1.
     999902    2    1    2    0    0  0.15058079229E-01  0.18166265684E-01  0.51380633060E-02  0.10197813219E+01  0.10194953584E+01 0.  0.
     999903    2    3    3    0    0 -0.72443520378E-01 -0.26660297466E-01  0.10171373874E+00  0.12905531927E+00  0.18728472360E-01 0.  0.
         14    1    1    2    0    0 -0.15058079229E-01 -0.18166265684E-01 -0.51380633060E-02  0.24148678091E-01  0.00000000000E+00 0. -1.
     999901    1    3    3    0    0  0.87501599608E-01  0.44826563151E-01 -0.96575675433E-01  0.89072600264E+00  0.88000000000E+00 0. -1.
        -11    1    4    4    0    0 -0.15042459186E-01 -0.44713232836E-02  0.10029488587E-01  0.18631158649E-01  0.51100000000E-03 0. -1.
         11    1    4    4    0    0 -0.57401061192E-01 -0.22188974183E-01  0.91684250152E-01  0.11042416062E+00  0.51100000000E-03 0.  1.
</event>
<event>
 8    1  0.1137518E+005  0.1043930E+01  0.7957747E-01            NaN
         13   -1    0    0    0    0  0.00000000000E+00  0.00000000000E+00  0.74505805969E-08  0.10566000000E+00  0.10566000000E+00 0. -1.
     999900   -1    0    0    0    0 -0.00000000000E+00 -0.00000000000E+00 -0.74505805969E-08  0.93827000000E+00  0.93827000000E+00 0.  1.
     999902    2    1    2    0    0  0.65550087130E-02 -0.23569359375E-01  0.12840667140E-02  0.10194324151E+01  0.10191380266E+01 0.  0.
     999903    2    3    3    0    0 -0.64552732866E-01  0.57792518052E-02 -0.11003845796E+00  0.12908958424E+00  0.18846842118E-01 0.  0.
         14    1    1    2    0    0 -0.65550087130E-02  0.23569359375E-01 -0.12840667140E-02  0.24497584940E-01  0.00000000000E+00 0.  1.
     999901    1    3    3    0    0  0.71107741579E-01 -0.29348611180E-01  0.11132252467E+00  0.89034283082E+00  0.88000000000E+00 0. -1.
        -11    1    4    4    0    0 -0.28577759283E-01  0.95293719986E-02 -0.38145535822E-01  0.48609055540E-01  0.51100000000E-03 0.  1.
         11    1    4    4    0    0 -0.35974973583E-01 -0.37501201934E-02 -0.71892922137E-01  0.80480528702E-01  0.51100000000E-03 0. -1.
</event>
<event>
 8    1  0.1137518E+005  0.1043930E+01  0.7957747E-01            NaN
         13   -1    0    0    0    0  0.00000000000E+00  0.00000000000E+00  0.74505805969E-08  0.10566000000E+00  0.10566000000E+00 0.  1.
     999900   -1    0    0    0    0 -0.00000000000E+00 -0.00000000000E+00 -0.74505805969E-08  0.93827000000E+00  0.93827000000E+00 0.  1.
     999902    2    1    2    0    0 -0.18935231152E-01 -0.12965895555E-01  0.27459159899E-02  0.10208172875E+01  0.10205556021E+01 0.  0.
     999903    2    3    3    0    0  0.48493263337E-01 -0.49651086070E-01  0.10932077778E+00  0.13106979169E+00  0.20283759512E-01 0.  0.
         14    1    1    2    0    0  0.18935231152E-01  0.12965895555E-01 -0.27459159899E-02  0.23112712540E-01  0.00000000000E+00 0.  1.
     999901    1    3    3    0    0 -0.67428494489E-01  0.36685190515E-01 -0.10657486179E+00  0.88974749578E+00  0.88000000000E+00 0.  1.
        -11    1    4    4    0    0  0.42210591914E-01 -0.46320956422E-01  0.84238419925E-01  0.10499398833E+00  0.51100000000E-03 0.  1.
         11    1    4    4    0    0  0.62826714231E-02 -0.33301296486E-02  0.25082357859E-01  0.26075803352E-01  0.51100000000E-03 0. -1.
</event>
<event>
 8    1  0.1137518E+005  0.1043930E+01  0.7957747E-01            NaN
         13   -1    0    0    0    0  0.00000000000E+00  0.00000000000E+00  0.74505805969E-08  0.10566000000E+00  0.10566000000E+00 0.  1.
     999900   -1    0    0    0    0 -0.00000000000E+00 -0.00000000000E+00 -0.74505805969E-08  0.93827000000E+00  0.93827000000E+00 0. -1.
     999902    2    1    2    0    0  0.18258041740E-01 -0.93681324540E-02 -0.11251069814E-01  0.10205269112E+01  0.10202585319E+01 0.  0.
     999903    2    3    3    0    0  0.91329244422E-01 -0.76428086355E-01  0.54731359762E-01  0.13250094361E+00  0.19460088548E-01 0.  0.
         14    1    1    2    0    0 -0.18258041740E-01  0.93681324540E-02  0.11251069814E-01  0.23403088809E-01  0.00000000000E+00 0.  1.
     999901    1    3    3    0    0 -0.73071202682E-01  0.67059953902E-01 -0.65982429577E-01  0.88802596758E+00  0.88000000000E+00 0. -1.
        -11    1    4    4    0    0  0.68102616493E-01 -0.45347203869E-01  0.35441176254E-01  0.89166548477E-01  0.51100000000E-03 0. -1.
         11    1    4    4    0    0  0.23226627929E-01 -0.31080882486E-01  0.19290183509E-01  0.43334395136E-01  0.51100000000E-03 0.  1.
</event>
<event>
 8    1  0.1137518E+005  0.1043930E+01  0.7957747E-01            NaN
         13   -1    0    0    0    0  0.00000000000E+00  0.00000000000E+00  0.74505805969E-08  0.10566000000E+00  0.10566000000E+00 0. -1.
     999900   -1    0    0    0    0 -0.00000000000E+00 -0.00000000000E+00 -0.74505805969E-08  0.93827000000E+00  0.93827000000E+00 0. -1.
     999902    2    1    2    0    0  0.16307569766E-01  0.79248129983E-02  0.15493012804E-01  0.10200810390E+01  0.10198022128E+01 0.  0.
     999903    2    3    3    0    0 -0.70920978337E-01 -0.69097387384E-01 -0.77936951778E-01  0.12751709331E+00  0.19550102848E-01 0.  0.
         14    1    1    2    0    0 -0.16307569766E-01 -0.79248129983E-02 -0.15493012804E-01  0.23848960952E-01  0.00000000000E+00 0.  1.
     999901    1    3    3    0    0  0.87228548103E-01  0.77022200382E-01  0.93429964582E-01  0.89256394574E+00  0.88000000000E+00 0.  1.
        -11    1    4    4    0    0 -0.13658415391E-01 -0.18201881545E-01 -0.27917122114E-01  0.36020655614E-01  0.51100000000E-03 0. -1.
         11    1    4    4    0    0 -0.57262562946E-01 -0.50895505839E-01 -0.50019829664E-01  0.91496437692E-01  0.51100000000E-03 0.  1.
</event>
<event>
 8    1  0.1137518E+005  0.1043930E+01  0.7957747E-01            NaN
         13   -1    0    0    0    0  0.00000000000E+00  0.00000000000E+00  0.74505805969E-08  0.10566000000E+00  0.10566000000E+00 0.  1.
     999900   -1    0    0    0    0 -0.00000000000E+00 -0.00000000000E+00 -0.74505805969E-08  0.93827000000E+00  0.93827000000E+00 0. -1.
     999902    2    1    2    0    0 -0.11423446359E-01  0.10618022916E-01  0.17875671606E-01  0.10202070750E+01  0.10199312225E+01 0.  0.
     999903    2    3    3    0    0  0.58714604236E-02 -0.18055769244E-01 -0.12391282430E+00  0.12822878053E+00  0.26976791483E-01 0.  0.
         14    1    1    2    0    0  0.11423446359E-01 -0.10618022916E-01 -0.17875671606E-01  0.23722925046E-01  0.00000000000E+00 0. -1.
     999901    1    3    3    0    0 -0.17294906783E-01  0.28673792159E-01  0.14178849591E+00  0.89197829443E+00  0.88000000000E+00 0.  1.
        -11    1    4    4    0    0 -0.74364153218E-02  0.30322660561E-02 -0.30212587104E-01  0.31265899168E-01  0.51100000000E-03 0.  1.
         11    1    4    4    0    0  0.13307875745E-01 -0.21088035300E-01 -0.93700237197E-01  0.96962881359E-01  0.51100000000E-03 0. -1.
</event>
<event>
 8    1  0.1137518E+005  0.1043930E+01  0.7957747E-01            NaN
         13   -1    0    0    0    0  0.00000000000E+00  0.00000000000E+00  0.74505805969E-08  0.10566000000E+00  0.10566000000E+00 0. -1.
     999900   -1    0    0    0    0 -0.00000000000E+00 -0.00000000000E+00 -0.74505805969E-08  0.93827000000E+00  0.93827000000E+00 0.  1.
     999902    2    1    2    0    0  0.10034668166E-01 -0.18741174924E-01  0.13103692760E-01  0.10189573556E+01  0.10186512944E+01 0.  0.
     999903    2    3    3    0    0 -0.30627033927E-01 -0.26160558959E-01  0.12312544625E+00  0.13114363220E+00  0.20405555619E-01 0.  0.
         14    1    1    2    0    0 -0.10034668166E-01  0.18741174924E-01 -0.13103692760E-01  0.24972644367E-01  0.00000000000E+00 0. -1.
     999901    1    3    3    0    0  0.40661702093E-01  0.74193840356E-02 -0.11002175349E+00  0.88781372343E+00  0.88000000000E+00 0.  1.
        -11    1    4    4    0    0 -0.16360523099E-01 -0.13506371816E-02  0.49266768501E-01  0.51932326507E-01  0.51100000000E-03 0.  1.
         11    1    4    4    0    0 -0.14266510828E-01 -0.24809921778E-01  0.73858677748E-01  0.79211305693E-01  0.51100000000E-03 0. -1.
</event>
<event>
 8    1  0.1137518E+005  0.1043930E+01  0.7957747E-01            NaN
         13   -1    0    0    0    0  0.00000000000E+00  0.00000000000E+00  0.74505805969E-08  0.10566000000E+00  0.10566000000E+00 0.  1.
     999900   -1    0    0    0    0 -0.00000000000E+00 -0.00000000000E+00 -0.74505805969E-08  0.93827000000E+00  0.93827000000E+00 0.  1.
     999902    2    1    2    0    0 -0.12711178082E-02 -0.22887143985E-01 -0.37221806160E-02  0.10207073445E+01  0.10204431348E+01 0.  0.
     999903    2    3    3    0    0 -0.35407489930E-01  0.11454797537E+00 -0.42430786808E-01  0.12854589042E+00  0.18674722759E-01 0.  0.
         14    1    1    2    0    0  0.12711178082E-02  0.22887143985E-01  0.37221806160E-02  0.23222655508E-01  0.00000000000E+00 0.  1.
     999901    1    3    3    0    0  0.34136372122E-01 -0.13743511936E+00  0.38708606192E-01  0.89216145407E+00  0.88000000000E+00 0. -1.
        -11    1    4    4    0    0 -0.16764393243E-01  0.80122242316E-01 -0.33090723025E-01  0.88294256131E-01  0.51100000000E-03 0. -1.
         11    1    4    4    0    0 -0.18643096687E-01  0.34425733058E-01 -0.93400637828E-02  0.40251634291E-01  0.51100000000E-03 0.  1.
</event>
<event>
 8    1  0.1137518E+005  0.1043930E+01  0.7957747E-01            NaN
         13   -1    0    0    0    0  0.00000000000E+00  0.00000000000E+00  0.74505805969E-08  0.10566000000E+00  0.10566000000E+00 0.  1.
     999900   -1    0    0    0    0 -0.00000000000E+00 -0.00000000000E+00 -0.74505805969E-08  0.93827000000E+00  0.93827000000E+00 0.  1.
     999902    2    1    2    0    0 -0.69737997899E-02  0.18652007055E-01 -0.12487547889E-01  0.10204253174E+01  0.10201545757E+01 0.  0.
     999903    2    3    3    0    0  0.64675582345E-01 -0.35660733293E-01 -0.10629597210E+00  0.13088412772E+00  0.19421698055E-01 0.  0.
         14    1    1    2    0    0  0.69737997899E-02 -0.18652007055E-01  0.12487547889E-01  0.23504682575E-01  0.00000000000E+00 0.  1.
     999901    1    3    3    0    0 -0.71649382135E-01  0.54312740348E-01  0.93808424207E-01  0.88954118970E+00  0.88000000000E+00 0. -1.
        -11    1    4    4    0    0  0.22413907329E-01 -0.19390190026E-01 -0.54828022850E-01  0.62327649736E-01  0.51100000000E-03 0. -1.
         11    1    4    4    0    0  0.42261675016E-01 -0.16270543267E-01 -0.51467949245E-01  0.68556477987E-01  0.51100000000E-03 0.  1.
</event>
<event>
 8    1  0.1137518E+005  0.1043930E+01  0.7957747E-01            NaN
         13   -1    0    0    0    0  0.00000000000E+00  0.00000000000E+00  0.74505805969E-08  0.10566000000E+00  0.10566000000E+00 0.  1.
     999900   -1    0    0    0    0 -0.00000000000E+00 -0.00000000000E+00 -0.74505805969E-08  0.93827000000E+00  0.93827000000E+00 0.  1.
     999902    2    1    2    0    0 -0.21455508955E-01 -0.40530475031E-02 -0.41258062266E-02  0.10217086514E+01  0.10214669745E+01 0.  0.
     999903    2    3    3    0    0  0.49621769470E-01 -0.53454290602E-01 -0.10745833189E+00  0.13144460446E+00  0.20265975437E-01 0.  0.
         14    1    1    2    0    0  0.21455508955E-01  0.40530475031E-02  0.41258062266E-02  0.22221348645E-01  0.00000000000E+00 0.  1.
     999901    1    3    3    0    0 -0.71077278425E-01  0.49401243099E-01  0.10333252567E+00  0.89026404689E+00  0.88000000000E+00 0.  1.
        -11    1    4    4    0    0  0.26258776773E-01 -0.23098203588E-01 -0.34988408317E-01  0.49472216487E-01  0.51100000000E-03 0. -1.
         11    1    4    4    0    0  0.23362992697E-01 -0.30356087014E-01 -0.72469923575E-01  0.81972387976E-01  0.51100000000E-03 0.  1.
</event>
<event>
 8    1  0.1137518E+005  0.1043930E+01  0.7957747E-01            NaN
         13   -1    0    0    0    0  0.00000000000E+00  0.00000000000E+00  0.74505805969E-08  0.10566000000E+00  0.10566000000E+00 0. -1.
     999900   -1    0    0    0    0 -0.00000000000E+00 -0.00000000000E+00 -0.74505805969E-08  0.93827000000E+00  0.93827000000E+00 0. -1.
     999902    2    1    2    0    0  0.21758282863E-01 -0.19664679486E-02 -0.94789781809E-02  0.10201152798E+01  0.10198372631E+01 0.  0.
     999903    2    3    3    0    0 -0.83681257439E-02  0.12030130048E+00  0.43175040910E-01  0.12959326808E+00  0.19695241752E-01 0.  0.
         14    1    1    2    0    0 -0.21758282863E-01  0.19664679486E-02  0.94789781809E-02  0.23814720168E-01  0.00000000000E+00 0.  1.
     999901    1    3    3    0    0  0.30126408606E-01 -0.12226776843E+00 -0.52654019091E-01  0.89052201175E+00  0.88000000000E+00 0. -1.
        -11    1    4    4    0    0 -0.12031691791E-01  0.82450415487E-01  0.22518770262E-01  0.86314475938E-01  0.51100000000E-03 0.  1.
         11    1    4    4    0    0  0.36635660469E-02  0.37850884994E-01  0.20656270648E-01  0.43278792140E-01  0.51100000000E-03 0. -1.
</event>
<event>
 8    1  0.1137518E+005  0.1043930E+01  0.7957747E-01            NaN
         13   -1    0    0    0    0  0.00000000000E+00  0.00000000000E+00  0.74505805969E-08  0.10566000000E+00  0.10566000000E+00 0. -1.
     999900   -1    0    0    0    0 -0.00000000000E+00 -0.00000000000E+00 -0.74505805969E-08  0.93827000000E+00  0.93827000000E+00 0. -1.
     999902    2    1    2    0    0 -0.20479979619E-01  0.79202962345E-02  0.85779497385E-02  0.10203558218E+01  0.10200834579E+01 0.  0.
     999903    2    3    3    0    0  0.83988632420E-01  0.24052944115E-01  0.94052176067E-01  0.12991784156E+00  0.20004980292E-01 0.  0.
         14    1    1    2    0    0  0.20479979619E-01 -0.79202962345E-02 -0.85779497385E-02  0.23574178232E-01  0.00000000000E+00 0.  1.
     999901    1    3    3    0    0 -0.10446861204E+00 -0.16132647881E-01 -0.85474226328E-01  0.89043798021E+00  0.88000000000E+00 0. -1.
        -11    1    4    4    0    0  0.53768641788E-01  0.16781001716E-01  0.46186126032E-01  0.72842900939E-01  0.51100000000E-03 0.  1.
         11    1    4    4    0    0  0.30219990632E-01  0.72719423990E-02  0.47866050035E-01  0.57074940622E-01  0.51100000000E-03 0. -1.
</event>
<event>
 8    1  0.1137518E+005  0.1043930E+01  0.7957747E-01            NaN
         13   -1    0    0    0    0  0.00000000000E+00  0.00000000000E+00  0.74505805969E-08  0.10566000000E+00  0.10566000000E+00 0.  1.
     999900   -1    0    0    0    0 -0.00000000000E+00 -0.00000000000E+00 -0.74505805969E-08  0.93827000000E+00  0.93827000000E+00 0.  1.
     999902    2    1    2    0    0  0.11195064480E-01 -0.42322463378E-02 -0.31062524372E-02  0.10315651231E+01  0.10314910145E+01 0.  0.
     999903    2    3    3    0    0 -0.85264176288E-01 -0.10405820666E+00  0.32666811994E-01  0.13996581864E+00  0.20620854729E-01 0.  0.
         14    1    1    2    0    0 -0.11195064480E-01  0.42322463378E-02  0.31062524372E-02  0.12364876950E-01  0.00000000000E+00 0.  1.
     999901    1    3    3    0    0  0.96459240769E-01  0.99825960326E-01 -0.35773064431E-01  0.89159930441E+00  0.88000000000E+00 0.  1.
        -11    1    4    4    0    0 -0.62688711065E-01 -0.67035974557E-01  0.29829033907E-01  0.96507661689E-01  0.51100000000E-03 0. -1.
         11    1    4    4    0    0 -0.22575465224E-01 -0.37022232106E-01  0.28377780867E-02  0.43458156952E-01  0.51100000000E-03 0.  1.
</event>
<event>
 7    1  0.1780689E+005  0.1043930E+01  0.7957747E-01            NaN
         13   -1    0    0    0    0  0.00000000000E+00  0.00000000000E+00  0.74505805969E-08  0.10566000000E+00  0.10566000000E+00 0. -1.
     999900   -1    0    0    0    0 -0.00000000000E+00 -0.00000000000E+00 -0.74505805969E-08  0.93827000000E+00  0.93827000000E+00 0. -1.
     999903    2    1    2    0    0 -0.87634225660E-01 -0.11850493049E-01  0.12061727018E-01  0.91482314456E-01  0.20083249416E-01 0.  0.
         14    1    1    2    0    0 -0.21455161030E-01 -0.29961113672E-01 -0.52110196980E-01  0.63823701684E-01  0.00000000000E+00 0.  1.
     999901    1    1    2    0    0  0.10908938669E+00  0.41811606721E-01  0.40048469962E-01  0.88862398386E+00  0.88000000000E+00 0. -1.
        -11    1    3    3    0    0 -0.67814503421E-01 -0.75438535702E-03  0.67987808633E-02  0.68160549541E-01  0.51100000000E-03 0.  1.
         11    1    3    3    0    0 -0.19819722239E-01 -0.11096107692E-01  0.52629461552E-02  0.23321764915E-01  0.51100000000E-03 0. -1.
</event>
<event>
 8    1  0.1137518E+005  0.1043930E+01  0.7957747E-01            NaN
         13   -1    0    0    0    0  0.00000000000E+00  0.00000000000E+00  0.74505805969E-08  0.10566000000E+00  0.10566000000E+00 0.  1.
     999900   -1    0    0    0    0 -0.00000000000E+00 -0.00000000000E+00 -0.74505805969E-08  0.93827000000E+00  0.93827000000E+00 0.  1.
     999902    2    1    2    0    0  0.17737240482E-01  0.92857727783E-02 -0.12446723934E-01  0.10203555178E+01  0.10200831468E+01 0.  0.
     999903    2    3    3    0    0 -0.58034005351E-01 -0.11080592187E+00 -0.23755763964E-01  0.12890098095E+00  0.20130287376E-01 0.  0.
         14    1    1    2    0    0 -0.17737240482E-01 -0.92857727783E-02  0.12446723934E-01  0.23574482236E-01  0.00000000000E+00 0. -1.
     999901    1    3    3    0    0  0.75771245832E-01  0.12009169465E+00  0.11309040030E-01  0.89145453681E+00  0.88000000000E+00 0. -1.
        -11    1    4    4    0    0 -0.47781149552E-02 -0.15462505066E-01  0.29850037024E-02  0.16464835667E-01  0.51100000000E-03 0. -1.
         11    1    4    4    0    0 -0.53255890396E-01 -0.95343416805E-01 -0.26740767667E-01  0.11243614528E+00  0.51100000000E-03 0.  1.
</event>
<event>
 8    1  0.1137518E+005  0.1043930E+01  0.7957747E-01            NaN
         13   -1    0    0    0    0  0.00000000000E+00  0.00000000000E+00  0.74505805969E-08  0.10566000000E+00  0.10566000000E+00 0.  1.
     999900   -1    0    0    0    0 -0.00000000000E+00 -0.00000000000E+00 -0.74505805969E-08  0.93827000000E+00  0.93827000000E+00 0. -1.
     999902    2    1    2    0    0 -0.13269253100E-01 -0.79034424144E-02 -0.18810303055E-01  0.10195914507E+01  0.10193009180E+01 0.  0.
     999903    2    3    3    0    0  0.19509495688E-01  0.77468999210E-01 -0.10192458754E+00  0.13095717024E+00  0.19470301288E-01 0.  0.
         14    1    1    2    0    0  0.13269253100E-01  0.79034424144E-02  0.18810303055E-01  0.24338549276E-01  0.00000000000E+00 0.  1.
     999901    1    3    3    0    0 -0.32778748788E-01 -0.85372441625E-01  0.83114284485E-01  0.88863428048E+00  0.88000000000E+00 0.  1.
        -11    1    4    4    0    0  0.15514194617E-01  0.61586924732E-01 -0.66665925575E-01  0.92077392916E-01  0.51100000000E-03 0. -1.
         11    1    4    4    0    0  0.39953010709E-02  0.15882074478E-01 -0.35258661965E-01  0.38879777327E-01  0.51100000000E-03 0.  1.
</event>
<event>
 8    1  0.1137518E+005  0.1043930E+01  0.7957747E-01            NaN
         13   -1    0    0    0    0  0.00000000000E+00  0.00000000000E+00  0.74505805969E-08  0.10566000000E+00  0.10566000000E+00 0.  1.
     999900   -1    0    0    0    0 -0.00000000000E+00 -0.00000000000E+00 -0.74505805969E-08  0.93827000000E+00  0.93827000000E+00 0. -1.
     999902    2    1    2    0    0 -0.10193596188E-01 -0.19740917165E-01 -0.20972118621E-02  0.10216138285E+01  0.10213700617E+01 0.  0.
     999903    2    3    3    0    0  0.11596063374E-01 -0.11083109050E+00 -0.71731205780E-01  0.13390830183E+00  0.19185101207E-01 0.  0.
         14    1    1    2    0    0  0.10193596188E-01  0.19740917165E-01  0.20972118621E-02  0.22316171520E-01  0.00000000000E+00 0. -1.
     999901    1    3    3    0    0 -0.21789659562E-01  0.91090173334E-01  0.69633993918E-01  0.88770552665E+00  0.88000000000E+00 0.  1.
        -11    1    4    4    0    0  0.16975664022E-01 -0.85840977303E-01 -0.55911656137E-01  0.10384228891E+00  0.51100000000E-03 0. -1.
         11    1    4    4    0    0 -0.53796006487E-02 -0.24990113196E-01 -0.15819549643E-01  0.30066012915E-01  0.51100000000E-03 0.  1.
</event>
<event>
 8    1  0.1137518E+005  0.1043930E+01  0.7957747E-01            NaN
         13   -1    0    0    0    0  0.00000000000E+00  0.00000000000E+00  0.74505805969E-08  0.10566000000E+00  0.10566000000E+00 0.  1.
     999900   -1    0    0    0    0 -0.00000000000E+00 -0.00000000000E+00 -0.74505805969E-08  0.93827000000E+00  0.93827000000E+00 0. -1.
     999902    2    1    2    0    0 -0.21453694406E-02 -0.15101498691E-01  0.18968268449E-01  0.10195896409E+01  0.10192990644E+01 0.  0.
     999903    2    3    3    0    0 -0.22934665113E-01  0.71862339839E-01  0.10590060533E+00  0.13079712563E+00  0.14239210355E-01 0.  0.
         14    1    1    2    0    0  0.21453694406E-02  0.15101498691E-01 -0.18968268449E-01  0.24340359091E-01  0.00000000000E+00 0. -1.
     999901    1    3    3    0    0  0.20789295673E-01 -0.86963838530E-01 -0.86932336882E-01  0.88879251528E+00  0.88000000000E+00 0.  1.
        -11    1    4    4    0    0 -0.19477900285E-01  0.64486142094E-01  0.85681904186E-01  0.10899312340E+00  0.51100000000E-03 0.  1.
         11    1    4    4    0    0 -0.34567648282E-02  0.73761977450E-02  0.20218701145E-01  0.21804002230E-01  0.51100000000E-03 0. -1.
</event>
<event>
 8    1  0.1137518E+005  0.1043930E+01  0.7957747E-01            NaN
         13   -1    0    0    0    0  0.00000000000E+00  0.00000000000E+00  0.74505805969E-08  0.10566000000E+00  0.10566000000E+00 0.  1.
     999900   -1    0    0    0    0 -0.00000000000E+00 -0.00000000000E+00 -0.74505805969E-08  0.93827000000E+00  0.93827000000E+00 0.  1.
     999902    2    1    2    0    0 -0.57654136029E-02  0.22828898040E-01  0.25748228639E-02  0.10202439642E+01  0.10199689790E+01 0.  0.
     999903    2    3    3    0    0 -0.11062758357E+00 -0.56558001722E-01 -0.31409564747E-01  0.12982086636E+00  0.20727440232E-01 0.  0.
         14    1    1    2    0    0  0.57654136029E-02 -0.22828898040E-01 -0.25748228639E-02  0.23686035813E-01  0.00000000000E+00 0. -1.
     999901    1    3    3    0    0  0.10486216997E+00  0.79386899763E-01  0.33984387611E-01  0.89042309783E+00  0.88000000000E+00 0. -1.
        -11    1    4    4    0    0 -0.77423430901E-01 -0.49339067563E-01 -0.25905306021E-01  0.95394324997E-01  0.51100000000E-03 0.  1.
         11    1    4    4    0    0 -0.33204152672E-01 -0.72189341588E-02 -0.55042587257E-02  0.34426541362E-01  0.51100000000E-03 0. -1.
</event>
<event>
 8    1  0.1137518E+005  0.1043930E+01  0.7957747E-01            NaN
         13   -1    0    0    0    0  0.00000000000E+00  0.00000000000E+00  0.74505805969E-08  0.10566000000E+00  0.10566000000E+00 0. -1.
     999900   -1    0    0    0    0 -0.00000000000E+00 -0.00000000000E+00 -0.74505805969E-08  0.93827000000E+00  0.93827000000E+00 0. -1.
     999902    2    1    2    0    0  0.38724580014E-02 -0.34265699106E-02 -0.22595773483E-01  0.10207501318E+01  0.10204869059E+01 0.  0.
     999903    2    3    3    0    0  0.56165521322E-01  0.18974028356E-01 -0.11816221069E+00  0.13374996536E+00  0.20301863493E-01 0.  0.
         14    1    1    2    0    0 -0.38724580014E-02  0.34265699106E-02  0.22595773483E-01  0.23179868240E-01  0.00000000000E+00 0. -1.
     999901    1    3    3    0    0 -0.52293063320E-01 -0.22400598266E-01  0.95566437207E-01  0.88700016640E+00  0.88000000000E+00 0.  1.
        -11    1    4    4    0    0  0.30615618243E-01  0.20839737371E-01 -0.70360088886E-01  0.79513608666E-01  0.51100000000E-03 0.  1.
         11    1    4    4    0    0  0.25549903079E-01 -0.18657090151E-02 -0.47802121804E-01  0.54236356694E-01  0.51100000000E-03 0. -1.
</event>
<event>
 8    1  0.1137518E+005  0.1043930E+01  0.7957747E-01            NaN
         13   -1    0    0    0    0  0.00000000000E+00  0.00000000000E+00  0.74505805969E-08  0.10566000000E+00  0.10566000000E+00 0.  1.
     999900   -1    0    0    0    0 -0.00000000000E+00 -0.00000000000E+00 -0.74505805969E-08  0.93827000000E+00  0.93827000000E+00 0. -1.
     999902    2    1    2    0    0 -0.12431559700E-02 -0.13178775321E-01 -0.19759526341E-01  0.10201462989E+01  0.10198690145E+01 0.  0.
     999903    2    3    3    0    0  0.12734039486E+00  0.16804497323E-01  0.30536862911E-02  0.13000408059E+00  0.19843605458E-01 0.  0.
         14    1    1    2    0    0  0.12431559700E-02  0.13178775321E-01  0.19759526341E-01  0.23783701077E-01  0.00000000000E+00 0.  1.
     999901    1    3    3    0    0 -0.12858355083E+00 -0.29983272644E-01 -0.22813212632E-01  0.89014221833E+00  0.88000000000E+00 0. -1.
        -11    1    4    4    0    0  0.60889997675E-01 -0.78498167721E-03  0.60567096805E-02  0.61197654091E-01  0.51100000000E-03 0. -1.
         11    1    4    4    0    0  0.66450397184E-01  0.17589479000E-01 -0.30030233894E-02  0.68806426502E-01  0.51100000000E-03 0.  1.
</event>
<event>
 8    1  0.1137518E+005  0.1043930E+01  0.7957747E-01            NaN
         13   -1    0    0    0    0  0.00000000000E+00  0.00000000000E+00  0.74505805969E-08  0.10566000000E+00  0.10566000000E+00 0.  1.
     999900   -1    0    0    0    0 -0.00000000000E+00 -0.00000000000E+00 -0.74505805969E-08  0.93827000000E+00  0.93827000000E+00 0. -1.
     999902    2    1    2    0    0  0.13440182663E-01 -0.58923415603E-02  0.17553243946E-01  0.10210504333E+01  0.10207940599E+01 0.  0.
     999903    2    3    3    0    0  0.62150906169E-01 -0.59048343909E-01 -0.96506263752E-01  0.13076516079E+00  0.20895604226E-01 0.  0.
         14    1    1    2    0    0 -0.13440182663E-01  0.58923415603E-02 -0.17553243946E-01  0.22879566694E-01  0.00000000000E+00 0. -1.
     999901    1    3    3    0    0 -0.48710723505E-01  0.53156002349E-01  0.11405950770E+00  0.89028527252E+00  0.88000000000E+00 0.  1.
        -11    1    4    4    0    0  0.43285398280E-01 -0.51795699934E-01 -0.67989700457E-01  0.95808562901E-01  0.51100000000E-03 0. -1.
         11    1    4    4    0    0  0.18865507889E-01 -0.72526439751E-02 -0.28516563295E-01  0.34956597885E-01  0.51100000000E-03 0.  1.
</event>
<event>
 8    1  0.1137518E+005  0.1043930E+01  0.7957747E-01            NaN
         13   -1    0    0    0    0  0.00000000000E+00  0.00000000000E+00  0.74505805969E-08  0.10566000000E+00  0.10566000000E+00 0.  1.
     999900   -1    0    0    0    0 -0.00000000000E+00 -0.00000000000E+00 -0.74505805969E-08  0.93827000000E+00  0.93827000000E+00 0.  1.
     999902    2    1    2    0    0  0.17135294910E-01  0.10532591838E-01  0.11880557144E-01  0.10205697461E+01  0.10203023597E+01 0.  0.
     999903    2    3    3    0    0  0.12507961181E+00  0.39688062660E-01  0.11035963054E-01  0.13349436582E+00  0.21883820900E-01 0.  0.
         14    1    1    2    0    0 -0.17135294910E-01 -0.10532591838E-01 -0.11880557144E-01  0.23360253863E-01  0.00000000000E+00 0. -1.
     999901    1    3    3    0    0 -0.10794431690E+00 -0.29155470822E-01  0.84459409071E-03  0.88707538032E+00  0.88000000000E+00 0. -1.
        -11    1    4    4    0    0  0.16490826387E-01 -0.17992447400E-02  0.37874827277E-02  0.17023242434E-01  0.51100000000E-03 0. -1.
         11    1    4    4    0    0  0.10858878542E+00  0.41487307400E-01  0.72484803259E-02  0.11647112338E+00  0.51100000000E-03 0.  1.
</event>
<event>
 8    1  0.1137518E+005  0.1043930E+01  0.7957747E-01            NaN
         13   -1    0    0    0    0  0.00000000000E+00  0.00000000000E+00  0.74505805969E-08  0.10566000000E+00  0.10566000000E+00 0.  1.
     999900   -1    0    0    0    0 -0.00000000000E+00 -0.00000000000E+00 -0.74505805969E-08  0.93827000000E+00  0.93827000000E+00 0.  1.
     999902    2    1    2    0    0 -0.18246000606E-01 -0.14727360401E-01  0.33085058929E-02  0.10202496729E+01  0.10199748218E+01 0.  0.
     999903    2    3    3    0    0  0.11785790925E+00 -0.32710413594E-01  0.35980693529E-01  0.12900608307E+00  0.19685051012E-01 0.  0.
         14    1    1    2    0    0  0.18246000606E-01  0.14727360401E-01 -0.33085058929E-02  0.23680327146E-01  0.00000000000E+00 0.  1.
     999901    1    3    3    0    0 -0.13610390985E+00  0.17983053193E-01 -0.32672187636E-01  0.89124358978E+00  0.88000000000E+00 0.  1.
        -11    1    4    4    0    0  0.10227819278E+00 -0.34082955978E-01  0.27740053038E-01  0.11132047552E+00  0.51100000000E-03 0.  1.
         11    1    4    4    0    0  0.15579716467E-01  0.13725423840E-02  0.82406404907E-02  0.17685607552E-01  0.51100000000E-03 0. -1.
</event>
<event>
 8    1  0.1137518E+005  0.1043930E+01  0.7957747E-01            NaN
         13   -1    0    0    0    0  0.00000000000E+00  0.00000000000E+00  0.74505805969E-08  0.10566000000E+00  0.10566000000E+00 0.  1.
     999900   -1    0    0    0    0 -0.00000000000E+00 -0.00000000000E+00 -0.74505805969E-08  0.93827000000E+00  0.93827000000E+00 0.  1.
     999902    2    1    2    0    0 -0.16371396058E-01 -0.97619190269E-02 -0.17031295016E-01  0.10183686487E+01  0.10180477994E+01 0.  0.
     999903    2    3    3    0    0 -0.24176966070E-01 -0.80867752331E-01 -0.99075254617E-01  0.13166228365E+00  0.19872891173E-01 0.  0.
         14    1    1    2    0    0  0.16371396058E-01  0.97619190269E-02  0.17031295016E-01  0.25561351332E-01  0.00000000000E+00 0.  1.
     999901    1    3    3    0    0  0.78055700121E-02  0.71105833304E-01  0.82043959601E-01  0.88670636502E+00  0.88000000000E+00 0. -1.
        -11    1    4    4    0    0 -0.22141354949E-01 -0.78747470046E-01 -0.87813133142E-01  0.12001171239E+00  0.51100000000E-03 0.  1.
         11    1    4    4    0    0 -0.20356111216E-02 -0.21202822852E-02 -0.11262121475E-01  0.11650571262E-01  0.51100000000E-03 0. -1.
</event>
<event>
 8    1  0.1137518E+005  0.1043930E+01  0.7957747E-01            NaN
         13   -1    0    0    0    0  0.00000000000E+00  0.00000000000E+00  0.74505805969E-08  0.10566000000E+00  0.10566000000E+00 0. -1.
     999900   -1    0    0    0    0 -0.00000000000E+00 -0.00000000000E+00 -0.74505805969E-08  0.93827000000E+00  0.93827000000E+00 0.  1.
     999902    2    1    2    0    0  0.17502229815E-01 -0.48444276509E-02  0.71265107489E-02  0.10244214459E+01  0.10242356736E+01 0.  0.
     999903    2    3    3    0    0 -0.17380379951E-03  0.10330034454E+00 -0.81688294604E-01  0.13318870213E+00  0.19881184828E-01 0.  0.
         14    1    1    2    0    0 -0.17502229815E-01  0.48444276509E-02 -0.71265107489E-02  0.19508554104E-01  0.00000000000E+00 0.  1.
     999901    1    3    3    0    0  0.17676033615E-01 -0.10814477219E+00  0.88814805353E-01  0.89123274377E+00  0.88000000000E+00 0. -1.
        -11    1    4    4    0    0 -0.82964038494E-02  0.80820902100E-01 -0.61527306280E-01  0.10191525436E+00  0.51100000000E-03 0.  1.
         11    1    4    4    0    0  0.81226000499E-02  0.22479442435E-01 -0.20160988325E-01  0.31273447763E-01  0.51100000000E-03 0. -1.
</event>
<event>
 8    1  0.1137518E+005  0.1043930E+01  0.7957747E-01            NaN
         13   -1    0    0    0    0  0.00000000000E+00  0.00000000000E+00  0.74505805969E-08  0.10566000000E+00  0.10566000000E+00 0.  1.
     999900   -1    0    0    0    0 -0.00000000000E+00 -0.00000000000E+00 -0.74505805969E-08  0.93827000000E+00  0.93827000000E+00 0.  1.
     999902    2    1    2    0    0 -0.21989485724E-01  0.76131825547E-02 -0.89121641299E-02  0.10190116393E+01  0.10187069237E+01 0.  0.
     999903    2    3    3    0    0 -0.51189484407E-01  0.36370331915E-01  0.11173022966E+00  0.12983550334E+00  0.20747273325E-01 0.  0.
         14    1    1    2    0    0  0.21989485724E-01 -0.76131825547E-02  0.89121641299E-02  0.24918360710E-01  0.00000000000E+00 0. -1.
     999901    1    3    3    0    0  0.29199998683E-01 -0.28757149361E-01 -0.12064239379E+00  0.88917613595E+00  0.88000000000E+00 0.  1.
        -11    1    4    4    0    0 -0.15839177149E-01  0.12592175699E-01  0.56928406115E-01  0.60419756416E-01  0.51100000000E-03 0.  1.
         11    1    4    4    0    0 -0.35350307258E-01  0.23778156216E-01  0.54801823545E-01  0.69415746925E-01  0.51100000000E-03 0. -1.
</event>
<event>
 8    1  0.1137518E+005  0.1043930E+01  0.7957747E-01            NaN
         13   -1    0    0    0    0  0.00000000000E+00  0.00000000000E+00  0.74505805969E-08  0.10566000000E+00  0.10566000000E+00 0.  1.
     999900   -1    0    0    0    0 -0.00000000000E+00 -0.00000000000E+00 -0.74505805969E-08  0.93827000000E+00  0.93827000000E+00 0.  1.
     999902    2    1    2    0    0  0.14063912222E-01 -0.13721052336E-01  0.11292049784E-01  0.10212678886E+01  0.10210164196E+01 0.  0.
     999903    2    3    3    0    0  0.75998992405E-01 -0.91314020184E-01  0.59457442283E-01  0.13437639139E+00  0.20192325044E-01 0.  0.
         14    1    1    2    0    0 -0.14063912222E-01  0.13721052336E-01 -0.11292049784E-01  0.22662111387E-01  0.00000000000E+00 0. -1.
     999901    1    3    3    0    0 -0.61935080183E-01  0.77592967848E-01 -0.48165392499E-01  0.88689149723E+00  0.88000000000E+00 0.  1.
        -11    1    4    4    0    0  0.25733215953E-02 -0.71018149674E-02  0.90611050534E-02  0.11807730758E-01  0.51100000000E-03 0. -1.
         11    1    4    4    0    0  0.73425670809E-01 -0.84212205217E-01  0.50396337230E-01  0.12256866063E+00  0.51100000000E-03 0.  1.
</event>
<event>
 8    1  0.1137518E+005  0.1043930E+01  0.7957747E-01            NaN
         13   -1    0    0    0    0  0.00000000000E+00  0.00000000000E+00  0.74505805969E-08  0.10566000000E+00  0.10566000000E+00 0. -1.
     999900   -1    0    0    0    0 -0.00000000000E+00 -0.00000000000E+00 -0.74505805969E-08  0.93827000000E+00  0.93827000000E+00 0. -1.
     999902    2    1    2    0    0  0.44847021190E-03  0.13886829154E-01 -0.17879919146E-01  0.10212863109E+01  0.10210352551E+01 0.  0.
     999903    2    3    3    0    0 -0.49529608610E-01  0.11710757577E+00 -0.35909712884E-01  0.13366172559E+00  0.20213435586E-01 0.  0.
         14    1    1    2    0    0 -0.44847021190E-03 -0.13886829154E-01  0.17879919146E-01  0.22643689146E-01  0.00000000000E+00 0. -1.
     999901    1    3    3    0    0  0.49978078822E-01 -0.10322074661E+00  0.18029793738E-01  0.88762458526E+00  0.88000000000E+00 0. -1.
        -11    1    4    4    0    0 -0.14311039622E-01  0.27483190501E-01 -0.17600504052E-01  0.35639451161E-01  0.51100000000E-03 0.  1.
         11    1    4    4    0    0 -0.35218568988E-01  0.89624385268E-01 -0.18309208832E-01  0.98022274434E-01  0.51100000000E-03 0. -1.
</event>
<event>
 8    1  0.1137518E+005  0.1043930E+01  0.7957747E-01            NaN
         13   -1    0    0    0    0  0.00000000000E+00  0.00000000000E+00  0.74505805969E-08  0.10566000000E+00  0.10566000000E+00 0.  1.
     999900   -1    0    0    0    0 -0.00000000000E+00 -0.00000000000E+00 -0.74505805969E-08  0.93827000000E+00  0.93827000000E+00 0.  1.
     999902    2    1    2    0    0  0.58131451146E-03 -0.22818554785E-01  0.62894644091E-02  0.10202533927E+01  0.10199786290E+01 0.  0.
     999903    2    3    3    0    0 -0.10160274257E+00  0.75964384176E-01  0.10298491240E-01  0.12884118570E+00  0.20007179966E-01 0.  0.
         14    1    1    2    0    0 -0.58131451146E-03  0.22818554785E-01 -0.62894644091E-02  0.23676607265E-01  0.00000000000E+00 0. -1.
     999901    1    3    3    0    0  0.10218405708E+00 -0.98782938961E-01 -0.40090268307E-02  0.89141220703E+00  0.88000000000E+00 0. -1.
        -11    1    4    4    0    0 -0.32613047175E-01  0.13371910352E-01  0.39241078218E-02  0.35469403374E-01  0.51100000000E-03 0. -1.
         11    1    4    4    0    0 -0.68989695396E-01  0.62592473824E-01  0.63743834180E-02  0.93371782328E-01  0.51100000000E-03 0.  1.
</event>
<event>
 7    1  0.1137518E+005  0.1043930E+01  0.7957747E-01            NaN
         13   -1    0    0    0    0  0.00000000000E+00  0.00000000000E+00  0.74505805969E-08  0.10566000000E+00  0.10566000000E+00 0. -1.
     999900   -1    0    0    0    0 -0.00000000000E+00 -0.00000000000E+00 -0.74505805969E-08  0.93827000000E+00  0.93827000000E+00 0. -1.
     999902    2    1    2    0    0 -0.10570568178E-01  0.45095689660E-02  0.19138647968E-01  0.10216060001E+01  0.10213620605E+01 0.  0.
         14    1    1    2    0    0  0.10570568178E-01 -0.45095689660E-02 -0.19138647968E-01  0.22323999863E-01  0.00000000000E+00 0.  1.
     999901    1    3    3    0    0  0.43842152880E-01  0.69594306556E-02  0.13165329019E+00  0.89090019467E+00  0.88000000000E+00 0.  1.
        -11    1    3    3    0    0 -0.40507433397E-01 -0.17661011913E-01 -0.61926416124E-01  0.76078286240E-01  0.51100000000E-03 0.  1.
         11    1    3    3    0    0 -0.13905287661E-01  0.15211150224E-01 -0.50588226099E-01  0.54627519227E-01  0.51100000000E-03 0. -1.
</event>
<event>
 8    1  0.1137518E+005  0.1043930E+01  0.7957747E-01            NaN
         13   -1    0    0    0    0  0.00000000000E+00  0.00000000000E+00  0.74505805969E-08  0.10566000000E+00  0.10566000000E+00 0. -1.
     999900   -1    0    0    0    0 -0.00000000000E+00 -0.00000000000E+00 -0.74505805969E-08  0.93827000000E+00  0.93827000000E+00 0.  1.
     999902    2    1    2    0    0 -0.58386633084E-02 -0.71267530152E-02  0.20885492303E-01  0.10211027271E+01  0.10208475376E+01 0.  0.
     999903    2    3    3    0    0  0.80311365991E-01  0.79416279270E-01  0.64520129549E-01  0.13159977292E+00  0.19969782062E-01 0.  0.
         14    1    1    2    0    0  0.58386633084E-02  0.71267530152E-02 -0.20885492303E-01  0.22827272866E-01  0.00000000000E+00 0.  1.
     999901    1    3    3    0    0 -0.86150029300E-01 -0.86543032285E-01 -0.43634637246E-01  0.88950295421E+00  0.88000000000E+00 0.  1.
        -11    1    4    4    0    0  0.53370964657E-01  0.38932834996E-01  0.37635605788E-01  0.76032397393E-01  0.51100000000E-03 0.  1.
         11    1    4    4    0    0  0.26940401334E-01  0.40483444274E-01  0.26884523760E-01  0.55567375529E-01  0.51100000000E-03 0. -1.
</event>
<event>
 7    1  0.1491024E+005  0.1043930E+01  0.7957747E-01            NaN
         13   -1    0    0    0    0  0.00000000000E+00  0.00000000000E+00  0.74505805969E-08  0.10566000000E+00  0.10566000000E+00 0.  1.
     999900   -1    0    0    0    0 -0.00000000000E+00 -0.00000000000E+00 -0.74505805969E-08  0.93827000000E+00  0.93827000000E+00 0. -1.
     999903    2    1    2    0    0 -0.22794556827E-01 -0.82852363731E-01  0.18561566995E-01  0.90105279998E-01  0.19756611995E-01 0.  0.
         14    1    1    2    0    0 -0.58240413947E-01 -0.23189581059E-01 -0.11503402126E-01  0.63734062690E-01  0.00000000000E+00 0. -1.
     999901    1    1    2    0    0  0.81034970775E-01  0.10604194479E+00 -0.70581648688E-02  0.89009065731E+00  0.88000000000E+00 0. -1.
        -11    1    3    3    0    0 -0.17348639495E-01 -0.27867415506E-01  0.49978653814E-02  0.33208551890E-01  0.51100000000E-03 0.  1.
         11    1    3    3    0    0 -0.54459173321E-02 -0.54984948225E-01  0.13563701613E-01  0.56896728108E-01  0.51100000000E-03 0. -1.
</event>
<event>
 8    1  0.1137518E+005  0.1043930E+01  0.7957747E-01            NaN
         13   -1    0    0    0    0  0.00000000000E+00  0.00000000000E+00  0.74505805969E-08  0.10566000000E+00  0.10566000000E+00 0. -1.
     999900   -1    0    0    0    0 -0.00000000000E+00 -0.00000000000E+00 -0.74505805969E-08  0.93827000000E+00  0.93827000000E+00 0.  1.
     999902    2    1    2    0    0  0.62495702036E-02  0.10253676459E-01 -0.15215992994E-01  0.10245464644E+01  0.10243630881E+01 0.  0.
     999903    2    3    3    0    0 -0.86938534302E-01  0.62930315823E-01 -0.80037025292E-01  0.13569292340E+00  0.22093226292E-01 0.  0.
         14    1    1    2    0    0 -0.62495702036E-02 -0.10253676459E-01  0.15215992994E-01  0.19383535577E-01  0.00000000000E+00 0. -1.
     999901    1    3    3    0    0  0.93188104505E-01 -0.52676639364E-01  0.64821032297E-01  0.88885354102E+00  0.88000000000E+00 0. -1.
        -11    1    4    4    0    0 -0.70207352676E-01  0.52889313670E-01 -0.54041643076E-01  0.10318484471E+00  0.51100000000E-03 0. -1.
         11    1    4    4    0    0 -0.16731181626E-01  0.10041002153E-01 -0.25995382216E-01  0.32508078694E-01  0.51100000000E-03 0.  1.
</event>
<event>
 8    1  0.1137518E+005  0.1043930E+01  0.7957747E-01            NaN
         13   -1    0    0    0    0  0.00000000000E+00  0.00000000000E+00  0.74505805969E-08  0.10566000000E+00  0.10566000000E+00 0. -1.
     999900   -1    0    0    0    0 -0.00000000000E+00 -0.00000000000E+00 -0.74505805969E-08  0.93827000000E+00  0.93827000000E+00 0. -1.
     999902    2    1    2    0    0 -0.21965483072E-01 -0.73781781045E-03  0.97274244468E-02  0.10198956577E+01  0.10196124279E+01 0.  0.
     999903    2    3    3    0    0 -0.10223255738E+00  0.72262388312E-01  0.39400848438E-01  0.13273595092E+00  0.19825671613E-01 0.  0.
         14    1    1    2    0    0  0.21965483072E-01  0.73781781045E-03 -0.97274244468E-02  0.24034342265E-01  0.00000000000E+00 0.  1.
     999901    1    3    3    0    0  0.80267074308E-01 -0.73000206122E-01 -0.29673423991E-01  0.88715970682E+00  0.88000000000E+00 0.  1.
        -11    1    4    4    0    0 -0.78047665428E-01  0.55172774466E-01  0.20978930870E-01  0.97856271044E-01  0.51100000000E-03 0.  1.
         11    1    4    4    0    0 -0.24184891952E-01  0.17089613845E-01  0.18421917568E-01  0.34879679873E-01  0.51100000000E-03 0. -1.
</event>
<event>
 8    1  0.1137518E+005  0.1043930E+01  0.7957747E-01            NaN
         13   -1    0    0    0    0  0.00000000000E+00  0.00000000000E+00  0.74505805969E-08  0.10566000000E+00  0.10566000000E+00 0.  1.
     999900   -1    0    0    0    0 -0.00000000000E+00 -0.00000000000E+00 -0.74505805969E-08  0.93827000000E+00  0.93827000000E+00 0. -1.
     999902    2    1    2    0    0 -0.18606189476E-03  0.12453552830E-01 -0.20217350378E-01  0.10201841192E+01  0.10199077264E+01 0.  0.
     999903    2    3    3    0    0 -0.51742524688E-01  0.19715048038E-01 -0.11929606829E+00  0.13309483933E+00  0.20413533941E-01 0.  0.
         14    1    1    2    0    0  0.18606189476E-03 -0.12453552830E-01  0.20217350378E-01  0.23745880768E-01  0.00000000000E+00 0.  1.
     999901    1    3    3    0    0  0.51556462793E-01 -0.72614952083E-02  0.99078717910E-01  0.88708927990E+00  0.88000000000E+00 0.  1.
        -11    1    4    4    0    0 -0.10849225611E-01  0.25982631800E-02 -0.94142909049E-02  0.14606391140E-01  0.51100000000E-03 0.  1.
         11    1    4    4    0    0 -0.40893299077E-01  0.17116784858E-01 -0.10988177738E+00  0.11848844819E+00  0.51100000000E-03 0. -1.
</event>
<event>
 8    1  0.1401366E+005  0.1043930E+01  0.7957747E-01            NaN
         13   -1    0    0    0    0  0.00000000000E+00  0.00000000000E+00  0.74505805969E-08  0.10566000000E+00  0.10566000000E+00 0. -1.
     999900   -1    0    0    0    0 -0.00000000000E+00 -0.00000000000E+00 -0.74505805969E-08  0.93827000000E+00  0.93827000000E+00 0. -1.
     999902    2    1    2    0    0  0.19864114451E-01 -0.15707801764E-01  0.72980381104E-02  0.10175751249E+01  0.10172337762E+01 0.  0.
     999903    2    3    3    0    0  0.10865372932E+00 -0.25545858420E-01 -0.62624563650E-01  0.13029300898E+00  0.24417379826E-01 0.  0.
         14    1    1    2    0    0 -0.19864114451E-01  0.15707801764E-01 -0.72980381104E-02  0.26354875060E-01  0.00000000000E+00 0.  1.
     999901    1    3    3    0    0 -0.88789614874E-01  0.98380566554E-02  0.69922601761E-01  0.88728211596E+00  0.88000000000E+00 0. -1.
        -11    1    4    4    0    0  0.43802836810E-01 -0.37586969296E-02 -0.13242228218E-01  0.45917687707E-01  0.51100000000E-03 0.  1.
         11    1    4    4    0    0  0.64850892515E-01 -0.21787161490E-01 -0.49382335433E-01  0.84375321271E-01  0.51100000000E-03 0. -1.
</event>
<event>
 8    1  0.1137518E+005  0.1043930E+01  0.7957747E-01            NaN
         13   -1    0    0    0    0  0.00000000000E+00  0.00000000000E+00  0.74505805969E-08  0.10566000000E+00  0.10566000000E+00 0. -1.
     999900   -1    0    0    0    0 -0.00000000000E+00 -0.00000000000E+00 -0.74505805969E-08  0.93827000000E+00  0.93827000000E+00 0. -1.
     999902    2    1    2    0    0  0.15200346561E-01  0.16307802507E-01 -0.51797544739E-02  0.10210427805E+01  0.10207862337E+01 0.  0.
     999903    2    3    3    0    0 -0.14226752483E-02 -0.14809682153E-01  0.12797275683E+00  0.13032721765E+00  0.19667396344E-01 0.  0.
         14    1    1    2    0    0 -0.15200346561E-01 -0.16307802507E-01  0.51797544739E-02  0.22887219459E-01  0.00000000000E+00 0.  1.
     999901    1    3    3    0    0  0.16623021809E-01  0.31117484660E-01 -0.13315251131E+00  0.89071556289E+00  0.88000000000E+00 0. -1.
        -11    1    4    4    0    0  0.37107419059E-02  0.12200812263E-02  0.65694415987E-01  0.65812427524E-01  0.51100000000E-03 0. -1.
         11    1    4    4    0    0 -0.51334171542E-02 -0.16029763380E-01  0.62278340846E-01  0.64514790128E-01  0.51100000000E-03 0.  1.
</event>
<event>
 8    1  0.1137518E+005  0.1043930E+01  0.7957747E-01            NaN
         13   -1    0    0    0    0  0.00000000000E+00  0.00000000000E+00  0.74505805969E-08  0.10566000000E+00  0.10566000000E+00 0.  1.
     999900   -1    0    0    0    0 -0.00000000000E+00 -0.00000000000E+00 -0.74505805969E-08  0.93827000000E+00  0.93827000000E+00 0. -1.
     999902    2    1    2    0    0  0.22806684360E-01  0.37033096423E-02 -0.52895330872E-02  0.10202268670E+01  0.10199514800E+01 0.  0.
     999903    2    3    3    0    0  0.30362948421E-01  0.83138520683E-01  0.94513564913E-01  0.13099815162E+00  0.19843878596E-01 0.  0.
         14    1    1    2    0    0 -0.22806684360E-01 -0.37033096423E-02  0.52895330872E-02  0.23703133001E-01  0.00000000000E+00 0.  1.
     999901    1    3    3    0    0 -0.75562640614E-02 -0.79435211041E-01 -0.99803098000E-01  0.88922871538E+00  0.88000000000E+00 0. -1.
        -11    1    4    4    0    0  0.28104174847E-01  0.54286880062E-01  0.71113622406E-01  0.93778027296E-01  0.51100000000E-03 0. -1.
         11    1    4    4    0    0  0.22587735739E-02  0.28851640621E-01  0.23399942507E-01  0.37220124327E-01  0.51100000000E-03 0.  1.
</event>
<event>
 8    1  0.1137518E+005  0.1043930E+01  0.7957747E-01            NaN
         13   -1    0    0    0    0  0.00000000000E+00  0.00000000000E+00  0.74505805969E-08  0.10566000000E+00  0.10566000000E+00 0. -1.
     999900   -1    0    0    0    0 -0.00000000000E+00 -0.00000000000E+00 -0.74505805969E-08  0.93827000000E+00  0.93827000000E+00 0. -1.
     999902    2    1    2    0    0 -0.20517921838E-01  0.11588030055E-01 -0.38880561814E-03  0.10203626767E+01  0.10200904731E+01 0.  0.
     999903    2    3    3    0    0 -0.55281188298E-01 -0.11379499613E+00  0.24678623114E-01  0.13044258820E+00  0.20023073052E-01 0.  0.
         14    1    1    2    0    0  0.20517921838E-01 -0.11588030055E-01  0.38880561814E-03  0.23567323286E-01  0.00000000000E+00 0.  1.
     999901    1    3    3    0    0  0.34763266461E-01  0.12538302619E+00 -0.25067428732E-01  0.88992008851E+00  0.88000000000E+00 0.  1.
        -11    1    4    4    0    0 -0.34955375970E-01 -0.53744512054E-01  0.18573051003E-01  0.66750057900E-01  0.51100000000E-03 0.  1.
         11    1    4    4    0    0 -0.20325812328E-01 -0.60050484077E-01  0.61055721110E-02  0.63692530304E-01  0.51100000000E-03 0. -1.
</event>
<event>
 8    1  0.1137518E+005  0.1043930E+01  0.7957747E-01            NaN
         13   -1    0    0    0    0  0.00000000000E+00  0.00000000000E+00  0.74505805969E-08  0.10566000000E+00  0.10566000000E+00 0.  1.
     999900   -1    0    0    0    0 -0.00000000000E+00 -0.00000000000E+00 -0.74505805969E-08  0.93827000000E+00  0.93827000000E+00 0.  1.
     999902    2    1    2    0    0  0.25332276250E-02  0.18303247818E-01  0.14444290247E-01  0.10204765644E+01  0.10202070156E+01 0.  0.
     999903    2    3    3    0    0 -0.81085994177E-01 -0.13289008752E-01  0.10095684108E+00  0.13172763109E+00  0.20207642757E-01 0.  0.
         14    1    1    2    0    0 -0.25332276250E-02 -0.18303247818E-01 -0.14444290247E-01  0.23453435647E-01  0.00000000000E+00 0. -1.
     999901    1    3    3    0    0  0.83619221802E-01  0.31592256570E-01 -0.86512550833E-01  0.88874893327E+00  0.88000000000E+00 0.  1.
        -11    1    4    4    0    0 -0.52470338901E-01 -0.57810415775E-02  0.49485194634E-01  0.72357463437E-01  0.51100000000E-03 0.  1.
         11    1    4    4    0    0 -0.28615655276E-01 -0.75079671742E-02  0.51471646446E-01  0.59370167650E-01  0.51100000000E-03 0. -1.
</event>
<event>
 8    1  0.1137518E+005  0.1043930E+01  0.7957747E-01            NaN
         13   -1    0    0    0    0  0.00000000000E+00  0.00000000000E+00  0.74505805969E-08  0.10566000000E+00  0.10566000000E+00 0.  1.
     999900   -1    0    0    0    0 -0.00000000000E+00 -0.00000000000E+00 -0.74505805969E-08  0.93827000000E+00  0.93827000000E+00 0.  1.
     999902    2    1    2    0    0  0.22625986999E-01  0.30790410640E-02  0.69552985258E-02  0.10200596846E+01  0.10197803529E+01 0.  0.
     999903    2    3    3    0    0  0.58270517767E-01 -0.11269537824E+00 -0.22530313214E-01  0.13127194273E+00  0.25080000338E-01 0.  0.
         14    1    1    2    0    0 -0.22625986999E-01 -0.30790410640E-02 -0.69552985258E-02  0.23870315439E-01  0.00000000000E+00 0. -1.
     999901    1    3    3    0    0 -0.35644530768E-01  0.11577441930E+00  0.29485611740E-01  0.88878774184E+00  0.88000000000E+00 0.  1.
        -11    1    4    4    0    0  0.19505258466E-01 -0.17414024827E-01 -0.97334275127E-03  0.26170821264E-01  0.51100000000E-03 0. -1.
         11    1    4    4    0    0  0.38765259301E-01 -0.95281353408E-01 -0.21556970462E-01  0.10510112146E+00  0.51100000000E-03 0.  1.
</event>
<event>
 8    1  0.1137518E+005  0.1043930E+01  0.7957747E-01            NaN
         13   -1    0    0    0    0  0.00000000000E+00  0.00000000000E+00  0.74505805969E-08  0.10566000000E+00  0.10566000000E+00 0.  1.
     999900   -1    0    0    0    0 -0.00000000000E+00 -0.00000000000E+00 -0.74505805969E-08  0.93827000000E+00  0.93827000000E+00 0.  1.
     999902    2    1    2    0    0 -0.16588925510E-02  0.18817735238E-01 -0.12244080060E-01  0.10214183013E+01  0.10211701962E+01 0.  0.
     999903    2    3    3    0    0  0.11745364603E-01  0.42644132510E-02 -0.13109811513E+00  0.13320787858E+00  0.20037073480E-01 0.  0.
         14    1    1    2    0    0  0.16588925510E-02 -0.18817735238E-01  0.12244080060E-01  0.22511698748E-01  0.00000000000E+00 0.  1.
     999901    1    3    3    0    0 -0.13404257154E-01  0.14553321987E-01  0.11885403507E+00  0.88821042267E+00  0.88000000000E+00 0. -1.
        -11    1    4    4    0    0  0.65565636363E-02  0.12184269152E-01 -0.67354922247E-01  0.68763301356E-01  0.51100000000E-03 0.  1.
         11    1    4    4    0    0  0.51888009667E-02 -0.79198559006E-02 -0.63743192888E-01  0.64444577224E-01  0.51100000000E-03 0. -1.
</event>
<event>
 8    1  0.1137518E+005  0.1043930E+01  0.7957747E-01            NaN
         13   -1    0    0    0    0  0.00000000000E+00  0.00000000000E+00  0.74505805969E-08  0.10566000000E+00  0.10566000000E+00 0.  1.
     999900   -1    0    0    0    0 -0.00000000000E+00 -0.00000000000E+00 -0.74505805969E-08  0.93827000000E+00  0.93827000000E+00 0. -1.
     999902    2    1    2    0    0 -0.10468746865E-01 -0.11334680943E-01 -0.18609533358E-01  0.10197559564E+01  0.10194693846E+01 0.  0.
     999903    2    3    3    0    0  0.31447820703E-01  0.57782607677E-01 -0.11180192836E+00  0.13115085809E+00  0.19315310395E-01 0.  0.
         14    1    1    2    0    0  0.10468746865E-01  0.11334680943E-01  0.18609533358E-01  0.24174043617E-01  0.00000000000E+00 0.  1.
     999901    1    3    3    0    0 -0.41916567568E-01 -0.69117288619E-01  0.93192395004E-01  0.88860509829E+00  0.88000000000E+00 0.  1.
        -11    1    4    4    0    0  0.40970647083E-02  0.13995010099E-01 -0.41031571993E-01  0.43548791810E-01  0.51100000000E-03 0. -1.
         11    1    4    4    0    0  0.27350755994E-01  0.43787597578E-01 -0.70770356369E-01  0.87602066281E-01  0.51100000000E-03 0.  1.
</event>
<event>
 8    1  0.1137518E+005  0.1043930E+01  0.7957747E-01            NaN
         13   -1    0    0    0    0  0.00000000000E+00  0.00000000000E+00  0.74505805969E-08  0.10566000000E+00  0.10566000000E+00 0.  1.
     999900   -1    0    0    0    0 -0.00000000000E+00 -0.00000000000E+00 -0.74505805969E-08  0.93827000000E+00  0.93827000000E+00 0. -1.
     999902    2    1    2    0    0 -0.20109498383E-01  0.12455578287E-01  0.11327497474E-01  0.10177031902E+01  0.10173651939E+01 0.  0.
     999903    2    3    3    0    0  0.12987302788E-01 -0.65493448078E-01 -0.10501060978E+00  0.12601602295E+00  0.19868268654E-01 0.  0.
         14    1    1    2    0    0  0.20109498383E-01 -0.12455578287E-01 -0.11327497474E-01  0.26226809846E-01  0.00000000000E+00 0. -1.
     999901    1    3    3    0    0 -0.33096801170E-01  0.77949026365E-01  0.11633810725E+00  0.89168716720E+00  0.88000000000E+00 0.  1.
        -11    1    4    4    0    0  0.13760100230E-01 -0.58361685440E-01 -0.79915983024E-01  0.99911221339E-01  0.51100000000E-03 0. -1.
         11    1    4    4    0    0 -0.77279744294E-03 -0.71317626372E-02 -0.25094626753E-01  0.26104801610E-01  0.51100000000E-03 0.  1.
</event>
<event>
 8    1  0.1137518E+005  0.1043930E+01  0.7957747E-01            NaN
         13   -1    0    0    0    0  0.00000000000E+00  0.00000000000E+00  0.74505805969E-08  0.10566000000E+00  0.10566000000E+00 0. -1.
     999900   -1    0    0    0    0 -0.00000000000E+00 -0.00000000000E+00 -0.74505805969E-08  0.93827000000E+00  0.93827000000E+00 0. -1.
     999902    2    1    2    0    0 -0.22135765073E-01 -0.21788762778E-02  0.95937467148E-02  0.10197064665E+01  0.10194187061E+01 0.  0.
     999903    2    3    3    0    0 -0.83975617173E-01  0.94191407350E-01  0.33170161029E-01  0.13197494959E+00  0.19829327745E-01 0.  0.
         14    1    1    2    0    0  0.22135765073E-01  0.21788762778E-02 -0.95937467148E-02  0.24223533458E-01  0.00000000000E+00 0.  1.
     999901    1    3    3    0    0  0.61839852100E-01 -0.96370283628E-01 -0.23576414314E-01  0.88773151695E+00  0.88000000000E+00 0.  1.
        -11    1    4    4    0    0 -0.38845949220E-01  0.45991663526E-01  0.57545213329E-02  0.60478231798E-01  0.51100000000E-03 0. -1.
         11    1    4    4    0    0 -0.45129667953E-01  0.48199743825E-01  0.27415639696E-01  0.71496717793E-01  0.51100000000E-03 0.  1.
</event>
<event>
 8    1  0.1137518E+005  0.1043930E+01  0.7957747E-01            NaN
         13   -1    0    0    0    0  0.00000000000E+00  0.00000000000E+00  0.74505805969E-08  0.10566000000E+00  0.10566000000E+00 0. -1.
     999900   -1    0    0    0    0 -0.00000000000E+00 -0.00000000000E+00 -0.74505805969E-08  0.93827000000E+00  0.93827000000E+00 0.  1.
     999902    2    1    2    0    0  0.80820045602E-02  0.57195312618E-02  0.21534269543E-01  0.10202285950E+01  0.10199532486E+01 0.  0.
     999903    2    3    3    0    0 -0.86524018318E-01 -0.52140619564E-01  0.81577378478E-01  0.13123856603E+00  0.19069414804E-01 0.  0.
         14    1    1    2    0    0 -0.80820045602E-02 -0.57195312618E-02 -0.21534269543E-01  0.23701405029E-01  0.00000000000E+00 0.  1.
     999901    1    3    3    0    0  0.94606022879E-01  0.57860150826E-01 -0.60043108935E-01  0.88899002894E+00  0.88000000000E+00 0.  1.
        -11    1    4    4    0    0 -0.28811799414E-01 -0.24485470995E-01  0.39292661599E-01  0.54532856627E-01  0.51100000000E-03 0.  1.
         11    1    4    4    0    0 -0.57712218904E-01 -0.27655148569E-01  0.42284716879E-01  0.76705709408E-01  0.51100000000E-03 0. -1.
</event>
<event>
 8    1  0.1137518E+005  0.1043930E+01  0.7957747E-01            NaN
         13   -1    0    0    0    0  0.00000000000E+00  0.00000000000E+00  0.74505805969E-08  0.10566000000E+00  0.10566000000E+00 0.  1.
     999900   -1    0    0    0    0 -0.00000000000E+00 -0.00000000000E+00 -0.74505805969E-08  0.93827000000E+00  0.93827000000E+00 0. -1.
     999902    2    1    2    0    0 -0.17765139790E-02 -0.10673645367E-03  0.24415450457E-01  0.10194497709E+01  0.10191558045E+01 0.  0.
     999903    2    3    3    0    0  0.11686577872E+00 -0.47023166005E-01 -0.18998977591E-01  0.12919028204E+00  0.21456454679E-01 0.  0.
         14    1    1    2    0    0  0.17765139790E-02  0.10673645367E-03 -0.24415450457E-01  0.24480229076E-01  0.00000000000E+00 0. -1.
     999901    1    3    3    0    0 -0.11864229270E+00  0.46916429551E-01  0.43414428047E-01  0.89025948888E+00  0.88000000000E+00 0. -1.
        -11    1    4    4    0    0  0.76970093915E-01 -0.21591125621E-01 -0.17585895692E-01  0.81854119696E-01  0.51100000000E-03 0. -1.
         11    1    4    4    0    0  0.39895684808E-01 -0.25432040383E-01 -0.14130818983E-02  0.47336162348E-01  0.51100000000E-03 0.  1.
</event>
<event>
 8    1  0.1137518E+005  0.1043930E+01  0.7957747E-01            NaN
         13   -1    0    0    0    0  0.00000000000E+00  0.00000000000E+00  0.74505805969E-08  0.10566000000E+00  0.10566000000E+00 0. -1.
     999900   -1    0    0    0    0 -0.00000000000E+00 -0.00000000000E+00 -0.74505805969E-08  0.93827000000E+00  0.93827000000E+00 0.  1.
     999902    2    1    2    0    0  0.75288979962E-02 -0.19321706478E-01 -0.14185707314E-01  0.10188053719E+01  0.10184955272E+01 0.  0.
     999903    2    3    3    0    0  0.18481860541E-01  0.11364839530E+00  0.49741988623E-01  0.12645579595E+00  0.16101738178E-01 0.  0.
         14    1    1    2    0    0 -0.75288979962E-02  0.19321706478E-01  0.14185707314E-01  0.25124628122E-01  0.00000000000E+00 0. -1.
     999901    1    3    3    0    0 -0.10952962545E-01 -0.13297010178E+00 -0.63927695937E-01  0.89234957593E+00  0.88000000000E+00 0.  1.
        -11    1    4    4    0    0  0.65943571463E-02  0.71557177969E-01  0.37375286842E-01  0.81000546002E-01  0.51100000000E-03 0. -1.
         11    1    4    4    0    0  0.11887503395E-01  0.42091217334E-01  0.12366701781E-01  0.45455249945E-01  0.51100000000E-03 0.  1.
</event>
<event>
 8    1  0.1137518E+005  0.1043930E+01  0.7957747E-01            NaN
         13   -1    0    0    0    0  0.00000000000E+00  0.00000000000E+00  0.74505805969E-08  0.10566000000E+00  0.10566000000E+00 0. -1.
     999900   -1    0    0    0    0 -0.00000000000E+00 -0.00000000000E+00 -0.74505805969E-08  0.93827000000E+00  0.93827000000E+00 0. -1.
     999902    2    1    2    0    0  0.12738823706E-01 -0.72517417264E-02  0.18732665294E-01  0.10201439088E+01  0.10198665680E+01 0.  0.
     999903    2    3    3    0    0 -0.12488156886E+00 -0.10223965469E-01 -0.20539520952E-01  0.12857758415E+00  0.20258023435E-01 0.  0.
         14    1    1    2    0    0 -0.12738823706E-01  0.72517417264E-02 -0.18732665294E-01  0.23786091240E-01  0.00000000000E+00 0.  1.
     999901    1    3    3    0    0  0.13762039257E+00  0.29722237425E-02  0.39272186246E-01  0.89156632461E+00  0.88000000000E+00 0.  1.
        -11    1    4    4    0    0 -0.26146076879E-01  0.51544442488E-02 -0.82250802255E-02  0.27894420542E-01  0.51100000000E-03 0.  1.
         11    1    4    4    0    0 -0.98735491984E-01 -0.15378409718E-01 -0.12314440726E-01  0.10068316361E+00  0.51100000000E-03 0. -1.
</event>
<event>
 8    1  0.1137518E+005  0.1043930E+01  0.7957747E-01            NaN
         13   -1    0    0    0    0  0.00000000000E+00  0.00000000000E+00  0.74505805969E-08  0.10566000000E+00  0.10566000000E+00 0.  1.
     999900   -1    0    0    0    0 -0.00000000000E+00 -0.00000000000E+00 -0.74505805969E-08  0.93827000000E+00  0.93827000000E+00 0. -1.
     999902    2    1    2    0    0 -0.13628858801E-01 -0.18905763100E-01  0.63016333490E-02  0.10197870040E+01  0.10195011767E+01 0.  0.
     999903    2    3    3    0    0 -0.38215133854E-01 -0.68832844973E-01 -0.10309339167E+00  0.13126887259E+00  0.20122437834E-01 0.  0.
         14    1    1    2    0    0  0.13628858801E-01  0.18905763100E-01 -0.63016333490E-02  0.24142995951E-01  0.00000000000E+00 0. -1.
     999901    1    3    3    0    0  0.24586275053E-01  0.49927081873E-01  0.10939502502E+00  0.88851813145E+00  0.88000000000E+00 0.  1.
        -11    1    4    4    0    0 -0.33486375277E-01 -0.68411223654E-01 -0.99422992710E-01  0.12524625923E+00  0.51100000000E-03 0.  1.
         11    1    4    4    0    0 -0.47287585774E-02 -0.42162131819E-03 -0.36703989568E-02  0.60226133631E-02  0.51100000000E-03 0. -1.
</event>
<event>
 8    1  0.1137518E+005  0.1043930E+01  0.7957747E-01            NaN
         13   -1    0    0    0    0  0.00000000000E+00  0.00000000000E+00  0.74505805969E-08  0.10566000000E+00  0.10566000000E+00 0. -1.
     999900   -1    0    0    0    0 -0.00000000000E+00 -0.00000000000E+00 -0.74505805969E-08  0.93827000000E+00  0.93827000000E+00 0.  1.
     999902    2    1    2    0    0  0.11482574754E-01 -0.13579285199E-01 -0.15519827780E-01  0.10203267891E+01  0.10200537461E+01 0.  0.
     999903    2    3    3    0    0  0.12901214954E-01  0.12621366407E+00 -0.15293182170E-01  0.12929136189E+00  0.19648015044E-01 0.  0.
         14    1    1    2    0    0 -0.11482574754E-01  0.13579285199E-01  0.15519827780E-01  0.23603210879E-01  0.00000000000E+00 0. -1.
     999901    1    3    3    0    0 -0.14186401993E-02 -0.13979294927E+00 -0.22664560947E-03  0.89103542723E+00  0.88000000000E+00 0.  1.
        -11    1    4    4    0    0  0.86960256614E-02  0.64925088116E-01 -0.17543506735E-01  0.67815364622E-01  0.51100000000E-03 0.  1.
         11    1    4    4    0    0  0.42051892922E-02  0.61288575951E-01  0.22503245647E-02  0.61475997273E-01  0.51100000000E-03 0. -1.
</event>
<event>
 8    1  0.1137518E+005  0.1043930E+01  0.7957747E-01            NaN
         13   -1    0    0    0    0  0.00000000000E+00  0.00000000000E+00  0.74505805969E-08  0.10566000000E+00  0.10566000000E+00 0. -1.
     999900   -1    0    0    0    0 -0.00000000000E+00 -0.00000000000E+00 -0.74505805969E-08  0.93827000000E+00  0.93827000000E+00 0. -1.
     999902    2    1    2    0    0  0.20752290687E-01 -0.10056163737E-01 -0.55880319412E-02  0.10202021662E+01  0.10199261982E+01 0.  0.
     999903    2    3    3    0    0  0.51814120497E-01  0.11437070035E+00 -0.20593157403E-01  0.13077986176E+00  0.30231340173E-01 0.  0.
         14    1    1    2    0    0 -0.20752290687E-01  0.10056163737E-01  0.55880319412E-02  0.23727833842E-01  0.00000000000E+00 0. -1.
     999901    1    3    3    0    0 -0.31061829810E-01 -0.12442686408E+00  0.15005125462E-01  0.88942230440E+00  0.88000000000E+00 0. -1.
        -11    1    4    4    0    0  0.37752059886E-01  0.91645210381E-01 -0.28086314338E-01  0.10302021542E+00  0.51100000000E-03 0. -1.
         11    1    4    4    0    0  0.14062060610E-01  0.22725489965E-01  0.74931569351E-02  0.27759646335E-01  0.51100000000E-03 0.  1.
</event>
<event>
 8    1  0.1137518E+005  0.1043930E+01  0.7957747E-01            NaN
         13   -1    0    0    0    0  0.00000000000E+00  0.00000000000E+00  0.74505805969E-08  0.10566000000E+00  0.10566000000E+00 0. -1.
     999900   -1    0    0    0    0 -0.00000000000E+00 -0.00000000000E+00 -0.74505805969E-08  0.93827000000E+00  0.93827000000E+00 0. -1.
     999902    2    1    2    0    0 -0.20482359809E-01  0.11187030010E-01  0.60987731038E-02  0.10198079823E+01  0.10195226575E+01 0.  0.
     999903    2    3    3    0    0 -0.26333366266E-01  0.56389212839E-01  0.11459169416E+00  0.13197456014E+00  0.20318431304E-01 0.  0.
         14    1    1    2    0    0  0.20482359809E-01 -0.11187030010E-01 -0.60987731038E-02  0.24122017684E-01  0.00000000000E+00 0. -1.
     999901    1    3    3    0    0  0.58510064568E-02 -0.45202182830E-01 -0.10849292106E+00  0.88783342217E+00  0.88000000000E+00 0. -1.
        -11    1    4    4    0    0 -0.11274546658E-01  0.14405745891E-01  0.18436203804E-01  0.25976829074E-01  0.51100000000E-03 0.  1.
         11    1    4    4    0    0 -0.15058819608E-01  0.41983466948E-01  0.96155490356E-01  0.10599773107E+00  0.51100000000E-03 0. -1.
</event>
<event>
 8    1  0.1137518E+005  0.1043930E+01  0.7957747E-01            NaN
         13   -1    0    0    0    0  0.00000000000E+00  0.00000000000E+00  0.74505805969E-08  0.10566000000E+00  0.10566000000E+00 0. -1.
     999900   -1    0    0    0    0 -0.00000000000E+00 -0.00000000000E+00 -0.74505805969E-08  0.93827000000E+00  0.93827000000E+00 0. -1.
     999902    2    1    2    0    0  0.62485264925E-02 -0.16252071291E-01  0.15793892593E-01  0.10204221088E+01  0.10201512923E+01 0.  0.
     999903    2    3    3    0    0 -0.46386282328E-01 -0.77161243124E-01 -0.91975959255E-01  0.13020039976E+00  0.19672884580E-01 0.  0.
         14    1    1    2    0    0 -0.62485264925E-02  0.16252071291E-01 -0.15793892593E-01  0.23507891182E-01  0.00000000000E+00 0.  1.
     999901    1    3    3    0    0  0.52634808820E-01  0.60909171833E-01  0.10776985185E+00  0.89022170906E+00  0.88000000000E+00 0.  1.
        -11    1    4    4    0    0 -0.16060952991E-01 -0.11406735179E-01 -0.21204679714E-01  0.28947666247E-01  0.51100000000E-03 0.  1.
         11    1    4    4    0    0 -0.30325329337E-01 -0.65754507945E-01 -0.70771279542E-01  0.10125273351E+00  0.51100000000E-03 0. -1.
</event>
<event>
 8    1  0.1137518E+005  0.1043930E+01  0.7957747E-01            NaN
         13   -1    0    0    0    0  0.00000000000E+00  0.00000000000E+00  0.74505805969E-08  0.10566000000E+00  0.10566000000E+00 0.  1.
     999900   -1    0    0    0    0 -0.00000000000E+00 -0.00000000000E+00 -0.74505805969E-08  0.93827000000E+00  0.93827000000E+00 0.  1.
     999902    2    1    2    0    0  0.70252182221E-02  0.20503545052E-01  0.10887633753E-01  0.10196753176E+01  0.10193868077E+01 0.  0.
     999903    2    3    3    0    0 -0.23345286204E-01 -0.12238934111E+00  0.67595841585E-02  0.12762274892E+00  0.26790312763E-01 0.  0.
         14    1    1    2    0    0 -0.70252182221E-02 -0.20503545052E-01 -0.10887633753E-01  0.24254682424E-01  0.00000000000E+00 0. -1.
     999901    1    3    3    0    0  0.30370504426E-01  0.14289288616E+00  0.41280495942E-02  0.89205256866E+00  0.88000000000E+00 0. -1.
        -11    1    4    4    0    0 -0.10393252906E-01 -0.27213738912E-01  0.11805116855E-01  0.31436112935E-01  0.51100000000E-03 0. -1.
         11    1    4    4    0    0 -0.12952033298E-01 -0.95175602200E-01 -0.50455326960E-02  0.96186635983E-01  0.51100000000E-03 0.  1.
</event>
<event>
 8    1  0.1137518E+005  0.1043930E+01  0.7957747E-01            NaN
         13   -1    0    0    0    0  0.00000000000E+00  0.00000000000E+00  0.74505805969E-08  0.10566000000E+00  0.10566000000E+00 0.  1.
     999900   -1    0    0    0    0 -0.00000000000E+00 -0.00000000000E+00 -0.74505805969E-08  0.93827000000E+00  0.93827000000E+00 0.  1.
     999902    2    1    2    0    0 -0.53260931726E-02  0.20158254352E-01  0.82862361317E-02  0.10214937749E+01  0.10212473491E+01 0.  0.
     999903    2    3    3    0    0 -0.32881189282E-01  0.12867828806E+00 -0.98580042480E-02  0.13421417157E+00  0.16642991806E-01 0.  0.
         14    1    1    2    0    0  0.53260931726E-02 -0.20158254352E-01 -0.82862361317E-02  0.22436225089E-01  0.00000000000E+00 0. -1.
     999901    1    3    3    0    0  0.27555096110E-01 -0.10852003371E+00  0.18144240380E-01  0.88727960334E+00  0.88000000000E+00 0. -1.
        -11    1    4    4    0    0 -0.11980107014E-01  0.79283318227E-01 -0.45325495343E-02  0.80312966820E-01  0.51100000000E-03 0.  1.
         11    1    4    4    0    0 -0.20901082268E-01  0.49394969836E-01 -0.53254547137E-02  0.53901204754E-01  0.51100000000E-03 0. -1.
</event>
<event>
 8    1  0.1137518E+005  0.1043930E+01  0.7957747E-01            NaN
         13   -1    0    0    0    0  0.00000000000E+00  0.00000000000E+00  0.74505805969E-08  0.10566000000E+00  0.10566000000E+00 0.  1.
     999900   -1    0    0    0    0 -0.00000000000E+00 -0.00000000000E+00 -0.74505805969E-08  0.93827000000E+00  0.93827000000E+00 0.  1.
     999902    2    1    2    0    0  0.69775019013E-02  0.21505216316E-01  0.53521834115E-02  0.10206962803E+01  0.10204318159E+01 0.  0.
     999903    2    3    3    0    0  0.10731374395E+00  0.15647385736E-01  0.73436996054E-01  0.13236232436E+00  0.19123603185E-01 0.  0.
         14    1    1    2    0    0 -0.69775019013E-02 -0.21505216316E-01 -0.53521834115E-02  0.23233719652E-01  0.00000000000E+00 0.  1.
     999901    1    3    3    0    0 -0.10033624205E+00  0.58578305796E-02 -0.68084812642E-01  0.88833395599E+00  0.88000000000E+00 0.  1.
        -11    1    4    4    0    0  0.38318298623E-01  0.13618398360E-01  0.21686750723E-01  0.46090444358E-01  0.51100000000E-03 0. -1.
         11    1    4    4    0    0  0.68995445332E-01  0.20289873767E-02  0.51750245331E-01  0.86271880002E-01  0.51100000000E-03 0.  1.
</event>
<event>
 8    1  0.1137518E+005  0.1043930E+01  0.7957747E-01            NaN
         13   -1    0    0    0    0  0.00000000000E+00  0.00000000000E+00  0.74505805969E-08  0.10566000000E+00  0.10566000000E+00 0.  1.
     999900   -1    0    0    0    0 -0.00000000000E+00 -0.00000000000E+00 -0.74505805969E-08  0.93827000000E+00  0.93827000000E+00 0. -1.
     999902    2    1    2    0    0  0.25311047423E-01 -0.63949626248E-02 -0.39673017233E-03  0.10178205752E+01  0.10174856369E+01 0.  0.
     999903    2    3    3    0    0 -0.11297125141E+00 -0.51962169504E-01  0.10717371030E-01  0.12578812749E+00  0.15659510564E-01 0.  0.
         14    1    1    2    0    0 -0.25311047423E-01  0.63949626248E-02  0.39673017233E-03  0.26109424802E-01  0.00000000000E+00 0.  1.
     999901    1    3    3    0    0  0.13828229884E+00  0.45567206879E-01 -0.11114101203E-01  0.89203244771E+00  0.88000000000E+00 0. -1.
        -11    1    4    4    0    0 -0.55480668497E-01 -0.30179518080E-01 -0.11592578685E-02  0.63170506474E-01  0.51100000000E-03 0.  1.
         11    1    4    4    0    0 -0.57490582915E-01 -0.21782651424E-01  0.11876628899E-01  0.62617621018E-01  0.51100000000E-03 0. -1.
</event>
<event>
 8    1  0.1137518E+005  0.1043930E+01  0.7957747E-01            NaN
         13   -1    0    0    0    0  0.00000000000E+00  0.00000000000E+00  0.74505805969E-08  0.10566000000E+00  0.10566000000E+00 0.  1.
     999900   -1    0    0    0    0 -0.00000000000E+00 -0.00000000000E+00 -0.74505805969E-08  0.93827000000E+00  0.93827000000E+00 0. -1.
     999902    2    1    2    0    0  0.15813679496E-01  0.57379099722E-02 -0.17426783829E-01  0.10197083389E+01  0.10194206235E+01 0.  0.
     999903    2    3    3    0    0  0.10688120823E+00  0.35648394637E-01  0.62309853726E-01  0.13091935203E+00  0.23726739145E-01 0.  0.
         14    1    1    2    0    0 -0.15813679496E-01 -0.57379099722E-02  0.17426783829E-01  0.24221661064E-01  0.00000000000E+00 0.  1.
     999901    1    3    3    0    0 -0.91067528736E-01 -0.29910484665E-01 -0.79736637555E-01  0.88878898691E+00  0.88000000000E+00 0. -1.
        -11    1    4    4    0    0  0.63691716919E-01  0.91911218307E-02  0.31705268806E-01  0.71739784747E-01  0.51100000000E-03 0.  1.
         11    1    4    4    0    0  0.43189491314E-01  0.26457272806E-01  0.30604584919E-01  0.59179567279E-01  0.51100000000E-03 0. -1.
</event>
<event>
 8    1  0.1137518E+005  0.1043930E+01  0.7957747E-01            NaN
         13   -1    0    0    0    0  0.00000000000E+00  0.00000000000E+00  0.74505805969E-08  0.10566000000E+00  0.10566000000E+00 0.  1.
     999900   -1    0    0    0    0 -0.00000000000E+00 -0.00000000000E+00 -0.74505805969E-08  0.93827000000E+00  0.93827000000E+00 0. -1.
     999902    2    1    2    0    0  0.59453731620E-03 -0.18695937320E-01  0.14038759952E-01  0.10205424322E+01  0.10202744129E+01 0.  0.
     999903    2    3    3    0    0  0.12822527932E+00  0.27736340544E-02 -0.14708648730E-01  0.13061155718E+00  0.19839839147E-01 0.  0.
         14    1    1    2    0    0 -0.59453731620E-03  0.18695937320E-01 -0.14038759952E-01  0.23387567806E-01  0.00000000000E+00 0. -1.
     999901    1    3    3    0    0 -0.12763074201E+00 -0.21469571375E-01  0.28747408682E-01  0.88993087502E+00  0.88000000000E+00 0. -1.
        -11    1    4    4    0    0  0.90046409748E-01 -0.22416479230E-02 -0.21365573411E-02  0.90101092625E-01  0.51100000000E-03 0.  1.
         11    1    4    4    0    0  0.38178869576E-01  0.50152819774E-02 -0.12572091389E-01  0.40510464553E-01  0.51100000000E-03 0. -1.
</event>
<event>
 8    1  0.1137518E+005  0.1043930E+01  0.7957747E-01            NaN
         13   -1    0    0    0    0  0.00000000000E+00  0.00000000000E+00  0.74505805969E-08  0.10566000000E+00  0.10566000000E+00 0. -1.
     999900   -1    0    0    0    0 -0.00000000000E+00 -0.00000000000E+00 -0.74505805969E-08  0.93827000000E+00  0.93827000000E+00 0.  1.
     999902    2    1    2    0    0 -0.11702343980E-01 -0.23873508863E-01 -0.17745748428E-02  0.10172834543E+01  0.10169344070E+01 0.  0.
     999903    2    3    3    0    0  0.61768813039E-01 -0.32777187410E-01  0.10491168799E+00  0.12775591396E+00  0.20624766586E-01 0.  0.
         14    1    1    2    0    0  0.11702343980E-01  0.23873508863E-01  0.17745748428E-02  0.26646545666E-01  0.00000000000E+00 0.  1.
     999901    1    3    3    0    0 -0.73471157019E-01  0.89036785468E-02 -0.10668626283E+00  0.88952754037E+00  0.88000000000E+00 0.  1.
        -11    1    4    4    0    0  0.37112990529E-01 -0.20203891546E-01  0.44852534058E-01  0.61624526221E-01  0.51100000000E-03 0. -1.
         11    1    4    4    0    0  0.24655822510E-01 -0.12573295864E-01  0.60059153930E-01  0.66131387740E-01  0.51100000000E-03 0.  1.
</event>
<event>
 8    1  0.1137518E+005  0.1043930E+01  0.7957747E-01            NaN
         13   -1    0    0    0    0  0.00000000000E+00  0.00000000000E+00  0.74505805969E-08  0.10566000000E+00  0.10566000000E+00 0.  1.
     999900   -1    0    0    0    0 -0.00000000000E+00 -0.00000000000E+00 -0.74505805969E-08  0.93827000000E+00  0.93827000000E+00 0.  1.
     999902    2    1    2    0    0  0.10931546183E-01 -0.19329797459E-01 -0.90931073516E-02  0.10199336592E+01  0.10196513349E+01 0.  0.
     999903    2    3    3    0    0  0.58495250784E-01 -0.51017921676E-01 -0.10588542702E+00  0.13278361755E+00  0.19880712721E-01 0.  0.
         14    1    1    2    0    0 -0.10931546183E-01  0.19329797459E-01  0.90931073516E-02  0.23996340827E-01  0.00000000000E+00 0.  1.
     999901    1    3    3    0    0 -0.47563704601E-01  0.31688124217E-01  0.96792319664E-01  0.88715004163E+00  0.88000000000E+00 0. -1.
        -11    1    4    4    0    0  0.34537004332E-01 -0.34634880143E-01 -0.50824189338E-01  0.70538917865E-01  0.51100000000E-03 0. -1.
         11    1    4    4    0    0  0.23958246452E-01 -0.16383041533E-01 -0.55061237677E-01  0.62244699682E-01  0.51100000000E-03 0.  1.
</event>
<event>
 8    1  0.1137518E+005  0.1043930E+01  0.7957747E-01            NaN
         13   -1    0    0    0    0  0.00000000000E+00  0.00000000000E+00  0.74505805969E-08  0.10566000000E+00  0.10566000000E+00 0. -1.
     999900   -1    0    0    0    0 -0.00000000000E+00 -0.00000000000E+00 -0.74505805969E-08  0.93827000000E+00  0.93827000000E+00 0.  1.
     999902    2    1    2    0    0  0.55253863148E-02 -0.14859217068E-02 -0.23377723547E-01  0.10198622661E+01  0.10195782393E+01 0.  0.
     999903    2    3    3    0    0  0.38929259509E-01  0.84314236408E-02  0.11960369956E+00  0.12764151996E+00  0.20018404502E-01 0.  0.
         14    1    1    2    0    0 -0.55253863148E-02  0.14859217068E-02  0.23377723547E-01  0.24067733908E-01  0.00000000000E+00 0. -1.
     999901    1    3    3    0    0 -0.33403873194E-01 -0.99173453476E-02 -0.14298142310E+00  0.89222074614E+00  0.88000000000E+00 0.  1.
        -11    1    4    4    0    0  0.30439560314E-01  0.12279266849E-01  0.71988196809E-01  0.79119585611E-01  0.51100000000E-03 0.  1.
         11    1    4    4    0    0  0.84896991953E-02 -0.38478432086E-02  0.47615502746E-01  0.48521934345E-01  0.51100000000E-03 0. -1.
</event>
<event>
 8    1  0.1137518E+005  0.1043930E+01  0.7957747E-01            NaN
         13   -1    0    0    0    0  0.00000000000E+00  0.00000000000E+00  0.74505805969E-08  0.10566000000E+00  0.10566000000E+00 0.  1.
     999900   -1    0    0    0    0 -0.00000000000E+00 -0.00000000000E+00 -0.74505805969E-08  0.93827000000E+00  0.93827000000E+00 0. -1.
     999902    2    1    2    0    0  0.63981357911E-02  0.13924517596E-01 -0.18910717263E-01  0.10195898365E+01  0.10192992648E+01 0.  0.
     999903    2    3    3    0    0 -0.45914154311E-01  0.10768340657E+00  0.52214241038E-01  0.13021586305E+00  0.22935091137E-01 0.  0.
         14    1    1    2    0    0 -0.63981357911E-02 -0.13924517596E-01  0.18910717263E-01  0.24340163502E-01  0.00000000000E+00 0.  1.
     999901    1    3    3    0    0  0.52312290102E-01 -0.93758888975E-01 -0.71124958301E-01  0.88937397345E+00  0.88000000000E+00 0. -1.
        -11    1    4    4    0    0 -0.39965820152E-01  0.68044513594E-01  0.30310140540E-01  0.84535722338E-01  0.51100000000E-03 0. -1.
         11    1    4    4    0    0 -0.59483341590E-02  0.39638892977E-01  0.21904100498E-01  0.45680140710E-01  0.51100000000E-03 0.  1.
</event>
<event>
 8    1  0.1137518E+005  0.1043930E+01  0.7957747E-01            NaN
         13   -1    0    0    0    0  0.00000000000E+00  0.00000000000E+00  0.74505805969E-08  0.10566000000E+00  0.10566000000E+00 0. -1.
     999900   -1    0    0    0    0 -0.00000000000E+00 -0.00000000000E+00 -0.74505805969E-08  0.93827000000E+00  0.93827000000E+00 0. -1.
     999902    2    1    2    0    0 -0.14673918475E-01  0.27693418266E-02  0.14215737414E-01  0.10233125237E+01  0.10231048045E+01 0.  0.
     999903    2    3    3    0    0  0.12012196363E+00  0.49465612988E-01 -0.73662736727E-02  0.13156353731E+00  0.19456858644E-01 0.  0.
         14    1    1    2    0    0  0.14673918475E-01 -0.27693418266E-02 -0.14215737414E-01  0.20617476270E-01  0.00000000000E+00 0.  1.
     999901    1    3    3    0    0 -0.13479588210E+00 -0.46696271161E-01  0.21582011086E-01  0.89174898642E+00  0.88000000000E+00 0.  1.
        -11    1    4    4    0    0  0.28186443550E-01  0.15677424711E-01  0.56668807541E-02  0.32751059587E-01  0.51100000000E-03 0. -1.
         11    1    4    4    0    0  0.91935520078E-01  0.33788188276E-01 -0.13033154427E-01  0.98812477726E-01  0.51100000000E-03 0.  1.
</event>
<event>
 8    1  0.1137518E+005  0.1043930E+01  0.7957747E-01            NaN
         13   -1    0    0    0    0  0.00000000000E+00  0.00000000000E+00  0.74505805969E-08  0.10566000000E+00  0.10566000000E+00 0.  1.
     999900   -1    0    0    0    0 -0.00000000000E+00 -0.00000000000E+00 -0.74505805969E-08  0.93827000000E+00  0.93827000000E+00 0.  1.
     999902    2    1    2    0    0 -0.16617730927E-01  0.11219995880E-01  0.12202963595E-01  0.10204576842E+01  0.10201876963E+01 0.  0.
     999903    2    3    3    0    0  0.25043013322E-01 -0.31952927476E-01 -0.12029684443E+00  0.12851838242E+00  0.19937445955E-01 0.  0.
         14    1    1    2    0    0  0.16617730927E-01 -0.11219995880E-01 -0.12202963595E-01  0.23472315804E-01  0.00000000000E+00 0. -1.
     999901    1    3    3    0    0 -0.41660744249E-01  0.43172923356E-01  0.13249980802E+00  0.89193930177E+00  0.88000000000E+00 0. -1.
        -11    1    4    4    0    0  0.26556954507E-01 -0.27739242808E-01 -0.11636072746E+00  0.12253496416E+00  0.51100000000E-03 0.  1.
         11    1    4    4    0    0 -0.15139411855E-02 -0.42136846684E-02 -0.39361169631E-02  0.59834182659E-02  0.51100000000E-03 0. -1.
</event>
<event>
 8    1  0.1137518E+005  0.1043930E+01  0.7957747E-01            NaN
         13   -1    0    0    0    0  0.00000000000E+00  0.00000000000E+00  0.74505805969E-08  0.10566000000E+00  0.10566000000E+00 0. -1.
     999900   -1    0    0    0    0 -0.00000000000E+00 -0.00000000000E+00 -0.74505805969E-08  0.93827000000E+00  0.93827000000E+00 0.  1.
     999902    2    1    2    0    0  0.80875960924E-02 -0.13896236413E-01  0.15659638592E-01  0.10214858721E+01  0.10212392707E+01 0.  0.
     999903    2    3    3    0    0 -0.55925615195E-01  0.11320436079E+00 -0.19394713954E-01  0.12936420961E+00  0.20397109166E-01 0.  0.
         14    1    1    2    0    0 -0.80875960924E-02  0.13896236413E-01 -0.15659638592E-01  0.22444127914E-01  0.00000000000E+00 0.  1.
     999901    1    3    3    0    0  0.64013211288E-01 -0.12710059720E+00  0.35054352546E-01  0.89212166248E+00  0.88000000000E+00 0.  1.
        -11    1    4    4    0    0 -0.37189329678E-01  0.58578205396E-01 -0.17593560443E-01  0.71583845101E-01  0.51100000000E-03 0.  1.
         11    1    4    4    0    0 -0.18736285517E-01  0.54626155391E-01 -0.18011535102E-02  0.57780364508E-01  0.51100000000E-03 0. -1.
</event>
<event>
 8    1  0.1137518E+005  0.1043930E+01  0.7957747E-01            NaN
         13   -1    0    0    0    0  0.00000000000E+00  0.00000000000E+00  0.74505805969E-08  0.10566000000E+00  0.10566000000E+00 0. -1.
     999900   -1    0    0    0    0 -0.00000000000E+00 -0.00000000000E+00 -0.74505805969E-08  0.93827000000E+00  0.93827000000E+00 0. -1.
     999902    2    1    2    0    0 -0.10815599375E-01 -0.68458715546E-02 -0.19679161370E-01  0.10204542138E+01  0.10201841451E+01 0.  0.
     999903    2    3    3    0    0  0.56230523735E-01  0.91231762366E-01 -0.73111396218E-01  0.13086475305E+00  0.17181416383E-01 0.  0.
         14    1    1    2    0    0  0.10815599375E-01  0.68458715546E-02  0.19679161370E-01  0.23475786236E-01  0.00000000000E+00 0.  1.
     999901    1    3    3    0    0 -0.67046123110E-01 -0.98077633920E-01  0.53432234848E-01  0.88958946072E+00  0.88000000000E+00 0.  1.
        -11    1    4    4    0    0  0.10172975047E-01  0.24886185333E-01 -0.11337613311E-01  0.29182430302E-01  0.51100000000E-03 0.  1.
         11    1    4    4    0    0  0.46057548687E-01  0.66345577032E-01 -0.61773782907E-01  0.10168232274E+00  0.51100000000E-03 0. -1.
</event>
<event>
 8    1  0.1137518E+005  0.1043930E+01  0.7957747E-01            NaN
         13   -1    0    0    0    0  0.00000000000E+00  0.00000000000E+00  0.74505805969E-08  0.10566000000E+00  0.10566000000E+00 0.  1.
     999900   -1    0    0    0    0 -0.00000000000E+00 -0.00000000000E+00 -0.74505805969E-08  0.93827000000E+00  0.93827000000E+00 0.  1.
     999902    2    1    2    0    0 -0.19399713332E-01  0.14070696785E-01  0.10544480412E-02  0.10199415602E+01  0.10196594240E+01 0.  0.
     999903    2    3    3    0    0  0.77656999354E-01 -0.58505257498E-01 -0.80433030745E-01  0.12790597577E+00  0.20904341635E-01 0.  0.
         14    1    1    2    0    0  0.19399713332E-01 -0.14070696785E-01 -0.10544480412E-02  0.23988439842E-01  0.00000000000E+00 0.  1.
     999901    1    3    3    0    0 -0.97056712686E-01  0.72575954283E-01  0.81487478786E-01  0.89203558439E+00  0.88000000000E+00 0. -1.
        -11    1    4    4    0    0  0.62633399974E-01 -0.56153597896E-01 -0.65840220987E-01  0.10682399155E+00  0.51100000000E-03 0.  1.
         11    1    4    4    0    0  0.15023599380E-01 -0.23516596017E-02 -0.14592809757E-01  0.21081984224E-01  0.51100000000E-03 0. -1.
</event>
<event>
 8    1  0.1137518E+005  0.1043930E+01  0.7957747E-01            NaN
         13   -1    0    0    0    0  0.00000000000E+00  0.00000000000E+00  0.74505805969E-08  0.10566000000E+00  0.10566000000E+00 0.  1.
     999900   -1    0    0    0    0 -0.00000000000E+00 -0.00000000000E+00 -0.74505805969E-08  0.93827000000E+00  0.93827000000E+00 0.  1.
     999902    2    1    2    0    0  0.23610663359E-01 -0.22230038332E-02  0.38957269777E-02  0.10198970672E+01  0.10196138709E+01 0.  0.
     999903    2    3    3    0    0 -0.56413151720E-01 -0.75185965675E-01  0.86611632338E-01  0.12940881586E+00  0.20240890390E-01 0.  0.
         14    1    1    2    0    0 -0.23610663359E-01  0.22230038332E-02 -0.38957269777E-02  0.24032932800E-01  0.00000000000E+00 0.  1.
     999901    1    3    3    0    0  0.80023815079E-01  0.72962961842E-01 -0.82715905360E-01  0.89048825134E+00  0.88000000000E+00 0.  1.
        -11    1    4    4    0    0 -0.35752524268E-01 -0.48212368688E-01  0.67859660795E-01  0.90597296705E-01  0.51100000000E-03 0. -1.
         11    1    4    4    0    0 -0.20660627453E-01 -0.26973596987E-01  0.18751971543E-01  0.38811519152E-01  0.51100000000E-03 0.  1.
</event>
<event>
 8    1  0.1137518E+005  0.1043930E+01  0.7957747E-01            NaN
         13   -1    0    0    0    0  0.00000000000E+00  0.00000000000E+00  0.74505805969E-08  0.10566000000E+00  0.10566000000E+00 0. -1.
     999900   -1    0    0    0    0 -0.00000000000E+00 -0.00000000000E+00 -0.74505805969E-08  0.93827000000E+00  0.93827000000E+00 0.  1.
     999902    2    1    2    0    0 -0.18520506764E-01  0.45995529508E-02 -0.13471846489E-01  0.10205707255E+01  0.10203033618E+01 0.  0.
     999903    2    3    3    0    0  0.11015072623E+00 -0.14794327905E-02  0.62055291513E-01  0.12799154757E+00  0.19889842470E-01 0.  0.
         14    1    1    2    0    0  0.18520506764E-01 -0.45995529508E-02  0.13471846489E-01  0.23359274517E-01  0.00000000000E+00 0. -1.
     999901    1    3    3    0    0 -0.12867123300E+00  0.60789857413E-02 -0.75527138002E-01  0.89257917791E+00  0.88000000000E+00 0.  1.
        -11    1    4    4    0    0  0.90576482339E-01 -0.86990048963E-02  0.52309463108E-01  0.10495862466E+00  0.51100000000E-03 0. -1.
         11    1    4    4    0    0  0.19574243895E-01  0.72195721058E-02  0.97458284049E-02  0.23032922909E-01  0.51100000000E-03 0.  1.
</event>
<event>
 8    1  0.1137518E+005  0.1043930E+01  0.7957747E-01            NaN
         13   -1    0    0    0    0  0.00000000000E+00  0.00000000000E+00  0.74505805969E-08  0.10566000000E+00  0.10566000000E+00 0. -1.
     999900   -1    0    0    0    0 -0.00000000000E+00 -0.00000000000E+00 -0.74505805969E-08  0.93827000000E+00  0.93827000000E+00 0. -1.
     999902    2    1    2    0    0 -0.10464045254E-01 -0.17388221940E-01  0.10074493601E-01  0.10212729497E+01  0.10210215943E+01 0.  0.
     999903    2    3    3    0    0 -0.20758943776E-01  0.85157382077E-01  0.95481615064E-01  0.13115163091E+00  0.20032423853E-01 0.  0.
         14    1    1    2    0    0  0.10464045254E-01  0.17388221940E-01 -0.10074493601E-01  0.22657050264E-01  0.00000000000E+00 0.  1.
     999901    1    3    3    0    0  0.10294898522E-01 -0.10254560402E+00 -0.85407121463E-01  0.89012131883E+00  0.88000000000E+00 0. -1.
        -11    1    4    4    0    0 -0.24062328198E-01  0.81083740302E-01  0.88684096277E-01  0.12255080021E+00  0.51100000000E-03 0. -1.
         11    1    4    4    0    0  0.33033844213E-02  0.40736417743E-02  0.67975187870E-02  0.86008306925E-02  0.51100000000E-03 0.  1.
</event>
<event>
 8    1  0.1137518E+005  0.1043930E+01  0.7957747E-01            NaN
         13   -1    0    0    0    0  0.00000000000E+00  0.00000000000E+00  0.74505805969E-08  0.10566000000E+00  0.10566000000E+00 0.  1.
     999900   -1    0    0    0    0 -0.00000000000E+00 -0.00000000000E+00 -0.74505805969E-08  0.93827000000E+00  0.93827000000E+00 0.  1.
     999902    2    1    2    0    0 -0.19507357099E-01 -0.60132263275E-02 -0.13048529607E-01  0.10197027427E+01  0.10194148927E+01 0.  0.
     999903    2    3    3    0    0 -0.33145936381E-01  0.46755064173E-01 -0.11682426736E+00  0.13193030165E+00  0.21748699390E-01 0.  0.
         14    1    1    2    0    0  0.19507357099E-01  0.60132263275E-02  0.13048529607E-01  0.24227257310E-01  0.00000000000E+00 0.  1.
     999901    1    3    3    0    0  0.13638579282E-01 -0.52768290500E-01  0.10377573775E+00  0.88777244104E+00  0.88000000000E+00 0. -1.
        -11    1    4    4    0    0 -0.20248037748E-01  0.33494864056E-01 -0.98024650289E-01  0.10555085095E+00  0.51100000000E-03 0. -1.
         11    1    4    4    0    0 -0.12897898634E-01  0.13260200117E-01 -0.18799617068E-01  0.26379450699E-01  0.51100000000E-03 0.  1.
</event>
<event>
 8    1  0.1137518E+005  0.1043930E+01  0.7957747E-01            NaN
         13   -1    0    0    0    0  0.00000000000E+00  0.00000000000E+00  0.74505805969E-08  0.10566000000E+00  0.10566000000E+00 0. -1.
     999900   -1    0    0    0    0 -0.00000000000E+00 -0.00000000000E+00 -0.74505805969E-08  0.93827000000E+00  0.93827000000E+00 0. -1.
     999902    2    1    2    0    0 -0.32016906009E-02 -0.14177753307E-01 -0.18774421585E-01  0.10201868238E+01  0.10199104946E+01 0.  0.
     999903    2    3    3    0    0 -0.66749733159E-01 -0.18074171517E-01 -0.11162161357E+00  0.13301483546E+00  0.21245217920E-01 0.  0.
         14    1    1    2    0    0  0.32016906009E-02  0.14177753307E-01  0.18774421585E-01  0.23743176228E-01  0.00000000000E+00 0. -1.
     999901    1    3    3    0    0  0.63548042558E-01  0.38964182104E-02  0.92847191980E-01  0.88717198831E+00  0.88000000000E+00 0.  1.
        -11    1    4    4    0    0 -0.38379332683E-01 -0.13876434147E-01 -0.46593155100E-01  0.61941196510E-01  0.51100000000E-03 0. -1.
         11    1    4    4    0    0 -0.28370400476E-01 -0.41977373702E-02 -0.65028458466E-01  0.71073638950E-01  0.51100000000E-03 0.  1.
</event>
<event>
 8    1  0.1137518E+005  0.1043930E+01  0.7957747E-01            NaN
         13   -1    0    0    0    0  0.00000000000E+00  0.00000000000E+00  0.74505805969E-08  0.10566000000E+00  0.10566000000E+00 0.  1.
     999900   -1    0    0    0    0 -0.00000000000E+00 -0.00000000000E+00 -0.74505805969E-08  0.93827000000E+00  0.93827000000E+00 0. -1.
     999902    2    1    2    0    0 -0.21457221957E-01  0.27870239405E-02 -0.72389635553E-02  0.10211137236E+01  0.10208587826E+01 0.  0.
     999903    2    3    3    0    0  0.69750063394E-01  0.10176586143E+00 -0.37901489205E-01  0.13035238087E+00  0.18271793003E-01 0.  0.
         14    1    1    2    0    0  0.21457221957E-01 -0.27870239405E-02  0.72389635553E-02  0.22816276425E-01  0.00000000000E+00 0.  1.
     999901    1    3    3    0    0 -0.91207285351E-01 -0.98978837489E-01  0.30662525649E-01  0.89076134270E+00  0.88000000000E+00 0.  1.
        -11    1    4    4    0    0  0.45689103957E-01  0.76617625314E-01 -0.33394594561E-01  0.95253424064E-01  0.51100000000E-03 0.  1.
         11    1    4    4    0    0  0.24060959437E-01  0.25148236116E-01 -0.45068946439E-02  0.35098956810E-01  0.51100000000E-03 0. -1.
</event>
<event>
 8    1  0.1137518E+005  0.1043930E+01  0.7957747E-01            NaN
         13   -1    0    0    0    0  0.00000000000E+00  0.00000000000E+00  0.74505805969E-08  0.10566000000E+00  0.10566000000E+00 0.  1.
     999900   -1    0    0    0    0 -0.00000000000E+00 -0.00000000000E+00 -0.74505805969E-08  0.93827000000E+00  0.93827000000E+00 0. -1.
     999902    2    1    2    0    0  0.80358562596E-02 -0.19666205198E-01  0.10199331226E-01  0.10203639021E+01  0.10200917271E+01 0.  0.
     999903    2    3    3    0    0 -0.59720080041E-01 -0.82929849226E-01 -0.79215600234E-01  0.13098873631E+00  0.20954471281E-01 0.  0.
         14    1    1    2    0    0 -0.80358562596E-02  0.19666205198E-01 -0.10199331226E-01  0.23566097899E-01  0.00000000000E+00 0.  1.
     999901    1    3    3    0    0  0.67755936300E-01  0.63263644028E-01  0.89414931460E-01  0.88937516579E+00  0.88000000000E+00 0.  1.
        -11    1    4    4    0    0 -0.32921797790E-01 -0.49461322186E-01 -0.33087055629E-01  0.68009422386E-01  0.51100000000E-03 0.  1.
         11    1    4    4    0    0 -0.26798282250E-01 -0.33468527040E-01 -0.46128544605E-01  0.62979313923E-01  0.51100000000E-03 0. -1.
</event>
<event>
 8    1  0.1137518E+005  0.1043930E+01  0.7957747E-01            NaN
         13   -1    0    0    0    0  0.00000000000E+00  0.00000000000E+00  0.74505805969E-08  0.10566000000E+00  0.10566000000E+00 0. -1.
     999900   -1    0    0    0    0 -0.00000000000E+00 -0.00000000000E+00 -0.74505805969E-08  0.93827000000E+00  0.93827000000E+00 0.  1.
     999902    2    1    2    0    0 -0.12754263800E-01 -0.16911880208E-01  0.93113140731E-02  0.10207916442E+01  0.10205293712E+01 0.  0.
     999903    2    3    3    0    0  0.59459275385E-01  0.68073266415E-01 -0.88870829270E-01  0.12833604106E+00  0.20068385828E-01 0.  0.
         14    1    1    2    0    0  0.12754263800E-01  0.16911880208E-01 -0.93113140731E-02  0.23138355754E-01  0.00000000000E+00 0.  1.
     999901    1    3    3    0    0 -0.72213539186E-01 -0.84985146623E-01  0.98182143343E-01  0.89245560319E+00  0.88000000000E+00 0.  1.
        -11    1    4    4    0    0  0.43524275169E-01  0.60616913682E-01 -0.67249732027E-01  0.10045675852E+00  0.51100000000E-03 0.  1.
         11    1    4    4    0    0  0.15935000216E-01  0.74563527329E-02 -0.21621097243E-01  0.27879282540E-01  0.51100000000E-03 0. -1.
</event>
<event>
 8    1  0.1137518E+005  0.1043930E+01  0.7957747E-01            NaN
         13   -1    0    0    0    0  0.00000000000E+00  0.00000000000E+00  0.74505805969E-08  0.10566000000E+00  0.10566000000E+00 0. -1.
     999900   -1    0    0    0    0 -0.00000000000E+00 -0.00000000000E+00 -0.74505805969E-08  0.93827000000E+00  0.93827000000E+00 0. -1.
     999902    2    1    2    0    0 -0.15022854444E-01  0.18019057800E-01  0.45758062022E-02  0.10200278954E+01  0.10197478104E+01 0.  0.
     999903    2    3    3    0    0  0.51387367392E-01 -0.52408681282E-02 -0.11642725344E+00  0.12896500083E+00  0.20212319765E-01 0.  0.
         14    1    1    2    0    0  0.15022854444E-01 -0.18019057800E-01 -0.45758062022E-02  0.23902104553E-01  0.00000000000E+00 0. -1.
     999901    1    3    3    0    0 -0.66410221836E-01  0.23259925928E-01  0.12100305964E+00  0.89106289462E+00  0.88000000000E+00 0.  1.
        -11    1    4    4    0    0  0.13784157004E-01 -0.53019557574E-02 -0.54907260108E-01  0.56861076781E-01  0.51100000000E-03 0. -1.
         11    1    4    4    0    0  0.37603210388E-01  0.61087629163E-04 -0.61519993330E-01  0.72103924051E-01  0.51100000000E-03 0.  1.
</event>
<event>
 8    1  0.1326371E+005  0.1043930E+01  0.7957747E-01            NaN
         13   -1    0    0    0    0  0.00000000000E+00  0.00000000000E+00  0.74505805969E-08  0.10566000000E+00  0.10566000000E+00 0. -1.
     999900   -1    0    0    0    0 -0.00000000000E+00 -0.00000000000E+00 -0.74505805969E-08  0.93827000000E+00  0.93827000000E+00 0.  1.
     999902    2    1    2    0    0  0.29244246611E-02 -0.23135170352E-01  0.36594481646E-02  0.10203253410E+01  0.10200522641E+01 0.  0.
     999903    2    3    3    0    0  0.12774321842E+00  0.36586711852E-02 -0.19732749097E-01  0.13080589986E+00  0.19725271227E-01 0.  0.
         14    1    1    2    0    0 -0.29244246611E-02  0.23135170352E-01 -0.36594481646E-02  0.23604659025E-01  0.00000000000E+00 0.  1.
     999901    1    3    3    0    0 -0.12481879376E+00 -0.26793841537E-01  0.23392197262E-01  0.88951944111E+00  0.88000000000E+00 0.  1.
        -11    1    4    4    0    0  0.77035997493E-01 -0.74460584250E-02 -0.12034834854E-01  0.78326796607E-01  0.51100000000E-03 0. -1.
         11    1    4    4    0    0  0.50707220929E-01  0.11104729610E-01 -0.76979142432E-02  0.52479103258E-01  0.51100000000E-03 0.  1.
</event>
<event>
 8    1  0.1137518E+005  0.1043930E+01  0.7957747E-01            NaN
         13   -1    0    0    0    0  0.00000000000E+00  0.00000000000E+00  0.74505805969E-08  0.10566000000E+00  0.10566000000E+00 0. -1.
     999900   -1    0    0    0    0 -0.00000000000E+00 -0.00000000000E+00 -0.74505805969E-08  0.93827000000E+00  0.93827000000E+00 0. -1.
     999902    2    1    2    0    0 -0.21353204675E-02 -0.12484902677E-01 -0.18808403744E-01  0.10212542764E+01  0.10210025018E+01 0.  0.
     999903    2    3    3    0    0 -0.68952771037E-01  0.88764883961E-01  0.61368356218E-01  0.12932131715E+00  0.18006628417E-01 0.  0.
         14    1    1    2    0    0  0.21353204675E-02  0.12484902677E-01  0.18808403744E-01  0.22675723577E-01  0.00000000000E+00 0. -1.
     999901    1    3    3    0    0  0.66817450569E-01 -0.10124978664E+00 -0.80176759962E-01  0.89193295927E+00  0.88000000000E+00 0. -1.
        -11    1    4    4    0    0 -0.13026172692E-01  0.97042057934E-02  0.14292428917E-01  0.21642260289E-01  0.51100000000E-03 0. -1.
         11    1    4    4    0    0 -0.55926598345E-01  0.79060678168E-01  0.47075927301E-01  0.10767905686E+00  0.51100000000E-03 0.  1.
</event>
<event>
 8    1  0.1137518E+005  0.1043930E+01  0.7957747E-01            NaN
         13   -1    0    0    0    0  0.00000000000E+00  0.00000000000E+00  0.74505805969E-08  0.10566000000E+00  0.10566000000E+00 0. -1.
     999900   -1    0    0    0    0 -0.00000000000E+00 -0.00000000000E+00 -0.74505805969E-08  0.93827000000E+00  0.93827000000E+00 0.  1.
     999902    2    1    2    0    0 -0.16238678342E-01 -0.11792166267E-01 -0.11776253941E-01  0.10206613512E+01  0.10203960818E+01 0.  0.
     999903    2    3    3    0    0 -0.10924281677E+00  0.96941576897E-02  0.70088567338E-01  0.13172193773E+00  0.20255663333E-01 0.  0.
         14    1    1    2    0    0  0.16238678342E-01  0.11792166267E-01  0.11776253941E-01  0.23268648788E-01  0.00000000000E+00 0. -1.
     999901    1    3    3    0    0  0.93004138432E-01 -0.21486323957E-01 -0.81864821280E-01  0.88893941348E+00  0.88000000000E+00 0.  1.
        -11    1    4    4    0    0 -0.47742046624E-01 -0.47885155916E-02  0.25062659737E-01  0.54135302082E-01  0.51100000000E-03 0. -1.
         11    1    4    4    0    0 -0.61500770150E-01  0.14482673281E-01  0.45025907601E-01  0.77586635645E-01  0.51100000000E-03 0.  1.
</event>
<event>
 8    1  0.1137518E+005  0.1043930E+01  0.7957747E-01            NaN
         13   -1    0    0    0    0  0.00000000000E+00  0.00000000000E+00  0.74505805969E-08  0.10566000000E+00  0.10566000000E+00 0.  1.
     999900   -1    0    0    0    0 -0.00000000000E+00 -0.00000000000E+00 -0.74505805969E-08  0.93827000000E+00  0.93827000000E+00 0. -1.
     999902    2    1    2    0    0 -0.12490513368E-01 -0.17608037477E-01 -0.10321244100E-01  0.10200012728E+01  0.10197205560E+01 0.  0.
     999903    2    3    3    0    0  0.11197873563E+00 -0.61193037148E-01  0.11639091504E-01  0.12990324305E+00  0.21343829907E-01 0.  0.
         14    1    1    2    0    0  0.12490513368E-01  0.17608037477E-01  0.10321244100E-01  0.23928727249E-01  0.00000000000E+00 0. -1.
     999901    1    3    3    0    0 -0.12446924900E+00  0.43584999672E-01 -0.21960335604E-01  0.89009802970E+00  0.88000000000E+00 0.  1.
        -11    1    4    4    0    0  0.11396112884E-01 -0.41448445113E-02 -0.49033303233E-02  0.13090259514E-01  0.51100000000E-03 0. -1.
         11    1    4    4    0    0  0.10058262274E+00 -0.57048192637E-01  0.16542421827E-01  0.11681298353E+00  0.51100000000E-03 0.  1.
</event>
<event>
 8    1  0.1137518E+005  0.1043930E+01  0.7957747E-01            NaN
         13   -1    0    0    0    0  0.00000000000E+00  0.00000000000E+00  0.74505805969E-08  0.10566000000E+00  0.10566000000E+00 0.  1.
     999900   -1    0    0    0    0 -0.00000000000E+00 -0.00000000000E+00 -0.74505805969E-08  0.93827000000E+00  0.93827000000E+00 0.  1.
     999902    2    1    2    0    0  0.50975489060E-04  0.23201620346E-01 -0.56181403339E-02  0.10200578135E+01  0.10197784376E+01 0.  0.
     999903    2    3    3    0    0 -0.97206866402E-01 -0.18039505812E-01  0.81117213376E-01  0.12950577134E+00  0.20424099957E-01 0.  0.
         14    1    1    2    0    0 -0.50975489060E-04 -0.23201620346E-01  0.56181403339E-02  0.23872186452E-01  0.00000000000E+00 0. -1.
     999901    1    3    3    0    0  0.97257841891E-01  0.41241126158E-01 -0.86735353710E-01  0.89055204221E+00  0.88000000000E+00 0.  1.
        -11    1    4    4    0    0 -0.31693906179E-01  0.28320221636E-02  0.20615015527E-01  0.37917858914E-01  0.51100000000E-03 0.  1.
         11    1    4    4    0    0 -0.65512960223E-01 -0.20871527975E-01  0.60502197849E-01  0.91587912427E-01  0.51100000000E-03 0. -1.
</event>
<event>
 8    1  0.1137518E+005  0.1043930E+01  0.7957747E-01            NaN
         13   -1    0    0    0    0  0.00000000000E+00  0.00000000000E+00  0.74505805969E-08  0.10566000000E+00  0.10566000000E+00 0. -1.
     999900   -1    0    0    0    0 -0.00000000000E+00 -0.00000000000E+00 -0.74505805969E-08  0.93827000000E+00  0.93827000000E+00 0.  1.
     999902    2    1    2    0    0 -0.22850044973E-01 -0.32121960937E-02  0.22511426416E-02  0.10207457294E+01  0.10204824025E+01 0.  0.
     999903    2    3    3    0    0 -0.11604026519E+00 -0.48016481079E-01  0.41174243774E-01  0.13383713836E+00  0.21121923543E-01 0.  0.
         14    1    1    2    0    0  0.22850044973E-01  0.32121960937E-02 -0.22511426416E-02  0.23184270578E-01  0.00000000000E+00 0.  1.
     999901    1    3    3    0    0  0.93190220215E-01  0.44804284986E-01 -0.38923101132E-01  0.88690859106E+00  0.88000000000E+00 0.  1.
        -11    1    4    4    0    0 -0.73470697633E-01 -0.20713994321E-01  0.19329145793E-01  0.78745729849E-01  0.51100000000E-03 0.  1.
         11    1    4    4    0    0 -0.42569567555E-01 -0.27302486758E-01  0.21845097981E-01  0.55091408512E-01  0.51100000000E-03 0. -1.
</event>
<event>
 8    1  0.1137518E+005  0.1043930E+01  0.7957747E-01            NaN
         13   -1    0    0    0    0  0.00000000000E+00  0.00000000000E+00  0.74505805969E-08  0.10566000000E+00  0.10566000000E+00 0.  1.
     999900   -1    0    0    0    0 -0.00000000000E+00 -0.00000000000E+00 -0.74505805969E-08  0.93827000000E+00  0.93827000000E+00 0. -1.
     999902    2    1    2    0    0  0.79738884435E-02 -0.13757988591E-01  0.17862451057E-01  0.10200148938E+01  0.10197345004E+01 0.  0.
     999903    2    3    3    0    0 -0.10442973257E+00  0.51889583778E-02 -0.71154275054E-01  0.12820911991E+00  0.21027440048E-01 0.  0.
         14    1    1    2    0    0 -0.79738884435E-02  0.13757988591E-01 -0.17862451057E-01  0.23915106204E-01  0.00000000000E+00 0. -1.
     999901    1    3    3    0    0  0.11240362101E+00 -0.18946946969E-01  0.89016726111E-01  0.89180577389E+00  0.88000000000E+00 0.  1.
        -11    1    4    4    0    0 -0.81775731222E-01 -0.29316219888E-02 -0.48323787318E-01  0.95033226642E-01  0.51100000000E-03 0. -1.
         11    1    4    4    0    0 -0.22654001348E-01  0.81205803666E-02 -0.22830487736E-01  0.33175893264E-01  0.51100000000E-03 0.  1.
</event>
<event>
 8    1  0.1137518E+005  0.1043930E+01  0.7957747E-01            NaN
         13   -1    0    0    0    0  0.00000000000E+00  0.00000000000E+00  0.74505805969E-08  0.10566000000E+00  0.10566000000E+00 0.  1.
     999900   -1    0    0    0    0 -0.00000000000E+00 -0.00000000000E+00 -0.74505805969E-08  0.93827000000E+00  0.93827000000E+00 0. -1.
     999902    2    1    2    0    0  0.97724640630E-02  0.19293930679E-01  0.86774529933E-02  0.10206264594E+01  0.10203603847E+01 0.  0.
     999903    2    3    3    0    0 -0.81453437216E-01 -0.86144741774E-01 -0.43831968586E-01  0.12810378848E+00  0.20826910094E-01 0.  0.
         14    1    1    2    0    0 -0.97724640630E-02 -0.19293930679E-01 -0.86774529933E-02  0.23303540619E-01  0.00000000000E+00 0. -1.
     999901    1    3    3    0    0  0.91225901279E-01  0.10543867245E+00  0.52509421580E-01  0.89252267090E+00  0.88000000000E+00 0.  1.
        -11    1    4    4    0    0 -0.78366586191E-01 -0.74237592214E-01 -0.37633709956E-01  0.11432016084E+00  0.51100000000E-03 0. -1.
         11    1    4    4    0    0 -0.30868510244E-02 -0.11907149560E-01 -0.61982586300E-02  0.13783627641E-01  0.51100000000E-03 0.  1.
</event>
<event>
 8    1  0.1137518E+005  0.1043930E+01  0.7957747E-01            NaN
         13   -1    0    0    0    0  0.00000000000E+00  0.00000000000E+00  0.74505805969E-08  0.10566000000E+00  0.10566000000E+00 0. -1.
     999900   -1    0    0    0    0 -0.00000000000E+00 -0.00000000000E+00 -0.74505805969E-08  0.93827000000E+00  0.93827000000E+00 0. -1.
     999902    2    1    2    0    0 -0.75272412920E-02 -0.15353397367E-01 -0.50725399169E-02  0.10260941700E+01  0.10259391448E+01 0.  0.
     999903    2    3    3    0    0  0.10275810668E+00 -0.70900395160E-01  0.49661576026E-01  0.13578851997E+00  0.19650839725E-01 0.  0.
         14    1    1    2    0    0  0.75272412920E-02  0.15353397367E-01  0.50725399169E-02  0.17835830045E-01  0.00000000000E+00 0.  1.
     999901    1    3    3    0    0 -0.11028534797E+00  0.55546997793E-01 -0.54734115943E-01  0.89030564998E+00  0.88000000000E+00 0. -1.
        -11    1    4    4    0    0  0.71147975939E-01 -0.52433765642E-01  0.44037203804E-01  0.98746497151E-01  0.51100000000E-03 0. -1.
         11    1    4    4    0    0  0.31610130737E-01 -0.18466629518E-01  0.56243722218E-02  0.37042022823E-01  0.51100000000E-03 0.  1.
</event>
<event>
 8    1  0.1137518E+005  0.1043930E+01  0.7957747E-01            NaN
         13   -1    0    0    0    0  0.00000000000E+00  0.00000000000E+00  0.74505805969E-08  0.10566000000E+00  0.10566000000E+00 0.  1.
     999900   -1    0    0    0    0 -0.00000000000E+00 -0.00000000000E+00 -0.74505805969E-08  0.93827000000E+00  0.93827000000E+00 0. -1.
     999902    2    1    2    0    0  0.62348640168E-02  0.94656113422E-02  0.18807396094E-01  0.10219711868E+01  0.10217352481E+01 0.  0.
     999903    2    3    3    0    0  0.11998979859E+00 -0.31616135576E-01 -0.39795479712E-01  0.13176773138E+00  0.19542851185E-01 0.  0.
         14    1    1    2    0    0 -0.62348640168E-02 -0.94656113422E-02 -0.18807396094E-01  0.21958813156E-01  0.00000000000E+00 0. -1.
     999901    1    3    3    0    0 -0.11375493457E+00  0.41081746919E-01  0.58602875806E-01  0.89020345547E+00  0.88000000000E+00 0.  1.
        -11    1    4    4    0    0  0.81394293301E-01 -0.22167620903E-01 -0.17342323481E-01  0.86124628900E-01  0.51100000000E-03 0. -1.
         11    1    4    4    0    0  0.38595505290E-01 -0.94485146729E-02 -0.22453156231E-01  0.45643102478E-01  0.51100000000E-03 0.  1.
</event>
<event>
 8    1  0.1137518E+005  0.1043930E+01  0.7957747E-01            NaN
         13   -1    0    0    0    0  0.00000000000E+00  0.00000000000E+00  0.74505805969E-08  0.10566000000E+00  0.10566000000E+00 0.  1.
     999900   -1    0    0    0    0 -0.00000000000E+00 -0.00000000000E+00 -0.74505805969E-08  0.93827000000E+00  0.93827000000E+00 0.  1.
     999902    2    1    2    0    0  0.14674090752E-01 -0.75234832930E-02 -0.37433158558E-03  0.10274353989E+01  0.10273029870E+01 0.  0.
     999903    2    3    3    0    0 -0.10607598394E+00 -0.52929689847E-02 -0.81564228552E-01  0.13548396802E+00  0.20568235737E-01 0.  0.
         14    1    1    2    0    0 -0.14674090752E-01  0.75234832930E-02  0.37433158558E-03  0.16494601068E-01  0.00000000000E+00 0. -1.
     999901    1    3    3    0    0  0.12075007470E+00 -0.22305143083E-02  0.81189896966E-01  0.89195143091E+00  0.88000000000E+00 0.  1.
        -11    1    4    4    0    0 -0.30638508618E-01 -0.37825886901E-02 -0.12893603077E-01  0.33459412859E-01  0.51100000000E-03 0.  1.
         11    1    4    4    0    0 -0.75437475326E-01 -0.15103802946E-02 -0.68670625474E-01  0.10202455516E+00  0.51100000000E-03 0. -1.
</event>
<event>
 8    1  0.1137518E+005  0.1043930E+01  0.7957747E-01            NaN
         13   -1    0    0    0    0  0.00000000000E+00  0.00000000000E+00  0.74505805969E-08  0.10566000000E+00  0.10566000000E+00 0. -1.
     999900   -1    0    0    0    0 -0.00000000000E+00 -0.00000000000E+00 -0.74505805969E-08  0.93827000000E+00  0.93827000000E+00 0.  1.
     999902    2    1    2    0    0  0.19143203111E-01 -0.78058282930E-02  0.54213495963E-02  0.10225574893E+01  0.10223341111E+01 0.  0.
     999903    2    3    3    0    0  0.20818495161E-01 -0.15309826037E-01  0.12967523309E+00  0.13379534784E+00  0.20438407810E-01 0.  0.
         14    1    1    2    0    0 -0.19143203111E-01  0.78058282930E-02 -0.54213495963E-02  0.21372510665E-01  0.00000000000E+00 0.  1.
     999901    1    3    3    0    0 -0.16752920494E-02  0.75039977442E-02 -0.12425388349E+00  0.88876214149E+00  0.88000000000E+00 0.  1.
        -11    1    4    4    0    0  0.15274634764E-01 -0.41692067044E-02  0.10465093361E+00  0.10584316595E+00  0.51100000000E-03 0.  1.
         11    1    4    4    0    0  0.55438603968E-02 -0.11140619333E-01  0.25024299477E-01  0.27952181892E-01  0.51100000000E-03 0. -1.
</event>
<event>
 8    1  0.1137518E+005  0.1043930E+01  0.7957747E-01            NaN
         13   -1    0    0    0    0  0.00000000000E+00  0.00000000000E+00  0.74505805969E-08  0.10566000000E+00  0.10566000000E+00 0. -1.
     999900   -1    0    0    0    0 -0.00000000000E+00 -0.00000000000E+00 -0.74505805969E-08  0.93827000000E+00  0.93827000000E+00 0. -1.
     999902    2    1    2    0    0 -0.17990626835E-01  0.29088150995E-02 -0.17015919662E-01  0.10189967816E+01  0.10186916980E+01 0.  0.
     999903    2    3    3    0    0 -0.11623830031E+00  0.58621226708E-01  0.17181154132E-03  0.13161191791E+00  0.19335892491E-01 0.  0.
         14    1    1    2    0    0  0.17990626835E-01 -0.29088150995E-02  0.17015919662E-01  0.24933218427E-01  0.00000000000E+00 0. -1.
     999901    1    3    3    0    0  0.98247673472E-01 -0.55712411608E-01 -0.17187731203E-01  0.88738486366E+00  0.88000000000E+00 0. -1.
        -11    1    4    4    0    0 -0.63887686790E-01  0.29684924361E-01 -0.92600235712E-02  0.71055192739E-01  0.51100000000E-03 0.  1.
         11    1    4    4    0    0 -0.52350613517E-01  0.28936302347E-01  0.94318351125E-02  0.60556725173E-01  0.51100000000E-03 0. -1.
</event>
<event>
 8    1  0.1137518E+005  0.1043930E+01  0.7957747E-01            NaN
         13   -1    0    0    0    0  0.00000000000E+00  0.00000000000E+00  0.74505805969E-08  0.10566000000E+00  0.10566000000E+00 0.  1.
     999900   -1    0    0    0    0 -0.00000000000E+00 -0.00000000000E+00 -0.74505805969E-08  0.93827000000E+00  0.93827000000E+00 0.  1.
     999902    2    1    2    0    0  0.19693721899E-01  0.96303472113E-02  0.43970660471E-02  0.10215710989E+01  0.10213263874E+01 0.  0.
     999903    2    3    3    0    0  0.11332741256E+00 -0.37727600263E-01  0.56855818271E-01  0.13378623535E+00  0.19992459558E-01 0.  0.
         14    1    1    2    0    0 -0.19693721899E-01 -0.96303472113E-02 -0.43970660471E-02  0.22358901124E-01  0.00000000000E+00 0. -1.
     999901    1    3    3    0    0 -0.93633690662E-01  0.47357947475E-01 -0.52458752224E-01  0.88778486352E+00  0.88000000000E+00 0. -1.
        -11    1    4    4    0    0  0.87688009815E-01 -0.25460281595E-01  0.34461866633E-01  0.97597614607E-01  0.51100000000E-03 0. -1.
         11    1    4    4    0    0  0.25639402746E-01 -0.12267318668E-01  0.22393951639E-01  0.36188620746E-01  0.51100000000E-03 0.  1.
</event>
<event>
 8    1  0.1137518E+005  0.1043930E+01  0.7957747E-01            NaN
         13   -1    0    0    0    0  0.00000000000E+00  0.00000000000E+00  0.74505805969E-08  0.10566000000E+00  0.10566000000E+00 0.  1.
     999900   -1    0    0    0    0 -0.00000000000E+00 -0.00000000000E+00 -0.74505805969E-08  0.93827000000E+00  0.93827000000E+00 0.  1.
     999902    2    1    2    0    0  0.18801570774E-01  0.46487195569E-02 -0.11268230020E-01  0.10215227988E+01  0.10212770172E+01 0.  0.
     999903    2    3    3    0    0 -0.11141617490E+00 -0.60911965368E-01  0.11774702325E-01  0.12923033475E+00  0.20928551102E-01 0.  0.
         14    1    1    2    0    0 -0.18801570774E-01 -0.46487195569E-02  0.11268230020E-01  0.22407201184E-01  0.00000000000E+00 0.  1.
     999901    1    3    3    0    0  0.13021774567E+00  0.65560684925E-01 -0.23042932345E-01  0.89229246406E+00  0.88000000000E+00 0. -1.
        -11    1    4    4    0    0 -0.33398816904E-01 -0.85740531273E-02 -0.46257496409E-03  0.34488700384E-01  0.51100000000E-03 0.  1.
         11    1    4    4    0    0 -0.78017357994E-01 -0.52337912240E-01  0.12237277289E-01  0.94741634367E-01  0.51100000000E-03 0. -1.
</event>
<event>
 8    1  0.1137518E+005  0.1043930E+01  0.7957747E-01            NaN
         13   -1    0    0    0    0  0.00000000000E+00  0.00000000000E+00  0.74505805969E-08  0.10566000000E+00  0.10566000000E+00 0. -1.
     999900   -1    0    0    0    0 -0.00000000000E+00 -0.00000000000E+00 -0.74505805969E-08  0.93827000000E+00  0.93827000000E+00 0.  1.
     999902    2    1    2    0    0 -0.19810112416E-01 -0.42519351637E-02 -0.12372262178E-01  0.10201898994E+01  0.10199136426E+01 0.  0.
     999903    2    3    3    0    0 -0.81575869959E-01  0.99619556464E-01 -0.20867486796E-01  0.13189013892E+00  0.19516099737E-01 0.  0.
         14    1    1    2    0    0  0.19810112416E-01  0.42519351637E-02  0.12372262178E-01  0.23740100631E-01  0.00000000000E+00 0. -1.
     999901    1    3    3    0    0  0.61765757543E-01 -0.10387149163E+00  0.84952246177E-02  0.88829976045E+00  0.88000000000E+00 0.  1.
        -11    1    4    4    0    0 -0.35498487928E-01  0.31065820660E-01 -0.12889653251E-01  0.48904316173E-01  0.51100000000E-03 0.  1.
         11    1    4    4    0    0 -0.46077382031E-01  0.68553735804E-01 -0.79778335453E-02  0.82985822744E-01  0.51100000000E-03 0. -1.
</event>
<event>
 8    1  0.1137518E+005  0.1043930E+01  0.7957747E-01            NaN
         13   -1    0    0    0    0  0.00000000000E+00  0.00000000000E+00  0.74505805969E-08  0.10566000000E+00  0.10566000000E+00 0.  1.
     999900   -1    0    0    0    0 -0.00000000000E+00 -0.00000000000E+00 -0.74505805969E-08  0.93827000000E+00  0.93827000000E+00 0.  1.
     999902    2    1    2    0    0 -0.67462120613E-02 -0.78847908077E-02 -0.19973922022E-01  0.10214213602E+01  0.10211733233E+01 0.  0.
     999903    2    3    3    0    0 -0.11844371141E+00  0.34672025101E-01  0.39954827788E-01  0.13132087770E+00  0.20438262159E-01 0.  0.
         14    1    1    2    0    0  0.67462120613E-02  0.78847908077E-02  0.19973922022E-01  0.22508639768E-01  0.00000000000E+00 0.  1.
     999901    1    3    3    0    0  0.11169749935E+00 -0.42556815909E-01 -0.59928749810E-01  0.89010048253E+00  0.88000000000E+00 0.  1.
        -11    1    4    4    0    0 -0.11023665386E+00  0.28819896062E-01  0.31667343738E-01  0.11826152394E+00  0.51100000000E-03 0.  1.
         11    1    4    4    0    0 -0.82070575466E-02  0.58521290390E-02  0.82874840498E-02  0.13059353764E-01  0.51100000000E-03 0. -1.
</event>
<event>
 8    1  0.1137518E+005  0.1043930E+01  0.7957747E-01            NaN
         13   -1    0    0    0    0  0.00000000000E+00  0.00000000000E+00  0.74505805969E-08  0.10566000000E+00  0.10566000000E+00 0.  1.
     999900   -1    0    0    0    0 -0.00000000000E+00 -0.00000000000E+00 -0.74505805969E-08  0.93827000000E+00  0.93827000000E+00 0. -1.
     999902    2    1    2    0    0  0.82291568099E-02 -0.20314994303E-01 -0.10135854289E-01  0.10197814274E+01  0.10194954665E+01 0.  0.
     999903    2    3    3    0    0  0.85169642729E-01 -0.98212459029E-01  0.16422162127E-01  0.13259870576E+00  0.20326687111E-01 0.  0.
         14    1    1    2    0    0 -0.82291568099E-02  0.20314994303E-01  0.10135854289E-01  0.24148572577E-01  0.00000000000E+00 0.  1.
     999901    1    3    3    0    0 -0.76940485919E-01  0.77897464726E-01 -0.26558016416E-01  0.88718272166E+00  0.88000000000E+00 0. -1.
        -11    1    4    4    0    0  0.32703196923E-01 -0.44011104876E-01 -0.22680993884E-02  0.54880614403E-01  0.51100000000E-03 0.  1.
         11    1    4    4    0    0  0.52466445806E-01 -0.54201354152E-01  0.18690261515E-01  0.77718091355E-01  0.51100000000E-03 0. -1.
</event>
<event>
 8    1  0.1137518E+005  0.1043930E+01  0.7957747E-01            NaN
         13   -1    0    0    0    0  0.00000000000E+00  0.00000000000E+00  0.74505805969E-08  0.10566000000E+00  0.10566000000E+00 0.  1.
     999900   -1    0    0    0    0 -0.00000000000E+00 -0.00000000000E+00 -0.74505805969E-08  0.93827000000E+00  0.93827000000E+00 0.  1.
     999902    2    1    2    0    0 -0.18299828437E-01 -0.15252069284E-01  0.15781920266E-03  0.10201070227E+01  0.10198288109E+01 0.  0.
     999903    2    3    3    0    0 -0.10863799785E-01  0.10542262422E+00  0.70847446778E-01  0.12903199806E+00  0.19948532888E-01 0.  0.
         14    1    1    2    0    0  0.18299828437E-01  0.15252069284E-01 -0.15781920266E-03  0.23822977252E-01  0.00000000000E+00 0. -1.
     999901    1    3    3    0    0 -0.74360286516E-02 -0.12067469351E+00 -0.70689627576E-01  0.89107502469E+00  0.88000000000E+00 0.  1.
        -11    1    4    4    0    0 -0.55846750248E-02  0.37008121588E-01  0.36559597277E-01  0.52322604414E-01  0.51100000000E-03 0.  1.
         11    1    4    4    0    0 -0.52791247607E-02  0.68414502636E-01  0.34287849502E-01  0.76709393646E-01  0.51100000000E-03 0. -1.
</event>
<event>
 8    1  0.1137518E+005  0.1043930E+01  0.7957747E-01            NaN
         13   -1    0    0    0    0  0.00000000000E+00  0.00000000000E+00  0.74505805969E-08  0.10566000000E+00  0.10566000000E+00 0.  1.
     999900   -1    0    0    0    0 -0.00000000000E+00 -0.00000000000E+00 -0.74505805969E-08  0.93827000000E+00  0.93827000000E+00 0. -1.
     999902    2    1    2    0    0 -0.17943224566E-01  0.92986477217E-02  0.12929402125E-01  0.10199384682E+01  0.10196562584E+01 0.  0.
     999903    2    3    3    0    0 -0.11015089760E+00 -0.11794350874E-01  0.70846942696E-01  0.13297645605E+00  0.19776794975E-01 0.  0.
         14    1    1    2    0    0  0.17943224566E-01 -0.92986477217E-02 -0.12929402125E-01  0.23991531768E-01  0.00000000000E+00 0. -1.
     999901    1    3    3    0    0  0.92207673029E-01  0.21092998596E-01 -0.57917540572E-01  0.88696201219E+00  0.88000000000E+00 0. -1.
        -11    1    4    4    0    0 -0.80337303746E-01 -0.14664031246E-01  0.59064298921E-01  0.10078674870E+00  0.51100000000E-03 0. -1.
         11    1    4    4    0    0 -0.29813593849E-01  0.28696803719E-02  0.11782643775E-01  0.32189707345E-01  0.51100000000E-03 0.  1.
</event>
<event>
 8    1  0.1137518E+005  0.1043930E+01  0.7957747E-01            NaN
         13   -1    0    0    0    0  0.00000000000E+00  0.00000000000E+00  0.74505805969E-08  0.10566000000E+00  0.10566000000E+00 0. -1.
     999900   -1    0    0    0    0 -0.00000000000E+00 -0.00000000000E+00 -0.74505805969E-08  0.93827000000E+00  0.93827000000E+00 0.  1.
     999902    2    1    2    0    0  0.10362199832E-01 -0.40447739327E-02 -0.20857750626E-01  0.10202914480E+01  0.10200175771E+01 0.  0.
     999903    2    3    3    0    0 -0.20940030331E-01 -0.11822417749E+00  0.45559787312E-01  0.12988252215E+00  0.19450818182E-01 0.  0.
         14    1    1    2    0    0 -0.10362199832E-01  0.40447739327E-02  0.20857750626E-01  0.23638552044E-01  0.00000000000E+00 0. -1.
     999901    1    3    3    0    0  0.31302230163E-01  0.11417940355E+00 -0.66417537938E-01  0.89040892581E+00  0.88000000000E+00 0. -1.
        -11    1    4    4    0    0  0.49586231897E-03 -0.44043279299E-01  0.11762873509E-01  0.45592572257E-01  0.51100000000E-03 0.  1.
         11    1    4    4    0    0 -0.21435892650E-01 -0.74180898187E-01  0.33796913803E-01  0.84289949894E-01  0.51100000000E-03 0. -1.
</event>
<event>
 8    1  0.1137518E+005  0.1043930E+01  0.7957747E-01            NaN
         13   -1    0    0    0    0  0.00000000000E+00  0.00000000000E+00  0.74505805969E-08  0.10566000000E+00  0.10566000000E+00 0.  1.
     999900   -1    0    0    0    0 -0.00000000000E+00 -0.00000000000E+00 -0.74505805969E-08  0.93827000000E+00  0.93827000000E+00 0.  1.
     999902    2    1    2    0    0  0.25587015973E-01  0.10504838253E-01  0.22542529287E-01  0.10082478947E+01  0.10076162982E+01 0.  0.
     999903    2    3    3    0    0  0.57444496129E-02 -0.97431085800E-01  0.67469579879E-01  0.12029388066E+00  0.19815608355E-01 0.  0.
         14    1    1    2    0    0 -0.25587015973E-01 -0.10504838253E-01 -0.22542529287E-01  0.35682105316E-01  0.00000000000E+00 0. -1.
     999901    1    3    3    0    0  0.19842566360E-01  0.10793592405E+00 -0.44927050592E-01  0.88795401402E+00  0.88000000000E+00 0.  1.
        -11    1    4    4    0    0  0.41038973646E-02 -0.40953259248E-01  0.40269509279E-01  0.57583903264E-01  0.51100000000E-03 0. -1.
         11    1    4    4    0    0  0.16405522484E-02 -0.56477826552E-01  0.27200070600E-01  0.62709977399E-01  0.51100000000E-03 0.  1.
</event>
<event>
 8    1  0.1137518E+005  0.1043930E+01  0.7957747E-01            NaN
         13   -1    0    0    0    0  0.00000000000E+00  0.00000000000E+00  0.74505805969E-08  0.10566000000E+00  0.10566000000E+00 0. -1.
     999900   -1    0    0    0    0 -0.00000000000E+00 -0.00000000000E+00 -0.74505805969E-08  0.93827000000E+00  0.93827000000E+00 0.  1.
     999902    2    1    2    0    0  0.14598052905E-01 -0.73025485179E-02 -0.16322721277E-01  0.10208462050E+01  0.10205851814E+01 0.  0.
     999903    2    3    3    0    0 -0.10115726527E+00  0.76377281852E-01 -0.55638078827E-02  0.12926482230E+00  0.24741803215E-01 0.  0.
         14    1    1    2    0    0 -0.14598052905E-01  0.73025485179E-02  0.16322721277E-01  0.23083795038E-01  0.00000000000E+00 0. -1.
     999901    1    3    3    0    0  0.11575531817E+00 -0.83679830370E-01 -0.10758913394E-01  0.89158138266E+00  0.88000000000E+00 0.  1.
        -11    1    4    4    0    0 -0.72848757078E-01  0.54200047905E-01  0.72390072381E-02  0.91089247156E-01  0.51100000000E-03 0.  1.
         11    1    4    4    0    0 -0.28308508189E-01  0.22177233947E-01 -0.12802815121E-01  0.38175575142E-01  0.51100000000E-03 0. -1.
</event>
<event>
 8    1  0.1137518E+005  0.1043930E+01  0.7957747E-01            NaN
         13   -1    0    0    0    0  0.00000000000E+00  0.00000000000E+00  0.74505805969E-08  0.10566000000E+00  0.10566000000E+00 0. -1.
     999900   -1    0    0    0    0 -0.00000000000E+00 -0.00000000000E+00 -0.74505805969E-08  0.93827000000E+00  0.93827000000E+00 0.  1.
     999902    2    1    2    0    0 -0.16613550615E-01 -0.82111019579E-02  0.14610271165E-01  0.10203314347E+01  0.10200585005E+01 0.  0.
     999903    2    3    3    0    0  0.49645930612E-01  0.44288712691E-01 -0.10740786524E+00  0.12789937849E+00  0.19889519941E-01 0.  0.
         14    1    1    2    0    0  0.16613550615E-01  0.82111019579E-02 -0.14610271165E-01  0.23598565272E-01  0.00000000000E+00 0.  1.
     999901    1    3    3    0    0 -0.66259481227E-01 -0.52499814649E-01  0.12201813641E+00  0.89243205624E+00  0.88000000000E+00 0. -1.
        -11    1    4    4    0    0  0.43755178770E-01  0.31094548446E-01 -0.93632906628E-01  0.10792946278E+00  0.51100000000E-03 0. -1.
         11    1    4    4    0    0  0.58907518424E-02  0.13194164245E-01 -0.13774958615E-01  0.19969915704E-01  0.51100000000E-03 0.  1.
</event>
<event>
 8    1  0.1137518E+005  0.1043930E+01  0.7957747E-01            NaN
         13   -1    0    0    0    0  0.00000000000E+00  0.00000000000E+00  0.74505805969E-08  0.10566000000E+00  0.10566000000E+00 0. -1.
     999900   -1    0    0    0    0 -0.00000000000E+00 -0.00000000000E+00 -0.74505805969E-08  0.93827000000E+00  0.93827000000E+00 0.  1.
     999902    2    1    2    0    0  0.20277516271E-01  0.11829837064E-01 -0.40763209066E-02  0.10201027235E+01  0.10198244101E+01 0.  0.
     999903    2    3    3    0    0  0.91182742083E-01  0.86138086982E-01 -0.40466723750E-01  0.13338206377E+00  0.20473317319E-01 0.  0.
         14    1    1    2    0    0 -0.20277516271E-01 -0.11829837064E-01  0.40763209066E-02  0.23827276454E-01  0.00000000000E+00 0. -1.
     999901    1    3    3    0    0 -0.70905225811E-01 -0.74308249918E-01  0.36390402843E-01  0.88672065978E+00  0.88000000000E+00 0.  1.
        -11    1    4    4    0    0  0.86265288743E-01  0.72984592627E-01 -0.34870542347E-01  0.11825678267E+00  0.51100000000E-03 0. -1.
         11    1    4    4    0    0  0.49174533400E-02  0.13153494354E-01 -0.55961814033E-02  0.15125281101E-01  0.51100000000E-03 0.  1.
</event>
<event>
 8    1  0.1137518E+005  0.1043930E+01  0.7957747E-01            NaN
         13   -1    0    0    0    0  0.00000000000E+00  0.00000000000E+00  0.74505805969E-08  0.10566000000E+00  0.10566000000E+00 0. -1.
     999900   -1    0    0    0    0 -0.00000000000E+00 -0.00000000000E+00 -0.74505805969E-08  0.93827000000E+00  0.93827000000E+00 0.  1.
     999902    2    1    2    0    0 -0.12352846913E-01 -0.23456798490E-01 -0.38463182200E-02  0.10171417864E+01  0.10167889679E+01 0.  0.
     999903    2    3    3    0    0 -0.10177082076E+00 -0.21948994603E-01 -0.74959972934E-01  0.12975517429E+00  0.19451205411E-01 0.  0.
         14    1    1    2    0    0  0.12352846913E-01  0.23456798490E-01  0.38463182200E-02  0.26788213567E-01  0.00000000000E+00 0. -1.
     999901    1    3    3    0    0  0.89417973844E-01 -0.15078038867E-02  0.71113654714E-01  0.88738661214E+00  0.88000000000E+00 0. -1.
        -11    1    4    4    0    0 -0.49882414100E-01 -0.10442033285E-01 -0.48609770366E-01  0.70430548710E-01  0.51100000000E-03 0.  1.
         11    1    4    4    0    0 -0.51888406657E-01 -0.11506961318E-01 -0.26350202567E-01  0.59324625583E-01  0.51100000000E-03 0. -1.
</event>
<event>
 8    1  0.1137518E+005  0.1043930E+01  0.7957747E-01            NaN
         13   -1    0    0    0    0  0.00000000000E+00  0.00000000000E+00  0.74505805969E-08  0.10566000000E+00  0.10566000000E+00 0.  1.
     999900   -1    0    0    0    0 -0.00000000000E+00 -0.00000000000E+00 -0.74505805969E-08  0.93827000000E+00  0.93827000000E+00 0. -1.
     999902    2    1    2    0    0  0.91562559427E-02 -0.19026887610E-01  0.10890452283E-01  0.10201716030E+01  0.10198949153E+01 0.  0.
     999903    2    3    3    0    0  0.94789041949E-01 -0.91180924941E-01  0.21882383783E-02  0.13303299625E+00  0.19851099624E-01 0.  0.
         14    1    1    2    0    0 -0.91562559427E-02  0.19026887610E-01 -0.10890452283E-01  0.23758396957E-01  0.00000000000E+00 0. -1.
     999901    1    3    3    0    0 -0.85632786007E-01  0.72154037331E-01  0.87022139045E-02  0.88713860680E+00  0.88000000000E+00 0.  1.
        -11    1    4    4    0    0  0.24536963348E-01 -0.25300208464E-01 -0.81208653282E-02  0.36171434771E-01  0.51100000000E-03 0. -1.
         11    1    4    4    0    0  0.70252078601E-01 -0.65880716477E-01  0.10309103707E-01  0.96861561476E-01  0.51100000000E-03 0.  1.
</event>
<event>
 8    1  0.1137518E+005  0.1043930E+01  0.7957747E-01            NaN
         13   -1    0    0    0    0  0.00000000000E+00  0.00000000000E+00  0.74505805969E-08  0.10566000000E+00  0.10566000000E+00 0. -1.
     999900   -1    0    0    0    0 -0.00000000000E+00 -0.00000000000E+00 -0.74505805969E-08  0.93827000000E+00  0.93827000000E+00 0.  1.
     999902    2    1    2    0    0 -0.95022471221E-02 -0.22361608526E-02 -0.22013897235E-01  0.10198487877E+01  0.10195644388E+01 0.  0.
     999903    2    3    3    0    0 -0.68573652857E-01  0.70546610691E-01 -0.86254755218E-01  0.13254182239E+00  0.21172664868E-01 0.  0.
         14    1    1    2    0    0  0.95022471221E-02  0.22361608526E-02  0.22013897235E-01  0.24081212329E-01  0.00000000000E+00 0.  1.
     999901    1    3    3    0    0  0.59071405735E-01 -0.72782771544E-01  0.64240857982E-01  0.88730696529E+00  0.88000000000E+00 0. -1.
        -11    1    4    4    0    0 -0.29508001933E-01  0.27063563837E-01 -0.22051371796E-01  0.45713048298E-01  0.51100000000E-03 0. -1.
         11    1    4    4    0    0 -0.39065650924E-01  0.43483046855E-01 -0.64203383421E-01  0.86828774088E-01  0.51100000000E-03 0.  1.
</event>
<event>
 8    1  0.1137518E+005  0.1043930E+01  0.7957747E-01            NaN
         13   -1    0    0    0    0  0.00000000000E+00  0.00000000000E+00  0.74505805969E-08  0.10566000000E+00  0.10566000000E+00 0. -1.
     999900   -1    0    0    0    0 -0.00000000000E+00 -0.00000000000E+00 -0.74505805969E-08  0.93827000000E+00  0.93827000000E+00 0.  1.
     999902    2    1    2    0    0  0.11193109783E-01 -0.20763966017E-01 -0.19421750933E-02  0.10202614547E+01  0.10199868803E+01 0.  0.
     999903    2    3    3    0    0  0.95343385561E-01 -0.87967564101E-01  0.24276475990E-01  0.13330880087E+00  0.18794563034E-01 0.  0.
         14    1    1    2    0    0 -0.11193109783E-01  0.20763966017E-01  0.19421750933E-02  0.23668545276E-01  0.00000000000E+00 0. -1.
     999901    1    3    3    0    0 -0.84150275778E-01  0.67203598084E-01 -0.26218651083E-01  0.88695265385E+00  0.88000000000E+00 0.  1.
        -11    1    4    4    0    0  0.84280687538E-01 -0.76163089509E-01  0.14812134053E-01  0.11455876628E+00  0.51100000000E-03 0.  1.
         11    1    4    4    0    0  0.11062698023E-01 -0.11804474592E-01  0.94643419365E-02  0.18750034593E-01  0.51100000000E-03 0. -1.
</event>
<event>
 7    1  0.1137518E+005  0.1043930E+01  0.7957747E-01            NaN
         13   -1    0    0    0    0  0.00000000000E+00  0.00000000000E+00  0.74505805969E-08  0.10566000000E+00  0.10566000000E+00 0.  1.
     999900   -1    0    0    0    0 -0.00000000000E+00 -0.00000000000E+00 -0.74505805969E-08  0.93827000000E+00  0.93827000000E+00 0.  1.
     999902    2    1    2    0    0 -0.60069350290E-02  0.16426734098E-01 -0.15855708578E-01  0.10203222819E+01  0.10200491334E+01 0.  0.
         14    1    1    2    0    0  0.60069350290E-02 -0.16426734098E-01  0.15855708578E-01  0.23607718146E-01  0.00000000000E+00 0.  1.
     999901    1    3    3    0    0  0.12115754219E+00  0.34637300007E-01 -0.38546140888E-01  0.88981160790E+00  0.88000000000E+00 0.  1.
        -11    1    3    3    0    0 -0.10977434864E+00 -0.15278490620E-01  0.18360732034E-01  0.11234419209E+00  0.51100000000E-03 0. -1.
         11    1    3    3    0    0 -0.17390128582E-01 -0.29320752890E-02  0.43297002762E-02  0.18166481858E-01  0.51100000000E-03 0.  1.
</event>
<event>
 8    1  0.1137518E+005  0.1043930E+01  0.7957747E-01            NaN
         13   -1    0    0    0    0  0.00000000000E+00  0.00000000000E+00  0.74505805969E-08  0.10566000000E+00  0.10566000000E+00 0. -1.
     999900   -1    0    0    0    0 -0.00000000000E+00 -0.00000000000E+00 -0.74505805969E-08  0.93827000000E+00  0.93827000000E+00 0. -1.
     999902    2    1    2    0    0  0.22768070847E-01 -0.42806027596E-02 -0.53973279862E-02  0.10201426134E+01  0.10198652421E+01 0.  0.
     999903    2    3    3    0    0  0.27665861085E-01  0.32488336188E-01  0.12143224368E+00  0.13027650920E+00  0.20131745750E-01 0.  0.
         14    1    1    2    0    0 -0.22768070847E-01  0.42806027596E-02  0.53973279862E-02  0.23787386562E-01  0.00000000000E+00 0. -1.
     999901    1    3    3    0    0 -0.48977902378E-02 -0.36768938948E-01 -0.12682957166E+00  0.88986610424E+00  0.88000000000E+00 0. -1.
        -11    1    4    4    0    0  0.16727885848E-01  0.11181453124E-01  0.32970922754E-01  0.38628874268E-01  0.51100000000E-03 0.  1.
         11    1    4    4    0    0  0.10937975236E-01  0.21306883064E-01  0.88461320924E-01  0.91647634933E-01  0.51100000000E-03 0. -1.
</event>
<event>
 8    1  0.1137518E+005  0.1043930E+01  0.7957747E-01            NaN
         13   -1    0    0    0    0  0.00000000000E+00  0.00000000000E+00  0.74505805969E-08  0.10566000000E+00  0.10566000000E+00 0. -1.
     999900   -1    0    0    0    0 -0.00000000000E+00 -0.00000000000E+00 -0.74505805969E-08  0.93827000000E+00  0.93827000000E+00 0.  1.
     999902    2    1    2    0    0 -0.13201643806E-01 -0.50883531326E-02  0.19346838228E-01  0.10199617943E+01  0.10196801395E+01 0.  0.
     999903    2    3    3    0    0 -0.29119951047E-01 -0.71238009222E-01  0.10660537849E+00  0.13303269769E+00  0.20252565847E-01 0.  0.
         14    1    1    2    0    0  0.13201643806E-01  0.50883531326E-02 -0.19346838228E-01  0.23968205736E-01  0.00000000000E+00 0.  1.
     999901    1    3    3    0    0  0.15918307241E-01  0.66149656089E-01 -0.87258540265E-01  0.88692909658E+00  0.88000000000E+00 0.  1.
        -11    1    4    4    0    0 -0.18316128280E-01 -0.24242783092E-01  0.51581430051E-01  0.59867337792E-01  0.51100000000E-03 0.  1.
         11    1    4    4    0    0 -0.10803822767E-01 -0.46995226130E-01  0.55023948441E-01  0.73165359894E-01  0.51100000000E-03 0. -1.
</event>
<event>
 8    1  0.1137518E+005  0.1043930E+01  0.7957747E-01            NaN
         13   -1    0    0    0    0  0.00000000000E+00  0.00000000000E+00  0.74505805969E-08  0.10566000000E+00  0.10566000000E+00 0. -1.
     999900   -1    0    0    0    0 -0.00000000000E+00 -0.00000000000E+00 -0.74505805969E-08  0.93827000000E+00  0.93827000000E+00 0. -1.
     999902    2    1    2    0    0 -0.17019868039E-01 -0.19216779620E-01  0.91485171793E-02  0.10166782864E+01  0.10163129844E+01 0.  0.
     999903    2    3    3    0    0 -0.92068539486E-02  0.65953295595E-01  0.10648501826E+00  0.12719001817E+00  0.20090750301E-01 0.  0.
         14    1    1    2    0    0  0.17019868039E-01  0.19216779620E-01 -0.91485171793E-02  0.27251713590E-01  0.00000000000E+00 0. -1.
     999901    1    3    3    0    0 -0.78130140900E-02 -0.85170075215E-01 -0.97336501081E-01  0.88948826824E+00  0.88000000000E+00 0. -1.
        -11    1    4    4    0    0  0.19971873849E-02  0.38239937110E-01  0.47099137741E-01  0.60703141966E-01  0.51100000000E-03 0. -1.
         11    1    4    4    0    0 -0.11204041333E-01  0.27713358485E-01  0.59385880520E-01  0.66486876200E-01  0.51100000000E-03 0.  1.
</event>
<event>
 8    1  0.1137518E+005  0.1043930E+01  0.7957747E-01            NaN
         13   -1    0    0    0    0  0.00000000000E+00  0.00000000000E+00  0.74505805969E-08  0.10566000000E+00  0.10566000000E+00 0.  1.
     999900   -1    0    0    0    0 -0.00000000000E+00 -0.00000000000E+00 -0.74505805969E-08  0.93827000000E+00  0.93827000000E+00 0. -1.
     999902    2    1    2    0    0  0.18162511997E-01 -0.14454793871E-01  0.46634217636E-02  0.10202537374E+01  0.10199789818E+01 0.  0.
     999903    2    3    3    0    0  0.18199169186E-01  0.12603795913E+00 -0.63459676910E-02  0.12904140488E+00  0.19865446546E-01 0.  0.
         14    1    1    2    0    0 -0.18162511997E-01  0.14454793871E-01 -0.46634217636E-02  0.23676262594E-01  0.00000000000E+00 0.  1.
     999901    1    3    3    0    0 -0.36657189358E-04 -0.14049275300E+00  0.11009389455E-01  0.89121233253E+00  0.88000000000E+00 0.  1.
        -11    1    4    4    0    0 -0.49528547398E-03  0.58348407292E-01  0.15505847653E-02  0.58373344733E-01  0.51100000000E-03 0. -1.
         11    1    4    4    0    0  0.18694454660E-01  0.67689551839E-01 -0.78965524562E-02  0.70668060147E-01  0.51100000000E-03 0.  1.
</event>
<event>
 8    1  0.1137518E+005  0.1043930E+01  0.7957747E-01            NaN
         13   -1    0    0    0    0  0.00000000000E+00  0.00000000000E+00  0.74505805969E-08  0.10566000000E+00  0.10566000000E+00 0. -1.
     999900   -1    0    0    0    0 -0.00000000000E+00 -0.00000000000E+00 -0.74505805969E-08  0.93827000000E+00  0.93827000000E+00 0. -1.
     999902    2    1    2    0    0 -0.10902220574E-01 -0.40544194795E-02  0.20871427713E-01  0.10200362095E+01  0.10197563216E+01 0.  0.
     999903    2    3    3    0    0 -0.10057453001E+00 -0.61616784756E-01  0.57621060014E-01  0.13284677962E+00  0.20401373673E-01 0.  0.
         14    1    1    2    0    0  0.10902220574E-01  0.40544194795E-02 -0.20871427713E-01  0.23893790523E-01  0.00000000000E+00 0.  1.
     999901    1    3    3    0    0  0.89672309437E-01  0.57562365276E-01 -0.36749632301E-01  0.88718942986E+00  0.88000000000E+00 0. -1.
        -11    1    4    4    0    0 -0.58636201693E-01 -0.27431496003E-01  0.23461591911E-01  0.68857813921E-01  0.51100000000E-03 0.  1.
         11    1    4    4    0    0 -0.41938328318E-01 -0.34185288753E-01  0.34159468102E-01  0.63988965700E-01  0.51100000000E-03 0. -1.
</event>
<event>
 8    1  0.1137518E+005  0.1043930E+01  0.7957747E-01            NaN
         13   -1    0    0    0    0  0.00000000000E+00  0.00000000000E+00  0.74505805969E-08  0.10566000000E+00  0.10566000000E+00 0. -1.
     999900   -1    0    0    0    0 -0.00000000000E+00 -0.00000000000E+00 -0.74505805969E-08  0.93827000000E+00  0.93827000000E+00 0. -1.
     999902    2    1    2    0    0 -0.94493909154E-02 -0.21832175872E-01 -0.30792795078E-02  0.10199421519E+01  0.10196600298E+01 0.  0.
     999903    2    3    3    0    0  0.10499753432E+00  0.48860240738E-01  0.50891610848E-01  0.12808545187E+00  0.20102775649E-01 0.  0.
         14    1    1    2    0    0  0.94493909154E-02  0.21832175872E-01  0.30792795078E-02  0.23987848054E-01  0.00000000000E+00 0. -1.
     999901    1    3    3    0    0 -0.11444692523E+00 -0.70692416610E-01 -0.53970890356E-01  0.89185670007E+00  0.88000000000E+00 0. -1.
        -11    1    4    4    0    0  0.72904118711E-01  0.39365318746E-01  0.44357263842E-01  0.93981204618E-01  0.51100000000E-03 0.  1.
         11    1    4    4    0    0  0.32093415607E-01  0.94949219918E-02  0.65343470066E-02  0.34104247253E-01  0.51100000000E-03 0. -1.
</event>
<event>
 8    1  0.1137518E+005  0.1043930E+01  0.7957747E-01            NaN
         13   -1    0    0    0    0  0.00000000000E+00  0.00000000000E+00  0.74505805969E-08  0.10566000000E+00  0.10566000000E+00 0. -1.
     999900   -1    0    0    0    0 -0.00000000000E+00 -0.00000000000E+00 -0.74505805969E-08  0.93827000000E+00  0.93827000000E+00 0. -1.
     999902    2    1    2    0    0  0.85522450286E-02  0.17955081634E-01 -0.98636062530E-02  0.10217305275E+01  0.10214893314E+01 0.  0.
     999903    2    3    3    0    0  0.87488352084E-01 -0.74335310937E-01  0.59217622760E-01  0.13070828211E+00  0.19949385049E-01 0.  0.
         14    1    1    2    0    0 -0.85522450286E-02 -0.17955081634E-01  0.98636062530E-02  0.22199472513E-01  0.00000000000E+00 0. -1.
     999901    1    3    3    0    0 -0.78936107056E-01  0.92290392572E-01 -0.69081229013E-01  0.89102224538E+00  0.88000000000E+00 0. -1.
        -11    1    4    4    0    0  0.23797769270E-01 -0.20394824275E-01  0.65706572467E-02  0.32026822151E-01  0.51100000000E-03 0.  1.
         11    1    4    4    0    0  0.63690582815E-01 -0.53940486662E-01  0.52646965513E-01  0.98681459958E-01  0.51100000000E-03 0. -1.
</event>
<event>
 8    1  0.1137518E+005  0.1043930E+01  0.7957747E-01            NaN
         13   -1    0    0    0    0  0.00000000000E+00  0.00000000000E+00  0.74505805969E-08  0.10566000000E+00  0.10566000000E+00 0. -1.
     999900   -1    0    0    0    0 -0.00000000000E+00 -0.00000000000E+00 -0.74505805969E-08  0.93827000000E+00  0.93827000000E+00 0.  1.
     999902    2    1    2    0    0 -0.15434852996E-01  0.47503427467E-02 -0.17256996103E-01  0.10202951876E+01  0.10200214044E+01 0.  0.
     999903    2    3    3    0    0  0.68790389055E-01  0.10872052200E+00 -0.33500646731E-02  0.13007212997E+00  0.18848515380E-01 0.  0.
         14    1    1    2    0    0  0.15434852996E-01 -0.47503427467E-02  0.17256996103E-01  0.23634812411E-01  0.00000000000E+00 0. -1.
     999901    1    3    3    0    0 -0.84225242051E-01 -0.10397017925E+00 -0.13906931430E-01  0.89022305762E+00  0.88000000000E+00 0. -1.
        -11    1    4    4    0    0  0.37992050240E-01  0.61370731224E-01 -0.11192620888E-01  0.73043127095E-01  0.51100000000E-03 0. -1.
         11    1    4    4    0    0  0.30798338816E-01  0.47349790774E-01  0.78425562146E-02  0.57029002876E-01  0.51100000000E-03 0.  1.
</event>
<event>
 8    1  0.1137518E+005  0.1043930E+01  0.7957747E-01            NaN
         13   -1    0    0    0    0  0.00000000000E+00  0.00000000000E+00  0.74505805969E-08  0.10566000000E+00  0.10566000000E+00 0. -1.
     999900   -1    0    0    0    0 -0.00000000000E+00 -0.00000000000E+00 -0.74505805969E-08  0.93827000000E+00  0.93827000000E+00 0.  1.
     999902    2    1    2    0    0  0.87998744975E-03  0.19263050412E-01 -0.15496925932E-01  0.10191914834E+01  0.10188912040E+01 0.  0.
     999903    2    3    3    0    0  0.87630158927E-01  0.46594916735E-01  0.80552331515E-01  0.12930492716E+00  0.19518069968E-01 0.  0.
         14    1    1    2    0    0 -0.87998744975E-03 -0.19263050412E-01  0.15496925932E-01  0.24738516577E-01  0.00000000000E+00 0. -1.
     999901    1    3    3    0    0 -0.86750171477E-01 -0.27331866323E-01 -0.96049257447E-01  0.88988655627E+00  0.88000000000E+00 0.  1.
        -11    1    4    4    0    0  0.54125970106E-01  0.37960320307E-01  0.58451429752E-01  0.88246457826E-01  0.51100000000E-03 0. -1.
         11    1    4    4    0    0  0.33504188821E-01  0.86345964273E-02  0.22100901763E-01  0.41058469330E-01  0.51100000000E-03 0.  1.
</event>
<event>
 8    1  0.1137518E+005  0.1043930E+01  0.7957747E-01            NaN
         13   -1    0    0    0    0  0.00000000000E+00  0.00000000000E+00  0.74505805969E-08  0.10566000000E+00  0.10566000000E+00 0. -1.
     999900   -1    0    0    0    0 -0.00000000000E+00 -0.00000000000E+00 -0.74505805969E-08  0.93827000000E+00  0.93827000000E+00 0. -1.
     999902    2    1    2    0    0 -0.11208081321E-01  0.16496810326E-01  0.13299262659E-01  0.10199584288E+01  0.10196766940E+01 0.  0.
     999903    2    3    3    0    0 -0.31308954364E-01 -0.35263436830E-01 -0.11746856797E+00  0.12856435557E+00  0.22498187957E-01 0.  0.
         14    1    1    2    0    0  0.11208081321E-01 -0.16496810326E-01 -0.13299262659E-01  0.23971571186E-01  0.00000000000E+00 0.  1.
     999901    1    3    3    0    0  0.20100873043E-01  0.51760247156E-01  0.13076783063E+00  0.89139407324E+00  0.88000000000E+00 0.  1.
        -11    1    4    4    0    0 -0.14768224259E-01 -0.21989117024E-02 -0.27539304959E-01  0.31330657495E-01  0.51100000000E-03 0. -1.
         11    1    4    4    0    0 -0.16540730105E-01 -0.33064525127E-01 -0.89929263016E-01  0.97233698078E-01  0.51100000000E-03 0.  1.
</event>
<event>
 8    1  0.1137518E+005  0.1043930E+01  0.7957747E-01            NaN
         13   -1    0    0    0    0  0.00000000000E+00  0.00000000000E+00  0.74505805969E-08  0.10566000000E+00  0.10566000000E+00 0. -1.
     999900   -1    0    0    0    0 -0.00000000000E+00 -0.00000000000E+00 -0.74505805969E-08  0.93827000000E+00  0.93827000000E+00 0.  1.
     999902    2    1    2    0    0  0.20182143856E-01  0.11511867930E-01  0.51486425686E-02  0.10201318792E+01  0.10198542545E+01 0.  0.
     999903    2    3    3    0    0  0.13736165195E-01 -0.91854781584E-01  0.88883103939E-01  0.13011071377E+00  0.20065107472E-01 0.  0.
         14    1    1    2    0    0 -0.20182143856E-01 -0.11511867930E-01 -0.51486425686E-02  0.23798120811E-01  0.00000000000E+00 0.  1.
     999901    1    3    3    0    0  0.64459786614E-02  0.10336664951E+00 -0.83734461370E-01  0.89002116542E+00  0.88000000000E+00 0.  1.
        -11    1    4    4    0    0  0.18851019046E-01 -0.77815263553E-01  0.75005414269E-01  0.10971166507E+00  0.51100000000E-03 0. -1.
         11    1    4    4    0    0 -0.51148538509E-02 -0.14039518031E-01  0.13877689669E-01  0.20399048704E-01  0.51100000000E-03 0.  1.
</event>
<event>
 8    1  0.1137518E+005  0.1043930E+01  0.7957747E-01            NaN
         13   -1    0    0    0    0  0.00000000000E+00  0.00000000000E+00  0.74505805969E-08  0.10566000000E+00  0.10566000000E+00 0. -1.
     999900   -1    0    0    0    0 -0.00000000000E+00 -0.00000000000E+00 -0.74505805969E-08  0.93827000000E+00  0.93827000000E+00 0. -1.
     999902    2    1    2    0    0 -0.35834271204E-02  0.17897864860E-01 -0.15488203164E-01  0.10199913502E+01  0.10197103979E+01 0.  0.
     999903    2    3    3    0    0 -0.10560131268E+00  0.67309273016E-01 -0.38140058170E-01  0.13243163799E+00  0.20032454383E-01 0.  0.
         14    1    1    2    0    0  0.35834271204E-02 -0.17897864860E-01  0.15488203164E-01  0.23938649789E-01  0.00000000000E+00 0. -1.
     999901    1    3    3    0    0  0.10201788556E+00 -0.49411408155E-01  0.22651855006E-01  0.88755971223E+00  0.88000000000E+00 0.  1.
        -11    1    4    4    0    0 -0.33818154415E-01  0.27815209101E-01 -0.21676220236E-01  0.48861775143E-01  0.51100000000E-03 0.  1.
         11    1    4    4    0    0 -0.71783158265E-01  0.39494063915E-01 -0.16463837933E-01  0.83569862843E-01  0.51100000000E-03 0. -1.
</event>
<event>
 7    1  0.1137518E+005  0.1043930E+01  0.7957747E-01            NaN
         13   -1    0    0    0    0  0.00000000000E+00  0.00000000000E+00  0.74505805969E-08  0.10566000000E+00  0.10566000000E+00 0. -1.
     999900   -1    0    0    0    0 -0.00000000000E+00 -0.00000000000E+00 -0.74505805969E-08  0.93827000000E+00  0.93827000000E+00 0. -1.
     999903    2    1    2    0    0  0.79190791958E-01  0.26502481451E-01  0.37830458004E-01  0.93927036717E-01  0.20434813911E-01 0.  0.
         14    1    1    2    0    0  0.10610903133E-01  0.29456943702E-02  0.58672688021E-01  0.59697174976E-01  0.00000000000E+00 0. -1.
     999901    1    1    2    0    0 -0.89801695091E-01 -0.29448175821E-01 -0.96503146024E-01  0.89030578831E+00  0.88000000000E+00 0. -1.
        -11    1    3    3    0    0  0.33707492923E-04 -0.29215038987E-03  0.35501326452E-02  0.35987568470E-02  0.51100000000E-03 0. -1.
         11    1    3    3    0    0  0.79157084465E-01  0.26794631841E-01  0.34280325358E-01  0.90328279870E-01  0.51100000000E-03 0.  1.
</event>
<event>
 8    1  0.1137518E+005  0.1043930E+01  0.7957747E-01            NaN
         13   -1    0    0    0    0  0.00000000000E+00  0.00000000000E+00  0.74505805969E-08  0.10566000000E+00  0.10566000000E+00 0.  1.
     999900   -1    0    0    0    0 -0.00000000000E+00 -0.00000000000E+00 -0.74505805969E-08  0.93827000000E+00  0.93827000000E+00 0.  1.
     999902    2    1    2    0    0  0.19563772534E-01 -0.68235174064E-02  0.10292459718E-01  0.10207948252E+01  0.10205326251E+01 0.  0.
     999903    2    3    3    0    0 -0.86684723031E-01 -0.83698874603E-01  0.45164804409E-01  0.13039343046E+00  0.21043866855E-01 0.  0.
         14    1    1    2    0    0 -0.19563772534E-01  0.68235174064E-02 -0.10292459718E-01  0.23135174790E-01  0.00000000000E+00 0.  1.
     999901    1    3    3    0    0  0.10624849556E+00  0.76875357197E-01 -0.34872344691E-01  0.89040139475E+00  0.88000000000E+00 0.  1.
        -11    1    4    4    0    0 -0.68073855181E-01 -0.68750740884E-01  0.27167526242E-01  0.10049402835E+00  0.51100000000E-03 0.  1.
         11    1    4    4    0    0 -0.18610867850E-01 -0.14948133719E-01  0.17997278166E-01  0.29899402104E-01  0.51100000000E-03 0. -1.
</event>
<event>
 7    1  0.1137518E+005  0.1043930E+01  0.7957747E-01            NaN
         13   -1    0    0    0    0  0.00000000000E+00  0.00000000000E+00  0.74505805969E-08  0.10566000000E+00  0.10566000000E+00 0. -1.
     999900   -1    0    0    0    0 -0.00000000000E+00 -0.00000000000E+00 -0.74505805969E-08  0.93827000000E+00  0.93827000000E+00 0. -1.
     999903    2    1    2    0    0 -0.81231266195E-01  0.22755345726E-01  0.70725498734E-01  0.11141750182E+00  0.17188344158E-01 0.  0.
         14    1    1    2    0    0 -0.26945193369E-01  0.26610935897E-01  0.14240526253E-01  0.40459584068E-01  0.00000000000E+00 0. -1.
     999901    1    1    2    0    0  0.10817645956E+00 -0.49366281623E-01 -0.84966024988E-01  0.89205291411E+00  0.88000000000E+00 0. -1.
        -11    1    3    3    0    0 -0.87955337045E-02  0.27093426619E-02  0.17047256735E-02  0.93738552063E-02  0.51100000000E-03 0. -1.
         11    1    3    3    0    0 -0.72435732491E-01  0.20046003064E-01  0.69020773061E-01  0.10204364662E+00  0.51100000000E-03 0.  1.
</event>
<event>
 8    1  0.1137518E+005  0.1043930E+01  0.7957747E-01            NaN
         13   -1    0    0    0    0  0.00000000000E+00  0.00000000000E+00  0.74505805969E-08  0.10566000000E+00  0.10566000000E+00 0.  1.
     999900   -1    0    0    0    0 -0.00000000000E+00 -0.00000000000E+00 -0.74505805969E-08  0.93827000000E+00  0.93827000000E+00 0. -1.
     999902    2    1    2    0    0 -0.11160568140E-01  0.88745511830E-02  0.17904928134E-01  0.10210410858E+01  0.10207845006E+01 0.  0.
     999903    2    3    3    0    0 -0.10781875600E-01 -0.59205099161E-01 -0.11266005746E+00  0.12880670091E+00  0.16654880463E-01 0.  0.
         14    1    1    2    0    0  0.11160568140E-01 -0.88745511830E-02 -0.17904928134E-01  0.22888914159E-01  0.00000000000E+00 0. -1.
     999901    1    3    3    0    0 -0.37869253961E-03  0.68079650344E-01  0.13056498559E+00  0.89223438494E+00  0.88000000000E+00 0.  1.
        -11    1    4    4    0    0  0.35661096098E-02 -0.23718292578E-01 -0.48090773294E-01  0.53742517038E-01  0.51100000000E-03 0. -1.
         11    1    4    4    0    0 -0.14347985210E-01 -0.35486806583E-01 -0.64569284166E-01  0.75064183868E-01  0.51100000000E-03 0.  1.
</event>
<event>
 8    1  0.1137518E+005  0.1043930E+01  0.7957747E-01            NaN
         13   -1    0    0    0    0  0.00000000000E+00  0.00000000000E+00  0.74505805969E-08  0.10566000000E+00  0.10566000000E+00 0.  1.
     999900   -1    0    0    0    0 -0.00000000000E+00 -0.00000000000E+00 -0.74505805969E-08  0.93827000000E+00  0.93827000000E+00 0. -1.
     999902    2    1    2    0    0  0.15478089624E-01 -0.78869967535E-02 -0.75084215544E-02  0.10250050860E+01  0.10248303635E+01 0.  0.
     999903    2    3    3    0    0 -0.50434856905E-01 -0.11481366053E+00  0.44571156078E-01  0.13456131440E+00  0.19857188753E-01 0.  0.
         14    1    1    2    0    0 -0.15478089624E-01  0.78869967535E-02  0.75084215544E-02  0.18924914014E-01  0.00000000000E+00 0.  1.
     999901    1    3    3    0    0  0.65912946529E-01  0.10692666377E+00 -0.52079577632E-01  0.89044377158E+00  0.88000000000E+00 0. -1.
        -11    1    4    4    0    0 -0.46087218206E-01 -0.10186942380E+00  0.32791089063E-01  0.11652007480E+00  0.51100000000E-03 0.  1.
         11    1    4    4    0    0 -0.43476386991E-02 -0.12944236722E-01  0.11780067015E-01  0.18041239604E-01  0.51100000000E-03 0. -1.
</event>
<event>
 8    1  0.1137518E+005  0.1043930E+01  0.7957747E-01            NaN
         13   -1    0    0    0    0  0.00000000000E+00  0.00000000000E+00  0.74505805969E-08  0.10566000000E+00  0.10566000000E+00 0. -1.
     999900   -1    0    0    0    0 -0.00000000000E+00 -0.00000000000E+00 -0.74505805969E-08  0.93827000000E+00  0.93827000000E+00 0. -1.
     999902    2    1    2    0    0 -0.25733825242E-01  0.81357061393E-02  0.69536340834E-02  0.10160593613E+01  0.10156770417E+01 0.  0.
     999903    2    3    3    0    0 -0.12031556573E+00 -0.28368129054E-01  0.34439162295E-01  0.12981239238E+00  0.19611609118E-01 0.  0.
         14    1    1    2    0    0  0.25733825242E-01 -0.81357061393E-02 -0.69536340834E-02  0.27870638725E-01  0.00000000000E+00 0.  1.
     999901    1    3    3    0    0  0.94581740489E-01  0.36503835193E-01 -0.27485528212E-01  0.88624696890E+00  0.88000000000E+00 0. -1.
        -11    1    4    4    0    0 -0.61303601548E-01 -0.43950964054E-02  0.16845619884E-01  0.63729776914E-01  0.51100000000E-03 0. -1.
         11    1    4    4    0    0 -0.59011964183E-01 -0.23973032648E-01  0.17593542411E-01  0.66082615464E-01  0.51100000000E-03 0.  1.
</event>
<event>
 8    1  0.1137518E+005  0.1043930E+01  0.7957747E-01            NaN
         13   -1    0    0    0    0  0.00000000000E+00  0.00000000000E+00  0.74505805969E-08  0.10566000000E+00  0.10566000000E+00 0. -1.
     999900   -1    0    0    0    0 -0.00000000000E+00 -0.00000000000E+00 -0.74505805969E-08  0.93827000000E+00  0.93827000000E+00 0. -1.
     999902    2    1    2    0    0  0.55935089454E-02 -0.18436441279E-01  0.14620352508E-01  0.10197443758E+01  0.10194575261E+01 0.  0.
     999903    2    3    3    0    0  0.11503089737E+00  0.77345998451E-02 -0.56099320021E-01  0.12976531008E+00  0.19999265223E-01 0.  0.
         14    1    1    2    0    0 -0.55935089454E-02  0.18436441279E-01 -0.14620352508E-01  0.24185624176E-01  0.00000000000E+00 0.  1.
     999901    1    3    3    0    0 -0.10943738842E+00 -0.26171041124E-01  0.70719672528E-01  0.88997906574E+00  0.88000000000E+00 0.  1.
        -11    1    4    4    0    0  0.46759832316E-01  0.33303348969E-02 -0.33846752297E-01  0.57822459398E-01  0.51100000000E-03 0. -1.
         11    1    4    4    0    0  0.68271065052E-01  0.44042649481E-02 -0.22252567724E-01  0.71942850683E-01  0.51100000000E-03 0.  1.
</event>
<event>
 8    1  0.1137518E+005  0.1043930E+01  0.7957747E-01            NaN
         13   -1    0    0    0    0  0.00000000000E+00  0.00000000000E+00  0.74505805969E-08  0.10566000000E+00  0.10566000000E+00 0. -1.
     999900   -1    0    0    0    0 -0.00000000000E+00 -0.00000000000E+00 -0.74505805969E-08  0.93827000000E+00  0.93827000000E+00 0. -1.
     999902    2    1    2    0    0 -0.17258246178E-01 -0.13024695866E-01 -0.88389581251E-02  0.10205715552E+01  0.10203042107E+01 0.  0.
     999903    2    3    3    0    0  0.10186744105E+00 -0.95046250995E-02  0.75681558477E-01  0.12852501044E+00  0.17990735742E-01 0.  0.
         14    1    1    2    0    0  0.17258246178E-01  0.13024695866E-01  0.88389581251E-02  0.23358444818E-01  0.00000000000E+00 0.  1.
     999901    1    3    3    0    0 -0.11912568722E+00 -0.35200707665E-02 -0.84520516602E-01  0.89204654474E+00  0.88000000000E+00 0. -1.
        -11    1    4    4    0    0  0.37021618280E-01 -0.11922900733E-01  0.25801420059E-01  0.46676869861E-01  0.51100000000E-03 0. -1.
         11    1    4    4    0    0  0.64845822765E-01  0.24182756339E-02  0.49880138418E-01  0.81848140582E-01  0.51100000000E-03 0.  1.
</event>
<event>
 8    1  0.1137518E+005  0.1043930E+01  0.7957747E-01            NaN
         13   -1    0    0    0    0  0.00000000000E+00  0.00000000000E+00  0.74505805969E-08  0.10566000000E+00  0.10566000000E+00 0.  1.
     999900   -1    0    0    0    0 -0.00000000000E+00 -0.00000000000E+00 -0.74505805969E-08  0.93827000000E+00  0.93827000000E+00 0. -1.
     999902    2    1    2    0    0  0.41432730339E-02  0.13873939841E-01 -0.19251263004E-01  0.10198413295E+01  0.10195568024E+01 0.  0.
     999903    2    3    3    0    0  0.10039331554E+00 -0.14280517511E-01  0.77039296186E-01  0.12892684657E+00  0.20107899527E-01 0.  0.
         14    1    1    2    0    0 -0.41432730339E-02 -0.13873939841E-01  0.19251263004E-01  0.24088670478E-01  0.00000000000E+00 0.  1.
     999901    1    3    3    0    0 -0.96250042506E-01  0.28154457351E-01 -0.96290559190E-01  0.89091448296E+00  0.88000000000E+00 0. -1.
        -11    1    4    4    0    0  0.10114816773E+00 -0.14681158163E-01  0.75410019073E-01  0.12701740171E+00  0.51100000000E-03 0.  1.
         11    1    4    4    0    0 -0.75485218599E-03  0.40064065253E-03  0.16292771120E-02  0.19094448573E-02  0.51100000000E-03 0. -1.
</event>
<event>
 8    1  0.1137518E+005  0.1043930E+01  0.7957747E-01            NaN
         13   -1    0    0    0    0  0.00000000000E+00  0.00000000000E+00  0.74505805969E-08  0.10566000000E+00  0.10566000000E+00 0. -1.
     999900   -1    0    0    0    0 -0.00000000000E+00 -0.00000000000E+00 -0.74505805969E-08  0.93827000000E+00  0.93827000000E+00 0. -1.
     999902    2    1    2    0    0  0.88112896446E-02 -0.19880936921E-01  0.11896420955E-01  0.10191425978E+01  0.10188411158E+01 0.  0.
     999903    2    3    3    0    0  0.21510634032E-01 -0.10017365043E+00  0.82208340987E-01  0.13260328150E+00  0.18109426209E-01 0.  0.
         14    1    1    2    0    0 -0.88112896446E-02  0.19880936921E-01 -0.11896420955E-01  0.24787402236E-01  0.00000000000E+00 0.  1.
     999901    1    3    3    0    0 -0.12699344387E-01  0.80292713514E-01 -0.70311920032E-01  0.88653931627E+00  0.88000000000E+00 0. -1.
        -11    1    4    4    0    0  0.17579493715E-01 -0.45637210216E-01  0.32640850678E-01  0.58800338516E-01  0.51100000000E-03 0. -1.
         11    1    4    4    0    0  0.39311403169E-02 -0.54536440219E-01  0.49567490309E-01  0.73802942980E-01  0.51100000000E-03 0.  1.
</event>
<event>
 8    1  0.1137518E+005  0.1043930E+01  0.7957747E-01            NaN
         13   -1    0    0    0    0  0.00000000000E+00  0.00000000000E+00  0.74505805969E-08  0.10566000000E+00  0.10566000000E+00 0.  1.
     999900   -1    0    0    0    0 -0.00000000000E+00 -0.00000000000E+00 -0.74505805969E-08  0.93827000000E+00  0.93827000000E+00 0. -1.
     999902    2    1    2    0    0 -0.47036593023E-02  0.38105050849E-02 -0.22087626130E-01  0.10210278694E+01  0.10207709843E+01 0.  0.
     999903    2    3    3    0    0 -0.20430927833E-01 -0.11188549543E+00  0.60034819783E-01  0.12952520103E+00  0.15388671667E-01 0.  0.
         14    1    1    2    0    0  0.47036593023E-02 -0.38105050849E-02  0.22087626130E-01  0.22902130641E-01  0.00000000000E+00 0.  1.
     999901    1    3    3    0    0  0.15727268531E-01  0.11569600052E+00 -0.82122445913E-01  0.89150266833E+00  0.88000000000E+00 0.  1.
        -11    1    4    4    0    0 -0.81900186565E-02 -0.55995769084E-01  0.38220167307E-01  0.68290884244E-01  0.51100000000E-03 0.  1.
         11    1    4    4    0    0 -0.12240909176E-01 -0.55889726349E-01  0.21814652476E-01  0.61234316788E-01  0.51100000000E-03 0. -1.
</event>
<event>
 8    1  0.1137518E+005  0.1043930E+01  0.7957747E-01            NaN
         13   -1    0    0    0    0  0.00000000000E+00  0.00000000000E+00  0.74505805969E-08  0.10566000000E+00  0.10566000000E+00 0. -1.
     999900   -1    0    0    0    0 -0.00000000000E+00 -0.00000000000E+00 -0.74505805969E-08  0.93827000000E+00  0.93827000000E+00 0. -1.
     999902    2    1    2    0    0 -0.72343024032E-02 -0.32552959463E-01 -0.46012751395E-02  0.10102669337E+01  0.10097059350E+01 0.  0.
     999903    2    3    3    0    0  0.90449080871E-01  0.36538392067E-01  0.65788441145E-01  0.11938513996E+00  0.20213914262E-01 0.  0.
         14    1    1    2    0    0  0.72343024032E-02  0.32552959463E-01  0.46012751395E-02  0.33663066319E-01  0.00000000000E+00 0. -1.
     999901    1    3    3    0    0 -0.97683383275E-01 -0.69091351531E-01 -0.70389716284E-01  0.89088179372E+00  0.88000000000E+00 0. -1.
        -11    1    4    4    0    0  0.15238600094E-01  0.25914907820E-02  0.19092729236E-01  0.24570799499E-01  0.51100000000E-03 0. -1.
         11    1    4    4    0    0  0.75210480777E-01  0.33946901285E-01  0.46695711908E-01  0.94814340462E-01  0.51100000000E-03 0.  1.
</event>
<event>
 8    1  0.1137518E+005  0.1043930E+01  0.7957747E-01            NaN
         13   -1    0    0    0    0  0.00000000000E+00  0.00000000000E+00  0.74505805969E-08  0.10566000000E+00  0.10566000000E+00 0. -1.
     999900   -1    0    0    0    0 -0.00000000000E+00 -0.00000000000E+00 -0.74505805969E-08  0.93827000000E+00  0.93827000000E+00 0. -1.
     999902    2    1    2    0    0 -0.11731628475E-01 -0.61424176317E-03 -0.20531958466E-01  0.10202747740E+01  0.10200005121E+01 0.  0.
     999903    2    3    3    0    0  0.45484267718E-01 -0.12028152469E+00 -0.20305705839E-02  0.13014207672E+00  0.19909121620E-01 0.  0.
         14    1    1    2    0    0  0.11731628475E-01  0.61424176317E-03  0.20531958466E-01  0.23655226020E-01  0.00000000000E+00 0. -1.
     999901    1    3    3    0    0 -0.57215896193E-01  0.11966728293E+00 -0.18501387882E-01  0.89013269726E+00  0.88000000000E+00 0. -1.
        -11    1    4    4    0    0  0.37481959521E-01 -0.72526741424E-01  0.66309109633E-03  0.81643899478E-01  0.51100000000E-03 0.  1.
         11    1    4    4    0    0  0.80023081972E-02 -0.47754783268E-01 -0.26936616803E-02  0.48498177241E-01  0.51100000000E-03 0. -1.
</event>
<event>
 8    1  0.1137518E+005  0.1043930E+01  0.7957747E-01            NaN
         13   -1    0    0    0    0  0.00000000000E+00  0.00000000000E+00  0.74505805969E-08  0.10566000000E+00  0.10566000000E+00 0.  1.
     999900   -1    0    0    0    0 -0.00000000000E+00 -0.00000000000E+00 -0.74505805969E-08  0.93827000000E+00  0.93827000000E+00 0. -1.
     999902    2    1    2    0    0 -0.13928854724E-02  0.20312592990E-01 -0.16050315127E-01  0.10180040636E+01  0.10176738767E+01 0.  0.
     999903    2    3    3    0    0 -0.63542831740E-01  0.11232244991E+00 -0.10091804997E-01  0.13100691959E+00  0.20172858826E-01 0.  0.
         14    1    1    2    0    0  0.13928854724E-02 -0.20312592990E-01  0.16050315127E-01  0.25925936427E-01  0.00000000000E+00 0.  1.
     999901    1    3    3    0    0  0.62149946267E-01 -0.92009856920E-01 -0.59585101302E-02  0.88699714398E+00  0.88000000000E+00 0.  1.
        -11    1    4    4    0    0 -0.27200378011E-01  0.63474845313E-01 -0.11984229405E-01  0.70091364852E-01  0.51100000000E-03 0. -1.
         11    1    4    4    0    0 -0.36342453729E-01  0.48847604597E-01  0.18924244084E-02  0.60915554738E-01  0.51100000000E-03 0.  1.
</event>
<event>
 8    1  0.1137518E+005  0.1043930E+01  0.7957747E-01            NaN
         13   -1    0    0    0    0  0.00000000000E+00  0.00000000000E+00  0.74505805969E-08  0.10566000000E+00  0.10566000000E+00 0. -1.
     999900   -1    0    0    0    0 -0.00000000000E+00 -0.00000000000E+00 -0.74505805969E-08  0.93827000000E+00  0.93827000000E+00 0. -1.
     999902    2    1    2    0    0 -0.12497242736E-01  0.17068298451E-01  0.10238786635E-01  0.10204280716E+01  0.10201573940E+01 0.  0.
     999903    2    3    3    0    0  0.11353758870E+00  0.57161487630E-01  0.11471776570E-01  0.13054394270E+00  0.27420787784E-01 0.  0.
         14    1    1    2    0    0  0.12497242736E-01 -0.17068298451E-01 -0.10238786635E-01  0.23501928427E-01  0.00000000000E+00 0.  1.
     999901    1    3    3    0    0 -0.12603483144E+00 -0.40093189179E-01 -0.12329899345E-02  0.88988412887E+00  0.88000000000E+00 0. -1.
        -11    1    4    4    0    0  0.75759348276E-01  0.23794278043E-01  0.32920508203E-02  0.79477954417E-01  0.51100000000E-03 0.  1.
         11    1    4    4    0    0  0.37778240424E-01  0.33367209587E-01  0.81797257492E-02  0.51065988284E-01  0.51100000000E-03 0. -1.
</event>
<event>
 8    1  0.1137518E+005  0.1043930E+01  0.7957747E-01            NaN
         13   -1    0    0    0    0  0.00000000000E+00  0.00000000000E+00  0.74505805969E-08  0.10566000000E+00  0.10566000000E+00 0. -1.
     999900   -1    0    0    0    0 -0.00000000000E+00 -0.00000000000E+00 -0.74505805969E-08  0.93827000000E+00  0.93827000000E+00 0. -1.
     999902    2    1    2    0    0  0.68102818027E-02 -0.24234270503E-01 -0.45521585430E-02  0.10183487187E+01  0.10180273626E+01 0.  0.
     999903    2    3    3    0    0  0.23677360301E-01  0.31994839186E-01 -0.12082157011E+00  0.12876185551E+00  0.19936812812E-01 0.  0.
         14    1    1    2    0    0 -0.68102818027E-02  0.24234270503E-01  0.45521585430E-02  0.25581281290E-01  0.00000000000E+00 0. -1.
     999901    1    3    3    0    0 -0.16867078498E-01 -0.56229109688E-01  0.11626941157E+00  0.88958686320E+00  0.88000000000E+00 0.  1.
        -11    1    4    4    0    0  0.26035032385E-01  0.31011840098E-01 -0.11865136577E+00  0.12537130795E+00  0.51100000000E-03 0.  1.
         11    1    4    4    0    0 -0.23576720846E-02  0.98299908735E-03 -0.21702043413E-02  0.33905475586E-02  0.51100000000E-03 0. -1.
</event>
<event>
 8    1  0.1137518E+005  0.1043930E+01  0.7957747E-01            NaN
         13   -1    0    0    0    0  0.00000000000E+00  0.00000000000E+00  0.74505805969E-08  0.10566000000E+00  0.10566000000E+00 0.  1.
     999900   -1    0    0    0    0 -0.00000000000E+00 -0.00000000000E+00 -0.74505805969E-08  0.93827000000E+00  0.93827000000E+00 0.  1.
     999902    2    1    2    0    0 -0.59411271407E-03 -0.11073416275E-01 -0.21336682453E-01  0.10198836378E+01  0.10196001212E+01 0.  0.
     999903    2    3    3    0    0  0.90934687695E-02 -0.28188742340E-01 -0.12836754242E+00  0.13318053718E+00  0.19532874057E-01 0.  0.
         14    1    1    2    0    0  0.59411271407E-03  0.11073416275E-01  0.21336682453E-01  0.24046362220E-01  0.00000000000E+00 0.  1.
     999901    1    3    3    0    0 -0.96875814836E-02  0.17115326065E-01  0.10703085997E+00  0.88670310060E+00  0.88000000000E+00 0. -1.
        -11    1    4    4    0    0  0.50303534689E-02 -0.16750804338E-01 -0.36103155615E-01  0.40119731658E-01  0.51100000000E-03 0.  1.
         11    1    4    4    0    0  0.40631153006E-02 -0.11437938002E-01 -0.92264386805E-01  0.93060805526E-01  0.51100000000E-03 0. -1.
</event>
<event>
 8    1  0.1137518E+005  0.1043930E+01  0.7957747E-01            NaN
         13   -1    0    0    0    0  0.00000000000E+00  0.00000000000E+00  0.74505805969E-08  0.10566000000E+00  0.10566000000E+00 0.  1.
     999900   -1    0    0    0    0 -0.00000000000E+00 -0.00000000000E+00 -0.74505805969E-08  0.93827000000E+00  0.93827000000E+00 0.  1.
     999902    2    1    2    0    0  0.19890495411E-01  0.12125452950E-01  0.27051761488E-02  0.10204784245E+01  0.10202089190E+01 0.  0.
     999903    2    3    3    0    0  0.18271528306E-01 -0.11115538157E+00  0.55658272286E-01  0.13030719622E+00  0.34536278228E-01 0.  0.
         14    1    1    2    0    0 -0.19890495411E-01 -0.12125452950E-01 -0.27051761488E-02  0.23451575532E-01  0.00000000000E+00 0. -1.
     999901    1    3    3    0    0  0.16189671049E-02  0.12328083452E+00 -0.52953096137E-01  0.89017122825E+00  0.88000000000E+00 0. -1.
        -11    1    4    4    0    0 -0.95661020858E-02 -0.45667915330E-01  0.21942273018E-01  0.51563487720E-01  0.51100000000E-03 0. -1.
         11    1    4    4    0    0  0.27837630392E-01 -0.65487466239E-01  0.33715999268E-01  0.78743708497E-01  0.51100000000E-03 0.  1.
</event>
<event>
 8    1  0.1137518E+005  0.1043930E+01  0.7957747E-01            NaN
         13   -1    0    0    0    0  0.00000000000E+00  0.00000000000E+00  0.74505805969E-08  0.10566000000E+00  0.10566000000E+00 0. -1.
     999900   -1    0    0    0    0 -0.00000000000E+00 -0.00000000000E+00 -0.74505805969E-08  0.93827000000E+00  0.93827000000E+00 0. -1.
     999902    2    1    2    0    0  0.33716649399E-02  0.54305106399E-02  0.22491021921E-01  0.10205482841E+01  0.10202804005E+01 0.  0.
     999903    2    3    3    0    0 -0.64428930684E-01  0.96797514337E-02  0.11450248658E+00  0.13314697330E+00  0.19300579526E-01 0.  0.
         14    1    1    2    0    0 -0.33716649399E-02 -0.54305106399E-02 -0.22491021921E-01  0.23381715877E-01  0.00000000000E+00 0.  1.
     999901    1    3    3    0    0  0.67800595624E-01 -0.42492407938E-02 -0.92011464660E-01  0.88740131082E+00  0.88000000000E+00 0. -1.
        -11    1    4    4    0    0 -0.25144123751E-01  0.10911414170E-01  0.59821444973E-01  0.65803892879E-01  0.51100000000E-03 0. -1.
         11    1    4    4    0    0 -0.39284806933E-01 -0.12316627358E-02  0.54681041607E-01  0.67343080425E-01  0.51100000000E-03 0.  1.
</event>
<event>
 8    1  0.1137518E+005  0.1043930E+01  0.7957747E-01            NaN
         13   -1    0    0    0    0  0.00000000000E+00  0.00000000000E+00  0.74505805969E-08  0.10566000000E+00  0.10566000000E+00 0.  1.
     999900   -1    0    0    0    0 -0.00000000000E+00 -0.00000000000E+00 -0.74505805969E-08  0.93827000000E+00  0.93827000000E+00 0.  1.
     999902    2    1    2    0    0 -0.11616389338E-01  0.55752926498E-02  0.19806382730E-01  0.10203012635E+01  0.10200276228E+01 0.  0.
     999903    2    3    3    0    0 -0.41752533516E-01 -0.38979244884E-01 -0.11357824214E+00  0.12862601316E+00  0.19544272511E-01 0.  0.
         14    1    1    2    0    0  0.11616389338E-01 -0.55752926498E-02 -0.19806382730E-01  0.23628736451E-01  0.00000000000E+00 0. -1.
     999901    1    3    3    0    0  0.30136144178E-01  0.44554537534E-01  0.13338462487E+00  0.89167525039E+00  0.88000000000E+00 0.  1.
        -11    1    4    4    0    0 -0.27513114076E-01 -0.23839319124E-01 -0.90581559491E-01  0.97624610746E-01  0.51100000000E-03 0.  1.
         11    1    4    4    0    0 -0.14239419440E-01 -0.15139925759E-01 -0.22996682648E-01  0.31001402417E-01  0.51100000000E-03 0. -1.
</event>
<event>
 8    1  0.1137518E+005  0.1043930E+01  0.7957747E-01            NaN
         13   -1    0    0    0    0  0.00000000000E+00  0.00000000000E+00  0.74505805969E-08  0.10566000000E+00  0.10566000000E+00 0. -1.
     999900   -1    0    0    0    0 -0.00000000000E+00 -0.00000000000E+00 -0.74505805969E-08  0.93827000000E+00  0.93827000000E+00 0. -1.
     999902    2    1    2    0    0 -0.65351660785E-02  0.19364109146E-02 -0.22329688541E-01  0.10205831999E+01  0.10203161250E+01 0.  0.
     999903    2    3    3    0    0  0.57640264337E-01  0.10853493743E+00  0.37232792109E-01  0.12983664742E+00  0.19210452580E-01 0.  0.
         14    1    1    2    0    0  0.65351660785E-02 -0.19364109146E-02  0.22329688541E-01  0.23346800065E-01  0.00000000000E+00 0. -1.
     999901    1    3    3    0    0 -0.64175430415E-01 -0.10659852652E+00 -0.59562480651E-01  0.89074655252E+00  0.88000000000E+00 0.  1.
        -11    1    4    4    0    0  0.13406954055E-01  0.42548357021E-01  0.17938445020E-01  0.48084904419E-01  0.51100000000E-03 0.  1.
         11    1    4    4    0    0  0.44233310281E-01  0.65986580408E-01  0.19294347089E-01  0.81751742997E-01  0.51100000000E-03 0. -1.
</event>
<event>
 8    1  0.1137518E+005  0.1043930E+01  0.7957747E-01            NaN
         13   -1    0    0    0    0  0.00000000000E+00  0.00000000000E+00  0.74505805969E-08  0.10566000000E+00  0.10566000000E+00 0.  1.
     999900   -1    0    0    0    0 -0.00000000000E+00 -0.00000000000E+00 -0.74505805969E-08  0.93827000000E+00  0.93827000000E+00 0. -1.
     999902    2    1    2    0    0  0.14701197929E-01  0.59071891914E-02 -0.17674410975E-01  0.10201938481E+01  0.10199176843E+01 0.  0.
     999903    2    3    3    0    0 -0.37463450419E-01  0.33713173670E-01 -0.12055988364E+00  0.13223002911E+00  0.20248626095E-01 0.  0.
         14    1    1    2    0    0 -0.14701197929E-01 -0.59071891914E-02  0.17674410975E-01  0.23736151921E-01  0.00000000000E+00 0.  1.
     999901    1    3    3    0    0  0.52164648348E-01 -0.27805984479E-01  0.10288547267E+00  0.88796381897E+00  0.88000000000E+00 0.  1.
        -11    1    4    4    0    0 -0.13966733277E-01  0.26205105822E-02 -0.21485377369E-01  0.25764690486E-01  0.51100000000E-03 0. -1.
         11    1    4    4    0    0 -0.23496717142E-01  0.31092663088E-01 -0.99074506273E-01  0.10646533863E+00  0.51100000000E-03 0.  1.
</event>
<event>
 8    1  0.1137518E+005  0.1043930E+01  0.7957747E-01            NaN
         13   -1    0    0    0    0  0.00000000000E+00  0.00000000000E+00  0.74505805969E-08  0.10566000000E+00  0.10566000000E+00 0.  1.
     999900   -1    0    0    0    0 -0.00000000000E+00 -0.00000000000E+00 -0.74505805969E-08  0.93827000000E+00  0.93827000000E+00 0.  1.
     999902    2    1    2    0    0  0.66689848277E-02 -0.24721758931E-02  0.21206821991E-01  0.10215622484E+01  0.10213173410E+01 0.  0.
     999903    2    3    3    0    0  0.38244242914E-01 -0.12427897710E+00  0.18749906269E-01  0.13260784565E+00  0.18038721681E-01 0.  0.
         14    1    1    2    0    0 -0.66689848277E-02  0.24721758931E-02 -0.21206821991E-01  0.22367751591E-01  0.00000000000E+00 0. -1.
     999901    1    3    3    0    0 -0.31575258086E-01  0.12180680120E+00  0.24569157216E-02  0.88895440275E+00  0.88000000000E+00 0. -1.
        -11    1    4    4    0    0  0.50877148170E-02 -0.40585821378E-01  0.10336781839E-01  0.42192462819E-01  0.51100000000E-03 0. -1.
         11    1    4    4    0    0  0.33156528097E-01 -0.83693155718E-01  0.84131244297E-02  0.90415382835E-01  0.51100000000E-03 0.  1.
</event>
<event>
 8    1  0.1137518E+005  0.1043930E+01  0.7957747E-01            NaN
         13   -1    0    0    0    0  0.00000000000E+00  0.00000000000E+00  0.74505805969E-08  0.10566000000E+00  0.10566000000E+00 0.  1.
     999900   -1    0    0    0    0 -0.00000000000E+00 -0.00000000000E+00 -0.74505805969E-08  0.93827000000E+00  0.93827000000E+00 0. -1.
     999902    2    1    2    0    0  0.14395053799E-01 -0.81803160168E-02 -0.17038808047E-01  0.10201717146E+01  0.10198950295E+01 0.  0.
     999903    2    3    3    0    0  0.23841074491E-01  0.11752939638E-01 -0.12870530018E+00  0.13284090402E+00  0.19368093966E-01 0.  0.
         14    1    1    2    0    0 -0.14395053799E-01  0.81803160168E-02  0.17038808047E-01  0.23758285369E-01  0.00000000000E+00 0.  1.
     999901    1    3    3    0    0 -0.94460206922E-02 -0.19933255654E-01  0.11166649214E+00  0.88733081061E+00  0.88000000000E+00 0.  1.
        -11    1    4    4    0    0  0.94728398864E-02 -0.46794124040E-02 -0.32062784877E-01  0.33762625653E-01  0.51100000000E-03 0. -1.
         11    1    4    4    0    0  0.14368234604E-01  0.16432352042E-01 -0.96642515305E-01  0.99078278370E-01  0.51100000000E-03 0.  1.
</event>
<event>
 8    1  0.1137518E+005  0.1043930E+01  0.7957747E-01            NaN
         13   -1    0    0    0    0  0.00000000000E+00  0.00000000000E+00  0.74505805969E-08  0.10566000000E+00  0.10566000000E+00 0. -1.
     999900   -1    0    0    0    0 -0.00000000000E+00 -0.00000000000E+00 -0.74505805969E-08  0.93827000000E+00  0.93827000000E+00 0. -1.
     999902    2    1    2    0    0 -0.50799047684E-02 -0.21658396176E-01  0.82704313767E-02  0.10201962352E+01  0.10199201276E+01 0.  0.
     999903    2    3    3    0    0  0.10389287990E+00 -0.30725749600E-01 -0.69092917439E-01  0.13006008130E+00  0.20099535474E-01 0.  0.
         14    1    1    2    0    0  0.50799047684E-02  0.21658396176E-01 -0.82704313767E-02  0.23733764820E-01  0.00000000000E+00 0. -1.
     999901    1    3    3    0    0 -0.10897278467E+00  0.90673534240E-02  0.77363348815E-01  0.89013615388E+00  0.88000000000E+00 0.  1.
        -11    1    4    4    0    0  0.13558437564E-01 -0.11454953818E-01 -0.95322008027E-02  0.20153688726E-01  0.51100000000E-03 0. -1.
         11    1    4    4    0    0  0.90334442337E-01 -0.19270795782E-01 -0.59560716636E-01  0.10990639258E+00  0.51100000000E-03 0.  1.
</event>
<event>
 8    1  0.1137518E+005  0.1043930E+01  0.7957747E-01            NaN
         13   -1    0    0    0    0  0.00000000000E+00  0.00000000000E+00  0.74505805969E-08  0.10566000000E+00  0.10566000000E+00 0.  1.
     999900   -1    0    0    0    0 -0.00000000000E+00 -0.00000000000E+00 -0.74505805969E-08  0.93827000000E+00  0.93827000000E+00 0.  1.
     999902    2    1    2    0    0  0.27601018117E-04 -0.21763997839E-01  0.85568414239E-02  0.10205442800E+01  0.10202763036E+01 0.  0.
     999903    2    3    3    0    0  0.79103239474E-02  0.12279609422E+00  0.31491691963E-01  0.12841998100E+00  0.18934383430E-01 0.  0.
         14    1    1    2    0    0 -0.27601018117E-04  0.21763997839E-01 -0.85568414239E-02  0.23385719978E-01  0.00000000000E+00 0. -1.
     999901    1    3    3    0    0 -0.78827229293E-02 -0.14456009206E+00 -0.22934850539E-01  0.89212429902E+00  0.88000000000E+00 0. -1.
        -11    1    4    4    0    0  0.96232187108E-02  0.31528222246E-01  0.48248349487E-02  0.33319293054E-01  0.51100000000E-03 0.  1.
         11    1    4    4    0    0 -0.17128947634E-02  0.91267871977E-01  0.26666857014E-01  0.95100687945E-01  0.51100000000E-03 0. -1.
</event>
<event>
 8    1  0.1137518E+005  0.1043930E+01  0.7957747E-01            NaN
         13   -1    0    0    0    0  0.00000000000E+00  0.00000000000E+00  0.74505805969E-08  0.10566000000E+00  0.10566000000E+00 0.  1.
     999900   -1    0    0    0    0 -0.00000000000E+00 -0.00000000000E+00 -0.74505805969E-08  0.93827000000E+00  0.93827000000E+00 0.  1.
     999902    2    1    2    0    0  0.19893762057E-01  0.12285295296E-01  0.22248577575E-02  0.10204429772E+01  0.10201726469E+01 0.  0.
     999903    2    3    3    0    0  0.41261511318E-01  0.12340184894E+00  0.20614306224E-01  0.13300754796E+00  0.18317465854E-01 0.  0.
         14    1    1    2    0    0 -0.19893762057E-01 -0.12285295296E-01 -0.22248577575E-02  0.23487022828E-01  0.00000000000E+00 0. -1.
     999901    1    3    3    0    0 -0.21367749261E-01 -0.11111655365E+00 -0.18389448466E-01  0.88743542921E+00  0.88000000000E+00 0. -1.
        -11    1    4    4    0    0  0.38267396363E-01  0.89686266073E-01  0.13903126665E-01  0.98496588766E-01  0.51100000000E-03 0. -1.
         11    1    4    4    0    0  0.29941149549E-02  0.33715582869E-01  0.67111795587E-02  0.34510959196E-01  0.51100000000E-03 0.  1.
</event>
<event>
 8    1  0.1137518E+005  0.1043930E+01  0.7957747E-01            NaN
         13   -1    0    0    0    0  0.00000000000E+00  0.00000000000E+00  0.74505805969E-08  0.10566000000E+00  0.10566000000E+00 0. -1.
     999900   -1    0    0    0    0 -0.00000000000E+00 -0.00000000000E+00 -0.74505805969E-08  0.93827000000E+00  0.93827000000E+00 0.  1.
     999902    2    1    2    0    0 -0.28491300891E-02 -0.33519805092E-02 -0.93019104488E-02  0.10336402549E+01  0.10335890372E+01 0.  0.
     999903    2    3    3    0    0 -0.21285949847E-01 -0.74481488890E-01 -0.11893748990E+00  0.14379797477E+00  0.23046630898E-01 0.  0.
         14    1    1    2    0    0  0.28491300891E-02  0.33519805092E-02  0.93019104488E-02  0.10289745070E-01  0.00000000000E+00 0. -1.
     999901    1    3    3    0    0  0.18436819758E-01  0.71129508381E-01  0.10963557945E+00  0.88984228016E+00  0.88000000000E+00 0. -1.
        -11    1    4    4    0    0 -0.14632145059E-01 -0.67396349134E-01 -0.11303707280E+00  0.13241604319E+00  0.51100000000E-03 0. -1.
         11    1    4    4    0    0 -0.66538047877E-02 -0.70851397559E-02 -0.59004170970E-02  0.11381931577E-01  0.51100000000E-03 0.  1.
</event>
<event>
 8    1  0.1137518E+005  0.1043930E+01  0.7957747E-01            NaN
         13   -1    0    0    0    0  0.00000000000E+00  0.00000000000E+00  0.74505805969E-08  0.10566000000E+00  0.10566000000E+00 0.  1.
     999900   -1    0    0    0    0 -0.00000000000E+00 -0.00000000000E+00 -0.74505805969E-08  0.93827000000E+00  0.93827000000E+00 0. -1.
     999902    2    1    2    0    0  0.18699298203E-01 -0.68144133769E-02  0.13685885861E-01  0.10197762538E+01  0.10194901689E+01 0.  0.
     999903    2    3    3    0    0  0.74322842436E-01  0.28489414646E-01 -0.10069372397E+00  0.12993186625E+00  0.20187425914E-01 0.  0.
         14    1    1    2    0    0 -0.18699298203E-01  0.68144133769E-02 -0.13685885861E-01  0.24153746185E-01  0.00000000000E+00 0.  1.
     999901    1    3    3    0    0 -0.55623544233E-01 -0.35303828023E-01  0.11437960983E+00  0.88984438757E+00  0.88000000000E+00 0.  1.
        -11    1    4    4    0    0  0.32583144076E-01  0.52300624574E-02 -0.29990908163E-01  0.44595184994E-01  0.51100000000E-03 0. -1.
         11    1    4    4    0    0  0.41739698360E-01  0.23259352189E-01 -0.70702815804E-01  0.85336681252E-01  0.51100000000E-03 0.  1.
</event>
<event>
 8    1  0.1137518E+005  0.1043930E+01  0.7957747E-01            NaN
         13   -1    0    0    0    0  0.00000000000E+00  0.00000000000E+00  0.74505805969E-08  0.10566000000E+00  0.10566000000E+00 0.  1.
     999900   -1    0    0    0    0 -0.00000000000E+00 -0.00000000000E+00 -0.74505805969E-08  0.93827000000E+00  0.93827000000E+00 0.  1.
     999902    2    1    2    0    0  0.20786930852E-01 -0.95113641897E-02  0.17750237640E-02  0.10210015624E+01  0.10207440801E+01 0.  0.
     999903    2    3    3    0    0 -0.11622313756E+00 -0.20931250649E-01 -0.47760201221E-01  0.12895004414E+00  0.20028532280E-01 0.  0.
         14    1    1    2    0    0 -0.20786930852E-01  0.95113641897E-02 -0.17750237640E-02  0.22928437635E-01  0.00000000000E+00 0.  1.
     999901    1    3    3    0    0  0.13701006841E+00  0.11419886460E-01  0.49535224985E-01  0.89205151822E+00  0.88000000000E+00 0. -1.
        -11    1    4    4    0    0 -0.61938208151E-01 -0.95965468219E-02 -0.35919792751E-01  0.72242148170E-01  0.51100000000E-03 0.  1.
         11    1    4    4    0    0 -0.54284929408E-01 -0.11334703827E-01 -0.11840408470E-01  0.56707895971E-01  0.51100000000E-03 0. -1.
</event>
<event>
 8    1  0.1137518E+005  0.1043930E+01  0.7957747E-01            NaN
         13   -1    0    0    0    0  0.00000000000E+00  0.00000000000E+00  0.74505805969E-08  0.10566000000E+00  0.10566000000E+00 0.  1.
     999900   -1    0    0    0    0 -0.00000000000E+00 -0.00000000000E+00 -0.74505805969E-08  0.93827000000E+00  0.93827000000E+00 0. -1.
     999902    2    1    2    0    0 -0.58710036924E-03  0.13475340396E-01  0.23391438698E-01  0.10169283539E+01  0.10165698147E+01 0.  0.
     999903    2    3    3    0    0 -0.13259513836E-01 -0.11786772469E+00  0.40294201997E-01  0.12692987404E+00  0.20468389764E-01 0.  0.
         14    1    1    2    0    0  0.58710036924E-03 -0.13475340396E-01 -0.23391438698E-01  0.27001646061E-01  0.00000000000E+00 0. -1.
     999901    1    3    3    0    0  0.12672413467E-01  0.13134306509E+00 -0.16902763299E-01  0.88999847990E+00  0.88000000000E+00 0. -1.
        -11    1    4    4    0    0  0.16610342648E-02 -0.68326919603E-01  0.27158601602E-01  0.73547112379E-01  0.51100000000E-03 0.  1.
         11    1    4    4    0    0 -0.14920548101E-01 -0.49540805086E-01  0.13135600396E-01  0.53382761665E-01  0.51100000000E-03 0. -1.
</event>
<event>
 8    1  0.1137518E+005  0.1043930E+01  0.7957747E-01            NaN
         13   -1    0    0    0    0  0.00000000000E+00  0.00000000000E+00  0.74505805969E-08  0.10566000000E+00  0.10566000000E+00 0.  1.
     999900   -1    0    0    0    0 -0.00000000000E+00 -0.00000000000E+00 -0.74505805969E-08  0.93827000000E+00  0.93827000000E+00 0.  1.
     999902    2    1    2    0    0 -0.82909835679E-02 -0.89637071321E-02 -0.16523367344E-01  0.10233846813E+01  0.10231784281E+01 0.  0.
     999903    2    3    3    0    0 -0.18414398053E-01  0.10711762414E+00 -0.75418958427E-01  0.13375214495E+00  0.19706383062E-01 0.  0.
         14    1    1    2    0    0  0.82909835679E-02  0.89637071321E-02  0.16523367344E-01  0.20545318748E-01  0.00000000000E+00 0.  1.
     999901    1    3    3    0    0  0.10123414485E-01 -0.11608133127E+00  0.58895591083E-01  0.88963253630E+00  0.88000000000E+00 0. -1.
        -11    1    4    4    0    0  0.26445964448E-02  0.31876881574E-01 -0.17265595067E-01  0.36352322666E-01  0.51100000000E-03 0.  1.
         11    1    4    4    0    0 -0.21058994498E-01  0.75240742563E-01 -0.58153363361E-01  0.97399822288E-01  0.51100000000E-03 0. -1.
</event>
<event>
 8    1  0.1137518E+005  0.1043930E+01  0.7957747E-01            NaN
         13   -1    0    0    0    0  0.00000000000E+00  0.00000000000E+00  0.74505805969E-08  0.10566000000E+00  0.10566000000E+00 0. -1.
     999900   -1    0    0    0    0 -0.00000000000E+00 -0.00000000000E+00 -0.74505805969E-08  0.93827000000E+00  0.93827000000E+00 0.  1.
     999902    2    1    2    0    0 -0.21661522299E-01 -0.91938613768E-02 -0.29882135804E-02  0.10202091641E+01  0.10199333608E+01 0.  0.
     999903    2    3    3    0    0 -0.10800133526E+00 -0.26313105351E-01  0.69928908055E-01  0.13281717718E+00  0.19841432478E-01 0.  0.
         14    1    1    2    0    0  0.21661522299E-01  0.91938613768E-02  0.29882135804E-02  0.23720835899E-01  0.00000000000E+00 0.  1.
     999901    1    3    3    0    0  0.86339812959E-01  0.17119243974E-01 -0.72917121636E-01  0.88739198692E+00  0.88000000000E+00 0.  1.
        -11    1    4    4    0    0 -0.57001493746E-01 -0.40880425973E-02  0.38652242707E-01  0.68993763260E-01  0.51100000000E-03 0.  1.
         11    1    4    4    0    0 -0.50999841512E-01 -0.22225062753E-01  0.31276665349E-01  0.63823413925E-01  0.51100000000E-03 0. -1.
</event>
<event>
 8    1  0.1137518E+005  0.1043930E+01  0.7957747E-01            NaN
         13   -1    0    0    0    0  0.00000000000E+00  0.00000000000E+00  0.74505805969E-08  0.10566000000E+00  0.10566000000E+00 0. -1.
     999900   -1    0    0    0    0 -0.00000000000E+00 -0.00000000000E+00 -0.74505805969E-08  0.93827000000E+00  0.93827000000E+00 0.  1.
     999902    2    1    2    0    0  0.89241839205E-02 -0.63899925046E-02 -0.20951461598E-01  0.10202775835E+01  0.10200033875E+01 0.  0.
     999903    2    3    3    0    0  0.71964485777E-01 -0.21687188037E-01 -0.10843703856E+00  0.13356353150E+00  0.20770273877E-01 0.  0.
         14    1    1    2    0    0 -0.89241839205E-02  0.63899925046E-02  0.20951461598E-01  0.23652416493E-01  0.00000000000E+00 0. -1.
     999901    1    3    3    0    0 -0.63040301856E-01  0.15297195532E-01  0.87485576964E-01  0.88671405201E+00  0.88000000000E+00 0. -1.
        -11    1    4    4    0    0  0.67678810785E-01 -0.15660791694E-01 -0.90000888487E-01  0.11369302035E+00  0.51100000000E-03 0.  1.
         11    1    4    4    0    0  0.42856749917E-02 -0.60263963429E-02 -0.18436150074E-01  0.19870511156E-01  0.51100000000E-03 0. -1.
</event>
<event>
 8    1  0.1137518E+005  0.1043930E+01  0.7957747E-01            NaN
         13   -1    0    0    0    0  0.00000000000E+00  0.00000000000E+00  0.74505805969E-08  0.10566000000E+00  0.10566000000E+00 0. -1.
     999900   -1    0    0    0    0 -0.00000000000E+00 -0.00000000000E+00 -0.74505805969E-08  0.93827000000E+00  0.93827000000E+00 0.  1.
     999902    2    1    2    0    0  0.83702305556E-02  0.90000541936E-02  0.19684655168E-01  0.10207233763E+01  0.10204595355E+01 0.  0.
     999903    2    3    3    0    0  0.25553384223E-01 -0.99284197893E-01  0.80818084415E-01  0.13181503670E+00  0.18256881848E-01 0.  0.
         14    1    1    2    0    0 -0.83702305556E-02 -0.90000541936E-02 -0.19684655168E-01  0.23206623712E-01  0.00000000000E+00 0.  1.
     999901    1    3    3    0    0 -0.17183153668E-01  0.10828425209E+00 -0.61133429247E-01  0.88890833959E+00  0.88000000000E+00 0.  1.
        -11    1    4    4    0    0  0.16434732662E-01 -0.58783091150E-01  0.59087858910E-01  0.84954037187E-01  0.51100000000E-03 0.  1.
         11    1    4    4    0    0  0.91186515616E-02 -0.40501106743E-01  0.21730225505E-01  0.46860999512E-01  0.51100000000E-03 0. -1.
</event>
<event>
 7    1  0.1137518E+005  0.1043930E+01  0.7957747E-01            NaN
         13   -1    0    0    0    0  0.00000000000E+00  0.00000000000E+00  0.74505805969E-08  0.10566000000E+00  0.10566000000E+00 0.  1.
     999900   -1    0    0    0    0 -0.00000000000E+00 -0.00000000000E+00 -0.74505805969E-08  0.93827000000E+00  0.93827000000E+00 0. -1.
     999902    2    1    2    0    0  0.16397519898E-01  0.18101908244E-01 -0.49214946078E-02  0.10190145660E+01  0.10187099229E+01 0.  0.
         14    1    1    2    0    0 -0.16397519898E-01 -0.18101908244E-01  0.49214946078E-02  0.24915433973E-01  0.00000000000E+00 0. -1.
     999901    1    3    3    0    0  0.11462630955E+00  0.79874823900E-01  0.29202130307E-02  0.89102620948E+00  0.88000000000E+00 0. -1.
        -11    1    3    3    0    0 -0.81961222288E-01 -0.23655803464E-01 -0.12736719233E-01  0.86253835476E-01  0.51100000000E-03 0.  1.
         11    1    3    3    0    0 -0.16267567360E-01 -0.38117112193E-01  0.48950115946E-02  0.41734521073E-01  0.51100000000E-03 0. -1.
</event>
<event>
 8    1  0.1137518E+005  0.1043930E+01  0.7957747E-01            NaN
         13   -1    0    0    0    0  0.00000000000E+00  0.00000000000E+00  0.74505805969E-08  0.10566000000E+00  0.10566000000E+00 0. -1.
     999900   -1    0    0    0    0 -0.00000000000E+00 -0.00000000000E+00 -0.74505805969E-08  0.93827000000E+00  0.93827000000E+00 0.  1.
     999902    2    1    2    0    0  0.17172522808E-01  0.15569904994E-01  0.84015414423E-02  0.10192743033E+01  0.10189760557E+01 0.  0.
     999903    2    3    3    0    0  0.60762626951E-01  0.11393691563E+00 -0.20547118700E-01  0.13224882966E+00  0.19845686761E-01 0.  0.
         14    1    1    2    0    0 -0.17172522808E-01 -0.15569904994E-01 -0.84015414423E-02  0.24655696699E-01  0.00000000000E+00 0.  1.
     999901    1    3    3    0    0 -0.43590104143E-01 -0.98367010635E-01  0.28948660143E-01  0.88702547364E+00  0.88000000000E+00 0.  1.
        -11    1    4    4    0    0  0.36529865108E-01  0.67123662578E-01 -0.22735191539E-02  0.76455523888E-01  0.51100000000E-03 0.  1.
         11    1    4    4    0    0  0.24232761843E-01  0.46813253051E-01 -0.18273599546E-01  0.55793305773E-01  0.51100000000E-03 0. -1.
</event>
<event>
 8    1  0.1137518E+005  0.1043930E+01  0.7957747E-01            NaN
         13   -1    0    0    0    0  0.00000000000E+00  0.00000000000E+00  0.74505805969E-08  0.10566000000E+00  0.10566000000E+00 0. -1.
     999900   -1    0    0    0    0 -0.00000000000E+00 -0.00000000000E+00 -0.74505805969E-08  0.93827000000E+00  0.93827000000E+00 0.  1.
     999902    2    1    2    0    0 -0.65839391385E-02  0.67098541974E-02  0.18534198126E-01  0.10231481113E+01  0.10229370317E+01 0.  0.
     999903    2    3    3    0    0  0.12256034498E+00  0.44871123567E-02  0.48132945580E-01  0.13322717517E+00  0.19787051726E-01 0.  0.
         14    1    1    2    0    0  0.65839391385E-02 -0.67098541974E-02 -0.18534198126E-01  0.20781888704E-01  0.00000000000E+00 0.  1.
     999901    1    3    3    0    0 -0.12914428412E+00  0.22227418407E-02 -0.29598747454E-01  0.88992093612E+00  0.88000000000E+00 0.  1.
        -11    1    4    4    0    0  0.66593264463E-01  0.36295810445E-02  0.36595683536E-01  0.76074581201E-01  0.51100000000E-03 0. -1.
         11    1    4    4    0    0  0.55967080514E-01  0.85753131227E-03  0.11537262044E-01  0.57152593971E-01  0.51100000000E-03 0.  1.
</event>
<event>
 8    1  0.1137518E+005  0.1043930E+01  0.7957747E-01            NaN
         13   -1    0    0    0    0  0.00000000000E+00  0.00000000000E+00  0.74505805969E-08  0.10566000000E+00  0.10566000000E+00 0. -1.
     999900   -1    0    0    0    0 -0.00000000000E+00 -0.00000000000E+00 -0.74505805969E-08  0.93827000000E+00  0.93827000000E+00 0.  1.
     999902    2    1    2    0    0 -0.48137125238E-02  0.17913999670E-01 -0.14148931102E-01  0.10206002880E+01  0.10203336083E+01 0.  0.
     999903    2    3    3    0    0 -0.83862505246E-01  0.62997448624E-01 -0.80451456588E-01  0.13342654292E+00  0.18127525198E-01 0.  0.
         14    1    1    2    0    0  0.48137125238E-02 -0.17913999670E-01  0.14148931102E-01  0.23329712038E-01  0.00000000000E+00 0.  1.
     999901    1    3    3    0    0  0.79048792722E-01 -0.45083448954E-01  0.66302525486E-01  0.88717374504E+00  0.88000000000E+00 0. -1.
        -11    1    4    4    0    0 -0.67067104821E-01  0.42687881953E-01 -0.66236396963E-01  0.10347837078E+00  0.51100000000E-03 0.  1.
         11    1    4    4    0    0 -0.16795400426E-01  0.20309566671E-01 -0.14215059625E-01  0.29948172148E-01  0.51100000000E-03 0. -1.
</event>
<event>
 8    1  0.1137518E+005  0.1043930E+01  0.7957747E-01            NaN
         13   -1    0    0    0    0  0.00000000000E+00  0.00000000000E+00  0.74505805969E-08  0.10566000000E+00  0.10566000000E+00 0. -1.
     999900   -1    0    0    0    0 -0.00000000000E+00 -0.00000000000E+00 -0.74505805969E-08  0.93827000000E+00  0.93827000000E+00 0.  1.
     999902    2    1    2    0    0 -0.87097515696E-02  0.18114684756E-01  0.75447867855E-02  0.10224608271E+01  0.10222354023E+01 0.  0.
     999903    2    3    3    0    0  0.11285761463E+00 -0.56411108852E-01  0.28253011114E-01  0.13074251455E+00  0.19398919830E-01 0.  0.
         14    1    1    2    0    0  0.87097515696E-02 -0.18114684756E-01 -0.75447867855E-02  0.21469172873E-01  0.00000000000E+00 0.  1.
     999901    1    3    3    0    0 -0.12156736620E+00  0.74525793607E-01 -0.20708224329E-01  0.89171831258E+00  0.88000000000E+00 0.  1.
        -11    1    4    4    0    0  0.46011372699E-01 -0.17375512017E-01  0.28422659740E-02  0.49267579933E-01  0.51100000000E-03 0. -1.
         11    1    4    4    0    0  0.66846241932E-01 -0.39035596834E-01  0.25410745141E-01  0.81474934614E-01  0.51100000000E-03 0.  1.
</event>
<event>
 8    1  0.1137518E+005  0.1043930E+01  0.7957747E-01            NaN
         13   -1    0    0    0    0  0.00000000000E+00  0.00000000000E+00  0.74505805969E-08  0.10566000000E+00  0.10566000000E+00 0. -1.
     999900   -1    0    0    0    0 -0.00000000000E+00 -0.00000000000E+00 -0.74505805969E-08  0.93827000000E+00  0.93827000000E+00 0. -1.
     999902    2    1    2    0    0 -0.44898072041E-03 -0.19330255191E-01 -0.13126104089E-01  0.10205600415E+01  0.10202924304E+01 0.  0.
     999903    2    3    3    0    0  0.23313765607E-01  0.68274264658E-01 -0.10731345085E+00  0.13089129628E+00  0.20284176771E-01 0.  0.
         14    1    1    2    0    0  0.44898072041E-03  0.19330255191E-01  0.13126104089E-01  0.23369958451E-01  0.00000000000E+00 0. -1.
     999901    1    3    3    0    0 -0.23762746328E-01 -0.87604519849E-01  0.94187346766E-01  0.88966874527E+00  0.88000000000E+00 0.  1.
        -11    1    4    4    0    0  0.96295358289E-02  0.31571903438E-01 -0.31879044022E-01  0.45891694410E-01  0.51100000000E-03 0.  1.
         11    1    4    4    0    0  0.13684229779E-01  0.36702361219E-01 -0.75434406832E-01  0.84999601874E-01  0.51100000000E-03 0. -1.
</event>
<event>
 8    1  0.1137518E+005  0.1043930E+01  0.7957747E-01            NaN
         13   -1    0    0    0    0  0.00000000000E+00  0.00000000000E+00  0.74505805969E-08  0.10566000000E+00  0.10566000000E+00 0.  1.
     999900   -1    0    0    0    0 -0.00000000000E+00 -0.00000000000E+00 -0.74505805969E-08  0.93827000000E+00  0.93827000000E+00 0.  1.
     999902    2    1    2    0    0 -0.22468961062E-01 -0.34066199216E-02  0.91843311749E-03  0.10211857086E+01  0.10209323918E+01 0.  0.
     999903    2    3    3    0    0 -0.12581596916E+00 -0.20897745436E-01 -0.35783317971E-01  0.13420568513E+00  0.21548694072E-01 0.  0.
         14    1    1    2    0    0  0.22468961062E-01  0.34066199216E-02 -0.91843311749E-03  0.22744291369E-01  0.00000000000E+00 0.  1.
     999901    1    3    3    0    0  0.10334700810E+00  0.17491125514E-01  0.36701751089E-01  0.88698002350E+00  0.88000000000E+00 0. -1.
        -11    1    4    4    0    0 -0.86397939288E-01 -0.59866214258E-02 -0.30042813771E-01  0.91669380545E-01  0.51100000000E-03 0.  1.
         11    1    4    4    0    0 -0.39418029873E-01 -0.14911124010E-01 -0.57405042005E-02  0.42536304586E-01  0.51100000000E-03 0. -1.
</event>
<event>
 7    1  0.1137518E+005  0.1043930E+01  0.7957747E-01            NaN
         13   -1    0    0    0    0  0.00000000000E+00  0.00000000000E+00  0.74505805969E-08  0.10566000000E+00  0.10566000000E+00 0.  1.
     999900   -1    0    0    0    0 -0.00000000000E+00 -0.00000000000E+00 -0.74505805969E-08  0.93827000000E+00  0.93827000000E+00 0.  1.
     999903    2    1    2    0    0  0.82735445925E-01  0.63739315233E-01 -0.57750426513E-01  0.12085719190E+00  0.19065538376E-01 0.  0.
         14    1    1    2    0    0 -0.22075557178E-01 -0.34165381054E-02  0.31395640301E-01  0.38531664735E-01  0.00000000000E+00 0.  1.
     999901    1    1    2    0    0 -0.60659888747E-01 -0.60322777128E-01  0.26354786212E-01  0.88454114336E+00  0.88000000000E+00 0. -1.
        -11    1    3    3    0    0  0.33720026143E-01  0.23460698029E-01 -0.12541194274E-01  0.42953314073E-01  0.51100000000E-03 0.  1.
         11    1    3    3    0    0  0.49015419782E-01  0.40278617204E-01 -0.45209232239E-01  0.77903877830E-01  0.51100000000E-03 0. -1.
</event>
<event>
 8    1  0.1137518E+005  0.1043930E+01  0.7957747E-01            NaN
         13   -1    0    0    0    0  0.00000000000E+00  0.00000000000E+00  0.74505805969E-08  0.10566000000E+00  0.10566000000E+00 0. -1.
     999900   -1    0    0    0    0 -0.00000000000E+00 -0.00000000000E+00 -0.74505805969E-08  0.93827000000E+00  0.93827000000E+00 0.  1.
     999902    2    1    2    0    0  0.14524749032E-01 -0.67859779586E-02  0.18670496177E-01  0.10193209517E+01  0.10190238453E+01 0.  0.
     999903    2    3    3    0    0  0.57658708946E-01  0.54090600483E-01  0.10383166854E+00  0.13206736811E+00  0.20259677897E-01 0.  0.
         14    1    1    2    0    0 -0.14524749032E-01  0.67859779586E-02 -0.18670496177E-01  0.24609048311E-01  0.00000000000E+00 0.  1.
     999901    1    3    3    0    0 -0.43133959915E-01 -0.60876578442E-01 -0.85161172365E-01  0.88725358358E+00  0.88000000000E+00 0.  1.
        -11    1    4    4    0    0  0.41857059448E-01  0.34583960690E-01  0.84222658446E-01  0.10020868764E+00  0.51100000000E-03 0. -1.
         11    1    4    4    0    0  0.15801649498E-01  0.19506639793E-01  0.19609010096E-01  0.31858680463E-01  0.51100000000E-03 0.  1.
</event>
<event>
 8    1  0.1137518E+005  0.1043930E+01  0.7957747E-01            NaN
         13   -1    0    0    0    0  0.00000000000E+00  0.00000000000E+00  0.74505805969E-08  0.10566000000E+00  0.10566000000E+00 0.  1.
     999900   -1    0    0    0    0 -0.00000000000E+00 -0.00000000000E+00 -0.74505805969E-08  0.93827000000E+00  0.93827000000E+00 0. -1.
     999902    2    1    2    0    0 -0.48509015322E-02  0.18847051640E-01  0.13558795339E-01  0.10202111566E+01  0.10199354002E+01 0.  0.
     999903    2    3    3    0    0  0.34644658513E-01  0.96742213859E-01  0.82429937348E-01  0.13321014772E+00  0.19772217307E-01 0.  0.
         14    1    1    2    0    0  0.48509015322E-02 -0.18847051640E-01 -0.13558795339E-01  0.23718843401E-01  0.00000000000E+00 0.  1.
     999901    1    3    3    0    0 -0.39495560046E-01 -0.77895162218E-01 -0.68871142009E-01  0.88700100888E+00  0.88000000000E+00 0.  1.
        -11    1    4    4    0    0  0.13820676713E-01  0.21607054060E-01  0.28845751987E-01  0.38603295437E-01  0.51100000000E-03 0.  1.
         11    1    4    4    0    0  0.20823981801E-01  0.75135159799E-01  0.53584185362E-01  0.94606852278E-01  0.51100000000E-03 0. -1.
</event>
<event>
 8    1  0.1137518E+005  0.1043930E+01  0.7957747E-01            NaN
         13   -1    0    0    0    0  0.00000000000E+00  0.00000000000E+00  0.74505805969E-08  0.10566000000E+00  0.10566000000E+00 0.  1.
     999900   -1    0    0    0    0 -0.00000000000E+00 -0.00000000000E+00 -0.74505805969E-08  0.93827000000E+00  0.93827000000E+00 0. -1.
     999902    2    1    2    0    0 -0.20223660332E-01  0.35991700415E-02 -0.10873136713E-01  0.10206883227E+01  0.10204236750E+01 0.  0.
     999903    2    3    3    0    0 -0.43725040396E-01 -0.32883410984E-01  0.11664815886E+00  0.13043837217E+00  0.20351365874E-01 0.  0.
         14    1    1    2    0    0  0.20223660332E-01 -0.35991700415E-02  0.10873136713E-01  0.23241677310E-01  0.00000000000E+00 0.  1.
     999901    1    3    3    0    0  0.23501380064E-01  0.36482581025E-01 -0.12752129557E+00  0.89024995052E+00  0.88000000000E+00 0. -1.
        -11    1    4    4    0    0 -0.84931041808E-02 -0.63755587972E-02  0.45573893751E-01  0.46797665339E-01  0.51100000000E-03 0. -1.
         11    1    4    4    0    0 -0.35231936215E-01 -0.26507852187E-01  0.71074265107E-01  0.83640706827E-01  0.51100000000E-03 0.  1.
</event>
<event>
 8    1  0.1137518E+005  0.1043930E+01  0.7957747E-01            NaN
         13   -1    0    0    0    0  0.00000000000E+00  0.00000000000E+00  0.74505805969E-08  0.10566000000E+00  0.10566000000E+00 0.  1.
     999900   -1    0    0    0    0 -0.00000000000E+00 -0.00000000000E+00 -0.74505805969E-08  0.93827000000E+00  0.93827000000E+00 0. -1.
     999902    2    1    2    0    0 -0.50459131924E-02  0.17779061130E-01  0.16233936221E-01  0.10193312817E+01  0.10190344278E+01 0.  0.
     999903    2    3    3    0    0 -0.20895339992E-01  0.95236900257E-01  0.88150975973E-01  0.13286471059E+00  0.19384384190E-01 0.  0.
         14    1    1    2    0    0  0.50459131924E-02 -0.17779061130E-01 -0.16233936221E-01  0.24598718256E-01  0.00000000000E+00 0. -1.
     999901    1    3    3    0    0  0.15849426800E-01 -0.77457839127E-01 -0.71917039752E-01  0.88646657116E+00  0.88000000000E+00 0. -1.
        -11    1    4    4    0    0 -0.16337443371E-01  0.51030911838E-01  0.37078658561E-01  0.65162520367E-01  0.51100000000E-03 0.  1.
         11    1    4    4    0    0 -0.45578966213E-02  0.44205988419E-01  0.51072317413E-01  0.67702190220E-01  0.51100000000E-03 0. -1.
</event>
<event>
 8    1  0.1137518E+005  0.1043930E+01  0.7957747E-01            NaN
         13   -1    0    0    0    0  0.00000000000E+00  0.00000000000E+00  0.74505805969E-08  0.10566000000E+00  0.10566000000E+00 0. -1.
     999900   -1    0    0    0    0 -0.00000000000E+00 -0.00000000000E+00 -0.74505805969E-08  0.93827000000E+00  0.93827000000E+00 0. -1.
     999902    2    1    2    0    0  0.19891780718E-01 -0.11399955179E-01  0.34371824078E-02  0.10207468997E+01  0.10204835996E+01 0.  0.
     999903    2    3    3    0    0 -0.12470746703E+00 -0.25086745000E-01 -0.31443912073E-02  0.12881664018E+00  0.20063461414E-01 0.  0.
         14    1    1    2    0    0 -0.19891780718E-01  0.11399955179E-01 -0.34371824078E-02  0.23183100335E-01  0.00000000000E+00 0.  1.
     999901    1    3    3    0    0  0.14459924775E+00  0.13686789821E-01  0.65815736151E-02  0.89193025948E+00  0.88000000000E+00 0. -1.
        -11    1    4    4    0    0 -0.59025125699E-01 -0.21264587557E-01  0.24107190381E-02  0.62787107236E-01  0.51100000000E-03 0.  1.
         11    1    4    4    0    0 -0.65682341334E-01 -0.38221574437E-02 -0.55551102454E-02  0.66029532949E-01  0.51100000000E-03 0. -1.
</event>
<event>
 8    1  0.1137518E+005  0.1043930E+01  0.7957747E-01            NaN
         13   -1    0    0    0    0  0.00000000000E+00  0.00000000000E+00  0.74505805969E-08  0.10566000000E+00  0.10566000000E+00 0. -1.
     999900   -1    0    0    0    0 -0.00000000000E+00 -0.00000000000E+00 -0.74505805969E-08  0.93827000000E+00  0.93827000000E+00 0.  1.
     999902    2    1    2    0    0  0.22684586836E-01 -0.63269790892E-02  0.91382086686E-03  0.10203618814E+01  0.10200896592E+01 0.  0.
     999903    2    3    3    0    0 -0.12541207674E+00 -0.86042114641E-02 -0.12421262922E-01  0.12788463690E+00  0.19949213876E-01 0.  0.
         14    1    1    2    0    0 -0.22684586836E-01  0.63269790892E-02 -0.91382086686E-03  0.23568118569E-01  0.00000000000E+00 0. -1.
     999901    1    3    3    0    0  0.14809666358E+00  0.22772323749E-02  0.13335083789E-01  0.89247724453E+00  0.88000000000E+00 0. -1.
        -11    1    4    4    0    0 -0.97704197672E-01 -0.96149201648E-03 -0.34538249475E-02  0.97771287898E-01  0.51100000000E-03 0.  1.
         11    1    4    4    0    0 -0.27707879070E-01 -0.76427194476E-02 -0.89674379747E-02  0.30113348999E-01  0.51100000000E-03 0. -1.
</event>
<event>
 8    1  0.1137518E+005  0.1043930E+01  0.7957747E-01            NaN
         13   -1    0    0    0    0  0.00000000000E+00  0.00000000000E+00  0.74505805969E-08  0.10566000000E+00  0.10566000000E+00 0.  1.
     999900   -1    0    0    0    0 -0.00000000000E+00 -0.00000000000E+00 -0.74505805969E-08  0.93827000000E+00  0.93827000000E+00 0. -1.
     999902    2    1    2    0    0 -0.16931569403E-01  0.22013276354E-04  0.13442574047E-01  0.10223109962E+01  0.10220823801E+01 0.  0.
     999903    2    3    3    0    0  0.10120518383E+00  0.78904444466E-01 -0.12225625895E-01  0.13055004906E+00  0.20626409988E-01 0.  0.
         14    1    1    2    0    0  0.16931569403E-01 -0.22013276354E-04 -0.13442574047E-01  0.21619003770E-01  0.00000000000E+00 0. -1.
     999901    1    3    3    0    0 -0.11813675324E+00 -0.78882431189E-01  0.25668199942E-01  0.89176094717E+00  0.88000000000E+00 0.  1.
        -11    1    4    4    0    0  0.77251084023E-01  0.48302870825E-01 -0.84443617122E-02  0.91501178563E-01  0.51100000000E-03 0. -1.
         11    1    4    4    0    0  0.23954099810E-01  0.30601573641E-01 -0.37812641830E-02  0.39048870494E-01  0.51100000000E-03 0.  1.
</event>
<event>
 8    1  0.1137518E+005  0.1043930E+01  0.7957747E-01            NaN
         13   -1    0    0    0    0  0.00000000000E+00  0.00000000000E+00  0.74505805969E-08  0.10566000000E+00  0.10566000000E+00 0. -1.
     999900   -1    0    0    0    0 -0.00000000000E+00 -0.00000000000E+00 -0.74505805969E-08  0.93827000000E+00  0.93827000000E+00 0.  1.
     999902    2    1    2    0    0  0.20816898356E-01 -0.33491223064E-02  0.10085056396E-01  0.10205576180E+01  0.10202899507E+01 0.  0.
     999903    2    3    3    0    0 -0.76933228106E-01  0.30567076551E-01 -0.95690038717E-01  0.12820467970E+00  0.20658863253E-01 0.  0.
         14    1    1    2    0    0 -0.20816898356E-01  0.33491223064E-02 -0.10085056396E-01  0.23372381990E-01  0.00000000000E+00 0.  1.
     999901    1    3    3    0    0  0.97750126462E-01 -0.33916198858E-01  0.10577509511E+00  0.89235293831E+00  0.88000000000E+00 0. -1.
        -11    1    4    4    0    0 -0.84986526368E-02  0.10351535704E-01 -0.20935582873E-01  0.24858421899E-01  0.51100000000E-03 0.  1.
         11    1    4    4    0    0 -0.68434575470E-01  0.20215540848E-01 -0.74754455844E-01  0.10334625780E+00  0.51100000000E-03 0. -1.
</event>
<event>
 8    1  0.1137518E+005  0.1043930E+01  0.7957747E-01            NaN
         13   -1    0    0    0    0  0.00000000000E+00  0.00000000000E+00  0.74505805969E-08  0.10566000000E+00  0.10566000000E+00 0.  1.
     999900   -1    0    0    0    0 -0.00000000000E+00 -0.00000000000E+00 -0.74505805969E-08  0.93827000000E+00  0.93827000000E+00 0. -1.
     999902    2    1    2    0    0 -0.10146213407E-01 -0.14544463686E-01  0.65451113201E-02  0.10250269433E+01  0.10248526279E+01 0.  0.
     999903    2    3    3    0    0 -0.57693107729E-01  0.11378415124E+00  0.35858978626E-01  0.13396676386E+00  0.19644330407E-01 0.  0.
         14    1    1    2    0    0  0.10146213407E-01  0.14544463686E-01 -0.65451113201E-02  0.18903056700E-01  0.00000000000E+00 0. -1.
     999901    1    3    3    0    0  0.47546894322E-01 -0.12832861493E+00 -0.29313867306E-01  0.89106017944E+00  0.88000000000E+00 0.  1.
        -11    1    4    4    0    0 -0.18161453345E-01  0.40525994313E-01  0.22046787047E-01  0.49583430123E-01  0.51100000000E-03 0. -1.
         11    1    4    4    0    0 -0.39531654384E-01  0.73258156931E-01  0.13812191579E-01  0.84383333736E-01  0.51100000000E-03 0.  1.
</event>
<event>
 8    1  0.1137518E+005  0.1043930E+01  0.7957747E-01            NaN
         13   -1    0    0    0    0  0.00000000000E+00  0.00000000000E+00  0.74505805969E-08  0.10566000000E+00  0.10566000000E+00 0.  1.
     999900   -1    0    0    0    0 -0.00000000000E+00 -0.00000000000E+00 -0.74505805969E-08  0.93827000000E+00  0.93827000000E+00 0. -1.
     999902    2    1    2    0    0 -0.16139645985E-01 -0.14303238069E-01  0.92403114421E-02  0.10204682407E+01  0.10201984984E+01 0.  0.
     999903    2    3    3    0    0 -0.12930872660E+00  0.55330380703E-02 -0.20424059699E-01  0.13250388697E+00  0.19717417716E-01 0.  0.
         14    1    1    2    0    0  0.16139645985E-01  0.14303238069E-01 -0.92403114421E-02  0.23461759255E-01  0.00000000000E+00 0.  1.
     999901    1    3    3    0    0  0.11316908062E+00 -0.19836276139E-01  0.29664371141E-01  0.88796435377E+00  0.88000000000E+00 0. -1.
        -11    1    4    4    0    0 -0.38798646738E-01 -0.64943983688E-02 -0.10080890390E-01  0.40612777188E-01  0.51100000000E-03 0. -1.
         11    1    4    4    0    0 -0.90510079867E-01  0.12027436439E-01 -0.10343169309E-01  0.91891109783E-01  0.51100000000E-03 0.  1.
</event>
<event>
 8    1  0.1137518E+005  0.1043930E+01  0.7957747E-01            NaN
         13   -1    0    0    0    0  0.00000000000E+00  0.00000000000E+00  0.74505805969E-08  0.10566000000E+00  0.10566000000E+00 0.  1.
     999900   -1    0    0    0    0 -0.00000000000E+00 -0.00000000000E+00 -0.74505805969E-08  0.93827000000E+00  0.93827000000E+00 0. -1.
     999902    2    1    2    0    0  0.18496540101E-01  0.37795787628E-02  0.14865346895E-01  0.10199011476E+01  0.10196180486E+01 0.  0.
     999903    2    3    3    0    0 -0.24189610873E-01  0.59499528404E-01  0.11323622679E+00  0.13164237317E+00  0.19543290409E-01 0.  0.
         14    1    1    2    0    0 -0.18496540101E-01 -0.37795787628E-02 -0.14865346895E-01  0.24028852441E-01  0.00000000000E+00 0.  1.
     999901    1    3    3    0    0  0.42686150974E-01 -0.55719949641E-01 -0.98370879898E-01  0.88825877439E+00  0.88000000000E+00 0. -1.
        -11    1    4    4    0    0 -0.27016783871E-02  0.29501441609E-01  0.41786231807E-01  0.51224841754E-01  0.51100000000E-03 0.  1.
         11    1    4    4    0    0 -0.21487932486E-01  0.29998086795E-01  0.71449994986E-01  0.80417531412E-01  0.51100000000E-03 0. -1.
</event>
<event>
 8    1  0.1137518E+005  0.1043930E+01  0.7957747E-01            NaN
         13   -1    0    0    0    0  0.00000000000E+00  0.00000000000E+00  0.74505805969E-08  0.10566000000E+00  0.10566000000E+00 0. -1.
     999900   -1    0    0    0    0 -0.00000000000E+00 -0.00000000000E+00 -0.74505805969E-08  0.93827000000E+00  0.93827000000E+00 0. -1.
     999902    2    1    2    0    0 -0.19026257720E-01 -0.38969267304E-02  0.15900193802E-01  0.10188301856E+01  0.10185209602E+01 0.  0.
     999903    2    3    3    0    0 -0.10502844507E+00  0.29543989269E-01 -0.67574773029E-01  0.13007670954E+00  0.21207990003E-01 0.  0.
         14    1    1    2    0    0  0.19026257720E-01  0.38969267304E-02 -0.15900193802E-01  0.25099814416E-01  0.00000000000E+00 0.  1.
     999901    1    3    3    0    0  0.86002187347E-01 -0.33440916000E-01  0.83474966831E-01  0.88875347604E+00  0.88000000000E+00 0.  1.
        -11    1    4    4    0    0 -0.75507650887E-01  0.22502329693E-01 -0.59308157792E-01  0.98617842634E-01  0.51100000000E-03 0.  1.
         11    1    4    4    0    0 -0.29520794180E-01  0.70416595761E-02 -0.82666152374E-02  0.31458866907E-01  0.51100000000E-03 0. -1.
</event>
<event>
 8    1  0.1137518E+005  0.1043930E+01  0.7957747E-01            NaN
         13   -1    0    0    0    0  0.00000000000E+00  0.00000000000E+00  0.74505805969E-08  0.10566000000E+00  0.10566000000E+00 0.  1.
     999900   -1    0    0    0    0 -0.00000000000E+00 -0.00000000000E+00 -0.74505805969E-08  0.93827000000E+00  0.93827000000E+00 0. -1.
     999902    2    1    2    0    0  0.16363602889E-01 -0.17634325438E-01  0.39517689438E-02  0.10195506356E+01  0.10192591158E+01 0.  0.
     999903    2    3    3    0    0  0.10398509177E+00  0.11943780223E-02 -0.77086689493E-01  0.13129432280E+00  0.21943464939E-01 0.  0.
         14    1    1    2    0    0 -0.16363602889E-01  0.17634325438E-01 -0.39517689438E-02  0.24379364449E-01  0.00000000000E+00 0. -1.
     999901    1    3    3    0    0 -0.87621488886E-01 -0.18828703460E-01  0.81038458437E-01  0.88825631275E+00  0.88000000000E+00 0.  1.
        -11    1    4    4    0    0  0.41920826418E-01  0.88107963751E-02 -0.39887623234E-01  0.58534344010E-01  0.51100000000E-03 0. -1.
         11    1    4    4    0    0  0.62064265356E-01 -0.76164183528E-02 -0.37199066258E-01  0.72759978795E-01  0.51100000000E-03 0.  1.
</event>
<event>
 7    1  0.1137518E+005  0.1043930E+01  0.7957747E-01            NaN
         13   -1    0    0    0    0  0.00000000000E+00  0.00000000000E+00  0.74505805969E-08  0.10566000000E+00  0.10566000000E+00 0. -1.
     999900   -1    0    0    0    0 -0.00000000000E+00 -0.00000000000E+00 -0.74505805969E-08  0.93827000000E+00  0.93827000000E+00 0. -1.
     999902    2    1    2    0    0 -0.16754134759E-01  0.15707898555E-01 -0.59495503603E-02  0.10202058297E+01  0.10199299479E+01 0.  0.
         14    1    1    2    0    0  0.16754134759E-01 -0.15707898555E-01  0.59495503603E-02  0.23724170334E-01  0.00000000000E+00 0. -1.
     999901    1    3    3    0    0 -0.61164754883E-01  0.42294569068E-01  0.10132052600E+00  0.88892958484E+00  0.88000000000E+00 0. -1.
        -11    1    3    3    0    0  0.14549958876E-01 -0.40060703875E-02 -0.87774566375E-01  0.89063940664E-01  0.51100000000E-03 0. -1.
         11    1    3    3    0    0  0.29860661247E-01 -0.22580600126E-01 -0.19495509986E-01  0.42212304163E-01  0.51100000000E-03 0.  1.
</event>
<event>
 8    1  0.1137518E+005  0.1043930E+01  0.7957747E-01            NaN
         13   -1    0    0    0    0  0.00000000000E+00  0.00000000000E+00  0.74505805969E-08  0.10566000000E+00  0.10566000000E+00 0. -1.
     999900   -1    0    0    0    0 -0.00000000000E+00 -0.00000000000E+00 -0.74505805969E-08  0.93827000000E+00  0.93827000000E+00 0. -1.
     999902    2    1    2    0    0  0.83240736288E-02  0.10263235814E-01 -0.19044141865E-01  0.10207501909E+01  0.10204869664E+01 0.  0.
     999903    2    3    3    0    0  0.71536507750E-01 -0.32043041430E-01  0.10074849589E+00  0.12938275319E+00  0.21104714025E-01 0.  0.
         14    1    1    2    0    0 -0.83240736288E-02 -0.10263235814E-01  0.19044141865E-01  0.23179809113E-01  0.00000000000E+00 0. -1.
     999901    1    3    3    0    0 -0.63212434121E-01  0.42306277244E-01 -0.11979263776E+00  0.89136743769E+00  0.88000000000E+00 0. -1.
        -11    1    4    4    0    0  0.59721986127E-01 -0.17123249505E-01  0.77894043616E-01  0.99637665832E-01  0.51100000000E-03 0. -1.
         11    1    4    4    0    0  0.11814521623E-01 -0.14919791925E-01  0.22854452275E-01  0.29745087360E-01  0.51100000000E-03 0.  1.
</event>
<event>
 8    1  0.1137518E+005  0.1043930E+01  0.7957747E-01            NaN
         13   -1    0    0    0    0  0.00000000000E+00  0.00000000000E+00  0.74505805969E-08  0.10566000000E+00  0.10566000000E+00 0.  1.
     999900   -1    0    0    0    0 -0.00000000000E+00 -0.00000000000E+00 -0.74505805969E-08  0.93827000000E+00  0.93827000000E+00 0. -1.
     999902    2    1    2    0    0  0.14457527976E-01  0.16568668991E-01  0.88063695618E-02  0.10202425972E+01  0.10199675799E+01 0.  0.
     999903    2    3    3    0    0 -0.74102286463E-01 -0.27916397851E-01  0.10097717590E+00  0.12989591221E+00  0.20151521747E-01 0.  0.
         14    1    1    2    0    0 -0.14457527976E-01 -0.16568668991E-01 -0.88063695618E-02  0.23687402816E-01  0.00000000000E+00 0. -1.
     999901    1    3    3    0    0  0.88559814439E-01  0.44485066842E-01 -0.92170806334E-01  0.89034668497E+00  0.88000000000E+00 0. -1.
        -11    1    4    4    0    0 -0.49719210463E-01 -0.27389071915E-01  0.77262272443E-01  0.95874297982E-01  0.51100000000E-03 0. -1.
         11    1    4    4    0    0 -0.24383076000E-01 -0.52732593556E-03  0.23714903453E-01  0.34021614227E-01  0.51100000000E-03 0.  1.
</event>
<event>
 8    1  0.1137518E+005  0.1043930E+01  0.7957747E-01            NaN
         13   -1    0    0    0    0  0.00000000000E+00  0.00000000000E+00  0.74505805969E-08  0.10566000000E+00  0.10566000000E+00 0. -1.
     999900   -1    0    0    0    0 -0.00000000000E+00 -0.00000000000E+00 -0.74505805969E-08  0.93827000000E+00  0.93827000000E+00 0.  1.
     999902    2    1    2    0    0 -0.15214009505E-01 -0.18031142809E-01  0.47897767476E-02  0.10198565674E+01  0.10195724044E+01 0.  0.
     999903    2    3    3    0    0  0.78444963373E-01  0.61747826243E-01  0.78078126805E-01  0.12828050818E+00  0.19831504471E-01 0.  0.
         14    1    1    2    0    0  0.15214009505E-01  0.18031142809E-01 -0.47897767476E-02  0.24073432607E-01  0.00000000000E+00 0. -1.
     999901    1    3    3    0    0 -0.93658972878E-01 -0.79778969052E-01 -0.73288350058E-01  0.89157605921E+00  0.88000000000E+00 0.  1.
        -11    1    4    4    0    0  0.28925656731E-01  0.27670770298E-01  0.42689283730E-01  0.58523509913E-01  0.51100000000E-03 0.  1.
         11    1    4    4    0    0  0.49519306642E-01  0.34077055945E-01  0.35388843076E-01  0.69756998269E-01  0.51100000000E-03 0. -1.
</event>
<event>
 8    1  0.1137518E+005  0.1043930E+01  0.7957747E-01            NaN
         13   -1    0    0    0    0  0.00000000000E+00  0.00000000000E+00  0.74505805969E-08  0.10566000000E+00  0.10566000000E+00 0.  1.
     999900   -1    0    0    0    0 -0.00000000000E+00 -0.00000000000E+00 -0.74505805969E-08  0.93827000000E+00  0.93827000000E+00 0. -1.
     999902    2    1    2    0    0  0.72778208270E-02  0.93149990886E-02 -0.21474870415E-01  0.10194166171E+01  0.10191218441E+01 0.  0.
     999903    2    3    3    0    0 -0.31141461078E-01  0.42300399371E-01  0.11469320352E+00  0.12750528614E+00  0.18545961160E-01 0.  0.
         14    1    1    2    0    0 -0.72778208270E-02 -0.93149990886E-02  0.21474870415E-01  0.24513382944E-01  0.00000000000E+00 0.  1.
     999901    1    3    3    0    0  0.38419281905E-01 -0.32985400283E-01 -0.13616807394E+00  0.89191133091E+00  0.88000000000E+00 0.  1.
        -11    1    4    4    0    0 -0.52790691816E-02  0.11127968521E-01  0.47256931752E-01  0.48838294140E-01  0.51100000000E-03 0.  1.
         11    1    4    4    0    0 -0.25862391896E-01  0.31172430850E-01  0.67436271768E-01  0.78666992002E-01  0.51100000000E-03 0. -1.
</event>
<event>
 8    1  0.1137518E+005  0.1043930E+01  0.7957747E-01            NaN
         13   -1    0    0    0    0  0.00000000000E+00  0.00000000000E+00  0.74505805969E-08  0.10566000000E+00  0.10566000000E+00 0.  1.
     999900   -1    0    0    0    0 -0.00000000000E+00 -0.00000000000E+00 -0.74505805969E-08  0.93827000000E+00  0.93827000000E+00 0.  1.
     999902    2    1    2    0    0  0.11493751710E-01 -0.18215228693E-01  0.10752045819E-01  0.10198570406E+01  0.10195728890E+01 0.  0.
     999903    2    3    3    0    0  0.86036032268E-01 -0.89444946591E-01  0.43941175046E-01  0.13321633401E+00  0.20326521153E-01 0.  0.
         14    1    1    2    0    0 -0.11493751710E-01  0.18215228693E-01 -0.10752045819E-01  0.24072959394E-01  0.00000000000E+00 0. -1.
     999901    1    3    3    0    0 -0.74542280558E-01  0.71229717899E-01 -0.33189129228E-01  0.88664070660E+00  0.88000000000E+00 0.  1.
        -11    1    4    4    0    0  0.11326666237E-01 -0.22973301125E-01  0.64504522545E-02  0.26418466797E-01  0.51100000000E-03 0. -1.
         11    1    4    4    0    0  0.74709366031E-01 -0.66471645466E-01  0.37490722792E-01  0.10679786721E+00  0.51100000000E-03 0.  1.
</event>
<event>
 8    1  0.1137518E+005  0.1043930E+01  0.7957747E-01            NaN
         13   -1    0    0    0    0  0.00000000000E+00  0.00000000000E+00  0.74505805969E-08  0.10566000000E+00  0.10566000000E+00 0. -1.
     999900   -1    0    0    0    0 -0.00000000000E+00 -0.00000000000E+00 -0.74505805969E-08  0.93827000000E+00  0.93827000000E+00 0.  1.
     999902    2    1    2    0    0  0.13016319009E-01  0.43682676224E-03  0.19539521199E-01  0.10204479160E+01  0.10201777007E+01 0.  0.
     999903    2    3    3    0    0 -0.43267170673E-01  0.31445991864E-01 -0.11460792518E+00  0.12796545857E+00  0.19475204986E-01 0.  0.
         14    1    1    2    0    0 -0.13016319009E-01 -0.43682676224E-03 -0.19539521199E-01  0.23482083955E-01  0.00000000000E+00 0.  1.
     999901    1    3    3    0    0  0.56283489683E-01 -0.31009165102E-01  0.13414744638E+00  0.89248245748E+00  0.88000000000E+00 0. -1.
        -11    1    4    4    0    0 -0.15415224700E-01  0.23065311111E-01 -0.59459659001E-01  0.65615165158E-01  0.51100000000E-03 0.  1.
         11    1    4    4    0    0 -0.27851945973E-01  0.83806807537E-02 -0.55148266184E-01  0.62350293411E-01  0.51100000000E-03 0. -1.
</event>
<event>
 8    1  0.1137518E+005  0.1043930E+01  0.7957747E-01            NaN
         13   -1    0    0    0    0  0.00000000000E+00  0.00000000000E+00  0.74505805969E-08  0.10566000000E+00  0.10566000000E+00 0. -1.
     999900   -1    0    0    0    0 -0.00000000000E+00 -0.00000000000E+00 -0.74505805969E-08  0.93827000000E+00  0.93827000000E+00 0.  1.
     999902    2    1    2    0    0  0.19743176398E-01 -0.32104116198E-02  0.13309856953E-01  0.10199039298E+01  0.10196208972E+01 0.  0.
     999903    2    3    3    0    0  0.85923384358E-01  0.33994016724E-01  0.93266002392E-01  0.13302345611E+00  0.21407277312E-01 0.  0.
         14    1    1    2    0    0 -0.19743176398E-01  0.32104116198E-02 -0.13309856953E-01  0.24026070198E-01  0.00000000000E+00 0.  1.
     999901    1    3    3    0    0 -0.66180207961E-01 -0.37204428344E-01 -0.79956145439E-01  0.88688047369E+00  0.88000000000E+00 0.  1.
        -11    1    4    4    0    0  0.46604277619E-01  0.22632773325E-01  0.65717017965E-01  0.83685056563E-01  0.51100000000E-03 0. -1.
         11    1    4    4    0    0  0.39319106740E-01  0.11361243399E-01  0.27548984427E-01  0.49338399552E-01  0.51100000000E-03 0.  1.
</event>
<event>
 8    1  0.1137518E+005  0.1043930E+01  0.7957747E-01            NaN
         13   -1    0    0    0    0  0.00000000000E+00  0.00000000000E+00  0.74505805969E-08  0.10566000000E+00  0.10566000000E+00 0. -1.
     999900   -1    0    0    0    0 -0.00000000000E+00 -0.00000000000E+00 -0.74505805969E-08  0.93827000000E+00  0.93827000000E+00 0. -1.
     999902    2    1    2    0    0  0.23894713666E-02 -0.17883312399E-01 -0.16010302929E-01  0.10198083865E+01  0.10195230714E+01 0.  0.
     999903    2    3    3    0    0  0.82218102650E-01 -0.10004135602E+00  0.21539040708E-01  0.13158965914E+00  0.91552608493E-02 0.  0.
         14    1    1    2    0    0 -0.23894713666E-02  0.17883312399E-01  0.16010302929E-01  0.24121613455E-01  0.00000000000E+00 0. -1.
     999901    1    3    3    0    0 -0.79828631283E-01  0.82158043618E-01 -0.37549343637E-01  0.88821872740E+00  0.88000000000E+00 0.  1.
        -11    1    4    4    0    0  0.74631255513E-01 -0.93078326271E-01  0.21778734414E-01  0.12127643429E+00  0.51100000000E-03 0.  1.
         11    1    4    4    0    0  0.75868471368E-02 -0.69630297459E-02 -0.23969370605E-03  0.10313224849E-01  0.51100000000E-03 0. -1.
</event>
<event>
 8    1  0.1137518E+005  0.1043930E+01  0.7957747E-01            NaN
         13   -1    0    0    0    0  0.00000000000E+00  0.00000000000E+00  0.74505805969E-08  0.10566000000E+00  0.10566000000E+00 0.  1.
     999900   -1    0    0    0    0 -0.00000000000E+00 -0.00000000000E+00 -0.74505805969E-08  0.93827000000E+00  0.93827000000E+00 0.  1.
     999902    2    1    2    0    0 -0.68876712933E-02 -0.25904730213E-02 -0.22535652195E-01  0.10202233303E+01  0.10199478602E+01 0.  0.
     999903    2    3    3    0    0 -0.39934556994E-01 -0.94938495136E-02  0.12025912667E+00  0.12807418243E+00  0.15994894074E-01 0.  0.
         14    1    1    2    0    0  0.68876712933E-02  0.25904730213E-02  0.22535652195E-01  0.23706669656E-01  0.00000000000E+00 0.  1.
     999901    1    3    3    0    0  0.33046885700E-01  0.69033764923E-02 -0.14279477886E+00  0.89214914792E+00  0.88000000000E+00 0.  1.
        -11    1    4    4    0    0 -0.12710565727E-01 -0.10849922868E-01  0.49311530617E-01  0.52068872469E-01  0.51100000000E-03 0. -1.
         11    1    4    4    0    0 -0.27223991267E-01  0.13560733543E-02  0.70947596050E-01  0.76005309957E-01  0.51100000000E-03 0.  1.
</event>
<event>
 8    1  0.1534215E+005  0.1043930E+01  0.7957747E-01            NaN
         13   -1    0    0    0    0  0.00000000000E+00  0.00000000000E+00  0.74505805969E-08  0.10566000000E+00  0.10566000000E+00 0. -1.
     999900   -1    0    0    0    0 -0.00000000000E+00 -0.00000000000E+00 -0.74505805969E-08  0.93827000000E+00  0.93827000000E+00 0. -1.
     999902    2    1    2    0    0 -0.19827926137E-01 -0.68850034007E-03 -0.15755016018E-01  0.10185954146E+01  0.10182803040E+01 0.  0.
     999903    2    3    3    0    0  0.65236301091E-01  0.17673117435E-01 -0.10814217184E+00  0.12948998872E+00  0.22468061550E-01 0.  0.
         14    1    1    2    0    0  0.19827926137E-01  0.68850034007E-03  0.15755016018E-01  0.25334585399E-01  0.00000000000E+00 0.  1.
     999901    1    3    3    0    0 -0.85064227228E-01 -0.18361617775E-01  0.92387155821E-01  0.88910542588E+00  0.88000000000E+00 0.  1.
        -11    1    4    4    0    0  0.17833812915E-01  0.18423143798E-02 -0.48297696335E-01  0.51520555098E-01  0.51100000000E-03 0. -1.
         11    1    4    4    0    0  0.47402488175E-01  0.15830803055E-01 -0.59844475505E-01  0.77969433627E-01  0.51100000000E-03 0.  1.
</event>
<event>
 8    1  0.1137518E+005  0.1043930E+01  0.7957747E-01            NaN
         13   -1    0    0    0    0  0.00000000000E+00  0.00000000000E+00  0.74505805969E-08  0.10566000000E+00  0.10566000000E+00 0.  1.
     999900   -1    0    0    0    0 -0.00000000000E+00 -0.00000000000E+00 -0.74505805969E-08  0.93827000000E+00  0.93827000000E+00 0. -1.
     999902    2    1    2    0    0  0.21642885962E-01 -0.10369189230E-01 -0.12564267738E-01  0.10168413415E+01  0.10164804564E+01 0.  0.
     999903    2    3    3    0    0 -0.91115517884E-01  0.49465172952E-01 -0.68456626229E-01  0.12587637903E+00  0.20241348464E-01 0.  0.
         14    1    1    2    0    0 -0.21642885962E-01  0.10369189230E-01  0.12564267738E-01  0.27088658547E-01  0.00000000000E+00 0. -1.
     999901    1    3    3    0    0  0.11275840385E+00 -0.59834362182E-01  0.55892358490E-01  0.89096496243E+00  0.88000000000E+00 0.  1.
        -11    1    4    4    0    0 -0.84449799784E-01  0.39063627298E-01 -0.57690793413E-01  0.10948161684E+00  0.51100000000E-03 0.  1.
         11    1    4    4    0    0 -0.66657180997E-02  0.10401545653E-01 -0.10765832815E-01  0.16394762181E-01  0.51100000000E-03 0. -1.
</event>
<event>
 8    1  0.1137518E+005  0.1043930E+01  0.7957747E-01            NaN
         13   -1    0    0    0    0  0.00000000000E+00  0.00000000000E+00  0.74505805969E-08  0.10566000000E+00  0.10566000000E+00 0.  1.
     999900   -1    0    0    0    0 -0.00000000000E+00 -0.00000000000E+00 -0.74505805969E-08  0.93827000000E+00  0.93827000000E+00 0. -1.
     999902    2    1    2    0    0 -0.10215733904E-01  0.21106208048E-01  0.28138706196E-02  0.10203132452E+01  0.10200398852E+01 0.  0.
     999903    2    3    3    0    0 -0.34864367769E-01 -0.10874841901E+00 -0.55406406037E-01  0.12854007906E+00  0.20271638221E-01 0.  0.
         14    1    1    2    0    0  0.10215733904E-01 -0.21106208048E-01 -0.28138706196E-02  0.23616754756E-01  0.00000000000E+00 0.  1.
     999901    1    3    3    0    0  0.24648633865E-01  0.12985462706E+00  0.58220276657E-01  0.89177316619E+00  0.88000000000E+00 0.  1.
        -11    1    4    4    0    0 -0.26804716061E-01 -0.10045666211E+00 -0.46314135966E-01  0.11382132523E+00  0.51100000000E-03 0.  1.
         11    1    4    4    0    0 -0.80596517074E-02 -0.82917568994E-02 -0.90922700709E-02  0.14718753825E-01  0.51100000000E-03 0. -1.
</event>
<event>
 8    1  0.1137518E+005  0.1043930E+01  0.7957747E-01            NaN
         13   -1    0    0    0    0  0.00000000000E+00  0.00000000000E+00  0.74505805969E-08  0.10566000000E+00  0.10566000000E+00 0. -1.
     999900   -1    0    0    0    0 -0.00000000000E+00 -0.00000000000E+00 -0.74505805969E-08  0.93827000000E+00  0.93827000000E+00 0. -1.
     999902    2    1    2    0    0  0.36516412698E-02 -0.23064925918E-01 -0.38285159658E-02  0.10202660437E+01  0.10199915770E+01 0.  0.
     999903    2    3    3    0    0  0.54152914038E-02  0.12543564751E+00  0.11892565160E-01  0.12768401212E+00  0.19958627173E-01 0.  0.
         14    1    1    2    0    0 -0.36516412698E-02  0.23064925918E-01  0.38285159658E-02  0.23663956264E-01  0.00000000000E+00 0. -1.
     999901    1    3    3    0    0 -0.17636501340E-02 -0.14850057343E+00 -0.15721081126E-01  0.89258203161E+00  0.88000000000E+00 0. -1.
        -11    1    4    4    0    0 -0.46776683482E-02  0.64917757185E-01 -0.49579732998E-03  0.65089958635E-01  0.51100000000E-03 0.  1.
         11    1    4    4    0    0  0.10092959752E-01  0.60517890322E-01  0.12388362490E-01  0.62594053486E-01  0.51100000000E-03 0. -1.
</event>
<event>
 8    1  0.1137518E+005  0.1043930E+01  0.7957747E-01            NaN
         13   -1    0    0    0    0  0.00000000000E+00  0.00000000000E+00  0.74505805969E-08  0.10566000000E+00  0.10566000000E+00 0. -1.
     999900   -1    0    0    0    0 -0.00000000000E+00 -0.00000000000E+00 -0.74505805969E-08  0.93827000000E+00  0.93827000000E+00 0.  1.
     999902    2    1    2    0    0  0.16961071269E-01 -0.10124278195E-01 -0.12448891032E-01  0.10205814704E+01  0.10203143554E+01 0.  0.
     999903    2    3    3    0    0  0.58557116997E-01  0.14133650785E-02  0.11552754722E+00  0.13027741165E+00  0.13951927090E-01 0.  0.
         14    1    1    2    0    0 -0.16961071269E-01  0.10124278195E-01  0.12448891032E-01  0.23348529622E-01  0.00000000000E+00 0.  1.
     999901    1    3    3    0    0 -0.41596045727E-01 -0.11537643274E-01 -0.12797643825E+00  0.89030405872E+00  0.88000000000E+00 0.  1.
        -11    1    4    4    0    0  0.21159060315E-01 -0.50528948297E-02  0.50393973363E-01  0.54891267538E-01  0.51100000000E-03 0.  1.
         11    1    4    4    0    0  0.37398056681E-01  0.64662599081E-02  0.65133573854E-01  0.75386144117E-01  0.51100000000E-03 0. -1.
</event>
<event>
 8    1  0.1137518E+005  0.1043930E+01  0.7957747E-01            NaN
         13   -1    0    0    0    0  0.00000000000E+00  0.00000000000E+00  0.74505805969E-08  0.10566000000E+00  0.10566000000E+00 0. -1.
     999900   -1    0    0    0    0 -0.00000000000E+00 -0.00000000000E+00 -0.74505805969E-08  0.93827000000E+00  0.93827000000E+00 0. -1.
     999902    2    1    2    0    0 -0.22333736927E-01  0.97335080836E-02 -0.11734349807E-02  0.10195391424E+01  0.10192473443E+01 0.  0.
     999903    2    3    3    0    0  0.98437343043E-02  0.12456626377E+00  0.33050761448E-01  0.13083601590E+00  0.20299188364E-01 0.  0.
         14    1    1    2    0    0  0.22333736927E-01 -0.97335080836E-02  0.11734349807E-02  0.24390857598E-01  0.00000000000E+00 0. -1.
     999901    1    3    3    0    0 -0.32177471231E-01 -0.11483275569E+00 -0.34224196428E-01  0.88870312650E+00  0.88000000000E+00 0.  1.
        -11    1    4    4    0    0  0.13239027056E-01  0.11649350015E+00  0.27408341353E-01  0.12040550532E+00  0.51100000000E-03 0. -1.
         11    1    4    4    0    0 -0.33952927520E-02  0.80727636218E-02  0.56424200942E-02  0.10430510576E-01  0.51100000000E-03 0.  1.
</event>
<event>
 8    1  0.1137518E+005  0.1043930E+01  0.7957747E-01            NaN
         13   -1    0    0    0    0  0.00000000000E+00  0.00000000000E+00  0.74505805969E-08  0.10566000000E+00  0.10566000000E+00 0. -1.
     999900   -1    0    0    0    0 -0.00000000000E+00 -0.00000000000E+00 -0.74505805969E-08  0.93827000000E+00  0.93827000000E+00 0.  1.
     999902    2    1    2    0    0 -0.99376552370E-02 -0.14303157728E-01 -0.16271786028E-01  0.10200949768E+01  0.10198164802E+01 0.  0.
     999903    2    3    3    0    0  0.36136310692E-01 -0.96779736562E-01 -0.80696322469E-01  0.13269669115E+00  0.20600121925E-01 0.  0.
         14    1    1    2    0    0  0.99376552370E-02  0.14303157728E-01  0.16271786028E-01  0.23835023246E-01  0.00000000000E+00 0. -1.
     999901    1    3    3    0    0 -0.46073965929E-01  0.82476578834E-01  0.64424536442E-01  0.88739828560E+00  0.88000000000E+00 0. -1.
        -11    1    4    4    0    0  0.15225313834E-01 -0.46388943752E-01 -0.50893988772E-01  0.70528033419E-01  0.51100000000E-03 0. -1.
         11    1    4    4    0    0  0.20910996858E-01 -0.50390792810E-01 -0.29802333697E-01  0.62168657734E-01  0.51100000000E-03 0.  1.
</event>
<event>
 8    1  0.1137518E+005  0.1043930E+01  0.7957747E-01            NaN
         13   -1    0    0    0    0  0.00000000000E+00  0.00000000000E+00  0.74505805969E-08  0.10566000000E+00  0.10566000000E+00 0.  1.
     999900   -1    0    0    0    0 -0.00000000000E+00 -0.00000000000E+00 -0.74505805969E-08  0.93827000000E+00  0.93827000000E+00 0.  1.
     999902    2    1    2    0    0 -0.14097232755E-01 -0.63884081253E-03 -0.18055613049E-01  0.10210139521E+01  0.10207567512E+01 0.  0.
     999903    2    3    3    0    0 -0.67247212478E-01 -0.14125250581E-01  0.10875963634E+00  0.13023400673E+00  0.20261483675E-01 0.  0.
         14    1    1    2    0    0  0.14097232755E-01  0.63884081253E-03  0.18055613049E-01  0.22916047904E-01  0.00000000000E+00 0.  1.
     999901    1    3    3    0    0  0.53149979723E-01  0.13486409768E-01 -0.12681524939E+00  0.89077994537E+00  0.88000000000E+00 0.  1.
        -11    1    4    4    0    0 -0.18515711405E-01 -0.10972424805E-01  0.45326878995E-01  0.50179804258E-01  0.51100000000E-03 0. -1.
         11    1    4    4    0    0 -0.48731501073E-01 -0.31528257759E-02  0.63432757348E-01  0.80054202470E-01  0.51100000000E-03 0.  1.
</event>
<event>
 8    1  0.1137518E+005  0.1043930E+01  0.7957747E-01            NaN
         13   -1    0    0    0    0  0.00000000000E+00  0.00000000000E+00  0.74505805969E-08  0.10566000000E+00  0.10566000000E+00 0. -1.
     999900   -1    0    0    0    0 -0.00000000000E+00 -0.00000000000E+00 -0.74505805969E-08  0.93827000000E+00  0.93827000000E+00 0. -1.
     999902    2    1    2    0    0 -0.12889035067E-01  0.27519979716E-03 -0.12754325360E-01  0.10257950675E+01  0.10256347521E+01 0.  0.
     999903    2    3    3    0    0 -0.57948246622E-01 -0.10608100679E+00 -0.62494409235E-01  0.13685409584E+00  0.14570966865E-01 0.  0.
         14    1    1    2    0    0  0.12889035067E-01 -0.27519979716E-03  0.12754325360E-01  0.18134932458E-01  0.00000000000E+00 0. -1.
     999901    1    3    3    0    0  0.45059211555E-01  0.10635620658E+00  0.49740083876E-01  0.88894097170E+00  0.88000000000E+00 0.  1.
        -11    1    4    4    0    0 -0.32965508143E-01 -0.73965819934E-01 -0.43912434029E-01  0.92120737236E-01  0.51100000000E-03 0.  1.
         11    1    4    4    0    0 -0.24982738479E-01 -0.32115186852E-01 -0.18581975207E-01  0.44733358604E-01  0.51100000000E-03 0. -1.
</event>
<event>
 8    1  0.1137518E+005  0.1043930E+01  0.7957747E-01            NaN
         13   -1    0    0    0    0  0.00000000000E+00  0.00000000000E+00  0.74505805969E-08  0.10566000000E+00  0.10566000000E+00 0. -1.
     999900   -1    0    0    0    0 -0.00000000000E+00 -0.00000000000E+00 -0.74505805969E-08  0.93827000000E+00  0.93827000000E+00 0.  1.
     999902    2    1    2    0    0 -0.91231283414E-02  0.22026349125E-01  0.40424349592E-02  0.10197487509E+01  0.10194620063E+01 0.  0.
     999903    2    3    3    0    0  0.13316698448E-01  0.11798454190E-01  0.12787958603E+00  0.13073593007E+00  0.20546457349E-01 0.  0.
         14    1    1    2    0    0  0.91231283414E-02 -0.22026349125E-01 -0.40424349592E-02  0.24181249077E-01  0.00000000000E+00 0.  1.
     999901    1    3    3    0    0 -0.22439826789E-01  0.10227894935E-01 -0.12383715107E+00  0.88901282086E+00  0.88000000000E+00 0.  1.
        -11    1    4    4    0    0 -0.35160248616E-02  0.68922695388E-02  0.64823461984E-01  0.65285589182E-01  0.51100000000E-03 0. -1.
         11    1    4    4    0    0  0.16832723310E-01  0.49061846512E-02  0.63056124043E-01  0.65450340886E-01  0.51100000000E-03 0.  1.
</event>
<event>
 8    1  0.1137518E+005  0.1043930E+01  0.7957747E-01            NaN
         13   -1    0    0    0    0  0.00000000000E+00  0.00000000000E+00  0.74505805969E-08  0.10566000000E+00  0.10566000000E+00 0. -1.
     999900   -1    0    0    0    0 -0.00000000000E+00 -0.00000000000E+00 -0.74505805969E-08  0.93827000000E+00  0.93827000000E+00 0. -1.
     999902    2    1    2    0    0 -0.22935717316E-02 -0.76094126094E-02  0.21323654888E-01  0.10211734210E+01  0.10209198273E+01 0.  0.
     999903    2    3    3    0    0 -0.95135957528E-01  0.85970352705E-01 -0.14811370420E-01  0.13062155772E+00  0.20021555595E-01 0.  0.
         14    1    1    2    0    0  0.22935717316E-02  0.76094126094E-02 -0.21323654888E-01  0.22756579034E-01  0.00000000000E+00 0.  1.
     999901    1    3    3    0    0  0.92842385797E-01 -0.93579765314E-01  0.36135025308E-01  0.89055186325E+00  0.88000000000E+00 0.  1.
        -11    1    4    4    0    0 -0.69686364025E-01  0.53577647843E-01 -0.16278393015E-01  0.89397991474E-01  0.51100000000E-03 0.  1.
         11    1    4    4    0    0 -0.25449593503E-01  0.32392704861E-01  0.14670225952E-02  0.41223566246E-01  0.51100000000E-03 0. -1.
</event>
<event>
 8    1  0.1137518E+005  0.1043930E+01  0.7957747E-01            NaN
         13   -1    0    0    0    0  0.00000000000E+00  0.00000000000E+00  0.74505805969E-08  0.10566000000E+00  0.10566000000E+00 0. -1.
     999900   -1    0    0    0    0 -0.00000000000E+00 -0.00000000000E+00 -0.74505805969E-08  0.93827000000E+00  0.93827000000E+00 0. -1.
     999902    2    1    2    0    0 -0.95037244426E-02  0.20427009057E-01 -0.16339863770E-02  0.10213412110E+01  0.10210913847E+01 0.  0.
     999903    2    3    3    0    0 -0.27263222482E-01 -0.43473414028E-01 -0.11888442162E+00  0.13109050001E+00  0.20444863973E-01 0.  0.
         14    1    1    2    0    0  0.95037244426E-02 -0.20427009057E-01  0.16339863770E-02  0.22588789006E-01  0.00000000000E+00 0. -1.
     999901    1    3    3    0    0  0.17759498040E-01  0.63900423085E-01  0.11725043524E+00  0.89025071098E+00  0.88000000000E+00 0.  1.
        -11    1    4    4    0    0 -0.25870192867E-01 -0.22783221647E-01 -0.72579678243E-01  0.80351806965E-01  0.51100000000E-03 0. -1.
         11    1    4    4    0    0 -0.13930296153E-02 -0.20690192381E-01 -0.46304743373E-01  0.50738693046E-01  0.51100000000E-03 0.  1.
</event>
<event>
 8    1  0.1137518E+005  0.1043930E+01  0.7957747E-01            NaN
         13   -1    0    0    0    0  0.00000000000E+00  0.00000000000E+00  0.74505805969E-08  0.10566000000E+00  0.10566000000E+00 0.  1.
     999900   -1    0    0    0    0 -0.00000000000E+00 -0.00000000000E+00 -0.74505805969E-08  0.93827000000E+00  0.93827000000E+00 0.  1.
     999902    2    1    2    0    0  0.10775431019E-01 -0.16232824632E-01  0.12778842071E-01  0.10206294997E+01  0.10203634952E+01 0.  0.
     999903    2    3    3    0    0  0.33140325711E-01 -0.80615958504E-01  0.99254128586E-01  0.13376798198E+00  0.21101587833E-01 0.  0.
         14    1    1    2    0    0 -0.10775431019E-01  0.16232824632E-01 -0.12778842071E-01  0.23300500292E-01  0.00000000000E+00 0. -1.
     999901    1    3    3    0    0 -0.22364894692E-01  0.64383133872E-01 -0.86475286515E-01  0.88686151772E+00  0.88000000000E+00 0.  1.
        -11    1    4    4    0    0  0.31994266903E-01 -0.52205526029E-01  0.68710530467E-01  0.92035037788E-01  0.51100000000E-03 0. -1.
         11    1    4    4    0    0  0.11460588072E-02 -0.28410432475E-01  0.30543598119E-01  0.41732944196E-01  0.51100000000E-03 0.  1.
</event>
<event>
 8    1  0.1137518E+005  0.1043930E+01  0.7957747E-01            NaN
         13   -1    0    0    0    0  0.00000000000E+00  0.00000000000E+00  0.74505805969E-08  0.10566000000E+00  0.10566000000E+00 0. -1.
     999900   -1    0    0    0    0 -0.00000000000E+00 -0.00000000000E+00 -0.74505805969E-08  0.93827000000E+00  0.93827000000E+00 0. -1.
     999902    2    1    2    0    0  0.14849423533E-01 -0.94883115370E-02  0.15525551872E-01  0.10204443406E+01  0.10201740421E+01 0.  0.
     999903    2    3    3    0    0 -0.85971089947E-01  0.92508598067E-01  0.15413332240E-01  0.12883447185E+00  0.20294859058E-01 0.  0.
         14    1    1    2    0    0 -0.14849423533E-01  0.94883115370E-02 -0.15525551872E-01  0.23485659369E-01  0.00000000000E+00 0.  1.
     999901    1    3    3    0    0  0.10082051348E+00 -0.10199690960E+00  0.11221963159E-03  0.89160986878E+00  0.88000000000E+00 0. -1.
        -11    1    4    4    0    0 -0.76176206139E-01  0.77429180501E-01  0.66467330193E-02  0.10882340077E+00  0.51100000000E-03 0.  1.
         11    1    4    4    0    0 -0.97948838074E-02  0.15079417565E-01  0.87665992209E-02  0.20011071081E-01  0.51100000000E-03 0. -1.
</event>
<event>
 8    1  0.1137518E+005  0.1043930E+01  0.7957747E-01            NaN
         13   -1    0    0    0    0  0.00000000000E+00  0.00000000000E+00  0.74505805969E-08  0.10566000000E+00  0.10566000000E+00 0. -1.
     999900   -1    0    0    0    0 -0.00000000000E+00 -0.00000000000E+00 -0.74505805969E-08  0.93827000000E+00  0.93827000000E+00 0. -1.
     999902    2    1    2    0    0  0.12497638461E-01 -0.19857142774E-01  0.18147955632E-02  0.10203972448E+01  0.10201258484E+01 0.  0.
     999903    2    3    3    0    0  0.25475226670E-01  0.10391808531E-01  0.12667951029E+00  0.13097349095E+00  0.18691713338E-01 0.  0.
         14    1    1    2    0    0 -0.12497638461E-01  0.19857142774E-01 -0.18147955632E-02  0.23532755240E-01  0.00000000000E+00 0. -1.
     999901    1    3    3    0    0 -0.12977588209E-01 -0.30248951305E-01 -0.12486471472E+00  0.88942375381E+00  0.88000000000E+00 0. -1.
        -11    1    4    4    0    0  0.18672781285E-01  0.15075727093E-02  0.10404263096E+00  0.10571696039E+00  0.51100000000E-03 0.  1.
         11    1    4    4    0    0  0.68024453846E-02  0.88842358213E-02  0.22636879327E-01  0.25256530562E-01  0.51100000000E-03 0. -1.
</event>
<event>
 8    1  0.1137518E+005  0.1043930E+01  0.7957747E-01            NaN
         13   -1    0    0    0    0  0.00000000000E+00  0.00000000000E+00  0.74505805969E-08  0.10566000000E+00  0.10566000000E+00 0. -1.
     999900   -1    0    0    0    0 -0.00000000000E+00 -0.00000000000E+00 -0.74505805969E-08  0.93827000000E+00  0.93827000000E+00 0. -1.
     999902    2    1    2    0    0 -0.21417613471E-02 -0.21939481904E-01  0.83895274996E-02  0.10203437290E+01  0.10200710824E+01 0.  0.
     999903    2    3    3    0    0  0.87148768154E-01  0.87313125059E-01  0.31120971342E-01  0.12881378036E+00  0.20149083238E-01 0.  0.
         14    1    1    2    0    0  0.21417613471E-02  0.21939481904E-01 -0.83895274996E-02  0.23586270997E-01  0.00000000000E+00 0.  1.
     999901    1    3    3    0    0 -0.89290529501E-01 -0.10925260696E+00 -0.22731443843E-01  0.89152994864E+00  0.88000000000E+00 0.  1.
        -11    1    4    4    0    0  0.35492164314E-01  0.49265269518E-01  0.12328855978E-01  0.61959844409E-01  0.51100000000E-03 0. -1.
         11    1    4    4    0    0  0.51656603839E-01  0.38047855541E-01  0.18792115364E-01  0.66853935952E-01  0.51100000000E-03 0.  1.
</event>
<event>
 8    1  0.1137518E+005  0.1043930E+01  0.7957747E-01            NaN
         13   -1    0    0    0    0  0.00000000000E+00  0.00000000000E+00  0.74505805969E-08  0.10566000000E+00  0.10566000000E+00 0.  1.
     999900   -1    0    0    0    0 -0.00000000000E+00 -0.00000000000E+00 -0.74505805969E-08  0.93827000000E+00  0.93827000000E+00 0. -1.
     999902    2    1    2    0    0  0.14708360796E-01  0.12857180976E-01  0.13726977917E-01  0.10200538005E+01  0.10197743295E+01 0.  0.
     999903    2    3    3    0    0  0.99710217690E-01  0.62399647868E-01  0.59662473230E-01  0.13338033104E+00  0.19871045061E-01 0.  0.
         14    1    1    2    0    0 -0.14708360796E-01 -0.12857180976E-01 -0.13726977917E-01  0.23876199503E-01  0.00000000000E+00 0. -1.
     999901    1    3    3    0    0 -0.85001856894E-01 -0.49542466892E-01 -0.45935495313E-01  0.88667346945E+00  0.88000000000E+00 0. -1.
        -11    1    4    4    0    0  0.51221366728E-01  0.20393743335E-01  0.28022379038E-01  0.61846972639E-01  0.51100000000E-03 0. -1.
         11    1    4    4    0    0  0.48488850962E-01  0.42005904533E-01  0.31640094193E-01  0.71533358406E-01  0.51100000000E-03 0.  1.
</event>
<event>
 8    1  0.1137518E+005  0.1043930E+01  0.7957747E-01            NaN
         13   -1    0    0    0    0  0.00000000000E+00  0.00000000000E+00  0.74505805969E-08  0.10566000000E+00  0.10566000000E+00 0. -1.
     999900   -1    0    0    0    0 -0.00000000000E+00 -0.00000000000E+00 -0.74505805969E-08  0.93827000000E+00  0.93827000000E+00 0.  1.
     999902    2    1    2    0    0  0.24102088213E-01  0.27771372332E-02 -0.59700102556E-04  0.10196683696E+01  0.10193796923E+01 0.  0.
     999903    2    3    3    0    0  0.20577964780E-01  0.12212209418E-01  0.12717205749E+00  0.13046121700E+00  0.16577280852E-01 0.  0.
         14    1    1    2    0    0 -0.24102088213E-01 -0.27771372332E-02  0.59700102556E-04  0.24261630438E-01  0.00000000000E+00 0. -1.
     999901    1    3    3    0    0  0.35241234330E-02 -0.94350721846E-02 -0.12723175759E+00  0.88920715257E+00  0.88000000000E+00 0.  1.
        -11    1    4    4    0    0  0.76859431950E-02  0.14094658379E-01  0.71813446215E-01  0.73587806707E-01  0.51100000000E-03 0. -1.
         11    1    4    4    0    0  0.12892021585E-01 -0.18824489610E-02  0.55358611275E-01  0.56873410290E-01  0.51100000000E-03 0.  1.
</event>
<event>
 8    1  0.1137518E+005  0.1043930E+01  0.7957747E-01            NaN
         13   -1    0    0    0    0  0.00000000000E+00  0.00000000000E+00  0.74505805969E-08  0.10566000000E+00  0.10566000000E+00 0. -1.
     999900   -1    0    0    0    0 -0.00000000000E+00 -0.00000000000E+00 -0.74505805969E-08  0.93827000000E+00  0.93827000000E+00 0. -1.
     999902    2    1    2    0    0 -0.75680818338E-02  0.26825255528E-02  0.22669287565E-01  0.10198807089E+01  0.10195971223E+01 0.  0.
     999903    2    3    3    0    0 -0.11295937105E+00  0.10676651125E-02 -0.60520884185E-01  0.12969503367E+00  0.19926487908E-01 0.  0.
         14    1    1    2    0    0  0.75680818338E-02 -0.26825255528E-02 -0.22669287565E-01  0.24049291147E-01  0.00000000000E+00 0.  1.
     999901    1    3    3    0    0  0.10539128922E+00  0.16148604403E-02  0.83190171750E-01  0.89018567518E+00  0.88000000000E+00 0.  1.
        -11    1    4    4    0    0 -0.99336968977E-01  0.14281809584E-02 -0.59973694663E-01  0.11604731052E+00  0.51100000000E-03 0. -1.
         11    1    4    4    0    0 -0.13622402074E-01 -0.36051584586E-03 -0.54718952213E-03  0.13647723154E-01  0.51100000000E-03 0.  1.
</event>
<event>
 8    1  0.1137518E+005  0.1043930E+01  0.7957747E-01            NaN
         13   -1    0    0    0    0  0.00000000000E+00  0.00000000000E+00  0.74505805969E-08  0.10566000000E+00  0.10566000000E+00 0.  1.
     999900   -1    0    0    0    0 -0.00000000000E+00 -0.00000000000E+00 -0.74505805969E-08  0.93827000000E+00  0.93827000000E+00 0.  1.
     999902    2    1    2    0    0  0.17230823657E-01 -0.13611319958E-01 -0.10013004669E-01  0.10197964222E+01  0.10195108205E+01 0.  0.
     999903    2    3    3    0    0  0.44353001498E-01 -0.41396421308E-01  0.11348090264E+00  0.13032558539E+00  0.20639537408E-01 0.  0.
         14    1    1    2    0    0 -0.17230823657E-01  0.13611319958E-01  0.10013004669E-01  0.24133577799E-01  0.00000000000E+00 0.  1.
     999901    1    3    3    0    0 -0.27122177841E-01  0.27785101350E-01 -0.12349390731E+00  0.88947083681E+00  0.88000000000E+00 0.  1.
        -11    1    4    4    0    0  0.19816866846E-01 -0.17195658197E-01  0.29145122282E-01  0.39218594394E-01  0.51100000000E-03 0. -1.
         11    1    4    4    0    0  0.24536134652E-01 -0.24200763111E-01  0.84335780361E-01  0.91106990999E-01  0.51100000000E-03 0.  1.
</event>
<event>
 8    1  0.1137518E+005  0.1043930E+01  0.7957747E-01            NaN
         13   -1    0    0    0    0  0.00000000000E+00  0.00000000000E+00  0.74505805969E-08  0.10566000000E+00  0.10566000000E+00 0. -1.
     999900   -1    0    0    0    0 -0.00000000000E+00 -0.00000000000E+00 -0.74505805969E-08  0.93827000000E+00  0.93827000000E+00 0. -1.
     999902    2    1    2    0    0 -0.15055153061E-01 -0.14226559760E-01  0.10440475048E-01  0.10207339625E+01  0.10204703651E+01 0.  0.
     999903    2    3    3    0    0 -0.49357957483E-01  0.33090230578E-01 -0.11429357517E+00  0.13001843871E+00  0.17623897258E-01 0.  0.
         14    1    1    2    0    0  0.15055153061E-01  0.14226559760E-01 -0.10440475048E-01  0.23196037497E-01  0.00000000000E+00 0.  1.
     999901    1    3    3    0    0  0.34302804421E-01 -0.47316790338E-01  0.12473405021E+00  0.89071552379E+00  0.88000000000E+00 0.  1.
        -11    1    4    4    0    0 -0.65861229389E-02  0.55164581120E-02 -0.33042003578E-01  0.34144449723E-01  0.51100000000E-03 0.  1.
         11    1    4    4    0    0 -0.42771834544E-01  0.27573772466E-01 -0.81251571588E-01  0.95873988989E-01  0.51100000000E-03 0. -1.
</event>
<event>
 8    1  0.1137518E+005  0.1043930E+01  0.7957747E-01            NaN
         13   -1    0    0    0    0  0.00000000000E+00  0.00000000000E+00  0.74505805969E-08  0.10566000000E+00  0.10566000000E+00 0. -1.
     999900   -1    0    0    0    0 -0.00000000000E+00 -0.00000000000E+00 -0.74505805969E-08  0.93827000000E+00  0.93827000000E+00 0. -1.
     999902    2    1    2    0    0  0.17619136385E-02  0.22949135977E-01  0.14633438008E-02  0.10208668572E+01  0.10206063058E+01 0.  0.
     999903    2    3    3    0    0  0.12275197362E+00 -0.37564371403E-01 -0.96401170489E-02  0.13046033989E+00  0.21162216350E-01 0.  0.
         14    1    1    2    0    0 -0.17619136385E-02 -0.22949135977E-01 -0.14633438008E-02  0.23063142822E-01  0.00000000000E+00 0. -1.
     999901    1    3    3    0    0 -0.12099005998E+00  0.60513507380E-01  0.11103460850E-01  0.89040651729E+00  0.88000000000E+00 0. -1.
        -11    1    4    4    0    0  0.45402199901E-02  0.36721668889E-03  0.32859829070E-02  0.56397916912E-02  0.51100000000E-03 0.  1.
         11    1    4    4    0    0  0.11821175363E+00 -0.37931588092E-01 -0.12926099956E-01  0.12482054820E+00  0.51100000000E-03 0. -1.
</event>
<event>
 8    1  0.1137518E+005  0.1043930E+01  0.7957747E-01            NaN
         13   -1    0    0    0    0  0.00000000000E+00  0.00000000000E+00  0.74505805969E-08  0.10566000000E+00  0.10566000000E+00 0.  1.
     999900   -1    0    0    0    0 -0.00000000000E+00 -0.00000000000E+00 -0.74505805969E-08  0.93827000000E+00  0.93827000000E+00 0.  1.
     999902    2    1    2    0    0 -0.18547244921E-01  0.84288402574E-02  0.11578125227E-01  0.10204971464E+01  0.10202280761E+01 0.  0.
     999903    2    3    3    0    0 -0.12379848453E+00  0.44451763268E-01 -0.69635121231E-02  0.13329972380E+00  0.20452428551E-01 0.  0.
         14    1    1    2    0    0  0.18547244921E-01 -0.84288402574E-02 -0.11578125227E-01  0.23432853561E-01  0.00000000000E+00 0.  1.
     999901    1    3    3    0    0  0.10525123961E+00 -0.36022923011E-01  0.18541637350E-01  0.88719742264E+00  0.88000000000E+00 0.  1.
        -11    1    4    4    0    0 -0.10716455256E+00  0.34398524982E-01  0.28027783286E-03  0.11255149720E+00  0.51100000000E-03 0.  1.
         11    1    4    4    0    0 -0.16633931974E-01  0.10053238286E-01 -0.72437899559E-02  0.20748226596E-01  0.51100000000E-03 0. -1.
</event>
<event>
 8    1  0.1137518E+005  0.1043930E+01  0.7957747E-01            NaN
         13   -1    0    0    0    0  0.00000000000E+00  0.00000000000E+00  0.74505805969E-08  0.10566000000E+00  0.10566000000E+00 0.  1.
     999900   -1    0    0    0    0 -0.00000000000E+00 -0.00000000000E+00 -0.74505805969E-08  0.93827000000E+00  0.93827000000E+00 0.  1.
     999902    2    1    2    0    0 -0.22562164883E-01 -0.82086120728E-02 -0.53014852571E-02  0.10193426386E+01  0.10190460620E+01 0.  0.
     999903    2    3    3    0    0 -0.10122867913E+00 -0.77939232684E-01  0.28249164528E-01  0.13245119875E+00  0.20579972887E-01 0.  0.
         14    1    1    2    0    0  0.22562164883E-01  0.82086120728E-02  0.53014852571E-02  0.24587361435E-01  0.00000000000E+00 0.  1.
     999901    1    3    3    0    0  0.78666514248E-01  0.69730620611E-01 -0.33550649785E-01  0.88689143981E+00  0.88000000000E+00 0.  1.
        -11    1    4    4    0    0 -0.26622322425E-01 -0.11618711303E-01  0.14270846104E-02  0.29086770105E-01  0.51100000000E-03 0.  1.
         11    1    4    4    0    0 -0.74606356706E-01 -0.66320521381E-01  0.26822079918E-01  0.10336442865E+00  0.51100000000E-03 0. -1.
</event>
<event>
 8    1  0.1137518E+005  0.1043930E+01  0.7957747E-01            NaN
         13   -1    0    0    0    0  0.00000000000E+00  0.00000000000E+00  0.74505805969E-08  0.10566000000E+00  0.10566000000E+00 0.  1.
     999900   -1    0    0    0    0 -0.00000000000E+00 -0.00000000000E+00 -0.74505805969E-08  0.93827000000E+00  0.93827000000E+00 0.  1.
     999902    2    1    2    0    0 -0.54181371614E-02 -0.12538264035E-01 -0.19253920266E-01  0.10203232696E+01  0.10200501442E+01 0.  0.
     999903    2    3    3    0    0  0.63361879586E-01  0.40299429606E-01 -0.10647129560E+00  0.13176860996E+00  0.19699187139E-01 0.  0.
         14    1    1    2    0    0  0.54181371614E-02  0.12538264035E-01  0.19253920266E-01  0.23606730416E-01  0.00000000000E+00 0.  1.
     999901    1    3    3    0    0 -0.68780016748E-01 -0.52837693641E-01  0.87217375334E-01  0.88855465962E+00  0.88000000000E+00 0. -1.
        -11    1    4    4    0    0  0.17047793932E-01  0.12938087021E-01 -0.46585872967E-01  0.51269153053E-01  0.51100000000E-03 0. -1.
         11    1    4    4    0    0  0.46314085654E-01  0.27361342585E-01 -0.59885422632E-01  0.80499456911E-01  0.51100000000E-03 0.  1.
</event>
<event>
 8    1  0.1137518E+005  0.1043930E+01  0.7957747E-01            NaN
         13   -1    0    0    0    0  0.00000000000E+00  0.00000000000E+00  0.74505805969E-08  0.10566000000E+00  0.10566000000E+00 0. -1.
     999900   -1    0    0    0    0 -0.00000000000E+00 -0.00000000000E+00 -0.74505805969E-08  0.93827000000E+00  0.93827000000E+00 0. -1.
     999902    2    1    2    0    0 -0.61283747198E-03  0.19992888639E-01  0.10965825664E-01  0.10211190268E+01  0.10208642057E+01 0.  0.
     999903    2    3    3    0    0 -0.77811893417E-01  0.15877232061E-01 -0.10168991672E+00  0.13057540116E+00  0.20057890486E-01 0.  0.
         14    1    1    2    0    0  0.61283747198E-03 -0.19992888639E-01 -0.10965825664E-01  0.22810973201E-01  0.00000000000E+00 0. -1.
     999901    1    3    3    0    0  0.77199055945E-01  0.41156565784E-02  0.11265574239E+00  0.89054362564E+00  0.88000000000E+00 0.  1.
        -11    1    4    4    0    0 -0.17551787433E-01 -0.44294913205E-02 -0.26551280139E-01  0.32139029754E-01  0.51100000000E-03 0.  1.
         11    1    4    4    0    0 -0.60260105984E-01  0.20306723381E-01 -0.75138636583E-01  0.98436371409E-01  0.51100000000E-03 0. -1.
</event>
<event>
 8    1  0.1137518E+005  0.1043930E+01  0.7957747E-01            NaN
         13   -1    0    0    0    0  0.00000000000E+00  0.00000000000E+00  0.74505805969E-08  0.10566000000E+00  0.10566000000E+00 0.  1.
     999900   -1    0    0    0    0 -0.00000000000E+00 -0.00000000000E+00 -0.74505805969E-08  0.93827000000E+00  0.93827000000E+00 0. -1.
     999902    2    1    2    0    0 -0.20712326513E-01  0.56806597147E-02 -0.97228226160E-02  0.10203545118E+01  0.10200821173E+01 0.  0.
     999903    2    3    3    0    0  0.84522562949E-01 -0.44885897504E-01 -0.84900274033E-01  0.12946562542E+00  0.19861626119E-01 0.  0.
         14    1    1    2    0    0  0.20712326513E-01 -0.56806597147E-02  0.97228226160E-02  0.23575488203E-01  0.00000000000E+00 0.  1.
     999901    1    3    3    0    0 -0.10523488946E+00  0.50566557219E-01  0.75177451417E-01  0.89088888638E+00  0.88000000000E+00 0.  1.
        -11    1    4    4    0    0  0.31645858556E-01 -0.65205202959E-02 -0.25432247435E-01  0.41122230962E-01  0.51100000000E-03 0. -1.
         11    1    4    4    0    0  0.52876704393E-01 -0.38365377208E-01 -0.59468026599E-01  0.88343394458E-01  0.51100000000E-03 0.  1.
</event>
<event>
 8    1  0.1137518E+005  0.1043930E+01  0.7957747E-01            NaN
         13   -1    0    0    0    0  0.00000000000E+00  0.00000000000E+00  0.74505805969E-08  0.10566000000E+00  0.10566000000E+00 0.  1.
     999900   -1    0    0    0    0 -0.00000000000E+00 -0.00000000000E+00 -0.74505805969E-08  0.93827000000E+00  0.93827000000E+00 0. -1.
     999902    2    1    2    0    0 -0.30358428279E-02  0.18671473918E-01 -0.14670076060E-01  0.10199915077E+01  0.10197105592E+01 0.  0.
     999903    2    3    3    0    0  0.73239172215E-01 -0.10253956588E+00 -0.10380220366E-01  0.12840393664E+00  0.22393817245E-01 0.  0.
         14    1    1    2    0    0  0.30358428279E-02 -0.18671473918E-01  0.14670076060E-01  0.23938492257E-01  0.00000000000E+00 0.  1.
     999901    1    3    3    0    0 -0.76275015043E-01  0.12121103980E+00 -0.42898556940E-02  0.89158757111E+00  0.88000000000E+00 0. -1.
        -11    1    4    4    0    0  0.23859458994E-01 -0.18179811513E-01 -0.57284609839E-02  0.30542686790E-01  0.51100000000E-03 0.  1.
         11    1    4    4    0    0  0.49379713221E-01 -0.84359754370E-01 -0.46517593821E-02  0.97861249846E-01  0.51100000000E-03 0. -1.
</event>
<event>
 8    1  0.1247119E+005  0.1043930E+01  0.7957747E-01            NaN
         13   -1    0    0    0    0  0.00000000000E+00  0.00000000000E+00  0.74505805969E-08  0.10566000000E+00  0.10566000000E+00 0. -1.
     999900   -1    0    0    0    0 -0.00000000000E+00 -0.00000000000E+00 -0.74505805969E-08  0.93827000000E+00  0.93827000000E+00 0. -1.
     999902    2    1    2    0    0  0.11297458800E-01 -0.21319038069E-01  0.15320818844E-02  0.10197539533E+01  0.10194673335E+01 0.  0.
     999903    2    3    3    0    0  0.11038740811E+00  0.53148812571E-01 -0.39220703096E-01  0.13013320920E+00  0.19652288369E-01 0.  0.
         14    1    1    2    0    0 -0.11297458800E-01  0.21319038069E-01 -0.15320818844E-02  0.24176046708E-01  0.00000000000E+00 0. -1.
     999901    1    3    3    0    0 -0.99089949312E-01 -0.74467850640E-01  0.40752784981E-01  0.88962074409E+00  0.88000000000E+00 0.  1.
        -11    1    4    4    0    0  0.34875465661E-01  0.26588011031E-01 -0.17212338459E-01  0.47114182068E-01  0.51100000000E-03 0.  1.
         11    1    4    4    0    0  0.75511942451E-01  0.26560801540E-01 -0.22008364637E-01  0.83019027134E-01  0.51100000000E-03 0. -1.
</event>
<event>
 8    1  0.1137518E+005  0.1043930E+01  0.7957747E-01            NaN
         13   -1    0    0    0    0  0.00000000000E+00  0.00000000000E+00  0.74505805969E-08  0.10566000000E+00  0.10566000000E+00 0.  1.
     999900   -1    0    0    0    0 -0.00000000000E+00 -0.00000000000E+00 -0.74505805969E-08  0.93827000000E+00  0.93827000000E+00 0.  1.
     999902    2    1    2    0    0 -0.13441931186E-01  0.38448002380E-02  0.19123844339E-01  0.10202405630E+01  0.10199654979E+01 0.  0.
     999903    2    3    3    0    0 -0.99974678917E-02  0.18685738949E-01  0.12994556621E+00  0.13315907192E+00  0.19909345835E-01 0.  0.
         14    1    1    2    0    0  0.13441931186E-01 -0.38448002380E-02 -0.19123844339E-01  0.23689436996E-01  0.00000000000E+00 0. -1.
     999901    1    3    3    0    0 -0.34444632941E-02 -0.14840938711E-01 -0.11082172187E+00  0.88708149109E+00  0.88000000000E+00 0.  1.
        -11    1    4    4    0    0  0.36480645140E-03  0.13995878784E-01  0.10238853003E+00  0.10334258517E+00  0.51100000000E-03 0. -1.
         11    1    4    4    0    0 -0.10362274343E-01  0.46898601654E-02  0.27557036183E-01  0.29816486751E-01  0.51100000000E-03 0.  1.
</event>
<event>
 8    1  0.1137518E+005  0.1043930E+01  0.7957747E-01            NaN
         13   -1    0    0    0    0  0.00000000000E+00  0.00000000000E+00  0.74505805969E-08  0.10566000000E+00  0.10566000000E+00 0.  1.
     999900   -1    0    0    0    0 -0.00000000000E+00 -0.00000000000E+00 -0.74505805969E-08  0.93827000000E+00  0.93827000000E+00 0. -1.
     999902    2    1    2    0    0 -0.79343872593E-02 -0.21817658730E-02 -0.22821830267E-01  0.10196699394E+01  0.10193813000E+01 0.  0.
     999903    2    3    3    0    0  0.12253390547E+00 -0.90982710938E-02  0.31706884842E-01  0.12835451026E+00  0.19292932150E-01 0.  0.
         14    1    1    2    0    0  0.79343872593E-02  0.21817658730E-02  0.22821830267E-01  0.24260060598E-01  0.00000000000E+00 0.  1.
     999901    1    3    3    0    0 -0.13046829273E+00  0.69165052207E-02 -0.54528715109E-01  0.89131542914E+00  0.88000000000E+00 0. -1.
        -11    1    4    4    0    0  0.79688593280E-01 -0.36727667360E-02  0.11249458214E-01  0.80564089678E-01  0.51100000000E-03 0.  1.
         11    1    4    4    0    0  0.42845312191E-01 -0.54255043578E-02  0.20457426627E-01  0.47790420583E-01  0.51100000000E-03 0. -1.
</event>
<event>
 8    1  0.1137518E+005  0.1043930E+01  0.7957747E-01            NaN
         13   -1    0    0    0    0  0.00000000000E+00  0.00000000000E+00  0.74505805969E-08  0.10566000000E+00  0.10566000000E+00 0. -1.
     999900   -1    0    0    0    0 -0.00000000000E+00 -0.00000000000E+00 -0.74505805969E-08  0.93827000000E+00  0.93827000000E+00 0. -1.
     999902    2    1    2    0    0  0.87116686998E-02 -0.19246932713E-01  0.10256617195E-01  0.10204452009E+01  0.10201749224E+01 0.  0.
     999903    2    3    3    0    0 -0.73543821493E-01  0.10282141710E+00 -0.53168380720E-02  0.12808362613E+00  0.19904999923E-01 0.  0.
         14    1    1    2    0    0 -0.87116686998E-02  0.19246932713E-01 -0.10256617195E-01  0.23484799056E-01  0.00000000000E+00 0. -1.
     999901    1    3    3    0    0  0.82255490192E-01 -0.12206834981E+00  0.15573455267E-01  0.89236157481E+00  0.88000000000E+00 0.  1.
        -11    1    4    4    0    0 -0.42346294898E-01  0.51019798768E-01  0.59418749872E-02  0.66571732418E-01  0.51100000000E-03 0.  1.
         11    1    4    4    0    0 -0.31197526595E-01  0.51801618332E-01 -0.11258713059E-01  0.61511893713E-01  0.51100000000E-03 0. -1.
</event>
<event>
 8    1  0.1137518E+005  0.1043930E+01  0.7957747E-01            NaN
         13   -1    0    0    0    0  0.00000000000E+00  0.00000000000E+00  0.74505805969E-08  0.10566000000E+00  0.10566000000E+00 0.  1.
     999900   -1    0    0    0    0 -0.00000000000E+00 -0.00000000000E+00 -0.74505805969E-08  0.93827000000E+00  0.93827000000E+00 0.  1.
     999902    2    1    2    0    0  0.55280802763E-02 -0.14835192242E-01 -0.21164774028E-01  0.10174991419E+01  0.10171557961E+01 0.  0.
     999903    2    3    3    0    0  0.64295797683E-01 -0.41617891144E-01  0.99334845893E-01  0.12694250924E+00  0.19518980006E-01 0.  0.
         14    1    1    2    0    0 -0.55280802763E-02  0.14835192242E-01  0.21164774028E-01  0.26430858103E-01  0.00000000000E+00 0.  1.
     999901    1    3    3    0    0 -0.58767717406E-01  0.26782698902E-01 -0.12049961992E+00  0.89055663266E+00  0.88000000000E+00 0.  1.
        -11    1    4    4    0    0  0.28779871474E-01 -0.16708154548E-01  0.58816891072E-01  0.67580553615E-01  0.51100000000E-03 0.  1.
         11    1    4    4    0    0  0.35515926209E-01 -0.24909736595E-01  0.40517954820E-01  0.59361955624E-01  0.51100000000E-03 0. -1.
</event>
<event>
 8    1  0.1137518E+005  0.1043930E+01  0.7957747E-01            NaN
         13   -1    0    0    0    0  0.00000000000E+00  0.00000000000E+00  0.74505805969E-08  0.10566000000E+00  0.10566000000E+00 0.  1.
     999900   -1    0    0    0    0 -0.00000000000E+00 -0.00000000000E+00 -0.74505805969E-08  0.93827000000E+00  0.93827000000E+00 0. -1.
     999902    2    1    2    0    0 -0.20246176367E-01 -0.10276154365E-01 -0.51768004982E-02  0.10206425298E+01  0.10203768261E+01 0.  0.
     999903    2    3    3    0    0  0.12718261192E+00  0.50583485979E-02 -0.17768657172E-02  0.12824017985E+00  0.15536499295E-01 0.  0.
         14    1    1    2    0    0  0.20246176367E-01  0.10276154365E-01  0.51768004982E-02  0.23287470224E-01  0.00000000000E+00 0.  1.
     999901    1    3    3    0    0 -0.14742878829E+00 -0.15334502963E-01 -0.33999347810E-02  0.89240234993E+00  0.88000000000E+00 0. -1.
        -11    1    4    4    0    0  0.10480760506E-01 -0.30342794727E-02  0.23950136583E-02  0.11182593801E-01  0.51100000000E-03 0.  1.
         11    1    4    4    0    0  0.11670185142E+00  0.80926280706E-02 -0.41718793755E-02  0.11705758605E+00  0.51100000000E-03 0. -1.
</event>
<event>
 7    1  0.1137518E+005  0.1043930E+01  0.7957747E-01            NaN
         13   -1    0    0    0    0  0.00000000000E+00  0.00000000000E+00  0.74505805969E-08  0.10566000000E+00  0.10566000000E+00 0. -1.
     999900   -1    0    0    0    0 -0.00000000000E+00 -0.00000000000E+00 -0.74505805969E-08  0.93827000000E+00  0.93827000000E+00 0.  1.
     999903    2    1    2    0    0  0.42296169001E-01  0.89750902286E-01  0.48043790028E-01  0.11183947665E+00  0.18859278993E-01 0.  0.
         14    1    1    2    0    0  0.38939917602E-01 -0.19990866257E-01 -0.93299714080E-02  0.44754891163E-01  0.00000000000E+00 0.  1.
     999901    1    1    2    0    0 -0.81236086602E-01 -0.69760036030E-01 -0.38713818620E-01  0.88733563219E+00  0.88000000000E+00 0.  1.
        -11    1    3    3    0    0  0.16576629047E-01  0.18134622330E-01  0.79601418875E-02  0.25831649918E-01  0.51100000000E-03 0. -1.
         11    1    3    3    0    0  0.25719539954E-01  0.71616279956E-01  0.40083648141E-01  0.86007826734E-01  0.51100000000E-03 0.  1.
</event>
<event>
 8    1  0.1137518E+005  0.1043930E+01  0.7957747E-01            NaN
         13   -1    0    0    0    0  0.00000000000E+00  0.00000000000E+00  0.74505805969E-08  0.10566000000E+00  0.10566000000E+00 0.  1.
     999900   -1    0    0    0    0 -0.00000000000E+00 -0.00000000000E+00 -0.74505805969E-08  0.93827000000E+00  0.93827000000E+00 0. -1.
     999902    2    1    2    0    0 -0.22219378008E-01 -0.19148229163E-02 -0.90673241542E-02  0.10198554559E+01  0.10195712664E+01 0.  0.
     999903    2    3    3    0    0 -0.80365568168E-01 -0.60357686217E-01  0.82130770265E-01  0.13130965511E+00  0.19876802234E-01 0.  0.
         14    1    1    2    0    0  0.22219378008E-01  0.19148229163E-02  0.90673241542E-02  0.24074544091E-01  0.00000000000E+00 0.  1.
     999901    1    3    3    0    0  0.58146190160E-01  0.58442863301E-01 -0.91198094419E-01  0.88854580080E+00  0.88000000000E+00 0. -1.
        -11    1    4    4    0    0 -0.18936819868E-01 -0.21691006076E-01  0.15148789832E-01  0.32539973044E-01  0.51100000000E-03 0.  1.
         11    1    4    4    0    0 -0.61428748300E-01 -0.38666680141E-01  0.66981980433E-01  0.98769682062E-01  0.51100000000E-03 0. -1.
</event>
<event>
 8    1  0.1137518E+005  0.1043930E+01  0.7957747E-01            NaN
         13   -1    0    0    0    0  0.00000000000E+00  0.00000000000E+00  0.74505805969E-08  0.10566000000E+00  0.10566000000E+00 0. -1.
     999900   -1    0    0    0    0 -0.00000000000E+00 -0.00000000000E+00 -0.74505805969E-08  0.93827000000E+00  0.93827000000E+00 0. -1.
     999902    2    1    2    0    0  0.36171178941E-02  0.20731895518E-01 -0.79164299804E-02  0.10214452297E+01  0.10211977244E+01 0.  0.
     999903    2    3    3    0    0 -0.68844809696E-01  0.89951939871E-01 -0.65877000098E-01  0.13386336122E+00  0.27361670765E-01 0.  0.
         14    1    1    2    0    0 -0.36171178941E-02 -0.20731895518E-01  0.79164299804E-02  0.22484770341E-01  0.00000000000E+00 0.  1.
     999901    1    3    3    0    0  0.72461927591E-01 -0.69220044353E-01  0.57960570118E-01  0.88758186844E+00  0.88000000000E+00 0. -1.
        -11    1    4    4    0    0 -0.21079360708E-01  0.47021393858E-01 -0.37031166645E-01  0.63458012514E-01  0.51100000000E-03 0. -1.
         11    1    4    4    0    0 -0.47765448988E-01  0.42930546013E-01 -0.28845833453E-01  0.70405348708E-01  0.51100000000E-03 0.  1.
</event>
<event>
 8    1  0.1137518E+005  0.1043930E+01  0.7957747E-01            NaN
         13   -1    0    0    0    0  0.00000000000E+00  0.00000000000E+00  0.74505805969E-08  0.10566000000E+00  0.10566000000E+00 0.  1.
     999900   -1    0    0    0    0 -0.00000000000E+00 -0.00000000000E+00 -0.74505805969E-08  0.93827000000E+00  0.93827000000E+00 0.  1.
     999902    2    1    2    0    0  0.12325229536E-02  0.57103630493E-02  0.24720909594E-01  0.10185282140E+01  0.10182114083E+01 0.  0.
     999903    2    3    3    0    0  0.92665177151E-01  0.20529039213E-01  0.88700357941E-01  0.13135692661E+00  0.19457958863E-01 0.  0.
         14    1    1    2    0    0 -0.12325229536E-02 -0.57103630493E-02 -0.24720909594E-01  0.25401785963E-01  0.00000000000E+00 0. -1.
     999901    1    3    3    0    0 -0.91432654198E-01 -0.14818676164E-01 -0.63979448348E-01  0.88717128742E+00  0.88000000000E+00 0.  1.
        -11    1    4    4    0    0  0.65401809724E-01  0.12691844223E-01  0.73379445785E-01  0.99112480595E-01  0.51100000000E-03 0. -1.
         11    1    4    4    0    0  0.27263367427E-01  0.78371949896E-02  0.15320912156E-01  0.32244446018E-01  0.51100000000E-03 0.  1.
</event>
<event>
 8    1  0.1137518E+005  0.1043930E+01  0.7957747E-01            NaN
         13   -1    0    0    0    0  0.00000000000E+00  0.00000000000E+00  0.74505805969E-08  0.10566000000E+00  0.10566000000E+00 0. -1.
     999900   -1    0    0    0    0 -0.00000000000E+00 -0.00000000000E+00 -0.74505805969E-08  0.93827000000E+00  0.93827000000E+00 0. -1.
     999902    2    1    2    0    0  0.17627289497E-03  0.71010961300E-02  0.12472887777E-01  0.10295762699E+01  0.10294762095E+01 0.  0.
     999903    2    3    3    0    0 -0.65403555426E-02 -0.11631185005E+00 -0.69561813437E-01  0.13716069373E+00  0.20074543650E-01 0.  0.
         14    1    1    2    0    0 -0.17627289497E-03 -0.71010961300E-02 -0.12472887777E-01  0.14353730103E-01  0.00000000000E+00 0.  1.
     999901    1    3    3    0    0  0.67166284376E-02  0.12341294618E+00  0.82034701215E-01  0.89241557617E+00  0.88000000000E+00 0.  1.
        -11    1    4    4    0    0 -0.13509734365E-01 -0.65566731242E-01 -0.41227837865E-01  0.78622547048E-01  0.51100000000E-03 0. -1.
         11    1    4    4    0    0  0.69693788225E-02 -0.50745118809E-01 -0.28333975573E-01  0.58538146681E-01  0.51100000000E-03 0.  1.
</event>
<event>
 8    1  0.1137518E+005  0.1043930E+01  0.7957747E-01            NaN
         13   -1    0    0    0    0  0.00000000000E+00  0.00000000000E+00  0.74505805969E-08  0.10566000000E+00  0.10566000000E+00 0.  1.
     999900   -1    0    0    0    0 -0.00000000000E+00 -0.00000000000E+00 -0.74505805969E-08  0.93827000000E+00  0.93827000000E+00 0. -1.
     999902    2    1    2    0    0 -0.11845404398E-01  0.29886147547E-02 -0.18123367436E-01  0.10220736080E+01  0.10218398888E+01 0.  0.
     999903    2    3    3    0    0  0.76252613197E-01 -0.97537039186E-02  0.10214779365E+00  0.12944334885E+00  0.20293177522E-01 0.  0.
         14    1    1    2    0    0  0.11845404398E-01 -0.29886147547E-02  0.18123367436E-01  0.21856391988E-01  0.00000000000E+00 0. -1.
     999901    1    3    3    0    0 -0.88098017594E-01  0.12742318673E-01 -0.12027116108E+00  0.89263025917E+00  0.88000000000E+00 0. -1.
        -11    1    4    4    0    0  0.30509783645E-01  0.93470840919E-03  0.26655791375E-01  0.40527927565E-01  0.51100000000E-03 0.  1.
         11    1    4    4    0    0  0.45742829552E-01 -0.10688412328E-01  0.75492002273E-01  0.88915421282E-01  0.51100000000E-03 0. -1.
</event>
<event>
 8    1  0.1137518E+005  0.1043930E+01  0.7957747E-01            NaN
         13   -1    0    0    0    0  0.00000000000E+00  0.00000000000E+00  0.74505805969E-08  0.10566000000E+00  0.10566000000E+00 0.  1.
     999900   -1    0    0    0    0 -0.00000000000E+00 -0.00000000000E+00 -0.74505805969E-08  0.93827000000E+00  0.93827000000E+00 0.  1.
     999902    2    1    2    0    0 -0.67213058240E-03 -0.96451649196E-02 -0.20261122484E-01  0.10214801882E+01  0.10212334605E+01 0.  0.
     999903    2    3    3    0    0  0.12096768625E+00  0.33475217124E-01  0.31072008453E-01  0.13058698319E+00  0.18267982699E-01 0.  0.
         14    1    1    2    0    0  0.67213058240E-03  0.96451649196E-02  0.20261122484E-01  0.22449811807E-01  0.00000000000E+00 0.  1.
     999901    1    3    3    0    0 -0.12163981683E+00 -0.43120382043E-01 -0.51333130937E-01  0.89089320500E+00  0.88000000000E+00 0. -1.
        -11    1    4    4    0    0  0.29385465319E-01  0.13037229424E-01  0.14436442389E-02  0.32184159967E-01  0.51100000000E-03 0. -1.
         11    1    4    4    0    0  0.91582220929E-01  0.20437987700E-01  0.29628364214E-01  0.98402823225E-01  0.51100000000E-03 0.  1.
</event>
<event>
 8    1  0.1137518E+005  0.1043930E+01  0.7957747E-01            NaN
         13   -1    0    0    0    0  0.00000000000E+00  0.00000000000E+00  0.74505805969E-08  0.10566000000E+00  0.10566000000E+00 0. -1.
     999900   -1    0    0    0    0 -0.00000000000E+00 -0.00000000000E+00 -0.74505805969E-08  0.93827000000E+00  0.93827000000E+00 0.  1.
     999902    2    1    2    0    0  0.20072370376E-01 -0.26266326710E-02 -0.11930713805E-01  0.10204323154E+01  0.10201617367E+01 0.  0.
     999903    2    3    3    0    0 -0.19936544499E-01 -0.12467528126E+00 -0.28240807123E-01  0.13095909764E+00  0.20281777604E-01 0.  0.
         14    1    1    2    0    0 -0.20072370376E-01  0.26266326710E-02  0.11930713805E-01  0.23497684644E-01  0.00000000000E+00 0. -1.
     999901    1    3    3    0    0  0.40008914875E-01  0.12204864859E+00  0.16310093319E-01  0.88947321772E+00  0.88000000000E+00 0. -1.
        -11    1    4    4    0    0 -0.84042345383E-02 -0.12299855893E-01 -0.36793500282E-02  0.15353056724E-01  0.51100000000E-03 0.  1.
         11    1    4    4    0    0 -0.11532309960E-01 -0.11237542537E+00 -0.24561457095E-01  0.11560604091E+00  0.51100000000E-03 0. -1.
</event>
<event>
 8    1  0.1137518E+005  0.1043930E+01  0.7957747E-01            NaN
         13   -1    0    0    0    0  0.00000000000E+00  0.00000000000E+00  0.74505805969E-08  0.10566000000E+00  0.10566000000E+00 0.  1.
     999900   -1    0    0    0    0 -0.00000000000E+00 -0.00000000000E+00 -0.74505805969E-08  0.93827000000E+00  0.93827000000E+00 0. -1.
     999902    2    1    2    0    0 -0.55459832763E-02 -0.22094314042E-01  0.65337558067E-02  0.10202317594E+01  0.10199564874E+01 0.  0.
     999903    2    3    3    0    0 -0.49730913866E-02  0.10266334291E-01 -0.12716258101E+00  0.12954536662E+00  0.21944264563E-01 0.  0.
         14    1    1    2    0    0  0.55459832763E-02  0.22094314042E-01 -0.65337558067E-02  0.23698240619E-01  0.00000000000E+00 0. -1.
     999901    1    3    3    0    0 -0.57289188964E-03 -0.32360648333E-01  0.13369633681E+00  0.89068639276E+00  0.88000000000E+00 0.  1.
        -11    1    4    4    0    0 -0.68147998992E-02 -0.18862557988E-02 -0.92375314187E-01  0.92646960289E-01  0.51100000000E-03 0.  1.
         11    1    4    4    0    0  0.18417085126E-02  0.12152590090E-01 -0.34787266821E-01  0.36898406334E-01  0.51100000000E-03 0. -1.
</event>
<event>
 8    1  0.1137518E+005  0.1043930E+01  0.7957747E-01            NaN
         13   -1    0    0    0    0  0.00000000000E+00  0.00000000000E+00  0.74505805969E-08  0.10566000000E+00  0.10566000000E+00 0. -1.
     999900   -1    0    0    0    0 -0.00000000000E+00 -0.00000000000E+00 -0.74505805969E-08  0.93827000000E+00  0.93827000000E+00 0.  1.
     999902    2    1    2    0    0  0.18539615356E-01  0.12234740310E-01  0.13879062077E-01  0.10177377383E+01  0.10174006435E+01 0.  0.
     999903    2    3    3    0    0  0.57452835051E-01  0.33283784779E-01  0.11136762051E+00  0.13124954326E+00  0.20372950791E-01 0.  0.
         14    1    1    2    0    0 -0.18539615356E-01 -0.12234740310E-01 -0.13879062077E-01  0.26192261684E-01  0.00000000000E+00 0.  1.
     999901    1    3    3    0    0 -0.38913219696E-01 -0.21049044469E-01 -0.97488558435E-01  0.88648819505E+00  0.88000000000E+00 0.  1.
        -11    1    4    4    0    0  0.28429171601E-01  0.27445501791E-01  0.57319110799E-01  0.69621943023E-01  0.51100000000E-03 0. -1.
         11    1    4    4    0    0  0.29023663450E-01  0.58382829879E-02  0.54048509713E-01  0.61627600241E-01  0.51100000000E-03 0.  1.
</event>
<event>
 8    1  0.1137518E+005  0.1043930E+01  0.7957747E-01            NaN
         13   -1    0    0    0    0  0.00000000000E+00  0.00000000000E+00  0.74505805969E-08  0.10566000000E+00  0.10566000000E+00 0.  1.
     999900   -1    0    0    0    0 -0.00000000000E+00 -0.00000000000E+00 -0.74505805969E-08  0.93827000000E+00  0.93827000000E+00 0.  1.
     999902    2    1    2    0    0 -0.16400862961E-01 -0.17022945151E-01 -0.44488330021E-02  0.10198767033E+01  0.10195930212E+01 0.  0.
     999903    2    3    3    0    0  0.74856573452E-01  0.10042720274E+00 -0.11330165106E-01  0.12736910687E+00  0.20134227176E-01 0.  0.
         14    1    1    2    0    0  0.16400862961E-01  0.17022945151E-01  0.44488330021E-02  0.24053296709E-01  0.00000000000E+00 0.  1.
     999901    1    3    3    0    0 -0.91257436413E-01 -0.11745014789E+00  0.68813321040E-02  0.89250759642E+00  0.88000000000E+00 0.  1.
        -11    1    4    4    0    0  0.93212338581E-02  0.21489618032E-01 -0.78593273561E-02  0.24712734193E-01  0.51100000000E-03 0.  1.
         11    1    4    4    0    0  0.65535339594E-01  0.78937584708E-01 -0.34708377500E-02  0.10265637268E+00  0.51100000000E-03 0. -1.
</event>
<event>
 8    1  0.1137518E+005  0.1043930E+01  0.7957747E-01            NaN
         13   -1    0    0    0    0  0.00000000000E+00  0.00000000000E+00  0.74505805969E-08  0.10566000000E+00  0.10566000000E+00 0.  1.
     999900   -1    0    0    0    0 -0.00000000000E+00 -0.00000000000E+00 -0.74505805969E-08  0.93827000000E+00  0.93827000000E+00 0. -1.
     999902    2    1    2    0    0 -0.16053462529E-01  0.69233586523E-02  0.16500805358E-01  0.10198899681E+01  0.10196066026E+01 0.  0.
     999903    2    3    3    0    0  0.39518774795E-02  0.37724866117E-01 -0.12096888840E+00  0.12846029442E+00  0.20731435623E-01 0.  0.
         14    1    1    2    0    0  0.16053462529E-01 -0.69233586523E-02 -0.16500805358E-01  0.24040031856E-01  0.00000000000E+00 0.  1.
     999901    1    3    3    0    0 -0.20005340008E-01 -0.30801507465E-01  0.13746969376E+00  0.89142967372E+00  0.88000000000E+00 0.  1.
        -11    1    4    4    0    0 -0.14873171078E-02  0.31881483348E-02 -0.12960173887E-02  0.37838054991E-02  0.51100000000E-03 0.  1.
         11    1    4    4    0    0  0.54391945873E-02  0.34536717782E-01 -0.11967287101E+00  0.12467648892E+00  0.51100000000E-03 0. -1.
</event>
<event>
 8    1  0.1137518E+005  0.1043930E+01  0.7957747E-01            NaN
         13   -1    0    0    0    0  0.00000000000E+00  0.00000000000E+00  0.74505805969E-08  0.10566000000E+00  0.10566000000E+00 0.  1.
     999900   -1    0    0    0    0 -0.00000000000E+00 -0.00000000000E+00 -0.74505805969E-08  0.93827000000E+00  0.93827000000E+00 0. -1.
     999902    2    1    2    0    0 -0.49191870507E-02 -0.21421834834E-01  0.76289296185E-02  0.10206642747E+01  0.10203990727E+01 0.  0.
     999903    2    3    3    0    0 -0.75977808103E-01 -0.69277979248E-01  0.83412686478E-01  0.13326204568E+00  0.15133764233E-01 0.  0.
         14    1    1    2    0    0  0.49191870507E-02  0.21421834834E-01 -0.76289296185E-02  0.23265725349E-01  0.00000000000E+00 0.  1.
     999901    1    3    3    0    0  0.71058621052E-01  0.47856144414E-01 -0.75783756859E-01  0.88740222897E+00  0.88000000000E+00 0. -1.
        -11    1    4    4    0    0 -0.10350940914E-01 -0.15380890886E-01  0.10378481379E-01  0.21252947537E-01  0.51100000000E-03 0. -1.
         11    1    4    4    0    0 -0.65626867189E-01 -0.53897088362E-01  0.73034205098E-01  0.11200909814E+00  0.51100000000E-03 0.  1.
</event>
<event>
 8    1  0.1137518E+005  0.1043930E+01  0.7957747E-01            NaN
         13   -1    0    0    0    0  0.00000000000E+00  0.00000000000E+00  0.74505805969E-08  0.10566000000E+00  0.10566000000E+00 0. -1.
     999900   -1    0    0    0    0 -0.00000000000E+00 -0.00000000000E+00 -0.74505805969E-08  0.93827000000E+00  0.93827000000E+00 0.  1.
     999902    2    1    2    0    0 -0.31475638006E-03  0.18902518154E-01  0.13752033566E-01  0.10205521752E+01  0.10202843818E+01 0.  0.
     999903    2    3    3    0    0  0.11239794850E+00  0.55408208261E-01  0.37570049969E-01  0.13229313803E+00  0.19662078837E-01 0.  0.
         14    1    1    2    0    0  0.31475638006E-03 -0.18902518154E-01 -0.13752033566E-01  0.23377824778E-01  0.00000000000E+00 0. -1.
     999901    1    3    3    0    0 -0.11271270488E+00 -0.36505690107E-01 -0.23818016403E-01  0.88825903719E+00  0.88000000000E+00 0.  1.
        -11    1    4    4    0    0  0.16230071242E-01  0.15476215284E-01  0.10098485502E-01  0.24600182570E-01  0.51100000000E-03 0. -1.
         11    1    4    4    0    0  0.96167877260E-01  0.39931992977E-01  0.27471564467E-01  0.10769295546E+00  0.51100000000E-03 0.  1.
</event>
<event>
 8    1  0.1137518E+005  0.1043930E+01  0.7957747E-01            NaN
         13   -1    0    0    0    0  0.00000000000E+00  0.00000000000E+00  0.74505805969E-08  0.10566000000E+00  0.10566000000E+00 0.  1.
     999900   -1    0    0    0    0 -0.00000000000E+00 -0.00000000000E+00 -0.74505805969E-08  0.93827000000E+00  0.93827000000E+00 0.  1.
     999902    2    1    2    0    0  0.20347723325E-01  0.92334898810E-02 -0.95145475566E-02  0.10196439177E+01  0.10193546513E+01 0.  0.
     999903    2    3    3    0    0 -0.29836000879E-01  0.12388652895E+00  0.18358854973E-01  0.13035169791E+00  0.20407317039E-01 0.  0.
         14    1    1    2    0    0 -0.20347723325E-01 -0.92334898810E-02  0.95145475566E-02  0.24286082333E-01  0.00000000000E+00 0.  1.
     999901    1    3    3    0    0  0.50183724204E-01 -0.11465303907E+00 -0.27873402529E-01  0.88929221975E+00  0.88000000000E+00 0.  1.
        -11    1    4    4    0    0 -0.86830415934E-02  0.77562684137E-01  0.89203321553E-02  0.78556976957E-01  0.51100000000E-03 0.  1.
         11    1    4    4    0    0 -0.21152959285E-01  0.46323844816E-01  0.94385228175E-02  0.51794720957E-01  0.51100000000E-03 0. -1.
</event>
<event>
 8    1  0.1137518E+005  0.1043930E+01  0.7957747E-01            NaN
         13   -1    0    0    0    0  0.00000000000E+00  0.00000000000E+00  0.74505805969E-08  0.10566000000E+00  0.10566000000E+00 0. -1.
     999900   -1    0    0    0    0 -0.00000000000E+00 -0.00000000000E+00 -0.74505805969E-08  0.93827000000E+00  0.93827000000E+00 0.  1.
     999902    2    1    2    0    0 -0.13755052251E-01  0.11031364545E-01  0.14287640389E-01  0.10212357467E+01  0.10209835558E+01 0.  0.
     999903    2    3    3    0    0  0.11587443840E+00  0.33499462921E-01  0.45473595112E-01  0.13090929864E+00  0.22810022523E-01 0.  0.
         14    1    1    2    0    0  0.13755052251E-01 -0.11031364545E-01 -0.14287640389E-01  0.22694253326E-01  0.00000000000E+00 0.  1.
     999901    1    3    3    0    0 -0.12962949065E+00 -0.22468098376E-01 -0.31185954723E-01  0.89032644803E+00  0.88000000000E+00 0.  1.
        -11    1    4    4    0    0  0.28744554542E-01 -0.63177558405E-03  0.15385587882E-01  0.32613279376E-01  0.51100000000E-03 0. -1.
         11    1    4    4    0    0  0.87129883861E-01  0.34131238505E-01  0.30088007230E-01  0.98296019266E-01  0.51100000000E-03 0.  1.
</event>
<event>
 8    1  0.1137518E+005  0.1043930E+01  0.7957747E-01            NaN
         13   -1    0    0    0    0  0.00000000000E+00  0.00000000000E+00  0.74505805969E-08  0.10566000000E+00  0.10566000000E+00 0.  1.
     999900   -1    0    0    0    0 -0.00000000000E+00 -0.00000000000E+00 -0.74505805969E-08  0.93827000000E+00  0.93827000000E+00 0. -1.
     999902    2    1    2    0    0 -0.23113051528E-01  0.50108575137E-02 -0.18357065120E-02  0.10202088773E+01  0.10199330672E+01 0.  0.
     999903    2    3    3    0    0 -0.10260661361E+00  0.96764848985E-02  0.81214671740E-01  0.13271895633E+00  0.19918507652E-01 0.  0.
         14    1    1    2    0    0  0.23113051528E-01 -0.50108575137E-02  0.18357065120E-02  0.23721122705E-01  0.00000000000E+00 0. -1.
     999901    1    3    3    0    0  0.79493562078E-01 -0.46656273848E-02 -0.83050378253E-01  0.88748992097E+00  0.88000000000E+00 0. -1.
        -11    1    4    4    0    0 -0.47791101775E-01 -0.15241722864E-02  0.47474365615E-01  0.67382408844E-01  0.51100000000E-03 0.  1.
         11    1    4    4    0    0 -0.54815511831E-01  0.11200657185E-01  0.33740306126E-01  0.65336547484E-01  0.51100000000E-03 0. -1.
</event>
<event>
 8    1  0.1137518E+005  0.1043930E+01  0.7957747E-01            NaN
         13   -1    0    0    0    0  0.00000000000E+00  0.00000000000E+00  0.74505805969E-08  0.10566000000E+00  0.10566000000E+00 0. -1.
     999900   -1    0    0    0    0 -0.00000000000E+00 -0.00000000000E+00 -0.74505805969E-08  0.93827000000E+00  0.93827000000E+00 0.  1.
     999902    2    1    2    0    0 -0.47432964163E-02 -0.98765447502E-03  0.22613308478E-01  0.10208034775E+01  0.10205414757E+01 0.  0.
     999903    2    3    3    0    0  0.24483975875E-01 -0.55210239997E-01 -0.11159198997E+00  0.12850006254E+00  0.20294289170E-01 0.  0.
         14    1    1    2    0    0  0.47432964163E-02  0.98765447502E-03 -0.22613308478E-01  0.23126522492E-01  0.00000000000E+00 0.  1.
     999901    1    3    3    0    0 -0.29227272291E-01  0.54222585522E-01  0.13420529845E+00  0.89230341496E+00  0.88000000000E+00 0. -1.
        -11    1    4    4    0    0  0.19633429061E-01 -0.20832343267E-01 -0.43690932688E-01  0.52236163554E-01  0.51100000000E-03 0. -1.
         11    1    4    4    0    0  0.48505468132E-02 -0.34377896730E-01 -0.67901057282E-01  0.76263898989E-01  0.51100000000E-03 0.  1.
</event>
<event>
 8    1  0.1137518E+005  0.1043930E+01  0.7957747E-01            NaN
         13   -1    0    0    0    0  0.00000000000E+00  0.00000000000E+00  0.74505805969E-08  0.10566000000E+00  0.10566000000E+00 0.  1.
     999900   -1    0    0    0    0 -0.00000000000E+00 -0.00000000000E+00 -0.74505805969E-08  0.93827000000E+00  0.93827000000E+00 0. -1.
     999902    2    1    2    0    0  0.29849874190E-02  0.77941910887E-02  0.21977605219E-01  0.10204209657E+01  0.10201501225E+01 0.  0.
     999903    2    3    3    0    0 -0.42149797186E-01 -0.13317535219E-01  0.12408073870E+00  0.13311723883E+00  0.19240774663E-01 0.  0.
         14    1    1    2    0    0 -0.29849874190E-02 -0.77941910887E-02 -0.21977605219E-01  0.23509034344E-01  0.00000000000E+00 0. -1.
     999901    1    3    3    0    0  0.45134784605E-01  0.21111726308E-01 -0.10210313349E+00  0.88730372682E+00  0.88000000000E+00 0. -1.
        -11    1    4    4    0    0 -0.36842149297E-01 -0.47209881770E-02  0.85274440191E-01  0.93014100893E-01  0.51100000000E-03 0. -1.
         11    1    4    4    0    0 -0.53076478890E-02 -0.85965470423E-02  0.38806298514E-01  0.40103137938E-01  0.51100000000E-03 0.  1.
</event>
<event>
 8    1  0.1137518E+005  0.1043930E+01  0.7957747E-01            NaN
         13   -1    0    0    0    0  0.00000000000E+00  0.00000000000E+00  0.74505805969E-08  0.10566000000E+00  0.10566000000E+00 0. -1.
     999900   -1    0    0    0    0 -0.00000000000E+00 -0.00000000000E+00 -0.74505805969E-08  0.93827000000E+00  0.93827000000E+00 0. -1.
     999902    2    1    2    0    0 -0.40424984975E-02  0.13611579140E-01  0.19362562059E-01  0.10199190506E+01  0.10196363784E+01 0.  0.
     999903    2    3    3    0    0  0.24716118585E-01 -0.79812162515E-01  0.98803968700E-01  0.13094999005E+00  0.20119837452E-01 0.  0.
         14    1    1    2    0    0  0.40424984975E-02 -0.13611579140E-01 -0.19362562059E-01  0.24010949383E-01  0.00000000000E+00 0.  1.
     999901    1    3    3    0    0 -0.28758617083E-01  0.93423741655E-01 -0.79441406642E-01  0.88896906057E+00  0.88000000000E+00 0.  1.
        -11    1    4    4    0    0  0.74868089726E-02 -0.54360423751E-01  0.68682257960E-01  0.87912579638E-01  0.51100000000E-03 0.  1.
         11    1    4    4    0    0  0.17229309613E-01 -0.25451738764E-01  0.30121710740E-01  0.43037410409E-01  0.51100000000E-03 0. -1.
</event>
<event>
 8    1  0.1137518E+005  0.1043930E+01  0.7957747E-01            NaN
         13   -1    0    0    0    0  0.00000000000E+00  0.00000000000E+00  0.74505805969E-08  0.10566000000E+00  0.10566000000E+00 0.  1.
     999900   -1    0    0    0    0 -0.00000000000E+00 -0.00000000000E+00 -0.74505805969E-08  0.93827000000E+00  0.93827000000E+00 0.  1.
     999902    2    1    2    0    0 -0.10849019583E-02 -0.24116959651E-01 -0.36457557508E-02  0.10195149168E+01  0.10192225317E+01 0.  0.
     999903    2    3    3    0    0  0.50444502634E-01 -0.11886872980E+00 -0.23827532877E-01  0.13270012120E+00  0.19161108358E-01 0.  0.
         14    1    1    2    0    0  0.10849019583E-02  0.24116959651E-01  0.36457557508E-02  0.24415083249E-01  0.00000000000E+00 0.  1.
     999901    1    3    3    0    0 -0.51529404592E-01  0.94751770146E-01  0.20181777127E-01  0.88681479555E+00  0.88000000000E+00 0.  1.
        -11    1    4    4    0    0  0.13799945800E-01 -0.56867700742E-01 -0.10894951041E-01  0.59525918481E-01  0.51100000000E-03 0.  1.
         11    1    4    4    0    0  0.36644556834E-01 -0.62001029055E-01 -0.12932581837E-01  0.73174202718E-01  0.51100000000E-03 0. -1.
</event>
<event>
 8    1  0.1137518E+005  0.1043930E+01  0.7957747E-01            NaN
         13   -1    0    0    0    0  0.00000000000E+00  0.00000000000E+00  0.74505805969E-08  0.10566000000E+00  0.10566000000E+00 0. -1.
     999900   -1    0    0    0    0 -0.00000000000E+00 -0.00000000000E+00 -0.74505805969E-08  0.93827000000E+00  0.93827000000E+00 0.  1.
     999902    2    1    2    0    0 -0.21370098083E-02 -0.21539272601E-01  0.11560081764E-01  0.10193914066E+01  0.10190960197E+01 0.  0.
     999903    2    3    3    0    0  0.12761754868E+00  0.35802300800E-02 -0.28777260673E-02  0.12940506674E+00  0.20936408754E-01 0.  0.
         14    1    1    2    0    0  0.21370098083E-02  0.21539272601E-01 -0.11560081764E-01  0.24538593388E-01  0.00000000000E+00 0.  1.
     999901    1    3    3    0    0 -0.12975455849E+00 -0.25119502681E-01  0.14437807831E-01  0.88998633987E+00  0.88000000000E+00 0. -1.
        -11    1    4    4    0    0  0.98981095454E-01  0.11342804273E-01 -0.44500611326E-03  0.99631198013E-01  0.51100000000E-03 0.  1.
         11    1    4    4    0    0  0.28636453228E-01 -0.77625741927E-02 -0.24327199540E-02  0.29773868726E-01  0.51100000000E-03 0. -1.
</event>
<event>
 8    1  0.1137518E+005  0.1043930E+01  0.7957747E-01            NaN
         13   -1    0    0    0    0  0.00000000000E+00  0.00000000000E+00  0.74505805969E-08  0.10566000000E+00  0.10566000000E+00 0.  1.
     999900   -1    0    0    0    0 -0.00000000000E+00 -0.00000000000E+00 -0.74505805969E-08  0.93827000000E+00  0.93827000000E+00 0. -1.
     999902    2    1    2    0    0 -0.68434690414E-02 -0.21906909792E-01  0.55023604052E-02  0.10203286921E+01  0.10200556937E+01 0.  0.
     999903    2    3    3    0    0 -0.63198512334E-01 -0.80926769535E-01 -0.81054846619E-01  0.13232453397E+00  0.19917332674E-01 0.  0.
         14    1    1    2    0    0  0.68434690414E-02  0.21906909792E-01 -0.55023604052E-02  0.23601307913E-01  0.00000000000E+00 0.  1.
     999901    1    3    3    0    0  0.56355043292E-01  0.59019859743E-01  0.86557207024E-01  0.88800415812E+00  0.88000000000E+00 0. -1.
        -11    1    4    4    0    0 -0.26064470799E-01 -0.18783011509E-01 -0.27131506089E-01  0.42053987956E-01  0.51100000000E-03 0. -1.
         11    1    4    4    0    0 -0.37134041534E-01 -0.62143758027E-01 -0.53923340530E-01  0.90270546012E-01  0.51100000000E-03 0.  1.
</event>
<event>
 8    1  0.1137518E+005  0.1043930E+01  0.7957747E-01            NaN
         13   -1    0    0    0    0  0.00000000000E+00  0.00000000000E+00  0.74505805969E-08  0.10566000000E+00  0.10566000000E+00 0. -1.
     999900   -1    0    0    0    0 -0.00000000000E+00 -0.00000000000E+00 -0.74505805969E-08  0.93827000000E+00  0.93827000000E+00 0. -1.
     999902    2    1    2    0    0 -0.89931646727E-02  0.22154930067E-01  0.50472024525E-02  0.10194924840E+01  0.10191995549E+01 0.  0.
     999903    2    3    3    0    0 -0.93700118440E-01  0.80578713360E-01 -0.42438632376E-01  0.13222504347E+00  0.20243106457E-01 0.  0.
         14    1    1    2    0    0  0.89931646727E-02 -0.22154930067E-01 -0.50472024525E-02  0.24437516030E-01  0.00000000000E+00 0.  1.
     999901    1    3    3    0    0  0.84706953767E-01 -0.58423783293E-01  0.47485834828E-01  0.88726744050E+00  0.88000000000E+00 0.  1.
        -11    1    4    4    0    0 -0.48053928860E-01  0.34787602096E-01 -0.29615997132E-01  0.66307810593E-01  0.51100000000E-03 0. -1.
         11    1    4    4    0    0 -0.45646189580E-01  0.45791111264E-01 -0.12822635243E-01  0.65917232873E-01  0.51100000000E-03 0.  1.
</event>
<event>
 8    1  0.1137518E+005  0.1043930E+01  0.7957747E-01            NaN
         13   -1    0    0    0    0  0.00000000000E+00  0.00000000000E+00  0.74505805969E-08  0.10566000000E+00  0.10566000000E+00 0.  1.
     999900   -1    0    0    0    0 -0.00000000000E+00 -0.00000000000E+00 -0.74505805969E-08  0.93827000000E+00  0.93827000000E+00 0.  1.
     999902    2    1    2    0    0  0.16499301083E-01  0.32129625939E-03  0.17975769655E-01  0.10195279824E+01  0.10192359140E+01 0.  0.
     999903    2    3    3    0    0  0.12039480916E+00  0.20572773646E-01  0.49478199059E-01  0.13262505537E+00  0.14938676063E-01 0.  0.
         14    1    1    2    0    0 -0.16499301083E-01 -0.32129625939E-03 -0.17975769655E-01  0.24402017584E-01  0.00000000000E+00 0.  1.
     999901    1    3    3    0    0 -0.10389550808E+00 -0.20251477387E-01 -0.31502429405E-01  0.88690292704E+00  0.88000000000E+00 0.  1.
        -11    1    4    4    0    0  0.87483941213E-01  0.20147008291E-01  0.31659620305E-01  0.95194194110E-01  0.51100000000E-03 0.  1.
         11    1    4    4    0    0  0.32910867948E-01  0.42576535514E-03  0.17818578755E-01  0.37430861265E-01  0.51100000000E-03 0. -1.
</event>
<event>
 8    1  0.1137518E+005  0.1043930E+01  0.7957747E-01            NaN
         13   -1    0    0    0    0  0.00000000000E+00  0.00000000000E+00  0.74505805969E-08  0.10566000000E+00  0.10566000000E+00 0. -1.
     999900   -1    0    0    0    0 -0.00000000000E+00 -0.00000000000E+00 -0.74505805969E-08  0.93827000000E+00  0.93827000000E+00 0.  1.
     999902    2    1    2    0    0  0.17721436287E-01 -0.14973627202E-01 -0.56224927616E-02  0.10200580240E+01  0.10197786529E+01 0.  0.
     999903    2    3    3    0    0  0.42544707061E-01 -0.81523529552E-01 -0.93868896340E-01  0.13279678169E+00  0.19169704156E-01 0.  0.
         14    1    1    2    0    0 -0.17721436287E-01  0.14973627202E-01  0.56224927616E-02  0.23871976049E-01  0.00000000000E+00 0. -1.
     999901    1    3    3    0    0 -0.24823270774E-01  0.66549902351E-01  0.88246403578E-01  0.88726124226E+00  0.88000000000E+00 0. -1.
        -11    1    4    4    0    0  0.99813906162E-02 -0.39066270986E-01 -0.43390718514E-01  0.59235270418E-01  0.51100000000E-03 0.  1.
         11    1    4    4    0    0  0.32563316445E-01 -0.42457258566E-01 -0.50478177826E-01  0.73561511271E-01  0.51100000000E-03 0. -1.
</event>
<event>
 8    1  0.1137518E+005  0.1043930E+01  0.7957747E-01            NaN
         13   -1    0    0    0    0  0.00000000000E+00  0.00000000000E+00  0.74505805969E-08  0.10566000000E+00  0.10566000000E+00 0.  1.
     999900   -1    0    0    0    0 -0.00000000000E+00 -0.00000000000E+00 -0.74505805969E-08  0.93827000000E+00  0.93827000000E+00 0.  1.
     999902    2    1    2    0    0 -0.11173939591E-02  0.19735157862E-01  0.13705918734E-01  0.10198763676E+01  0.10195926774E+01 0.  0.
     999903    2    3    3    0    0 -0.11284310504E+00 -0.57136816581E-01  0.17537361913E-01  0.12947948138E+00  0.21428832710E-01 0.  0.
         14    1    1    2    0    0  0.11173939591E-02 -0.19735157862E-01 -0.13705918734E-01  0.24053632438E-01  0.00000000000E+00 0.  1.
     999901    1    3    3    0    0  0.11172571108E+00  0.76871974443E-01 -0.38314431789E-02  0.89039688618E+00  0.88000000000E+00 0.  1.
        -11    1    4    4    0    0 -0.45050246758E-01 -0.17395865809E-01  0.16013242429E-01  0.50880506427E-01  0.51100000000E-03 0.  1.
         11    1    4    4    0    0 -0.67792858280E-01 -0.39740950772E-01  0.15241194835E-02  0.78598974950E-01  0.51100000000E-03 0. -1.
</event>
<event>
 8    1  0.1137518E+005  0.1043930E+01  0.7957747E-01            NaN
         13   -1    0    0    0    0  0.00000000000E+00  0.00000000000E+00  0.74505805969E-08  0.10566000000E+00  0.10566000000E+00 0.  1.
     999900   -1    0    0    0    0 -0.00000000000E+00 -0.00000000000E+00 -0.74505805969E-08  0.93827000000E+00  0.93827000000E+00 0.  1.
     999902    2    1    2    0    0 -0.14861212191E-01  0.10317872240E-01 -0.15283905895E-01  0.10202464214E+01  0.10199714940E+01 0.  0.
     999903    2    3    3    0    0 -0.62427873775E-01 -0.65999313605E-01 -0.94118991826E-01  0.13215753457E+00  0.18817026921E-01 0.  0.
         14    1    1    2    0    0  0.14861212191E-01 -0.10317872240E-01  0.15283905895E-01  0.23683578588E-01  0.00000000000E+00 0.  1.
     999901    1    3    3    0    0  0.47566661583E-01  0.76317185845E-01  0.78835085931E-01  0.88808888684E+00  0.88000000000E+00 0. -1.
        -11    1    4    4    0    0 -0.20867790841E-01 -0.10570686775E-01 -0.26426610036E-01  0.35296330581E-01  0.51100000000E-03 0.  1.
         11    1    4    4    0    0 -0.41560082934E-01 -0.55428626830E-01 -0.67692381790E-01  0.96861203994E-01  0.51100000000E-03 0. -1.
</event>
<event>
 8    1  0.1137518E+005  0.1043930E+01  0.7957747E-01            NaN
         13   -1    0    0    0    0  0.00000000000E+00  0.00000000000E+00  0.74505805969E-08  0.10566000000E+00  0.10566000000E+00 0. -1.
     999900   -1    0    0    0    0 -0.00000000000E+00 -0.00000000000E+00 -0.74505805969E-08  0.93827000000E+00  0.93827000000E+00 0.  1.
     999902    2    1    2    0    0 -0.49299716915E-02 -0.14092666095E-01 -0.16571531070E-01  0.10216247652E+01  0.10213812399E+01 0.  0.
     999903    2    3    3    0    0  0.24037333619E-01 -0.29761207590E-02  0.12539702849E+00  0.12970674526E+00  0.22644520504E-01 0.  0.
         14    1    1    2    0    0  0.49299716915E-02  0.14092666095E-01  0.16571531070E-01  0.22305234824E-01  0.00000000000E+00 0. -1.
     999901    1    3    3    0    0 -0.28967305311E-01 -0.11116545336E-01 -0.14196855956E+00  0.89191801992E+00  0.88000000000E+00 0.  1.
        -11    1    4    4    0    0  0.61237972739E-02  0.82807990262E-02  0.62495449948E-01  0.63340468192E-01  0.51100000000E-03 0. -1.
         11    1    4    4    0    0  0.17913536346E-01 -0.11256919785E-01  0.62901578540E-01  0.66366277064E-01  0.51100000000E-03 0.  1.
</event>
<event>
 8    1  0.1137518E+005  0.1043930E+01  0.7957747E-01            NaN
         13   -1    0    0    0    0  0.00000000000E+00  0.00000000000E+00  0.74505805969E-08  0.10566000000E+00  0.10566000000E+00 0.  1.
     999900   -1    0    0    0    0 -0.00000000000E+00 -0.00000000000E+00 -0.74505805969E-08  0.93827000000E+00  0.93827000000E+00 0.  1.
     999902    2    1    2    0    0  0.25992784149E-02 -0.16706906956E-01  0.16592450951E-01  0.10202406265E+01  0.10199655629E+01 0.  0.
     999903    2    3    3    0    0 -0.27553778590E-01  0.12005673304E+00  0.32724457570E-01  0.12902025997E+00  0.20062589483E-01 0.  0.
         14    1    1    2    0    0 -0.25992784149E-02  0.16706906956E-01 -0.16592450951E-01  0.23689373501E-01  0.00000000000E+00 0.  1.
     999901    1    3    3    0    0  0.30153057005E-01 -0.13676364000E+00 -0.16132006620E-01  0.89122036653E+00  0.88000000000E+00 0.  1.
        -11    1    4    4    0    0 -0.21906160590E-01  0.56118986708E-01  0.10903609901E-01  0.61223936257E-01  0.51100000000E-03 0.  1.
         11    1    4    4    0    0 -0.56476180006E-02  0.63937746335E-01  0.21820847669E-01  0.67796323717E-01  0.51100000000E-03 0. -1.
</event>
<event>
 8    1  0.1137518E+005  0.1043930E+01  0.7957747E-01            NaN
         13   -1    0    0    0    0  0.00000000000E+00  0.00000000000E+00  0.74505805969E-08  0.10566000000E+00  0.10566000000E+00 0.  1.
     999900   -1    0    0    0    0 -0.00000000000E+00 -0.00000000000E+00 -0.74505805969E-08  0.93827000000E+00  0.93827000000E+00 0.  1.
     999902    2    1    2    0    0 -0.24241121166E-01 -0.30775524850E-02  0.26215628679E-02  0.10193540793E+01  0.10190577821E+01 0.  0.
     999903    2    3    3    0    0 -0.84603920595E-01  0.46358240017E-01  0.87363133767E-01  0.13184706586E+00  0.21081314844E-01 0.  0.
         14    1    1    2    0    0  0.24241121166E-01  0.30775524850E-02 -0.26215628679E-02  0.24575920665E-01  0.00000000000E+00 0. -1.
     999901    1    3    3    0    0  0.60362799430E-01 -0.49435792502E-01 -0.84741570899E-01  0.88750701348E+00  0.88000000000E+00 0.  1.
        -11    1    4    4    0    0 -0.23526198556E-01  0.19312358374E-01  0.38511212474E-01  0.49089956322E-01  0.51100000000E-03 0. -1.
         11    1    4    4    0    0 -0.61077722039E-01  0.27045881643E-01  0.48851921293E-01  0.82757109534E-01  0.51100000000E-03 0.  1.
</event>
<event>
 8    1  0.1349444E+005  0.1043930E+01  0.7957747E-01            NaN
         13   -1    0    0    0    0  0.00000000000E+00  0.00000000000E+00  0.74505805969E-08  0.10566000000E+00  0.10566000000E+00 0. -1.
     999900   -1    0    0    0    0 -0.00000000000E+00 -0.00000000000E+00 -0.74505805969E-08  0.93827000000E+00  0.93827000000E+00 0.  1.
     999902    2    1    2    0    0 -0.86416870576E-02  0.19369100294E-02 -0.24971797844E-01  0.10174343199E+01  0.10170892656E+01 0.  0.
     999903    2    3    3    0    0 -0.63595476734E-01  0.85504882972E-01  0.65458117341E-01  0.12716408304E+00  0.23031917346E-01 0.  0.
         14    1    1    2    0    0  0.86416870576E-02 -0.19369100294E-02  0.24971797844E-01  0.26495680086E-01  0.00000000000E+00 0. -1.
     999901    1    3    3    0    0  0.54953789676E-01 -0.83567972943E-01 -0.90429915185E-01  0.89027023687E+00  0.88000000000E+00 0.  1.
        -11    1    4    4    0    0 -0.34551068550E-01  0.62948573487E-01  0.37827838330E-01  0.81163450615E-01  0.51100000000E-03 0.  1.
         11    1    4    4    0    0 -0.29044408183E-01  0.22556309485E-01  0.27630279011E-01  0.46000632426E-01  0.51100000000E-03 0. -1.
</event>
<event>
 8    1  0.1137518E+005  0.1043930E+01  0.7957747E-01            NaN
         13   -1    0    0    0    0  0.00000000000E+00  0.00000000000E+00  0.74505805969E-08  0.10566000000E+00  0.10566000000E+00 0. -1.
     999900   -1    0    0    0    0 -0.00000000000E+00 -0.00000000000E+00 -0.74505805969E-08  0.93827000000E+00  0.93827000000E+00 0.  1.
     999902    2    1    2    0    0  0.10732925425E-01  0.18311992207E-01 -0.62367229998E-02  0.10218071281E+01  0.10215676119E+01 0.  0.
     999903    2    3    3    0    0  0.10754027268E+00  0.53973358848E-01 -0.56415635235E-01  0.13436061210E+00  0.19799405843E-01 0.  0.
         14    1    1    2    0    0 -0.10732925425E-01 -0.18311992207E-01  0.62367229998E-02  0.22122871888E-01  0.00000000000E+00 0. -1.
     999901    1    3    3    0    0 -0.96807347252E-01 -0.35661366640E-01  0.50178912235E-01  0.88744651601E+00  0.88000000000E+00 0. -1.
        -11    1    4    4    0    0  0.73618537355E-01  0.35561454646E-01 -0.48155605115E-01  0.94886930206E-01  0.51100000000E-03 0. -1.
         11    1    4    4    0    0  0.33921735322E-01  0.18411904201E-01 -0.82600301194E-02  0.39473681892E-01  0.51100000000E-03 0.  1.
</event>
<event>
 8    1  0.1137518E+005  0.1043930E+01  0.7957747E-01            NaN
         13   -1    0    0    0    0  0.00000000000E+00  0.00000000000E+00  0.74505805969E-08  0.10566000000E+00  0.10566000000E+00 0. -1.
     999900   -1    0    0    0    0 -0.00000000000E+00 -0.00000000000E+00 -0.74505805969E-08  0.93827000000E+00  0.93827000000E+00 0. -1.
     999902    2    1    2    0    0 -0.85378487700E-02 -0.71363360881E-04  0.23242734870E-01  0.10191686455E+01  0.10188678046E+01 0.  0.
     999903    2    3    3    0    0  0.11302982896E-01 -0.12029666352E+00  0.44733144415E-01  0.13051257076E+00  0.20819035528E-01 0.  0.
         14    1    1    2    0    0  0.85378487700E-02  0.71363360881E-04 -0.23242734870E-01  0.24761354539E-01  0.00000000000E+00 0.  1.
     999901    1    3    3    0    0 -0.19840831666E-01  0.12022530016E+00 -0.21490409545E-01  0.88865607470E+00  0.88000000000E+00 0. -1.
        -11    1    4    4    0    0  0.16454783354E-01 -0.65382006915E-01  0.23263919309E-01  0.71323472897E-01  0.51100000000E-03 0. -1.
         11    1    4    4    0    0 -0.51518004578E-02 -0.54914656607E-01  0.21469225106E-01  0.59189097864E-01  0.51100000000E-03 0.  1.
</event>
<event>
 8    1  0.1137518E+005  0.1043930E+01  0.7957747E-01            NaN
         13   -1    0    0    0    0  0.00000000000E+00  0.00000000000E+00  0.74505805969E-08  0.10566000000E+00  0.10566000000E+00 0.  1.
     999900   -1    0    0    0    0 -0.00000000000E+00 -0.00000000000E+00 -0.74505805969E-08  0.93827000000E+00  0.93827000000E+00 0. -1.
     999902    2    1    2    0    0  0.23642862978E-01 -0.47975827589E-02  0.69915332759E-02  0.10188126095E+01  0.10185029454E+01 0.  0.
     999903    2    3    3    0    0  0.50476873251E-01  0.53504662744E-01  0.10622746745E+00  0.13091228478E+00  0.21049650726E-01 0.  0.
         14    1    1    2    0    0 -0.23642862978E-01  0.47975827589E-02 -0.69915332759E-02  0.25117390543E-01  0.00000000000E+00 0.  1.
     999901    1    3    3    0    0 -0.26834010273E-01 -0.58302245503E-01 -0.99235934174E-01  0.88790032468E+00  0.88000000000E+00 0. -1.
        -11    1    4    4    0    0  0.29900909116E-01  0.16503344434E-01  0.46261752388E-01  0.57505091935E-01  0.51100000000E-03 0. -1.
         11    1    4    4    0    0  0.20575964136E-01  0.37001318310E-01  0.59965715063E-01  0.73407192841E-01  0.51100000000E-03 0.  1.
</event>
<event>
 8    1  0.1137518E+005  0.1043930E+01  0.7957747E-01            NaN
         13   -1    0    0    0    0  0.00000000000E+00  0.00000000000E+00  0.74505805969E-08  0.10566000000E+00  0.10566000000E+00 0.  1.
     999900   -1    0    0    0    0 -0.00000000000E+00 -0.00000000000E+00 -0.74505805969E-08  0.93827000000E+00  0.93827000000E+00 0. -1.
     999902    2    1    2    0    0  0.12547984737E-02  0.97718199266E-02 -0.21768177725E-01  0.10200361400E+01  0.10197562505E+01 0.  0.
     999903    2    3    3    0    0 -0.38547824554E-01 -0.71041108215E-01 -0.10236562743E+00  0.13177326954E+00  0.18780283587E-01 0.  0.
         14    1    1    2    0    0 -0.12547984737E-02 -0.97718199266E-02  0.21768177725E-01  0.23893859993E-01  0.00000000000E+00 0.  1.
     999901    1    3    3    0    0  0.39802623027E-01  0.80812928141E-01  0.80597449705E-01  0.88826287047E+00  0.88000000000E+00 0.  1.
        -11    1    4    4    0    0 -0.23090164966E-01 -0.33587576481E-01 -0.64579375443E-01  0.76367780284E-01  0.51100000000E-03 0.  1.
         11    1    4    4    0    0 -0.15457659588E-01 -0.37453531734E-01 -0.37786251987E-01  0.55405489254E-01  0.51100000000E-03 0. -1.
</event>
<event>
 8    1  0.1137518E+005  0.1043930E+01  0.7957747E-01            NaN
         13   -1    0    0    0    0  0.00000000000E+00  0.00000000000E+00  0.74505805969E-08  0.10566000000E+00  0.10566000000E+00 0.  1.
     999900   -1    0    0    0    0 -0.00000000000E+00 -0.00000000000E+00 -0.74505805969E-08  0.93827000000E+00  0.93827000000E+00 0. -1.
     999902    2    1    2    0    0  0.39835891530E-02  0.19234470250E-01 -0.16458431680E-01  0.10183035722E+01  0.10179810663E+01 0.  0.
     999903    2    3    3    0    0 -0.10920497173E+00 -0.61058347468E-01 -0.13640300338E-01  0.12742393457E+00  0.19923695990E-01 0.  0.
         14    1    1    2    0    0 -0.39835891530E-02 -0.19234470250E-01  0.16458431680E-01  0.25626427798E-01  0.00000000000E+00 0.  1.
     999901    1    3    3    0    0  0.11318856088E+00  0.80292817718E-01 -0.28181313424E-02  0.89087963764E+00  0.88000000000E+00 0. -1.
        -11    1    4    4    0    0 -0.81122968883E-01 -0.34917133193E-01 -0.98622702035E-02  0.88868823360E-01  0.51100000000E-03 0.  1.
         11    1    4    4    0    0 -0.28082002842E-01 -0.26141214275E-01 -0.37780301341E-02  0.38555111206E-01  0.51100000000E-03 0. -1.
</event>
<event>
 8    1  0.1137518E+005  0.1043930E+01  0.7957747E-01            NaN
         13   -1    0    0    0    0  0.00000000000E+00  0.00000000000E+00  0.74505805969E-08  0.10566000000E+00  0.10566000000E+00 0.  1.
     999900   -1    0    0    0    0 -0.00000000000E+00 -0.00000000000E+00 -0.74505805969E-08  0.93827000000E+00  0.93827000000E+00 0.  1.
     999902    2    1    2    0    0  0.38447134370E-02 -0.56179143832E-02 -0.23283938764E-01  0.10196712987E+01  0.10193826920E+01 0.  0.
     999903    2    3    3    0    0 -0.11849464597E+00  0.15631388924E-02 -0.51339198129E-01  0.13073621450E+00  0.20317972059E-01 0.  0.
         14    1    1    2    0    0 -0.38447134370E-02  0.56179143832E-02  0.23283938764E-01  0.24258701280E-01  0.00000000000E+00 0.  1.
     999901    1    3    3    0    0  0.12233935941E+00 -0.71810532756E-02  0.28055259365E-01  0.88893508422E+00  0.88000000000E+00 0. -1.
        -11    1    4    4    0    0 -0.43748952966E-01 -0.89224597917E-02 -0.21700163435E-01  0.49646141728E-01  0.51100000000E-03 0. -1.
         11    1    4    4    0    0 -0.74745693007E-01  0.10485598684E-01 -0.29639034694E-01  0.81090072768E-01  0.51100000000E-03 0.  1.
</event>
<event>
 8    1  0.1137518E+005  0.1043930E+01  0.7957747E-01            NaN
         13   -1    0    0    0    0  0.00000000000E+00  0.00000000000E+00  0.74505805969E-08  0.10566000000E+00  0.10566000000E+00 0. -1.
     999900   -1    0    0    0    0 -0.00000000000E+00 -0.00000000000E+00 -0.74505805969E-08  0.93827000000E+00  0.93827000000E+00 0. -1.
     999902    2    1    2    0    0  0.99444014964E-02 -0.13631679746E-01 -0.16538388813E-01  0.10203030637E+01  0.10200294651E+01 0.  0.
     999903    2    3    3    0    0  0.52296117146E-01  0.77020627787E-01  0.86391019815E-01  0.12867198987E+00  0.20640050855E-01 0.  0.
         14    1    1    2    0    0 -0.99444014964E-02  0.13631679746E-01  0.16538388813E-01  0.23626936288E-01  0.00000000000E+00 0. -1.
     999901    1    3    3    0    0 -0.42351715649E-01 -0.90652307533E-01 -0.10292940863E+00  0.89163107384E+00  0.88000000000E+00 0. -1.
        -11    1    4    4    0    0  0.42358296439E-01  0.68521510092E-01  0.64633062502E-01  0.10328173368E+00  0.51100000000E-03 0. -1.
         11    1    4    4    0    0  0.99378207070E-02  0.84991176956E-02  0.21757957314E-01  0.25390256192E-01  0.51100000000E-03 0.  1.
</event>
<event>
 8    1  0.1137518E+005  0.1043930E+01  0.7957747E-01            NaN
         13   -1    0    0    0    0  0.00000000000E+00  0.00000000000E+00  0.74505805969E-08  0.10566000000E+00  0.10566000000E+00 0. -1.
     999900   -1    0    0    0    0 -0.00000000000E+00 -0.00000000000E+00 -0.74505805969E-08  0.93827000000E+00  0.93827000000E+00 0. -1.
     999902    2    1    2    0    0 -0.22987714966E-01  0.37643173462E-02 -0.23332210036E-02  0.10205195527E+01  0.10202510026E+01 0.  0.
     999903    2    3    3    0    0  0.54895195977E-01  0.11221986330E+00 -0.30019971181E-01  0.13001693649E+00  0.19910420530E-01 0.  0.
         14    1    1    2    0    0  0.22987714966E-01 -0.37643173462E-02  0.23332210036E-02  0.23410447341E-01  0.00000000000E+00 0. -1.
     999901    1    3    3    0    0 -0.77882910943E-01 -0.10845554595E+00  0.27686750177E-01  0.89050261617E+00  0.88000000000E+00 0. -1.
        -11    1    4    4    0    0  0.30336070993E-01  0.82704726313E-01 -0.21639107669E-01  0.90713069948E-01  0.51100000000E-03 0. -1.
         11    1    4    4    0    0  0.24559124984E-01  0.29515136984E-01 -0.83808635121E-02  0.39303866544E-01  0.51100000000E-03 0.  1.
</event>
<event>
 8    1  0.1137518E+005  0.1043930E+01  0.7957747E-01            NaN
         13   -1    0    0    0    0  0.00000000000E+00  0.00000000000E+00  0.74505805969E-08  0.10566000000E+00  0.10566000000E+00 0.  1.
     999900   -1    0    0    0    0 -0.00000000000E+00 -0.00000000000E+00 -0.74505805969E-08  0.93827000000E+00  0.93827000000E+00 0. -1.
     999902    2    1    2    0    0 -0.21581898720E-01 -0.92378381834E-02  0.32468727677E-02  0.10202306711E+01  0.10199553736E+01 0.  0.
     999903    2    3    3    0    0  0.86546805975E-01  0.88089323104E-01  0.26847460739E-01  0.12797432855E+00  0.20163435964E-01 0.  0.
         14    1    1    2    0    0  0.21581898720E-01  0.92378381834E-02 -0.32468727677E-02  0.23699328882E-01  0.00000000000E+00 0. -1.
     999901    1    3    3    0    0 -0.10812870470E+00 -0.97327161287E-01 -0.23600587972E-01  0.89225634257E+00  0.88000000000E+00 0. -1.
        -11    1    4    4    0    0  0.78033710837E-01  0.85143177866E-01  0.21476837035E-01  0.11747398186E+00  0.51100000000E-03 0. -1.
         11    1    4    4    0    0  0.85130951383E-02  0.29461452376E-02  0.53706237042E-02  0.10500346688E-01  0.51100000000E-03 0.  1.
</event>
<event>
 8    1  0.1137518E+005  0.1043930E+01  0.7957747E-01            NaN
         13   -1    0    0    0    0  0.00000000000E+00  0.00000000000E+00  0.74505805969E-08  0.10566000000E+00  0.10566000000E+00 0. -1.
     999900   -1    0    0    0    0 -0.00000000000E+00 -0.00000000000E+00 -0.74505805969E-08  0.93827000000E+00  0.93827000000E+00 0. -1.
     999902    2    1    2    0    0  0.18624655908E-01 -0.13481276818E-01  0.22246261049E-03  0.10209371289E+01  0.10206781809E+01 0.  0.
     999903    2    3    3    0    0 -0.11572912661E+00  0.33220335246E-01 -0.40815374979E-01  0.12857168606E+00  0.19182340864E-01 0.  0.
         14    1    1    2    0    0 -0.18624655908E-01  0.13481276818E-01 -0.22246261049E-03  0.22992871111E-01  0.00000000000E+00 0. -1.
     999901    1    3    3    0    0  0.13435378252E+00 -0.46701612064E-01  0.41037837589E-01  0.89236544283E+00  0.88000000000E+00 0. -1.
        -11    1    4    4    0    0 -0.51518174060E-01  0.91642612620E-02 -0.94850009329E-02  0.53182067529E-01  0.51100000000E-03 0. -1.
         11    1    4    4    0    0 -0.64210952550E-01  0.24056073984E-01 -0.31330374046E-01  0.75389618528E-01  0.51100000000E-03 0.  1.
</event>
<event>
 8    1  0.1137518E+005  0.1043930E+01  0.7957747E-01            NaN
         13   -1    0    0    0    0  0.00000000000E+00  0.00000000000E+00  0.74505805969E-08  0.10566000000E+00  0.10566000000E+00 0. -1.
     999900   -1    0    0    0    0 -0.00000000000E+00 -0.00000000000E+00 -0.74505805969E-08  0.93827000000E+00  0.93827000000E+00 0.  1.
     999902    2    1    2    0    0 -0.30108134802E-01  0.74808659398E-02 -0.35518096746E-02  0.10127037532E+01  0.10122222154E+01 0.  0.
     999903    2    3    3    0    0 -0.12223944811E+00  0.30366539974E-01 -0.43991856282E-02  0.12759774204E+00  0.19930416840E-01 0.  0.
         14    1    1    2    0    0  0.30108134802E-01 -0.74808659398E-02  0.35518096746E-02  0.31226246788E-01  0.00000000000E+00 0. -1.
     999901    1    3    3    0    0  0.92131313307E-01 -0.22885674034E-01  0.84737595353E-03  0.88510601117E+00  0.88000000000E+00 0.  1.
        -11    1    4    4    0    0 -0.73718547451E-01  0.27830270213E-01 -0.55557477334E-02  0.78994149354E-01  0.51100000000E-03 0.  1.
         11    1    4    4    0    0 -0.48520900659E-01  0.25362697611E-02  0.11565621053E-02  0.48603592685E-01  0.51100000000E-03 0. -1.
</event>
<event>
 8    1  0.1137518E+005  0.1043930E+01  0.7957747E-01            NaN
         13   -1    0    0    0    0  0.00000000000E+00  0.00000000000E+00  0.74505805969E-08  0.10566000000E+00  0.10566000000E+00 0. -1.
     999900   -1    0    0    0    0 -0.00000000000E+00 -0.00000000000E+00 -0.74505805969E-08  0.93827000000E+00  0.93827000000E+00 0.  1.
     999902    2    1    2    0    0  0.45736092402E-02  0.23234548806E-01 -0.24328056170E-02  0.10201249438E+01  0.10198471553E+01 0.  0.
     999903    2    3    3    0    0 -0.67729694090E-01  0.10785528753E+00  0.30659322935E-01  0.13249691013E+00  0.19883727099E-01 0.  0.
         14    1    1    2    0    0 -0.45736092402E-02 -0.23234548806E-01  0.24328056170E-02  0.23805056246E-01  0.00000000000E+00 0.  1.
     999901    1    3    3    0    0  0.72303303330E-01 -0.84620738721E-01 -0.33092128552E-01  0.88762803362E+00  0.88000000000E+00 0.  1.
        -11    1    4    4    0    0 -0.40773872646E-01  0.81490637428E-01  0.19715808698E-01  0.93232005838E-01  0.51100000000E-03 0.  1.
         11    1    4    4    0    0 -0.26955821444E-01  0.26364650099E-01  0.10943514238E-01  0.39264904297E-01  0.51100000000E-03 0. -1.
</event>
<event>
 8    1  0.1137518E+005  0.1043930E+01  0.7957747E-01            NaN
         13   -1    0    0    0    0  0.00000000000E+00  0.00000000000E+00  0.74505805969E-08  0.10566000000E+00  0.10566000000E+00 0.  1.
     999900   -1    0    0    0    0 -0.00000000000E+00 -0.00000000000E+00 -0.74505805969E-08  0.93827000000E+00  0.93827000000E+00 0. -1.
     999902    2    1    2    0    0  0.11024798756E-01 -0.17188571201E-01  0.13220119905E-01  0.10196037850E+01  0.10193135502E+01 0.  0.
     999903    2    3    3    0    0 -0.11538442643E+00  0.54692459889E-02  0.55282453125E-01  0.12928816185E+00  0.17770780940E-01 0.  0.
         14    1    1    2    0    0 -0.11024798756E-01  0.17188571201E-01 -0.13220119905E-01  0.24326215033E-01  0.00000000000E+00 0. -1.
     999901    1    3    3    0    0  0.12640922519E+00 -0.22657817190E-01 -0.42062333220E-01  0.89031562312E+00  0.88000000000E+00 0. -1.
        -11    1    4    4    0    0 -0.27651150260E-01  0.78425478731E-02  0.18099648157E-01  0.33969840333E-01  0.51100000000E-03 0.  1.
         11    1    4    4    0    0 -0.87733276175E-01 -0.23733018841E-02  0.37182804968E-01  0.95318321516E-01  0.51100000000E-03 0. -1.
</event>
<event>
 8    1  0.1137518E+005  0.1043930E+01  0.7957747E-01            NaN
         13   -1    0    0    0    0  0.00000000000E+00  0.00000000000E+00  0.74505805969E-08  0.10566000000E+00  0.10566000000E+00 0.  1.
     999900   -1    0    0    0    0 -0.00000000000E+00 -0.00000000000E+00 -0.74505805969E-08  0.93827000000E+00  0.93827000000E+00 0.  1.
     999902    2    1    2    0    0  0.63759286097E-02 -0.11880807093E-01  0.18582713971E-01  0.10209708340E+01  0.10207126533E+01 0.  0.
     999903    2    3    3    0    0 -0.99847239290E-01  0.65580572812E-01  0.49067025166E-01  0.13068272337E+00  0.20002962415E-01 0.  0.
         14    1    1    2    0    0 -0.63759286097E-02  0.11880807093E-01 -0.18582713971E-01  0.22959165955E-01  0.00000000000E+00 0. -1.
     999901    1    3    3    0    0  0.10622316790E+00 -0.77461379904E-01 -0.30484311195E-01  0.89028811067E+00  0.88000000000E+00 0.  1.
        -11    1    4    4    0    0 -0.52769624548E-01  0.22806891420E-01  0.24552460401E-01  0.62512974685E-01  0.51100000000E-03 0. -1.
         11    1    4    4    0    0 -0.47077614742E-01  0.42773681392E-01  0.24514564765E-01  0.68169748688E-01  0.51100000000E-03 0.  1.
</event>
<event>
 8    1  0.1137518E+005  0.1043930E+01  0.7957747E-01            NaN
         13   -1    0    0    0    0  0.00000000000E+00  0.00000000000E+00  0.74505805969E-08  0.10566000000E+00  0.10566000000E+00 0.  1.
     999900   -1    0    0    0    0 -0.00000000000E+00 -0.00000000000E+00 -0.74505805969E-08  0.93827000000E+00  0.93827000000E+00 0. -1.
     999902    2    1    2    0    0  0.21705571793E-01  0.13141366551E-01  0.16652166015E-01  0.10135800083E+01  0.10131255161E+01 0.  0.
     999903    2    3    3    0    0  0.35503480356E-01 -0.82240957600E-01 -0.81674619699E-01  0.12287448638E+00  0.20082919976E-01 0.  0.
         14    1    1    2    0    0 -0.21705571793E-01 -0.13141366551E-01 -0.16652166015E-01  0.30349991675E-01  0.00000000000E+00 0. -1.
     999901    1    3    3    0    0 -0.13797908563E-01  0.95382324151E-01  0.98326785714E-01  0.89070552195E+00  0.88000000000E+00 0.  1.
        -11    1    4    4    0    0  0.10454245318E-01 -0.48507267550E-01 -0.47794472338E-01  0.68897162187E-01  0.51100000000E-03 0. -1.
         11    1    4    4    0    0  0.25049235038E-01 -0.33733690050E-01 -0.33880147361E-01  0.53977324189E-01  0.51100000000E-03 0.  1.
</event>
<event>
 8    1  0.1137518E+005  0.1043930E+01  0.7957747E-01            NaN
         13   -1    0    0    0    0  0.00000000000E+00  0.00000000000E+00  0.74505805969E-08  0.10566000000E+00  0.10566000000E+00 0. -1.
     999900   -1    0    0    0    0 -0.00000000000E+00 -0.00000000000E+00 -0.74505805969E-08  0.93827000000E+00  0.93827000000E+00 0. -1.
     999902    2    1    2    0    0 -0.12182125629E-01  0.11874995883E-01  0.13232521075E-01  0.10223772896E+01  0.10221500883E+01 0.  0.
     999903    2    3    3    0    0  0.20130790976E-01 -0.12183515401E+00 -0.32322285091E-01  0.13052653463E+00  0.27265227510E-01 0.  0.
         14    1    1    2    0    0  0.12182125629E-01 -0.11874995883E-01 -0.13232521075E-01  0.21552710411E-01  0.00000000000E+00 0.  1.
     999901    1    3    3    0    0 -0.32312916606E-01  0.13371014989E+00  0.45554806166E-01  0.89185075496E+00  0.88000000000E+00 0.  1.
        -11    1    4    4    0    0  0.14470983209E-01 -0.79558746365E-01 -0.34264928609E-01  0.87825679227E-01  0.51100000000E-03 0. -1.
         11    1    4    4    0    0  0.56598077677E-02 -0.42276407641E-01  0.19426435177E-02  0.42700855399E-01  0.51100000000E-03 0.  1.
</event>
<event>
 8    1  0.1137518E+005  0.1043930E+01  0.7957747E-01            NaN
         13   -1    0    0    0    0  0.00000000000E+00  0.00000000000E+00  0.74505805969E-08  0.10566000000E+00  0.10566000000E+00 0. -1.
     999900   -1    0    0    0    0 -0.00000000000E+00 -0.00000000000E+00 -0.74505805969E-08  0.93827000000E+00  0.93827000000E+00 0. -1.
     999902    2    1    2    0    0 -0.37014945454E-02 -0.23121444740E-01 -0.35694413418E-02  0.10202436499E+01  0.10199686574E+01 0.  0.
     999903    2    3    3    0    0 -0.52909649460E-01  0.10394543490E+00 -0.50039511468E-01  0.12854476474E+00  0.20389197912E-01 0.  0.
         14    1    1    2    0    0  0.37014945454E-02  0.23121444740E-01  0.35694413418E-02  0.23686350082E-01  0.00000000000E+00 0.  1.
     999901    1    3    3    0    0  0.49208154915E-01 -0.12706687964E+00  0.46470070126E-01  0.89169888518E+00  0.88000000000E+00 0.  1.
        -11    1    4    4    0    0 -0.27846973698E-01  0.47163376828E-01 -0.13110252671E-01  0.56320315199E-01  0.51100000000E-03 0.  1.
         11    1    4    4    0    0 -0.25062675762E-01  0.56782058071E-01 -0.36929258797E-01  0.72224449541E-01  0.51100000000E-03 0. -1.
</event>
<event>
 8    1  0.1137518E+005  0.1043930E+01  0.7957747E-01            NaN
         13   -1    0    0    0    0  0.00000000000E+00  0.00000000000E+00  0.74505805969E-08  0.10566000000E+00  0.10566000000E+00 0. -1.
     999900   -1    0    0    0    0 -0.00000000000E+00 -0.00000000000E+00 -0.74505805969E-08  0.93827000000E+00  0.93827000000E+00 0.  1.
     999902    2    1    2    0    0 -0.13363214977E-01 -0.93925743201E-02  0.17478290073E-01  0.10200074878E+01  0.10197269186E+01 0.  0.
     999903    2    3    3    0    0  0.32877477852E-02 -0.18434638414E-01  0.13090174132E+00  0.13252571739E+00  0.87837754838E-02 0.  0.
         14    1    1    2    0    0  0.13363214977E-01  0.93925743201E-02 -0.17478290073E-01  0.23922512217E-01  0.00000000000E+00 0.  1.
     999901    1    3    3    0    0 -0.16650962762E-01  0.90420640941E-02 -0.11342345124E+00  0.88748177039E+00  0.88000000000E+00 0.  1.
        -11    1    4    4    0    0 -0.19260405785E-03 -0.89148537919E-02  0.36365061369E-01  0.37445834533E-01  0.51100000000E-03 0. -1.
         11    1    4    4    0    0  0.34803518430E-02 -0.95197846222E-02  0.94536679947E-01  0.95079882860E-01  0.51100000000E-03 0.  1.
</event>
<event>
 8    1  0.1137518E+005  0.1043930E+01  0.7957747E-01            NaN
         13   -1    0    0    0    0  0.00000000000E+00  0.00000000000E+00  0.74505805969E-08  0.10566000000E+00  0.10566000000E+00 0. -1.
     999900   -1    0    0    0    0 -0.00000000000E+00 -0.00000000000E+00 -0.74505805969E-08  0.93827000000E+00  0.93827000000E+00 0.  1.
     999902    2    1    2    0    0 -0.18533205981E-02 -0.11260295605E-01 -0.20486540292E-01  0.10204794694E+01  0.10202099882E+01 0.  0.
     999903    2    3    3    0    0 -0.63552376806E-01 -0.11260807797E+00 -0.21150778358E-01  0.13251630135E+00  0.19842652975E-01 0.  0.
         14    1    1    2    0    0  0.18533205981E-02  0.11260295605E-01  0.20486540292E-01  0.23450530644E-01  0.00000000000E+00 0. -1.
     999901    1    3    3    0    0  0.61699056208E-01  0.10134778236E+00  0.66423806682E-03  0.88796316801E+00  0.88000000000E+00 0. -1.
        -11    1    4    4    0    0 -0.57860783720E-01 -0.10212698199E+00 -0.13080227847E-01  0.11810649527E+00  0.51100000000E-03 0. -1.
         11    1    4    4    0    0 -0.56915930864E-02 -0.10481095975E-01 -0.80705505110E-02  0.14409806079E-01  0.51100000000E-03 0.  1.
</event>
<event>
 8    1  0.1137518E+005  0.1043930E+01  0.7957747E-01            NaN
         13   -1    0    0    0    0  0.00000000000E+00  0.00000000000E+00  0.74505805969E-08  0.10566000000E+00  0.10566000000E+00 0.  1.
     999900   -1    0    0    0    0 -0.00000000000E+00 -0.00000000000E+00 -0.74505805969E-08  0.93827000000E+00  0.93827000000E+00 0. -1.
     999902    2    1    2    0    0 -0.53656960227E-02  0.17828310522E-01 -0.15227673851E-01  0.10198775282E+01  0.10195938658E+01 0.  0.
     999903    2    3    3    0    0  0.12007336202E-01  0.89672183715E-01 -0.95237143512E-01  0.13316174530E+00  0.21832550306E-01 0.  0.
         14    1    1    2    0    0  0.53656960227E-02 -0.17828310522E-01  0.15227673851E-01  0.24052471823E-01  0.00000000000E+00 0.  1.
     999901    1    3    3    0    0 -0.17373032225E-01 -0.71843873193E-01  0.80009469661E-01  0.88671578287E+00  0.88000000000E+00 0.  1.
        -11    1    4    4    0    0 -0.56872198695E-02  0.26578840275E-01 -0.33365701001E-01  0.43038475165E-01  0.51100000000E-03 0. -1.
         11    1    4    4    0    0  0.17694556071E-01  0.63093343440E-01 -0.61871442511E-01  0.90123270138E-01  0.51100000000E-03 0.  1.
</event>
<event>
 8    1  0.1137518E+005  0.1043930E+01  0.7957747E-01            NaN
         13   -1    0    0    0    0  0.00000000000E+00  0.00000000000E+00  0.74505805969E-08  0.10566000000E+00  0.10566000000E+00 0.  1.
     999900   -1    0    0    0    0 -0.00000000000E+00 -0.00000000000E+00 -0.74505805969E-08  0.93827000000E+00  0.93827000000E+00 0.  1.
     999902    2    1    2    0    0  0.15421839592E-01 -0.17221207622E-01  0.21907118715E-02  0.10207092690E+01  0.10204451036E+01 0.  0.
     999903    2    3    3    0    0  0.69155575893E-01  0.55309784242E-01  0.94581234445E-01  0.13128020055E+00  0.21147464070E-01 0.  0.
         14    1    1    2    0    0 -0.15421839592E-01  0.17221207622E-01 -0.21907118715E-02  0.23220730972E-01  0.00000000000E+00 0. -1.
     999901    1    3    3    0    0 -0.53733736301E-01 -0.72530991865E-01 -0.92390522573E-01  0.88942906848E+00  0.88000000000E+00 0. -1.
        -11    1    4    4    0    0  0.44338558364E-01  0.42469189564E-01  0.52607881112E-01  0.80854128504E-01  0.51100000000E-03 0.  1.
         11    1    4    4    0    0  0.24817017528E-01  0.12840594678E-01  0.41973353332E-01  0.50426072043E-01  0.51100000000E-03 0. -1.
</event>
<event>
 8    1  0.1137518E+005  0.1043930E+01  0.7957747E-01            NaN
         13   -1    0    0    0    0  0.00000000000E+00  0.00000000000E+00  0.74505805969E-08  0.10566000000E+00  0.10566000000E+00 0.  1.
     999900   -1    0    0    0    0 -0.00000000000E+00 -0.00000000000E+00 -0.74505805969E-08  0.93827000000E+00  0.93827000000E+00 0.  1.
     999902    2    1    2    0    0  0.91334759661E-02  0.29285419309E-02  0.21922611349E-01  0.10200009877E+01  0.10197202642E+01 0.  0.
     999903    2    3    3    0    0 -0.76544921590E-01  0.99102409565E-01  0.29320106153E-01  0.13059392480E+00  0.22686823618E-01 0.  0.
         14    1    1    2    0    0 -0.91334759661E-02 -0.29285419309E-02 -0.21922611349E-01  0.23929012296E-01  0.00000000000E+00 0. -1.
     999901    1    3    3    0    0  0.85678397556E-01 -0.96173867634E-01 -0.73974948032E-02  0.88940706291E+00  0.88000000000E+00 0. -1.
        -11    1    4    4    0    0 -0.42293133716E-01  0.61890785644E-01  0.27928847787E-01  0.79996625971E-01  0.51100000000E-03 0.  1.
         11    1    4    4    0    0 -0.34251787874E-01  0.37211623921E-01  0.13912583654E-02  0.50597298824E-01  0.51100000000E-03 0. -1.
</event>
<event>
 8    1  0.1137518E+005  0.1043930E+01  0.7957747E-01            NaN
         13   -1    0    0    0    0  0.00000000000E+00  0.00000000000E+00  0.74505805969E-08  0.10566000000E+00  0.10566000000E+00 0.  1.
     999900   -1    0    0    0    0 -0.00000000000E+00 -0.00000000000E+00 -0.74505805969E-08  0.93827000000E+00  0.93827000000E+00 0.  1.
     999902    2    1    2    0    0 -0.23093596835E-01 -0.24156628450E-02  0.14403123326E-02  0.10206657755E+01  0.10204006082E+01 0.  0.
     999903    2    3    3    0    0 -0.30540698597E-01 -0.10069053992E+00  0.77081639207E-01  0.13193914649E+00  0.19875617537E-01 0.  0.
         14    1    1    2    0    0  0.23093596835E-01  0.24156628450E-02 -0.14403123326E-02  0.23264224495E-01  0.00000000000E+00 0.  1.
     999901    1    3    3    0    0  0.74471017619E-02  0.98274877079E-01 -0.75641326875E-01  0.88872662902E+00  0.88000000000E+00 0. -1.
        -11    1    4    4    0    0 -0.20191608249E-01 -0.49637110410E-01  0.49694233720E-01  0.73084346885E-01  0.51100000000E-03 0. -1.
         11    1    4    4    0    0 -0.10349090348E-01 -0.51053429515E-01  0.27387405487E-01  0.58854799605E-01  0.51100000000E-03 0.  1.
</event>
<event>
 8    1  0.1137518E+005  0.1043930E+01  0.7957747E-01            NaN
         13   -1    0    0    0    0  0.00000000000E+00  0.00000000000E+00  0.74505805969E-08  0.10566000000E+00  0.10566000000E+00 0. -1.
     999900   -1    0    0    0    0 -0.00000000000E+00 -0.00000000000E+00 -0.74505805969E-08  0.93827000000E+00  0.93827000000E+00 0.  1.
     999902    2    1    2    0    0  0.58277493376E-02  0.14627326406E-01 -0.15751952933E-01  0.10216579242E+01  0.10214151304E+01 0.  0.
     999903    2    3    3    0    0 -0.52857110074E-01  0.15115305526E-01  0.11594764309E+00  0.12992425630E+00  0.20349690172E-01 0.  0.
         14    1    1    2    0    0 -0.58277493376E-02 -0.14627326406E-01  0.15751952933E-01  0.22272075820E-01  0.00000000000E+00 0.  1.
     999901    1    3    3    0    0  0.58684859411E-01 -0.48797911982E-03 -0.13169959602E+00  0.89173366788E+00  0.88000000000E+00 0.  1.
        -11    1    4    4    0    0 -0.46470951579E-02  0.35217141058E-02  0.31126234509E-01  0.31671778595E-01  0.51100000000E-03 0. -1.
         11    1    4    4    0    0 -0.48210014916E-01  0.11593591420E-01  0.84821408577E-01  0.98252477700E-01  0.51100000000E-03 0.  1.
</event>
<event>
 8    1  0.1137518E+005  0.1043930E+01  0.7957747E-01            NaN
         13   -1    0    0    0    0  0.00000000000E+00  0.00000000000E+00  0.74505805969E-08  0.10566000000E+00  0.10566000000E+00 0. -1.
     999900   -1    0    0    0    0 -0.00000000000E+00 -0.00000000000E+00 -0.74505805969E-08  0.93827000000E+00  0.93827000000E+00 0.  1.
     999902    2    1    2    0    0  0.16132809259E-01  0.55790151486E-02  0.15832049924E-01  0.10206481025E+01  0.10203825275E+01 0.  0.
     999903    2    3    3    0    0 -0.12139797516E-01 -0.12422790600E+00 -0.28255782004E-01  0.12958530229E+00  0.20347334959E-01 0.  0.
         14    1    1    2    0    0 -0.16132809259E-01 -0.55790151486E-02 -0.15832049924E-01  0.23281897461E-01  0.00000000000E+00 0.  1.
     999901    1    3    3    0    0  0.28272606775E-01  0.12980692114E+00  0.44087831928E-01  0.89106280025E+00  0.88000000000E+00 0.  1.
        -11    1    4    4    0    0  0.30532571863E-02 -0.36297815464E-01 -0.14891138135E-01  0.39355570163E-01  0.51100000000E-03 0.  1.
         11    1    4    4    0    0 -0.15193054703E-01 -0.87930090532E-01 -0.13364643869E-01  0.90229732122E-01  0.51100000000E-03 0. -1.
</event>
<event>
 8    1  0.1137518E+005  0.1043930E+01  0.7957747E-01            NaN
         13   -1    0    0    0    0  0.00000000000E+00  0.00000000000E+00  0.74505805969E-08  0.10566000000E+00  0.10566000000E+00 0. -1.
     999900   -1    0    0    0    0 -0.00000000000E+00 -0.00000000000E+00 -0.74505805969E-08  0.93827000000E+00  0.93827000000E+00 0.  1.
     999902    2    1    2    0    0 -0.57587082227E-02  0.14727991440E-01  0.75155608462E-02  0.10264211420E+01  0.10262717967E+01 0.  0.
     999903    2    3    3    0    0  0.57402296165E-01  0.10452625098E+00  0.65798109946E-01  0.13768614474E+00  0.20182230603E-01 0.  0.
         14    1    1    2    0    0  0.57587082227E-02 -0.14727991440E-01 -0.75155608462E-02  0.17508857961E-01  0.00000000000E+00 0.  1.
     999901    1    3    3    0    0 -0.63161004387E-01 -0.89798259542E-01 -0.58282549100E-01  0.88873499730E+00  0.88000000000E+00 0.  1.
        -11    1    4    4    0    0  0.87596256423E-02  0.30799870652E-01  0.23682903302E-01  0.39830944043E-01  0.51100000000E-03 0. -1.
         11    1    4    4    0    0  0.48642670522E-01  0.73726380329E-01  0.42115206644E-01  0.97855200698E-01  0.51100000000E-03 0.  1.
</event>
<event>
 8    1  0.1137518E+005  0.1043930E+01  0.7957747E-01            NaN
         13   -1    0    0    0    0  0.00000000000E+00  0.00000000000E+00  0.74505805969E-08  0.10566000000E+00  0.10566000000E+00 0.  1.
     999900   -1    0    0    0    0 -0.00000000000E+00 -0.00000000000E+00 -0.74505805969E-08  0.93827000000E+00  0.93827000000E+00 0. -1.
     999902    2    1    2    0    0 -0.16088787818E-01  0.64866737222E-02  0.15245165789E-01  0.10208358209E+01  0.10205745598E+01 0.  0.
     999903    2    3    3    0    0 -0.72284073633E-01  0.49804944191E-01  0.99397112298E-01  0.13397848579E+00  0.19103113710E-01 0.  0.
         14    1    1    2    0    0  0.16088787818E-01 -0.64866737222E-02 -0.15245165789E-01  0.23094179123E-01  0.00000000000E+00 0.  1.
     999901    1    3    3    0    0  0.56195285815E-01 -0.43318270469E-01 -0.84151946508E-01  0.88685733509E+00  0.88000000000E+00 0.  1.
        -11    1    4    4    0    0 -0.21539253314E-01  0.62082971645E-02  0.19031716455E-01  0.29410027869E-01  0.51100000000E-03 0. -1.
         11    1    4    4    0    0 -0.50744820318E-01  0.43596647026E-01  0.80365395842E-01  0.10456845792E+00  0.51100000000E-03 0.  1.
</event>
<event>
 8    1  0.1137518E+005  0.1043930E+01  0.7957747E-01            NaN
         13   -1    0    0    0    0  0.00000000000E+00  0.00000000000E+00  0.74505805969E-08  0.10566000000E+00  0.10566000000E+00 0. -1.
     999900   -1    0    0    0    0 -0.00000000000E+00 -0.00000000000E+00 -0.74505805969E-08  0.93827000000E+00  0.93827000000E+00 0. -1.
     999902    2    1    2    0    0  0.16686546423E-01 -0.13997681216E-01 -0.97897774902E-02  0.10200508113E+01  0.10197712694E+01 0.  0.
     999903    2    3    3    0    0  0.79806250458E-01 -0.94341470968E-01 -0.46176986311E-01  0.13339233669E+00  0.19795218245E-01 0.  0.
         14    1    1    2    0    0 -0.16686546423E-01  0.13997681216E-01  0.97897774902E-02  0.23879188727E-01  0.00000000000E+00 0.  1.
     999901    1    3    3    0    0 -0.63119704036E-01  0.80343789752E-01  0.36387208821E-01  0.88665847459E+00  0.88000000000E+00 0.  1.
        -11    1    4    4    0    0  0.26008421906E-01 -0.45804356867E-01 -0.20265283123E-01  0.56439524618E-01  0.51100000000E-03 0. -1.
         11    1    4    4    0    0  0.53797828553E-01 -0.48537114101E-01 -0.25911703189E-01  0.76952812069E-01  0.51100000000E-03 0.  1.
</event>
<event>
 8    1  0.1137518E+005  0.1043930E+01  0.7957747E-01            NaN
         13   -1    0    0    0    0  0.00000000000E+00  0.00000000000E+00  0.74505805969E-08  0.10566000000E+00  0.10566000000E+00 0.  1.
     999900   -1    0    0    0    0 -0.00000000000E+00 -0.00000000000E+00 -0.74505805969E-08  0.93827000000E+00  0.93827000000E+00 0. -1.
     999902    2    1    2    0    0  0.12231439667E-02 -0.12878935221E-01  0.20251201964E-01  0.10198993064E+01  0.10196161636E+01 0.  0.
     999903    2    3    3    0    0  0.15258340591E-01 -0.73886502942E-01  0.10806772661E+00  0.13331560925E+00  0.20059557837E-01 0.  0.
         14    1    1    2    0    0 -0.12231439667E-02  0.12878935221E-01 -0.20251201964E-01  0.24030693593E-01  0.00000000000E+00 0.  1.
     999901    1    3    3    0    0 -0.14035196624E-01  0.61007567721E-01 -0.87816524645E-01  0.88658369716E+00  0.88000000000E+00 0. -1.
        -11    1    4    4    0    0  0.12349570150E-01 -0.16851690789E-01  0.31241958334E-01  0.37587397447E-01  0.51100000000E-03 0.  1.
         11    1    4    4    0    0  0.29087704411E-02 -0.57034812153E-01  0.76825768275E-01  0.95728211802E-01  0.51100000000E-03 0. -1.
</event>
<event>
 8    1  0.1137518E+005  0.1043930E+01  0.7957747E-01            NaN
         13   -1    0    0    0    0  0.00000000000E+00  0.00000000000E+00  0.74505805969E-08  0.10566000000E+00  0.10566000000E+00 0.  1.
     999900   -1    0    0    0    0 -0.00000000000E+00 -0.00000000000E+00 -0.74505805969E-08  0.93827000000E+00  0.93827000000E+00 0.  1.
     999902    2    1    2    0    0  0.33311271337E-03 -0.13519094537E-01 -0.19933657340E-01  0.10198420865E+01  0.10195575775E+01 0.  0.
     999903    2    3    3    0    0  0.71033378475E-01 -0.10634054327E+00 -0.26538647691E-01  0.13211579152E+00  0.19905540598E-01 0.  0.
         14    1    1    2    0    0 -0.33311271337E-03  0.13519094537E-01  0.19933657340E-01  0.24087913487E-01  0.00000000000E+00 0. -1.
     999901    1    3    3    0    0 -0.70700265762E-01  0.92821448737E-01  0.66049903508E-02  0.88772629499E+00  0.88000000000E+00 0. -1.
        -11    1    4    4    0    0  0.42932469349E-01 -0.50938297564E-01 -0.20485405399E-01  0.69698063377E-01  0.51100000000E-03 0.  1.
         11    1    4    4    0    0  0.28100909126E-01 -0.55402245709E-01 -0.60532422926E-02  0.62417728143E-01  0.51100000000E-03 0. -1.
</event>
<event>
 8    1  0.1137518E+005  0.1043930E+01  0.7957747E-01            NaN
         13   -1    0    0    0    0  0.00000000000E+00  0.00000000000E+00  0.74505805969E-08  0.10566000000E+00  0.10566000000E+00 0. -1.
     999900   -1    0    0    0    0 -0.00000000000E+00 -0.00000000000E+00 -0.74505805969E-08  0.93827000000E+00  0.93827000000E+00 0. -1.
     999902    2    1    2    0    0 -0.22847354288E-01  0.68947948235E-02  0.22201143584E-02  0.10199619233E+01  0.10196802716E+01 0.  0.
     999903    2    3    3    0    0 -0.36094356502E-01 -0.12004246932E+00 -0.28531380238E-01  0.13022364350E+00  0.20764408425E-01 0.  0.
         14    1    1    2    0    0  0.22847354288E-01 -0.68947948235E-02 -0.22201143584E-02  0.23968076715E-01  0.00000000000E+00 0. -1.
     999901    1    3    3    0    0  0.13247002213E-01  0.12693726414E+00  0.30751494596E-01  0.88973827979E+00  0.88000000000E+00 0.  1.
        -11    1    4    4    0    0 -0.22828699337E-02 -0.21163044790E-01 -0.11945169222E-01  0.24413810614E-01  0.51100000000E-03 0. -1.
         11    1    4    4    0    0 -0.33811486568E-01 -0.98879424527E-01 -0.16586211016E-01  0.10580983289E+00  0.51100000000E-03 0.  1.
</event>
<event>
 8    1  0.1137518E+005  0.1043930E+01  0.7957747E-01            NaN
         13   -1    0    0    0    0  0.00000000000E+00  0.00000000000E+00  0.74505805969E-08  0.10566000000E+00  0.10566000000E+00 0.  1.
     999900   -1    0    0    0    0 -0.00000000000E+00 -0.00000000000E+00 -0.74505805969E-08  0.93827000000E+00  0.93827000000E+00 0. -1.
     999902    2    1    2    0    0 -0.72944531068E-02 -0.81932546123E-02 -0.20495893683E-01  0.10206830620E+01  0.10204182931E+01 0.  0.
     999903    2    3    3    0    0 -0.87823450891E-02  0.11186139837E+00  0.60526330330E-01  0.12884230589E+00  0.18622596321E-01 0.  0.
         14    1    1    2    0    0  0.72944531068E-02  0.81932546123E-02  0.20495893683E-01  0.23246937974E-01  0.00000000000E+00 0.  1.
     999901    1    3    3    0    0  0.14878919822E-02 -0.12005465298E+00 -0.81022224013E-01  0.89184075614E+00  0.88000000000E+00 0. -1.
        -11    1    4    4    0    0  0.99118190587E-03  0.15612249170E-01  0.20200235440E-02  0.15781837087E-01  0.51100000000E-03 0. -1.
         11    1    4    4    0    0 -0.97735269949E-02  0.96249149197E-01  0.58506306786E-01  0.11306046880E+00  0.51100000000E-03 0.  1.
</event>
<event>
 8    1  0.1137518E+005  0.1043930E+01  0.7957747E-01            NaN
         13   -1    0    0    0    0  0.00000000000E+00  0.00000000000E+00  0.74505805969E-08  0.10566000000E+00  0.10566000000E+00 0.  1.
     999900   -1    0    0    0    0 -0.00000000000E+00 -0.00000000000E+00 -0.74505805969E-08  0.93827000000E+00  0.93827000000E+00 0.  1.
     999902    2    1    2    0    0  0.94965710163E-02  0.28495455050E-02  0.23900966499E-01  0.10180541238E+01  0.10177252271E+01 0.  0.
     999903    2    3    3    0    0  0.10998897173E+00 -0.58212443849E-01 -0.25010786549E-01  0.12888617073E+00  0.22357169757E-01 0.  0.
         14    1    1    2    0    0 -0.94965710163E-02 -0.28495455050E-02 -0.23900966499E-01  0.25875876221E-01  0.00000000000E+00 0. -1.
     999901    1    3    3    0    0 -0.10049240072E+00  0.61061989353E-01  0.48911753048E-01  0.88916795305E+00  0.88000000000E+00 0. -1.
        -11    1    4    4    0    0  0.84169666896E-01 -0.49021008067E-01 -0.10778120172E-01  0.98000107412E-01  0.51100000000E-03 0.  1.
         11    1    4    4    0    0  0.25819304836E-01 -0.91914357812E-02 -0.14232666377E-01  0.30886063316E-01  0.51100000000E-03 0. -1.
</event>
<event>
 8    1  0.1137518E+005  0.1043930E+01  0.7957747E-01            NaN
         13   -1    0    0    0    0  0.00000000000E+00  0.00000000000E+00  0.74505805969E-08  0.10566000000E+00  0.10566000000E+00 0.  1.
     999900   -1    0    0    0    0 -0.00000000000E+00 -0.00000000000E+00 -0.74505805969E-08  0.93827000000E+00  0.93827000000E+00 0. -1.
     999902    2    1    2    0    0 -0.46994964591E-02  0.12315275034E-01 -0.20002180419E-01  0.10199750738E+01  0.10196937348E+01 0.  0.
     999903    2    3    3    0    0 -0.50831346039E-02 -0.65968469231E-01  0.10620151036E+00  0.12753131462E+00  0.24653563955E-01 0.  0.
         14    1    1    2    0    0  0.46994964591E-02 -0.12315275034E-01  0.20002180419E-01  0.23954926166E-01  0.00000000000E+00 0.  1.
     999901    1    3    3    0    0  0.38363814482E-03  0.78283744265E-01 -0.12620369078E+00  0.89244375921E+00  0.88000000000E+00 0. -1.
        -11    1    4    4    0    0  0.26891295719E-02 -0.84960255160E-02  0.32737925069E-01  0.33932974026E-01  0.51100000000E-03 0.  1.
         11    1    4    4    0    0 -0.77722641758E-02 -0.57472443715E-01  0.73463585291E-01  0.93598340593E-01  0.51100000000E-03 0. -1.
</event>
<event>
 7    1  0.1137518E+005  0.1043930E+01  0.7957747E-01            NaN
         13   -1    0    0    0    0  0.00000000000E+00  0.00000000000E+00  0.74505805969E-08  0.10566000000E+00  0.10566000000E+00 0.  1.
     999900   -1    0    0    0    0 -0.00000000000E+00 -0.00000000000E+00 -0.74505805969E-08  0.93827000000E+00  0.93827000000E+00 0. -1.
     999903    2    1    2    0    0  0.89225449894E-02 -0.82639443247E-01  0.55132626595E-01  0.10161619224E+00  0.19425617661E-01 0.  0.
         14    1    1    2    0    0 -0.95597244313E-03 -0.36388605494E-01  0.33990783854E-01  0.49803793832E-01  0.00000000000E+00 0.  1.
     999901    1    1    2    0    0 -0.79665725463E-02  0.11902804874E+00 -0.89123410449E-01  0.89251001392E+00  0.88000000000E+00 0. -1.
        -11    1    3    3    0    0  0.21341284817E-02 -0.28014470209E-01  0.29992549781E-01  0.41099625410E-01  0.51100000000E-03 0.  1.
         11    1    3    3    0    0  0.67884165077E-02 -0.54624973038E-01  0.25140076814E-01  0.60516566834E-01  0.51100000000E-03 0. -1.
</event>
<event>
 8    1  0.1137518E+005  0.1043930E+01  0.7957747E-01            NaN
         13   -1    0    0    0    0  0.00000000000E+00  0.00000000000E+00  0.74505805969E-08  0.10566000000E+00  0.10566000000E+00 0. -1.
     999900   -1    0    0    0    0 -0.00000000000E+00 -0.00000000000E+00 -0.74505805969E-08  0.93827000000E+00  0.93827000000E+00 0.  1.
     999902    2    1    2    0    0 -0.17079046139E-01  0.15705455119E-01 -0.52491381386E-02  0.10201411667E+01  0.10198637612E+01 0.  0.
     999903    2    3    3    0    0  0.11346198794E+00 -0.37348588999E-02 -0.57334488393E-01  0.12877605012E+00  0.20210285650E-01 0.  0.
         14    1    1    2    0    0  0.17079046139E-01 -0.15705455119E-01  0.52491381386E-02  0.23788833277E-01  0.00000000000E+00 0.  1.
     999901    1    3    3    0    0 -0.13054103408E+00  0.19440314019E-01  0.52085350255E-01  0.89136511660E+00  0.88000000000E+00 0. -1.
        -11    1    4    4    0    0  0.50614829085E-01 -0.69691768131E-02 -0.35277625677E-01  0.62090275754E-01  0.51100000000E-03 0. -1.
         11    1    4    4    0    0  0.62847158857E-01  0.32343179132E-02 -0.22056862716E-01  0.66685774365E-01  0.51100000000E-03 0.  1.
</event>
<event>
 8    1  0.1137518E+005  0.1043930E+01  0.7957747E-01            NaN
         13   -1    0    0    0    0  0.00000000000E+00  0.00000000000E+00  0.74505805969E-08  0.10566000000E+00  0.10566000000E+00 0.  1.
     999900   -1    0    0    0    0 -0.00000000000E+00 -0.00000000000E+00 -0.74505805969E-08  0.93827000000E+00  0.93827000000E+00 0.  1.
     999902    2    1    2    0    0 -0.16398880330E-01  0.15224360258E-01 -0.10596441778E-01  0.10191713853E+01  0.10188706119E+01 0.  0.
     999903    2    3    3    0    0  0.63866508285E-01 -0.98490426016E-01  0.43635140810E-01  0.12658265038E+00  0.18434938769E-01 0.  0.
         14    1    1    2    0    0  0.16398880330E-01 -0.15224360258E-01  0.10596441778E-01  0.24758614656E-01  0.00000000000E+00 0.  1.
     999901    1    3    3    0    0 -0.80265388615E-01  0.11371478627E+00 -0.54231582588E-01  0.89258873496E+00  0.88000000000E+00 0.  1.
        -11    1    4    4    0    0  0.62226353795E-01 -0.86940327847E-01  0.36911909181E-01  0.11310831036E+00  0.51100000000E-03 0.  1.
         11    1    4    4    0    0  0.16401544896E-02 -0.11550098169E-01  0.67232316292E-02  0.13474340021E-01  0.51100000000E-03 0. -1.
</event>
<event>
 8    1  0.1137518E+005  0.1043930E+01  0.7957747E-01            NaN
         13   -1    0    0    0    0  0.00000000000E+00  0.00000000000E+00  0.74505805969E-08  0.10566000000E+00  0.10566000000E+00 0. -1.
     999900   -1    0    0    0    0 -0.00000000000E+00 -0.00000000000E+00 -0.74505805969E-08  0.93827000000E+00  0.93827000000E+00 0. -1.
     999902    2    1    2    0    0 -0.11204848408E-01  0.11453365033E-01  0.14295204152E-01  0.10224572019E+01  0.10222317000E+01 0.  0.
     999903    2    3    3    0    0  0.10061149697E+00 -0.85999824088E-04  0.84353271297E-01  0.13254474279E+00  0.18164628919E-01 0.  0.
         14    1    1    2    0    0  0.11204848408E-01 -0.11453365033E-01 -0.14295204152E-01  0.21472798145E-01  0.00000000000E+00 0.  1.
     999901    1    3    3    0    0 -0.11181634538E+00  0.11539364857E-01 -0.70058067145E-01  0.88991245907E+00  0.88000000000E+00 0. -1.
        -11    1    4    4    0    0  0.11524192869E-01  0.12131912541E-02  0.32116092271E-02  0.12035547728E-01  0.51100000000E-03 0.  1.
         11    1    4    4    0    0  0.89087304099E-01 -0.12991910782E-02  0.81141662070E-01  0.12050919506E+00  0.51100000000E-03 0. -1.
</event>
<event>
 8    1  0.1137518E+005  0.1043930E+01  0.7957747E-01            NaN
         13   -1    0    0    0    0  0.00000000000E+00  0.00000000000E+00  0.74505805969E-08  0.10566000000E+00  0.10566000000E+00 0.  1.
     999900   -1    0    0    0    0 -0.00000000000E+00 -0.00000000000E+00 -0.74505805969E-08  0.93827000000E+00  0.93827000000E+00 0. -1.
     999902    2    1    2    0    0  0.55385204129E-02  0.64717998293E-03 -0.22995280950E-01  0.10202682799E+01  0.10199938657E+01 0.  0.
     999903    2    3    3    0    0 -0.74482682454E-01 -0.45269430180E-01  0.91607311425E-01  0.12805447026E+00  0.20225146561E-01 0.  0.
         14    1    1    2    0    0 -0.55385204129E-02 -0.64717998293E-03  0.22995280950E-01  0.23661720061E-01  0.00000000000E+00 0.  1.
     999901    1    3    3    0    0  0.80021202867E-01  0.45916610163E-01 -0.11460259237E+00  0.89221380968E+00  0.88000000000E+00 0. -1.
        -11    1    4    4    0    0 -0.58660939223E-01 -0.25861447590E-01  0.70602493934E-01  0.95367151224E-01  0.51100000000E-03 0.  1.
         11    1    4    4    0    0 -0.15821743231E-01 -0.19407982590E-01  0.21004817491E-01  0.32687319039E-01  0.51100000000E-03 0. -1.
</event>
<event>
 8    1  0.1137518E+005  0.1043930E+01  0.7957747E-01            NaN
         13   -1    0    0    0    0  0.00000000000E+00  0.00000000000E+00  0.74505805969E-08  0.10566000000E+00  0.10566000000E+00 0. -1.
     999900   -1    0    0    0    0 -0.00000000000E+00 -0.00000000000E+00 -0.74505805969E-08  0.93827000000E+00  0.93827000000E+00 0. -1.
     999902    2    1    2    0    0 -0.11266149263E-01 -0.16487423027E-01  0.13100849999E-01  0.10200470875E+01  0.10197674575E+01 0.  0.
     999903    2    3    3    0    0 -0.42528173580E-01  0.26313284342E-01  0.12046872992E+00  0.13193838002E+00  0.19849099546E-01 0.  0.
         14    1    1    2    0    0  0.11266149263E-01  0.16487423027E-01 -0.13100849999E-01  0.23882912468E-01  0.00000000000E+00 0. -1.
     999901    1    3    3    0    0  0.31262024317E-01 -0.42800707369E-01 -0.10736787992E+00  0.88810870751E+00  0.88000000000E+00 0. -1.
        -11    1    4    4    0    0 -0.34166997704E-01  0.19857348163E-01  0.11069182680E+00  0.11753569522E+00  0.51100000000E-03 0.  1.
         11    1    4    4    0    0 -0.83611758765E-02  0.64559361793E-02  0.97769031194E-02  0.14402684805E-01  0.51100000000E-03 0. -1.
</event>
<event>
 8    1  0.1137518E+005  0.1043930E+01  0.7957747E-01            NaN
         13   -1    0    0    0    0  0.00000000000E+00  0.00000000000E+00  0.74505805969E-08  0.10566000000E+00  0.10566000000E+00 0. -1.
     999900   -1    0    0    0    0 -0.00000000000E+00 -0.00000000000E+00 -0.74505805969E-08  0.93827000000E+00  0.93827000000E+00 0.  1.
     999902    2    1    2    0    0  0.18467432518E-01  0.52676063543E-02 -0.12293592814E-01  0.10211281105E+01  0.10208734946E+01 0.  0.
     999903    2    3    3    0    0  0.51519429588E-01  0.21765585350E-01  0.11669939984E+00  0.13095744710E+00  0.20077616830E-01 0.  0.
         14    1    1    2    0    0 -0.18467432518E-01 -0.52676063543E-02  0.12293592814E-01  0.22801889500E-01  0.00000000000E+00 0. -1.
     999901    1    3    3    0    0 -0.33051997070E-01 -0.16497978996E-01 -0.12899299265E+00  0.89017066340E+00  0.88000000000E+00 0.  1.
        -11    1    4    4    0    0  0.18694062651E-01  0.68560083131E-03  0.24390909111E-01  0.30742732396E-01  0.51100000000E-03 0.  1.
         11    1    4    4    0    0  0.32825366938E-01  0.21079984519E-01  0.92308490729E-01  0.10021471471E+00  0.51100000000E-03 0. -1.
</event>
<event>
 8    1  0.1137518E+005  0.1043930E+01  0.7957747E-01            NaN
         13   -1    0    0    0    0  0.00000000000E+00  0.00000000000E+00  0.74505805969E-08  0.10566000000E+00  0.10566000000E+00 0. -1.
     999900   -1    0    0    0    0 -0.00000000000E+00 -0.00000000000E+00 -0.74505805969E-08  0.93827000000E+00  0.93827000000E+00 0.  1.
     999902    2    1    2    0    0 -0.13385074814E-01 -0.13555881682E-01 -0.14482511326E-01  0.10199995740E+01  0.10197188169E+01 0.  0.
     999903    2    3    3    0    0  0.89588629751E-01 -0.44451573767E-01  0.77840385249E-01  0.12866257549E+00  0.22200625313E-01 0.  0.
         14    1    1    2    0    0  0.13385074814E-01  0.13555881682E-01  0.14482511326E-01  0.23930426036E-01  0.00000000000E+00 0. -1.
     999901    1    3    3    0    0 -0.10297370456E+00  0.30895692085E-01 -0.92322896575E-01  0.89133699848E+00  0.88000000000E+00 0.  1.
        -11    1    4    4    0    0  0.31624801060E-01 -0.72570812550E-02  0.34104743580E-01  0.47076405196E-01  0.51100000000E-03 0.  1.
         11    1    4    4    0    0  0.57963828691E-01 -0.37194492512E-01  0.43735641669E-01  0.81586170292E-01  0.51100000000E-03 0. -1.
</event>
<event>
 8    1  0.1137518E+005  0.1043930E+01  0.7957747E-01            NaN
         13   -1    0    0    0    0  0.00000000000E+00  0.00000000000E+00  0.74505805969E-08  0.10566000000E+00  0.10566000000E+00 0. -1.
     999900   -1    0    0    0    0 -0.00000000000E+00 -0.00000000000E+00 -0.74505805969E-08  0.93827000000E+00  0.93827000000E+00 0.  1.
     999902    2    1    2    0    0 -0.22880987205E-01 -0.46926029381E-02  0.42827260610E-02  0.10201833825E+01  0.10199069723E+01 0.  0.
     999903    2    3    3    0    0 -0.90516331580E-01  0.91607139899E-01  0.23346071975E-01  0.13214532512E+00  0.18228371079E-01 0.  0.
         14    1    1    2    0    0  0.22880987205E-01  0.46926029381E-02 -0.42827260610E-02  0.23746617450E-01  0.00000000000E+00 0. -1.
     999901    1    3    3    0    0  0.67635344375E-01 -0.96299742837E-01 -0.19063345914E-01  0.88803805743E+00  0.88000000000E+00 0.  1.
        -11    1    4    4    0    0 -0.33375467140E-01  0.44475195375E-01  0.15057501977E-01  0.57610366231E-01  0.51100000000E-03 0.  1.
         11    1    4    4    0    0 -0.57140864440E-01  0.47131944524E-01  0.82885699981E-02  0.74534958893E-01  0.51100000000E-03 0. -1.
</event>
<event>
 8    1  0.1137518E+005  0.1043930E+01  0.7957747E-01            NaN
         13   -1    0    0    0    0  0.00000000000E+00  0.00000000000E+00  0.74505805969E-08  0.10566000000E+00  0.10566000000E+00 0.  1.
     999900   -1    0    0    0    0 -0.00000000000E+00 -0.00000000000E+00 -0.74505805969E-08  0.93827000000E+00  0.93827000000E+00 0.  1.
     999902    2    1    2    0    0  0.12655683264E-01 -0.19201892360E-01  0.78707762320E-02  0.10196230440E+01  0.10193332742E+01 0.  0.
     999903    2    3    3    0    0  0.11816259825E-01  0.71115139593E-01  0.10557838197E+00  0.12962043332E+00  0.21393338150E-01 0.  0.
         14    1    1    2    0    0 -0.12655683264E-01  0.19201892360E-01 -0.78707762320E-02  0.24306955951E-01  0.00000000000E+00 0. -1.
     999901    1    3    3    0    0  0.83942343876E-03 -0.90317031953E-01 -0.97707605742E-01  0.89000261073E+00  0.88000000000E+00 0.  1.
        -11    1    4    4    0    0  0.96206919082E-03  0.43140311599E-01  0.47030858982E-01  0.63829263505E-01  0.51100000000E-03 0.  1.
         11    1    4    4    0    0  0.10854190635E-01  0.27974827994E-01  0.58547522992E-01  0.65791169811E-01  0.51100000000E-03 0. -1.
</event>
<event>
 8    1  0.1137518E+005  0.1043930E+01  0.7957747E-01            NaN
         13   -1    0    0    0    0  0.00000000000E+00  0.00000000000E+00  0.74505805969E-08  0.10566000000E+00  0.10566000000E+00 0.  1.
     999900   -1    0    0    0    0 -0.00000000000E+00 -0.00000000000E+00 -0.74505805969E-08  0.93827000000E+00  0.93827000000E+00 0. -1.
     999902    2    1    2    0    0  0.11508506426E-01 -0.20358964582E-01  0.61284925974E-02  0.10197537393E+01  0.10194671144E+01 0.  0.
     999903    2    3    3    0    0  0.85476048462E-01  0.90690892297E-01 -0.25648419998E-01  0.12912865537E+00  0.22031236519E-01 0.  0.
         14    1    1    2    0    0 -0.11508506426E-01  0.20358964582E-01 -0.61284925974E-02  0.24176260681E-01  0.00000000000E+00 0. -1.
     999901    1    3    3    0    0 -0.73967542036E-01 -0.11104985688E+00  0.31776912595E-01  0.89062508395E+00  0.88000000000E+00 0.  1.
        -11    1    4    4    0    0  0.78596857333E-02  0.29686103013E-02 -0.60574907047E-02  0.10370227653E-01  0.51100000000E-03 0.  1.
         11    1    4    4    0    0  0.77616362728E-01  0.87722281996E-01 -0.19590929293E-01  0.11875842772E+00  0.51100000000E-03 0. -1.
</event>
<event>
 7    1  0.1137518E+005  0.1043930E+01  0.7957747E-01            NaN
         13   -1    0    0    0    0  0.00000000000E+00  0.00000000000E+00  0.74505805969E-08  0.10566000000E+00  0.10566000000E+00 0.  1.
     999900   -1    0    0    0    0 -0.00000000000E+00 -0.00000000000E+00 -0.74505805969E-08  0.93827000000E+00  0.93827000000E+00 0.  1.
     999903    2    1    2    0    0 -0.30039924436E-01 -0.55522189444E-01  0.63690516075E-01  0.92459612020E-01  0.22520822283E-01 0.  0.
         14    1    1    2    0    0 -0.42733921252E-01 -0.19670008472E-01  0.36613318708E-01  0.59612350781E-01  0.00000000000E+00 0.  1.
     999901    1    1    2    0    0  0.72773845688E-01  0.75192197916E-01 -0.10030383478E+00  0.89185803720E+00  0.88000000000E+00 0.  1.
        -11    1    3    3    0    0 -0.17359633865E-01 -0.41223237121E-01  0.56429728053E-01  0.72008940388E-01  0.51100000000E-03 0.  1.
         11    1    3    3    0    0 -0.12680290571E-01 -0.14298952323E-01  0.72607880212E-02  0.20450671632E-01  0.51100000000E-03 0. -1.
</event>
<event>
 8    1  0.1137518E+005  0.1043930E+01  0.7957747E-01            NaN
         13   -1    0    0    0    0  0.00000000000E+00  0.00000000000E+00  0.74505805969E-08  0.10566000000E+00  0.10566000000E+00 0. -1.
     999900   -1    0    0    0    0 -0.00000000000E+00 -0.00000000000E+00 -0.74505805969E-08  0.93827000000E+00  0.93827000000E+00 0. -1.
     999902    2    1    2    0    0 -0.54591742312E-02 -0.14883425891E-01 -0.17866711057E-01  0.10200440562E+01  0.10197643542E+01 0.  0.
     999903    2    3    3    0    0  0.10909040776E+00  0.51114133525E-01  0.39390867667E-01  0.12832901484E+00  0.20082925139E-01 0.  0.
         14    1    1    2    0    0  0.54591742312E-02  0.14883425891E-01  0.17866711057E-01  0.23885943848E-01  0.00000000000E+00 0. -1.
     999901    1    3    3    0    0 -0.11454958199E+00 -0.65997559416E-01 -0.57257578723E-01  0.89171504131E+00  0.88000000000E+00 0. -1.
        -11    1    4    4    0    0  0.72085839078E-01  0.23032620251E-01  0.24408715660E-01  0.79516767492E-01  0.51100000000E-03 0. -1.
         11    1    4    4    0    0  0.37004568684E-01  0.28081513274E-01  0.14982152007E-01  0.48812247347E-01  0.51100000000E-03 0.  1.
</event>
<event>
 8    1  0.1137518E+005  0.1043930E+01  0.7957747E-01            NaN
         13   -1    0    0    0    0  0.00000000000E+00  0.00000000000E+00  0.74505805969E-08  0.10566000000E+00  0.10566000000E+00 0.  1.
     999900   -1    0    0    0    0 -0.00000000000E+00 -0.00000000000E+00 -0.74505805969E-08  0.93827000000E+00  0.93827000000E+00 0.  1.
     999902    2    1    2    0    0 -0.12843768888E-01 -0.39946707420E-02  0.19531120453E-01  0.10202153535E+01  0.10199396958E+01 0.  0.
     999903    2    3    3    0    0 -0.58952718127E-01 -0.15250238085E-02 -0.11278174652E+00  0.12912678935E+00  0.21823306517E-01 0.  0.
         14    1    1    2    0    0  0.12843768888E-01  0.39946707420E-02 -0.19531120453E-01  0.23714646524E-01  0.00000000000E+00 0. -1.
     999901    1    3    3    0    0  0.46108949238E-01 -0.24696469335E-02  0.13231286697E+00  0.89108856413E+00  0.88000000000E+00 0. -1.
        -11    1    4    4    0    0 -0.41266905723E-01 -0.11104626070E-01 -0.78291138745E-01  0.89196601702E-01  0.51100000000E-03 0.  1.
         11    1    4    4    0    0 -0.17685812403E-01  0.95796022618E-02 -0.34490607773E-01  0.39930187645E-01  0.51100000000E-03 0. -1.
</event>
<event>
 8    1  0.1440663E+005  0.1043930E+01  0.7957747E-01            NaN
         13   -1    0    0    0    0  0.00000000000E+00  0.00000000000E+00  0.74505805969E-08  0.10566000000E+00  0.10566000000E+00 0. -1.
     999900   -1    0    0    0    0 -0.00000000000E+00 -0.00000000000E+00 -0.74505805969E-08  0.93827000000E+00  0.93827000000E+00 0.  1.
     999902    2    1    2    0    0  0.52167092346E-02 -0.14873378186E-01  0.16285100709E-01  0.10212664623E+01  0.10210149613E+01 0.  0.
     999903    2    3    3    0    0  0.10523721696E-01  0.13077686276E-01 -0.12660217635E+00  0.12928765075E+00  0.20134820188E-01 0.  0.
         14    1    1    2    0    0 -0.52167092346E-02  0.14873378186E-01 -0.16285100709E-01  0.22663537654E-01  0.00000000000E+00 0.  1.
     999901    1    3    3    0    0 -0.53070124617E-02 -0.27951064462E-01  0.14288727706E+00  0.89197881159E+00  0.88000000000E+00 0. -1.
        -11    1    4    4    0    0  0.11576909190E-01  0.97848493825E-02 -0.42714815498E-01  0.45327526823E-01  0.51100000000E-03 0. -1.
         11    1    4    4    0    0 -0.10531874936E-02  0.32928368934E-02 -0.83887360851E-01  0.83960123930E-01  0.51100000000E-03 0.  1.
</event>
<event>
 8    1  0.1137518E+005  0.1043930E+01  0.7957747E-01            NaN
         13   -1    0    0    0    0  0.00000000000E+00  0.00000000000E+00  0.74505805969E-08  0.10566000000E+00  0.10566000000E+00 0. -1.
     999900   -1    0    0    0    0 -0.00000000000E+00 -0.00000000000E+00 -0.74505805969E-08  0.93827000000E+00  0.93827000000E+00 0.  1.
     999902    2    1    2    0    0  0.19042084360E-01  0.91245747627E-02  0.97861765803E-02  0.10206570953E+01  0.10203917278E+01 0.  0.
     999903    2    3    3    0    0  0.56054462589E-01  0.64683518685E-01 -0.97908117650E-01  0.13158186034E+00  0.20043106152E-01 0.  0.
         14    1    1    2    0    0 -0.19042084360E-01 -0.91245747627E-02 -0.97861765803E-02  0.23272904706E-01  0.00000000000E+00 0.  1.
     999901    1    3    3    0    0 -0.37012378229E-01 -0.55558943922E-01  0.10769429423E+00  0.88907523495E+00  0.88000000000E+00 0. -1.
        -11    1    4    4    0    0  0.48387498344E-01  0.59866633368E-01 -0.94521169416E-01  0.12190109259E+00  0.51100000000E-03 0. -1.
         11    1    4    4    0    0  0.76669642456E-02  0.48168853167E-02 -0.33869482342E-02  0.96807677505E-02  0.51100000000E-03 0.  1.
</event>
<event>
 8    1  0.1137518E+005  0.1043930E+01  0.7957747E-01            NaN
         13   -1    0    0    0    0  0.00000000000E+00  0.00000000000E+00  0.74505805969E-08  0.10566000000E+00  0.10566000000E+00 0. -1.
     999900   -1    0    0    0    0 -0.00000000000E+00 -0.00000000000E+00 -0.74505805969E-08  0.93827000000E+00  0.93827000000E+00 0.  1.
     999902    2    1    2    0    0  0.17722697659E-01  0.62875304225E-02  0.96579416686E-02  0.10227899222E+01  0.10225714264E+01 0.  0.
     999903    2    3    3    0    0 -0.12858707528E+00  0.10332232230E-02 -0.11390495521E-01  0.13044626975E+00  0.18729186412E-01 0.  0.
         14    1    1    2    0    0 -0.17722697659E-01 -0.62875304225E-02 -0.96579416686E-02  0.21140077777E-01  0.00000000000E+00 0. -1.
     999901    1    3    3    0    0  0.14630977294E+00  0.52543071995E-02  0.21048437190E-01  0.89234365247E+00  0.88000000000E+00 0. -1.
        -11    1    4    4    0    0 -0.91060344447E-01 -0.12882483407E-02  0.29187606571E-03  0.91071357886E-01  0.51100000000E-03 0.  1.
         11    1    4    4    0    0 -0.37526730834E-01  0.23214715637E-02 -0.11682371587E-01  0.39374911863E-01  0.51100000000E-03 0. -1.
</event>
<event>
 8    1  0.1137518E+005  0.1043930E+01  0.7957747E-01            NaN
         13   -1    0    0    0    0  0.00000000000E+00  0.00000000000E+00  0.74505805969E-08  0.10566000000E+00  0.10566000000E+00 0.  1.
     999900   -1    0    0    0    0 -0.00000000000E+00 -0.00000000000E+00 -0.74505805969E-08  0.93827000000E+00  0.93827000000E+00 0. -1.
     999902    2    1    2    0    0  0.17868930920E-01  0.19471158202E-01 -0.22531538075E-02  0.10174063993E+01  0.10170606078E+01 0.  0.
     999903    2    3    3    0    0  0.71949547535E-02 -0.12118683464E+00  0.26816017000E-01  0.12569813901E+00  0.18517751421E-01 0.  0.
         14    1    1    2    0    0 -0.17868930920E-01 -0.19471158202E-01  0.22531538075E-02  0.26523600737E-01  0.00000000000E+00 0. -1.
     999901    1    3    3    0    0  0.10673976167E-01  0.14065799284E+00 -0.29069170807E-01  0.89170826026E+00  0.88000000000E+00 0.  1.
        -11    1    4    4    0    0  0.12045837051E-01 -0.62718778634E-01  0.18105777860E-01  0.66383941556E-01  0.51100000000E-03 0. -1.
         11    1    4    4    0    0 -0.48508822970E-02 -0.58468056007E-01  0.87102391395E-02  0.59314197450E-01  0.51100000000E-03 0.  1.
</event>
<event>
 8    1  0.1137518E+005  0.1043930E+01  0.7957747E-01            NaN
         13   -1    0    0    0    0  0.00000000000E+00  0.00000000000E+00  0.74505805969E-08  0.10566000000E+00  0.10566000000E+00 0. -1.
     999900   -1    0    0    0    0 -0.00000000000E+00 -0.00000000000E+00 -0.74505805969E-08  0.93827000000E+00  0.93827000000E+00 0.  1.
     999902    2    1    2    0    0  0.18129100499E-01 -0.64692109258E-02 -0.12386280795E-01  0.10210403751E+01  0.10207837737E+01 0.  0.
     999903    2    3    3    0    0 -0.57632114371E-01  0.72113723250E-01  0.87574464261E-01  0.12867991557E+00  0.19167268802E-01 0.  0.
         14    1    1    2    0    0 -0.18129100499E-01  0.64692109258E-02  0.12386280795E-01  0.22889624873E-01  0.00000000000E+00 0. -1.
     999901    1    3    3    0    0  0.75761214871E-01 -0.78582934176E-01 -0.99960745056E-01  0.89236045955E+00  0.88000000000E+00 0.  1.
        -11    1    4    4    0    0 -0.32988775661E-02  0.14108478939E-01  0.99572783099E-02  0.17588072194E-01  0.51100000000E-03 0. -1.
         11    1    4    4    0    0 -0.54333236805E-01  0.58005244311E-01  0.77617185951E-01  0.11109184338E+00  0.51100000000E-03 0.  1.
</event>
<event>
 8    1  0.1137518E+005  0.1043930E+01  0.7957747E-01            NaN
         13   -1    0    0    0    0  0.00000000000E+00  0.00000000000E+00  0.74505805969E-08  0.10566000000E+00  0.10566000000E+00 0.  1.
     999900   -1    0    0    0    0 -0.00000000000E+00 -0.00000000000E+00 -0.74505805969E-08  0.93827000000E+00  0.93827000000E+00 0. -1.
     999902    2    1    2    0    0 -0.14510305838E-01  0.16218987889E-01  0.93791701070E-02  0.10202324606E+01  0.10199572051E+01 0.  0.
     999903    2    3    3    0    0 -0.17931628532E-01  0.11107412339E+00 -0.65724506812E-01  0.13194772892E+00  0.20772293631E-01 0.  0.
         14    1    1    2    0    0  0.14510305838E-01 -0.16218987889E-01 -0.93791701070E-02  0.23697539441E-01  0.00000000000E+00 0. -1.
     999901    1    3    3    0    0  0.34213226942E-02 -0.94855135499E-01  0.75103676919E-01  0.88828473164E+00  0.88000000000E+00 0.  1.
        -11    1    4    4    0    0 -0.19773593288E-01  0.63000857165E-01 -0.42466389380E-01  0.78509606692E-01  0.51100000000E-03 0.  1.
         11    1    4    4    0    0  0.18419647559E-02  0.48073266223E-01 -0.23258117432E-01  0.53438122226E-01  0.51100000000E-03 0. -1.
</event>
<event>
 8    1  0.1137518E+005  0.1043930E+01  0.7957747E-01            NaN
         13   -1    0    0    0    0  0.00000000000E+00  0.00000000000E+00  0.74505805969E-08  0.10566000000E+00  0.10566000000E+00 0.  1.
     999900   -1    0    0    0    0 -0.00000000000E+00 -0.00000000000E+00 -0.74505805969E-08  0.93827000000E+00  0.93827000000E+00 0. -1.
     999902    2    1    2    0    0 -0.12512497779E-01  0.23516364564E-01  0.11933667195E-02  0.10172653019E+01  0.10169157724E+01 0.  0.
     999903    2    3    3    0    0  0.12724488470E-01  0.12701186065E+00 -0.19145570278E-01  0.13060759138E+00  0.19946546400E-01 0.  0.
         14    1    1    2    0    0  0.12512497779E-01 -0.23516364564E-01 -0.11933667195E-02  0.26664698144E-01  0.00000000000E+00 0.  1.
     999901    1    3    3    0    0 -0.25236986249E-01 -0.10349549608E+00  0.20338936998E-01  0.88665771047E+00  0.88000000000E+00 0.  1.
        -11    1    4    4    0    0 -0.33274690261E-02  0.36692451463E-01 -0.11281705760E-01  0.38534997734E-01  0.51100000000E-03 0. -1.
         11    1    4    4    0    0  0.16051957496E-01  0.90319409185E-01 -0.78638645179E-02  0.92072593648E-01  0.51100000000E-03 0.  1.
</event>
<event>
 8    1  0.1137518E+005  0.1043930E+01  0.7957747E-01            NaN
         13   -1    0    0    0    0  0.00000000000E+00  0.00000000000E+00  0.74505805969E-08  0.10566000000E+00  0.10566000000E+00 0.  1.
     999900   -1    0    0    0    0 -0.00000000000E+00 -0.00000000000E+00 -0.74505805969E-08  0.93827000000E+00  0.93827000000E+00 0. -1.
     999902    2    1    2    0    0 -0.14712236540E-02  0.14977433547E-02  0.25241990527E-01  0.10186008504E+01  0.10182858767E+01 0.  0.
     999903    2    3    3    0    0  0.44081510541E-02  0.96890622244E-01  0.86189771404E-01  0.13133031646E+00  0.20291644880E-01 0.  0.
         14    1    1    2    0    0  0.14712236540E-02 -0.14977433547E-02 -0.25241990527E-01  0.25329149609E-01  0.00000000000E+00 0. -1.
     999901    1    3    3    0    0 -0.58793747081E-02 -0.95392878889E-01 -0.60947780878E-01  0.88727053393E+00  0.88000000000E+00 0.  1.
        -11    1    4    4    0    0 -0.62327674412E-02  0.38157734666E-01  0.41808160912E-01  0.56947726422E-01  0.51100000000E-03 0. -1.
         11    1    4    4    0    0  0.10640918495E-01  0.58732887578E-01  0.44381610492E-01  0.74382590036E-01  0.51100000000E-03 0.  1.
</event>
<event>
 8    1  0.1137518E+005  0.1043930E+01  0.7957747E-01            NaN
         13   -1    0    0    0    0  0.00000000000E+00  0.00000000000E+00  0.74505805969E-08  0.10566000000E+00  0.10566000000E+00 0. -1.
     999900   -1    0    0    0    0 -0.00000000000E+00 -0.00000000000E+00 -0.74505805969E-08  0.93827000000E+00  0.93827000000E+00 0. -1.
     999902    2    1    2    0    0 -0.66895179264E-02 -0.18860078399E-01  0.12532869958E-01  0.10203180319E+01  0.10200447839E+01 0.  0.
     999903    2    3    3    0    0  0.52497768693E-01  0.10544356605E+00 -0.44978250513E-01  0.12775875663E+00  0.20612994404E-01 0.  0.
         14    1    1    2    0    0  0.66895179264E-02  0.18860078399E-01 -0.12532869958E-01  0.23611968082E-01  0.00000000000E+00 0.  1.
     999901    1    3    3    0    0 -0.59187286620E-01 -0.12430364445E+00  0.57511120471E-01  0.89255927529E+00  0.88000000000E+00 0.  1.
        -11    1    4    4    0    0  0.43848626617E-01  0.99207602722E-01 -0.37672019719E-01  0.11482287527E+00  0.51100000000E-03 0. -1.
         11    1    4    4    0    0  0.86491420762E-02  0.62359633261E-02 -0.73062307942E-02  0.12935881364E-01  0.51100000000E-03 0.  1.
</event>
<event>
 8    1  0.1137518E+005  0.1043930E+01  0.7957747E-01            NaN
         13   -1    0    0    0    0  0.00000000000E+00  0.00000000000E+00  0.74505805969E-08  0.10566000000E+00  0.10566000000E+00 0.  1.
     999900   -1    0    0    0    0 -0.00000000000E+00 -0.00000000000E+00 -0.74505805969E-08  0.93827000000E+00  0.93827000000E+00 0.  1.
     999902    2    1    2    0    0 -0.81604211426E-03 -0.18651438528E-01 -0.13621537290E-01  0.10208196482E+01  0.10205580168E+01 0.  0.
     999903    2    3    3    0    0  0.36256316570E-01 -0.95841218696E-01 -0.83814708659E-01  0.13388126065E+00  0.19980662466E-01 0.  0.
         14    1    1    2    0    0  0.81604211426E-03  0.18651438528E-01  0.13621537290E-01  0.23110351837E-01  0.00000000000E+00 0.  1.
     999901    1    3    3    0    0 -0.37072358684E-01  0.77189780168E-01  0.70193171369E-01  0.88693838751E+00  0.88000000000E+00 0. -1.
        -11    1    4    4    0    0  0.23984530846E-01 -0.74302256109E-01 -0.72789225076E-01  0.10674556380E+00  0.51100000000E-03 0. -1.
         11    1    4    4    0    0  0.12271785723E-01 -0.21538962587E-01 -0.11025483584E-01  0.27135696848E-01  0.51100000000E-03 0.  1.
</event>
<event>
 8    1  0.1137518E+005  0.1043930E+01  0.7957747E-01            NaN
         13   -1    0    0    0    0  0.00000000000E+00  0.00000000000E+00  0.74505805969E-08  0.10566000000E+00  0.10566000000E+00 0.  1.
     999900   -1    0    0    0    0 -0.00000000000E+00 -0.00000000000E+00 -0.74505805969E-08  0.93827000000E+00  0.93827000000E+00 0. -1.
     999902    2    1    2    0    0 -0.23348382912E-02  0.14752975398E-01 -0.18335424632E-01  0.10202806966E+01  0.10200065737E+01 0.  0.
     999903    2    3    3    0    0 -0.59690092224E-01  0.26724846364E-01 -0.11408723812E+00  0.13314972512E+00  0.20876467022E-01 0.  0.
         14    1    1    2    0    0  0.23348382912E-02 -0.14752975398E-01  0.18335424632E-01  0.23649303359E-01  0.00000000000E+00 0. -1.
     999901    1    3    3    0    0  0.57355253933E-01 -0.11971870967E-01  0.95751813484E-01  0.88713097152E+00  0.88000000000E+00 0. -1.
        -11    1    4    4    0    0 -0.19495083796E-01  0.16001289109E-01 -0.58586966371E-01  0.63787093483E-01  0.51100000000E-03 0.  1.
         11    1    4    4    0    0 -0.40195008428E-01  0.10723557255E-01 -0.55500271745E-01  0.69362631636E-01  0.51100000000E-03 0. -1.
</event>
<event>
 8    1  0.1137518E+005  0.1043930E+01  0.7957747E-01            NaN
         13   -1    0    0    0    0  0.00000000000E+00  0.00000000000E+00  0.74505805969E-08  0.10566000000E+00  0.10566000000E+00 0.  1.
     999900   -1    0    0    0    0 -0.00000000000E+00 -0.00000000000E+00 -0.74505805969E-08  0.93827000000E+00  0.93827000000E+00 0.  1.
     999902    2    1    2    0    0  0.23019163477E-01  0.64938759064E-02  0.22217685952E-02  0.10199094137E+01  0.10196265118E+01 0.  0.
     999903    2    3    3    0    0 -0.11880089422E+00  0.32730280545E-01  0.27585453709E-01  0.12780818948E+00  0.19724409014E-01 0.  0.
         14    1    1    2    0    0 -0.23019163477E-01 -0.64938759064E-02 -0.22217685952E-02  0.24020586320E-01  0.00000000000E+00 0.  1.
     999901    1    3    3    0    0  0.14182005769E+00 -0.26236404638E-01 -0.25363685114E-01  0.89210122420E+00  0.88000000000E+00 0.  1.
        -11    1    4    4    0    0 -0.59116010529E-01  0.60863969721E-02  0.13406250663E-01  0.60924015025E-01  0.51100000000E-03 0. -1.
         11    1    4    4    0    0 -0.59684883689E-01  0.26643883573E-01  0.14179203046E-01  0.66884174457E-01  0.51100000000E-03 0.  1.
</event>
<event>
 8    1  0.1137518E+005  0.1043930E+01  0.7957747E-01            NaN
         13   -1    0    0    0    0  0.00000000000E+00  0.00000000000E+00  0.74505805969E-08  0.10566000000E+00  0.10566000000E+00 0. -1.
     999900   -1    0    0    0    0 -0.00000000000E+00 -0.00000000000E+00 -0.74505805969E-08  0.93827000000E+00  0.93827000000E+00 0. -1.
     999902    2    1    2    0    0 -0.16277693227E-01  0.13521616475E-01 -0.99281307421E-02  0.10205555441E+01  0.10202878287E+01 0.  0.
     999903    2    3    3    0    0 -0.47755171711E-01 -0.37881479774E-01 -0.11562777950E+00  0.13218314149E+00  0.19673244948E-01 0.  0.
         14    1    1    2    0    0  0.16277693227E-01 -0.13521616475E-01  0.99281307421E-02  0.23374455907E-01  0.00000000000E+00 0. -1.
     999901    1    3    3    0    0  0.31477478484E-01  0.51403096249E-01  0.10569964876E+00  0.88837240260E+00  0.88000000000E+00 0.  1.
        -11    1    4    4    0    0 -0.33026321468E-01 -0.22376801587E-01 -0.92181660814E-01  0.10044490465E+00  0.51100000000E-03 0. -1.
         11    1    4    4    0    0 -0.14728850243E-01 -0.15504678187E-01 -0.23446118690E-01  0.31738236841E-01  0.51100000000E-03 0.  1.
</event>
<event>
 8    1  0.1137518E+005  0.1043930E+01  0.7957747E-01            NaN
         13   -1    0    0    0    0  0.00000000000E+00  0.00000000000E+00  0.74505805969E-08  0.10566000000E+00  0.10566000000E+00 0. -1.
     999900   -1    0    0    0    0 -0.00000000000E+00 -0.00000000000E+00 -0.74505805969E-08  0.93827000000E+00  0.93827000000E+00 0.  1.
     999902    2    1    2    0    0 -0.95052112457E-02  0.51233732776E-02 -0.20684672635E-01  0.10205964688E+01  0.10203297009E+01 0.  0.
     999903    2    3    3    0    0  0.65022028816E-01 -0.60999912291E-02  0.10817818170E+00  0.12802383389E+00  0.20555021856E-01 0.  0.
         14    1    1    2    0    0  0.95052112457E-02 -0.51233732776E-02  0.20684672635E-01  0.23333531164E-01  0.00000000000E+00 0. -1.
     999901    1    3    3    0    0 -0.74527240062E-01  0.11223364507E-01 -0.12886285434E+00  0.89257263494E+00  0.88000000000E+00 0.  1.
        -11    1    4    4    0    0  0.13309496462E-01  0.70981763291E-02  0.24077266276E-01  0.28416591555E-01  0.51100000000E-03 0. -1.
         11    1    4    4    0    0  0.51712532354E-01 -0.13198167558E-01  0.84100915428E-01  0.99607242338E-01  0.51100000000E-03 0.  1.
</event>
<event>
 8    1  0.1137518E+005  0.1043930E+01  0.7957747E-01            NaN
         13   -1    0    0    0    0  0.00000000000E+00  0.00000000000E+00  0.74505805969E-08  0.10566000000E+00  0.10566000000E+00 0. -1.
     999900   -1    0    0    0    0 -0.00000000000E+00 -0.00000000000E+00 -0.74505805969E-08  0.93827000000E+00  0.93827000000E+00 0. -1.
     999902    2    1    2    0    0 -0.56775630024E-02  0.45685516412E-02 -0.21434240088E-01  0.10212908076E+01  0.10210398526E+01 0.  0.
     999903    2    3    3    0    0 -0.92103213029E-03  0.12329699043E+00 -0.45773988588E-01  0.13297133231E+00  0.19573477888E-01 0.  0.
         14    1    1    2    0    0  0.56775630024E-02 -0.45685516412E-02  0.21434240088E-01  0.22639192430E-01  0.00000000000E+00 0. -1.
     999901    1    3    3    0    0 -0.47565308721E-02 -0.11872843879E+00  0.24339748501E-01  0.88831947526E+00  0.88000000000E+00 0. -1.
        -11    1    4    4    0    0  0.88373655864E-02  0.66214953675E-01 -0.27516763385E-01  0.72249238811E-01  0.51100000000E-03 0. -1.
         11    1    4    4    0    0 -0.97583977167E-02  0.57082036755E-01 -0.18257225204E-01  0.60722093502E-01  0.51100000000E-03 0.  1.
</event>
<event>
 8    1  0.1137518E+005  0.1043930E+01  0.7957747E-01            NaN
         13   -1    0    0    0    0  0.00000000000E+00  0.00000000000E+00  0.74505805969E-08  0.10566000000E+00  0.10566000000E+00 0.  1.
     999900   -1    0    0    0    0 -0.00000000000E+00 -0.00000000000E+00 -0.74505805969E-08  0.93827000000E+00  0.93827000000E+00 0.  1.
     999902    2    1    2    0    0  0.10855816257E-01 -0.19104601559E-01 -0.10352362829E-01  0.10196399616E+01  0.10193505998E+01 0.  0.
     999903    2    3    3    0    0  0.60273375115E-02  0.26867950486E-01  0.12360689762E+00  0.12830283507E+00  0.20609143281E-01 0.  0.
         14    1    1    2    0    0 -0.10855816257E-01  0.19104601559E-01  0.10352362829E-01  0.24290038359E-01  0.00000000000E+00 0.  1.
     999901    1    3    3    0    0  0.48284787457E-02 -0.45972552044E-01 -0.13395926045E+00  0.89133712657E+00  0.88000000000E+00 0.  1.
        -11    1    4    4    0    0  0.65432154572E-02  0.70844316466E-03  0.12284223473E-01  0.13945566592E-01  0.51100000000E-03 0. -1.
         11    1    4    4    0    0 -0.51587794568E-03  0.26159507321E-01  0.11132267415E+00  0.11435726848E+00  0.51100000000E-03 0.  1.
</event>
<event>
 8    1  0.1137518E+005  0.1043930E+01  0.7957747E-01            NaN
         13   -1    0    0    0    0  0.00000000000E+00  0.00000000000E+00  0.74505805969E-08  0.10566000000E+00  0.10566000000E+00 0.  1.
     999900   -1    0    0    0    0 -0.00000000000E+00 -0.00000000000E+00 -0.74505805969E-08  0.93827000000E+00  0.93827000000E+00 0.  1.
     999902    2    1    2    0    0  0.22731978040E-01 -0.25684918615E-02  0.80738282895E-02  0.10196704312E+01  0.10193818036E+01 0.  0.
     999903    2    3    3    0    0  0.78603016714E-01 -0.10225989138E+00  0.24301089150E-01  0.13213267306E+00  0.15263706417E-01 0.  0.
         14    1    1    2    0    0 -0.22731978040E-01  0.25684918615E-02 -0.80738282895E-02  0.24259568820E-01  0.00000000000E+00 0. -1.
     999901    1    3    3    0    0 -0.55871038674E-01  0.99691399518E-01 -0.16227260861E-01  0.88753775812E+00  0.88000000000E+00 0.  1.
        -11    1    4    4    0    0  0.41742363433E-01 -0.43649254411E-01  0.73147389242E-02  0.60839533547E-01  0.51100000000E-03 0. -1.
         11    1    4    4    0    0  0.36860653281E-01 -0.58610636968E-01  0.16986350226E-01  0.71293139510E-01  0.51100000000E-03 0.  1.
</event>
<event>
 8    1  0.1137518E+005  0.1043930E+01  0.7957747E-01            NaN
         13   -1    0    0    0    0  0.00000000000E+00  0.00000000000E+00  0.74505805969E-08  0.10566000000E+00  0.10566000000E+00 0. -1.
     999900   -1    0    0    0    0 -0.00000000000E+00 -0.00000000000E+00 -0.74505805969E-08  0.93827000000E+00  0.93827000000E+00 0.  1.
     999902    2    1    2    0    0  0.13779355360E-01 -0.19211807550E-01  0.36867396774E-02  0.10200018527E+01  0.10197211498E+01 0.  0.
     999903    2    3    3    0    0  0.13058951998E+00  0.77226618520E-03  0.23467687709E-04  0.13205061681E+00  0.19574108561E-01 0.  0.
         14    1    1    2    0    0 -0.13779355360E-01  0.19211807550E-01 -0.36867396774E-02  0.23928147294E-01  0.00000000000E+00 0.  1.
     999901    1    3    3    0    0 -0.11681016462E+00 -0.19984073735E-01  0.36632719897E-02  0.88795123589E+00  0.88000000000E+00 0. -1.
        -11    1    4    4    0    0  0.84378326299E-01  0.68947050904E-02 -0.68104046975E-02  0.84934572704E-01  0.51100000000E-03 0. -1.
         11    1    4    4    0    0  0.46211193682E-01 -0.61224389052E-02  0.68338723852E-02  0.47116044109E-01  0.51100000000E-03 0.  1.
</event>
<event>
 8    1  0.1137518E+005  0.1043930E+01  0.7957747E-01            NaN
         13   -1    0    0    0    0  0.00000000000E+00  0.00000000000E+00  0.74505805969E-08  0.10566000000E+00  0.10566000000E+00 0.  1.
     999900   -1    0    0    0    0 -0.00000000000E+00 -0.00000000000E+00 -0.74505805969E-08  0.93827000000E+00  0.93827000000E+00 0. -1.
     999902    2    1    2    0    0 -0.11771129385E-01 -0.16266008053E-01 -0.85508593918E-02  0.10221066249E+01  0.10218736189E+01 0.  0.
     999903    2    3    3    0    0 -0.12335106851E-01 -0.13045255503E+00  0.20358147750E-01  0.13425831787E+00  0.20995660554E-01 0.  0.
         14    1    1    2    0    0  0.11771129385E-01  0.16266008053E-01  0.85508593918E-02  0.21823375113E-01  0.00000000000E+00 0. -1.
     999901    1    3    3    0    0  0.56397746629E-03  0.11418654698E+00 -0.28909007142E-01  0.88784830702E+00  0.88000000000E+00 0. -1.
        -11    1    4    4    0    0 -0.79721652854E-02 -0.75642267564E-01  0.22216027062E-01  0.79240905100E-01  0.51100000000E-03 0. -1.
         11    1    4    4    0    0 -0.43629415660E-02 -0.54810287467E-01 -0.18578793124E-02  0.55017412769E-01  0.51100000000E-03 0.  1.
</event>
<event>
 8    1  0.1137518E+005  0.1043930E+01  0.7957747E-01            NaN
         13   -1    0    0    0    0  0.00000000000E+00  0.00000000000E+00  0.74505805969E-08  0.10566000000E+00  0.10566000000E+00 0.  1.
     999900   -1    0    0    0    0 -0.00000000000E+00 -0.00000000000E+00 -0.74505805969E-08  0.93827000000E+00  0.93827000000E+00 0. -1.
     999902    2    1    2    0    0 -0.21482775250E-01 -0.90926726444E-02  0.80382655575E-03  0.10205883534E+01  0.10203213977E+01 0.  0.
     999903    2    3    3    0    0  0.92003826811E-01 -0.86701951381E-01  0.21275594246E-01  0.12967786281E+00  0.19538799133E-01 0.  0.
         14    1    1    2    0    0  0.21482775250E-01  0.90926726444E-02 -0.80382655575E-03  0.23341646587E-01  0.00000000000E+00 0. -1.
     999901    1    3    3    0    0 -0.11348660206E+00  0.77609278736E-01 -0.20471767690E-01  0.89091049060E+00  0.88000000000E+00 0. -1.
        -11    1    4    4    0    0  0.18087704730E-01 -0.21829618056E-01  0.12346521170E-01  0.30925636499E-01  0.51100000000E-03 0.  1.
         11    1    4    4    0    0  0.73916122081E-01 -0.64872333325E-01  0.89290730752E-02  0.98752226312E-01  0.51100000000E-03 0. -1.
</event>
<event>
 8    1  0.1137518E+005  0.1043930E+01  0.7957747E-01            NaN
         13   -1    0    0    0    0  0.00000000000E+00  0.00000000000E+00  0.74505805969E-08  0.10566000000E+00  0.10566000000E+00 0. -1.
     999900   -1    0    0    0    0 -0.00000000000E+00 -0.00000000000E+00 -0.74505805969E-08  0.93827000000E+00  0.93827000000E+00 0.  1.
     999902    2    1    2    0    0  0.17628452430E-01  0.14379152643E-01  0.52210418873E-02  0.10205894421E+01  0.10203225116E+01 0.  0.
     999903    2    3    3    0    0  0.47796176499E-01  0.11451121056E+00 -0.43718183165E-01  0.13304701022E+00  0.19822602209E-01 0.  0.
         14    1    1    2    0    0 -0.17628452430E-01 -0.14379152643E-01 -0.52210418873E-02  0.23340557923E-01  0.00000000000E+00 0. -1.
     999901    1    3    3    0    0 -0.30167724070E-01 -0.10013205791E+00  0.48939225052E-01  0.88754243186E+00  0.88000000000E+00 0. -1.
        -11    1    4    4    0    0  0.18762686683E-01  0.41377266818E-01 -0.61458621809E-02  0.45849202434E-01  0.51100000000E-03 0. -1.
         11    1    4    4    0    0  0.29033489816E-01  0.73133943738E-01 -0.37572320984E-01  0.87197807786E-01  0.51100000000E-03 0.  1.
</event>
<event>
 8    1  0.1137518E+005  0.1043930E+01  0.7957747E-01            NaN
         13   -1    0    0    0    0  0.00000000000E+00  0.00000000000E+00  0.74505805969E-08  0.10566000000E+00  0.10566000000E+00 0. -1.
     999900   -1    0    0    0    0 -0.00000000000E+00 -0.00000000000E+00 -0.74505805969E-08  0.93827000000E+00  0.93827000000E+00 0.  1.
     999902    2    1    2    0    0 -0.14666097306E-01 -0.12054328563E-01  0.14787220443E-01  0.10198662693E+01  0.10195823381E+01 0.  0.
     999903    2    3    3    0    0 -0.92675880591E-01 -0.24290765597E-01  0.90492446989E-01  0.13309316527E+00  0.18602353185E-01 0.  0.
         14    1    1    2    0    0  0.14666097306E-01  0.12054328563E-01 -0.14787220443E-01  0.24063730711E-01  0.00000000000E+00 0.  1.
     999901    1    3    3    0    0  0.78009783285E-01  0.12236437034E-01 -0.75705226546E-01  0.88677310402E+00  0.88000000000E+00 0.  1.
        -11    1    4    4    0    0 -0.55706385695E-01 -0.10458503948E-01  0.64308556533E-01  0.85723003193E-01  0.51100000000E-03 0. -1.
         11    1    4    4    0    0 -0.36969494895E-01 -0.13832261649E-01  0.26183890456E-01  0.47370162081E-01  0.51100000000E-03 0.  1.
</event>
<event>
 8    1  0.1137518E+005  0.1043930E+01  0.7957747E-01            NaN
         13   -1    0    0    0    0  0.00000000000E+00  0.00000000000E+00  0.74505805969E-08  0.10566000000E+00  0.10566000000E+00 0. -1.
     999900   -1    0    0    0    0 -0.00000000000E+00 -0.00000000000E+00 -0.74505805969E-08  0.93827000000E+00  0.93827000000E+00 0. -1.
     999902    2    1    2    0    0 -0.11133599258E-01  0.75374531578E-02  0.16676929421E-01  0.10225082772E+01  0.10222838582E+01 0.  0.
     999903    2    3    3    0    0 -0.60228261475E-01 -0.10701838663E+00 -0.43013668752E-01  0.13172418788E+00  0.20511153465E-01 0.  0.
         14    1    1    2    0    0  0.11133599258E-01 -0.75374531578E-02 -0.16676929421E-01  0.21421722794E-01  0.00000000000E+00 0.  1.
     999901    1    3    3    0    0  0.49094662216E-01  0.11455583979E+00  0.59690598173E-01  0.89078408933E+00  0.88000000000E+00 0.  1.
        -11    1    4    4    0    0 -0.36231207484E-01 -0.44297848351E-01 -0.16947745475E-01  0.59686572711E-01  0.51100000000E-03 0.  1.
         11    1    4    4    0    0 -0.23997053990E-01 -0.62720538277E-01 -0.26065923277E-01  0.72037615169E-01  0.51100000000E-03 0. -1.
</event>
<event>
 8    1  0.1137518E+005  0.1043930E+01  0.7957747E-01            NaN
         13   -1    0    0    0    0  0.00000000000E+00  0.00000000000E+00  0.74505805969E-08  0.10566000000E+00  0.10566000000E+00 0. -1.
     999900   -1    0    0    0    0 -0.00000000000E+00 -0.00000000000E+00 -0.74505805969E-08  0.93827000000E+00  0.93827000000E+00 0.  1.
     999902    2    1    2    0    0  0.14222235514E-02  0.20288153604E-02 -0.22113339351E-01  0.10216782902E+01  0.10214359452E+01 0.  0.
     999903    2    3    3    0    0  0.10414943177E+00 -0.45343440760E-01  0.60413514978E-01  0.13060719784E+00  0.22479225468E-01 0.  0.
         14    1    1    2    0    0 -0.14222235514E-02 -0.20288153604E-02  0.22113339351E-01  0.22251709796E-01  0.00000000000E+00 0. -1.
     999901    1    3    3    0    0 -0.10272720822E+00  0.47372256120E-01 -0.82526854329E-01  0.89107109236E+00  0.88000000000E+00 0.  1.
        -11    1    4    4    0    0  0.22898828011E-01 -0.19971716330E-01  0.11932071976E-01  0.32647530383E-01  0.51100000000E-03 0.  1.
         11    1    4    4    0    0  0.81250603761E-01 -0.25371724429E-01  0.48481443002E-01  0.97959667459E-01  0.51100000000E-03 0. -1.
</event>
<event>
 8    1  0.1137518E+005  0.1043930E+01  0.7957747E-01            NaN
         13   -1    0    0    0    0  0.00000000000E+00  0.00000000000E+00  0.74505805969E-08  0.10566000000E+00  0.10566000000E+00 0. -1.
     999900   -1    0    0    0    0 -0.00000000000E+00 -0.00000000000E+00 -0.74505805969E-08  0.93827000000E+00  0.93827000000E+00 0.  1.
     999902    2    1    2    0    0  0.93085141497E-02 -0.12706028065E-01  0.18749868534E-01  0.10194422652E+01  0.10191481163E+01 0.  0.
     999903    2    3    3    0    0  0.97750537096E-01 -0.10168716210E-01 -0.81434521720E-01  0.12934938162E+00  0.21002640449E-01 0.  0.
         14    1    1    2    0    0 -0.93085141497E-02  0.12706028065E-01 -0.18749868534E-01  0.24487734785E-01  0.00000000000E+00 0.  1.
     999901    1    3    3    0    0 -0.88442022947E-01 -0.25373118545E-02  0.10018439025E+00  0.89009288359E+00  0.88000000000E+00 0. -1.
        -11    1    4    4    0    0  0.30625332192E-01  0.62108401490E-02 -0.22161137109E-01  0.38312695366E-01  0.51100000000E-03 0.  1.
         11    1    4    4    0    0  0.67125204905E-01 -0.16379556359E-01 -0.59273384611E-01  0.91036686255E-01  0.51100000000E-03 0. -1.
</event>
<event>
 8    1  0.1137518E+005  0.1043930E+01  0.7957747E-01            NaN
         13   -1    0    0    0    0  0.00000000000E+00  0.00000000000E+00  0.74505805969E-08  0.10566000000E+00  0.10566000000E+00 0.  1.
     999900   -1    0    0    0    0 -0.00000000000E+00 -0.00000000000E+00 -0.74505805969E-08  0.93827000000E+00  0.93827000000E+00 0.  1.
     999902    2    1    2    0    0  0.88646702890E-02  0.22576383050E-01  0.15575307564E-02  0.10196256516E+01  0.10193359446E+01 0.  0.
     999903    2    3    3    0    0 -0.22105170700E-01  0.12149996802E+00  0.43829632143E-01  0.13253380893E+00  0.19831617563E-01 0.  0.
         14    1    1    2    0    0 -0.88646702890E-02 -0.22576383050E-01 -0.15575307564E-02  0.24304348438E-01  0.00000000000E+00 0.  1.
     999901    1    3    3    0    0  0.30969840989E-01 -0.98923584967E-01 -0.42272101387E-01  0.88709184263E+00  0.88000000000E+00 0. -1.
        -11    1    4    4    0    0 -0.22540650391E-01  0.97301234141E-01  0.28445121121E-01  0.10385084074E+00  0.51100000000E-03 0.  1.
         11    1    4    4    0    0  0.43547969081E-03  0.24198733876E-01  0.15384511022E-01  0.28682968189E-01  0.51100000000E-03 0. -1.
</event>
<event>
 8    1  0.1137518E+005  0.1043930E+01  0.7957747E-01            NaN
         13   -1    0    0    0    0  0.00000000000E+00  0.00000000000E+00  0.74505805969E-08  0.10566000000E+00  0.10566000000E+00 0.  1.
     999900   -1    0    0    0    0 -0.00000000000E+00 -0.00000000000E+00 -0.74505805969E-08  0.93827000000E+00  0.93827000000E+00 0. -1.
     999902    2    1    2    0    0 -0.27983444518E-02 -0.21207397264E-01 -0.32438121705E-02  0.10222942253E+01  0.10220652505E+01 0.  0.
     999903    2    3    3    0    0 -0.54074586381E-01  0.27504818976E-02  0.11873461261E+00  0.13207966178E+00  0.20383885317E-01 0.  0.
         14    1    1    2    0    0  0.27983444518E-02  0.21207397264E-01  0.32438121705E-02  0.21635774721E-01  0.00000000000E+00 0.  1.
     999901    1    3    3    0    0  0.51276241930E-01 -0.23957879162E-01 -0.12197842478E+00  0.89021456350E+00  0.88000000000E+00 0. -1.
        -11    1    4    4    0    0 -0.19139277409E-01  0.10819882217E-01  0.44412375515E-01  0.49559075969E-01  0.51100000000E-03 0. -1.
         11    1    4    4    0    0 -0.34935308972E-01 -0.80694003196E-02  0.74322237093E-01  0.82520585807E-01  0.51100000000E-03 0.  1.
</event>
<event>
 8    1  0.1137518E+005  0.1043930E+01  0.7957747E-01            NaN
         13   -1    0    0    0    0  0.00000000000E+00  0.00000000000E+00  0.74505805969E-08  0.10566000000E+00  0.10566000000E+00 0. -1.
     999900   -1    0    0    0    0 -0.00000000000E+00 -0.00000000000E+00 -0.74505805969E-08  0.93827000000E+00  0.93827000000E+00 0. -1.
     999902    2    1    2    0    0  0.76513792914E-03  0.16893066814E-01  0.16920131010E-01  0.10200082113E+01  0.10197276593E+01 0.  0.
     999903    2    3    3    0    0  0.74816625398E-01 -0.16531475323E-01  0.10488212130E+00  0.13189890801E+00  0.22940040379E-01 0.  0.
         14    1    1    2    0    0 -0.76513792914E-03 -0.16893066814E-01 -0.16920131010E-01  0.23921788725E-01  0.00000000000E+00 0.  1.
     999901    1    3    3    0    0 -0.74051487469E-01  0.33424542137E-01 -0.87961990292E-01  0.88810930327E+00  0.88000000000E+00 0. -1.
        -11    1    4    4    0    0  0.10880986359E-01  0.46636933358E-02  0.22982610562E-01  0.25857443975E-01  0.51100000000E-03 0.  1.
         11    1    4    4    0    0  0.63935639039E-01 -0.21195168658E-01  0.81899510739E-01  0.10604146403E+00  0.51100000000E-03 0. -1.
</event>
<event>
 8    1  0.1137518E+005  0.1043930E+01  0.7957747E-01            NaN
         13   -1    0    0    0    0  0.00000000000E+00  0.00000000000E+00  0.74505805969E-08  0.10566000000E+00  0.10566000000E+00 0.  1.
     999900   -1    0    0    0    0 -0.00000000000E+00 -0.00000000000E+00 -0.74505805969E-08  0.93827000000E+00  0.93827000000E+00 0.  1.
     999902    2    1    2    0    0  0.18222468626E-02 -0.13858597729E-01 -0.20419141115E-01  0.10191848462E+01  0.10188844037E+01 0.  0.
     999903    2    3    3    0    0  0.37246649854E-01  0.84494026276E-01  0.84546850599E-01  0.12680264867E+00  0.20104436392E-01 0.  0.
         14    1    1    2    0    0 -0.18222468626E-02  0.13858597729E-01  0.20419141115E-01  0.24745153839E-01  0.00000000000E+00 0.  1.
     999901    1    3    3    0    0 -0.35424402991E-01 -0.98352624005E-01 -0.10496599171E+00  0.89238219749E+00  0.88000000000E+00 0. -1.
        -11    1    4    4    0    0  0.19016078725E-01  0.63534330597E-01  0.64747196330E-01  0.92685937273E-01  0.51100000000E-03 0. -1.
         11    1    4    4    0    0  0.18230571128E-01  0.20959695679E-01  0.19799654269E-01  0.34116711401E-01  0.51100000000E-03 0.  1.
</event>
<event>
 8    1  0.1137518E+005  0.1043930E+01  0.7957747E-01            NaN
         13   -1    0    0    0    0  0.00000000000E+00  0.00000000000E+00  0.74505805969E-08  0.10566000000E+00  0.10566000000E+00 0. -1.
     999900   -1    0    0    0    0 -0.00000000000E+00 -0.00000000000E+00 -0.74505805969E-08  0.93827000000E+00  0.93827000000E+00 0.  1.
     999902    2    1    2    0    0  0.21209343496E-01  0.10690984802E-01  0.22162229759E-01  0.10114446520E+01  0.10109228389E+01 0.  0.
     999903    2    3    3    0    0 -0.98059292381E-01 -0.36863896866E-01  0.58519520157E-01  0.12138379629E+00  0.18300820990E-01 0.  0.
         14    1    1    2    0    0 -0.21209343496E-01 -0.10690984802E-01 -0.22162229759E-01  0.32485348012E-01  0.00000000000E+00 0.  1.
     999901    1    3    3    0    0  0.11926863588E+00  0.47554881668E-01 -0.36357290398E-01  0.89006085569E+00  0.88000000000E+00 0. -1.
        -11    1    4    4    0    0 -0.59174830055E-01 -0.29292190979E-01  0.43203915524E-01  0.78908379796E-01  0.51100000000E-03 0.  1.
         11    1    4    4    0    0 -0.38884462325E-01 -0.75717058869E-02  0.15315604633E-01  0.42475416498E-01  0.51100000000E-03 0. -1.
</event>
<event>
 8    1  0.1137518E+005  0.1043930E+01  0.7957747E-01            NaN
         13   -1    0    0    0    0  0.00000000000E+00  0.00000000000E+00  0.74505805969E-08  0.10566000000E+00  0.10566000000E+00 0. -1.
     999900   -1    0    0    0    0 -0.00000000000E+00 -0.00000000000E+00 -0.74505805969E-08  0.93827000000E+00  0.93827000000E+00 0.  1.
     999902    2    1    2    0    0 -0.53056397079E-02  0.90139512413E-02 -0.21239750348E-01  0.10202545248E+01  0.10199797877E+01 0.  0.
     999903    2    3    3    0    0  0.65013152751E-01 -0.59420816117E-01 -0.95825851417E-01  0.13166511659E+00  0.19888833788E-01 0.  0.
         14    1    1    2    0    0  0.53056397079E-02 -0.90139512413E-02  0.21239750348E-01  0.23675475170E-01  0.00000000000E+00 0. -1.
     999901    1    3    3    0    0 -0.70318792458E-01  0.68434767358E-01  0.74586101070E-01  0.88858940824E+00  0.88000000000E+00 0.  1.
        -11    1    4    4    0    0  0.41972504383E-01 -0.40201978763E-01 -0.48857633119E-01  0.75929043558E-01  0.51100000000E-03 0. -1.
         11    1    4    4    0    0  0.23040648368E-01 -0.19218837354E-01 -0.46968218298E-01  0.55736073037E-01  0.51100000000E-03 0.  1.
</event>
<event>
 7    1  0.1137518E+005  0.1043930E+01  0.7957747E-01            NaN
         13   -1    0    0    0    0  0.00000000000E+00  0.00000000000E+00  0.74505805969E-08  0.10566000000E+00  0.10566000000E+00 0.  1.
     999900   -1    0    0    0    0 -0.00000000000E+00 -0.00000000000E+00 -0.74505805969E-08  0.93827000000E+00  0.93827000000E+00 0. -1.
     999903    2    1    2    0    0  0.15198850603E-01 -0.10700647583E-03 -0.69623701021E-01  0.74307126091E-01  0.21049292959E-01 0.  0.
         14    1    1    2    0    0  0.17737205066E-01  0.32653192169E-01  0.80147297638E-01  0.88342677801E-01  0.00000000000E+00 0.  1.
     999901    1    1    2    0    0 -0.32936055669E-01 -0.32546185694E-01 -0.10523596617E-01  0.88128019611E+00  0.88000000000E+00 0. -1.
        -11    1    3    3    0    0  0.12644779970E-01 -0.68207740866E-02 -0.62665386511E-01  0.64293274977E-01  0.51100000000E-03 0.  1.
         11    1    3    3    0    0  0.25540706325E-02  0.67137676108E-02 -0.69583145098E-02  0.10013851115E-01  0.51100000000E-03 0. -1.
</event>
<event>
 8    1  0.1137518E+005  0.1043930E+01  0.7957747E-01            NaN
         13   -1    0    0    0    0  0.00000000000E+00  0.00000000000E+00  0.74505805969E-08  0.10566000000E+00  0.10566000000E+00 0. -1.
     999900   -1    0    0    0    0 -0.00000000000E+00 -0.00000000000E+00 -0.74505805969E-08  0.93827000000E+00  0.93827000000E+00 0.  1.
     999902    2    1    2    0    0 -0.58248213067E-02  0.96391946850E-02  0.19601175094E-01  0.10213236141E+01  0.10210733941E+01 0.  0.
     999903    2    3    3    0    0  0.11606472764E+00 -0.23423524596E-01  0.53814698236E-01  0.13164908334E+00  0.20390607969E-01 0.  0.
         14    1    1    2    0    0  0.58248213067E-02 -0.96391946850E-02 -0.19601175094E-01  0.22606385879E-01  0.00000000000E+00 0.  1.
     999901    1    3    3    0    0 -0.12188954894E+00  0.33062719281E-01 -0.34213523142E-01  0.88967453078E+00  0.88000000000E+00 0. -1.
        -11    1    4    4    0    0  0.47078463044E-01 -0.64648771322E-02  0.11266719351E-01  0.48840315364E-01  0.51100000000E-03 0.  1.
         11    1    4    4    0    0  0.68986264592E-01 -0.16958647463E-01  0.42547978885E-01  0.82808767980E-01  0.51100000000E-03 0. -1.
</event>
<event>
 7    1  0.1137518E+005  0.1043930E+01  0.7957747E-01            NaN
         13   -1    0    0    0    0  0.00000000000E+00  0.00000000000E+00  0.74505805969E-08  0.10566000000E+00  0.10566000000E+00 0.  1.
     999900   -1    0    0    0    0 -0.00000000000E+00 -0.00000000000E+00 -0.74505805969E-08  0.93827000000E+00  0.93827000000E+00 0. -1.
     999902    2    1    2    0    0  0.65088134163E-02 -0.29016527678E-02  0.23124897027E-01  0.10197319608E+01  0.10194448130E+01 0.  0.
         14    1    1    2    0    0 -0.65088134163E-02  0.29016527678E-02 -0.23124897027E-01  0.24198039246E-01  0.00000000000E+00 0. -1.
     999901    1    3    3    0    0  0.62672992512E-01  0.15308516408E-01  0.12143528034E+00  0.89067883211E+00  0.88000000000E+00 0.  1.
        -11    1    3    3    0    0 -0.68623309457E-01 -0.18594923979E-01 -0.82389187623E-01  0.10882632566E+00  0.51100000000E-03 0.  1.
         11    1    3    3    0    0  0.12459130362E-01  0.38475480344E-03 -0.15921195687E-01  0.20226802979E-01  0.51100000000E-03 0. -1.
</event>
<event>
 8    1  0.1137518E+005  0.1043930E+01  0.7957747E-01            NaN
         13   -1    0    0    0    0  0.00000000000E+00  0.00000000000E+00  0.74505805969E-08  0.10566000000E+00  0.10566000000E+00 0. -1.
     999900   -1    0    0    0    0 -0.00000000000E+00 -0.00000000000E+00 -0.74505805969E-08  0.93827000000E+00  0.93827000000E+00 0. -1.
     999902    2    1    2    0    0  0.22896516953E-01 -0.10096356985E-01 -0.15336855613E-03  0.10189058030E+01  0.10185984611E+01 0.  0.
     999903    2    3    3    0    0  0.11701972695E+00  0.48068391470E-01 -0.27450505929E-01  0.13155725237E+00  0.23443413175E-01 0.  0.
         14    1    1    2    0    0 -0.22896516953E-01  0.10096356985E-01  0.15336855613E-03  0.25024196988E-01  0.00000000000E+00 0. -1.
     999901    1    3    3    0    0 -0.94123209995E-01 -0.58164748455E-01  0.27297137373E-01  0.88734855064E+00  0.88000000000E+00 0. -1.
        -11    1    4    4    0    0  0.69821921041E-01  0.28826810411E-01 -0.45498272477E-02  0.75677260160E-01  0.51100000000E-03 0. -1.
         11    1    4    4    0    0  0.47197805907E-01  0.19241581059E-01 -0.22900678681E-01  0.55879992208E-01  0.51100000000E-03 0.  1.
</event>
<event>
 8    1  0.1137518E+005  0.1043930E+01  0.7957747E-01            NaN
         13   -1    0    0    0    0  0.00000000000E+00  0.00000000000E+00  0.74505805969E-08  0.10566000000E+00  0.10566000000E+00 0.  1.
     999900   -1    0    0    0    0 -0.00000000000E+00 -0.00000000000E+00 -0.74505805969E-08  0.93827000000E+00  0.93827000000E+00 0.  1.
     999902    2    1    2    0    0  0.19342983706E-01  0.71817101599E-02  0.10572263999E-01  0.10207459377E+01  0.10204826155E+01 0.  0.
     999903    2    3    3    0    0  0.92426356988E-01 -0.39728099356E-01  0.85122623849E-01  0.13333427119E+00  0.20278398298E-01 0.  0.
         14    1    1    2    0    0 -0.19342983706E-01 -0.71817101599E-02 -0.10572263999E-01  0.23184062318E-01  0.00000000000E+00 0. -1.
     999901    1    3    3    0    0 -0.73083373281E-01  0.46909809516E-01 -0.74550359850E-01  0.88741166650E+00  0.88000000000E+00 0.  1.
        -11    1    4    4    0    0  0.73873561436E-01 -0.39286711041E-01  0.73944141722E-01  0.11166353908E+00  0.51100000000E-03 0. -1.
         11    1    4    4    0    0  0.18552795552E-01 -0.44138831531E-03  0.11178482127E-01  0.21670732108E-01  0.51100000000E-03 0.  1.
</event>
<event>
 8    1  0.1137518E+005  0.1043930E+01  0.7957747E-01            NaN
         13   -1    0    0    0    0  0.00000000000E+00  0.00000000000E+00  0.74505805969E-08  0.10566000000E+00  0.10566000000E+00 0. -1.
     999900   -1    0    0    0    0 -0.00000000000E+00 -0.00000000000E+00 -0.74505805969E-08  0.93827000000E+00  0.93827000000E+00 0. -1.
     999902    2    1    2    0    0  0.16634782877E-01 -0.89018851189E-02  0.14227627964E-01  0.10202998295E+01  0.10200261551E+01 0.  0.
     999903    2    3    3    0    0 -0.97662125615E-01  0.17309234566E-01  0.81640355052E-01  0.12996546431E+00  0.19707205743E-01 0.  0.
         14    1    1    2    0    0 -0.16634782877E-01  0.89018851189E-02 -0.14227627964E-01  0.23630170492E-01  0.00000000000E+00 0.  1.
     999901    1    3    3    0    0  0.11429690849E+00 -0.26211119685E-01 -0.67412727089E-01  0.89033436520E+00  0.88000000000E+00 0.  1.
        -11    1    4    4    0    0 -0.38952204993E-01  0.22782279928E-02  0.21359323107E-01  0.44485350411E-01  0.51100000000E-03 0.  1.
         11    1    4    4    0    0 -0.58709920622E-01  0.15031006573E-01  0.60281031945E-01  0.85480113894E-01  0.51100000000E-03 0. -1.
</event>
<event>
 8    1  0.1137518E+005  0.1043930E+01  0.7957747E-01            NaN
         13   -1    0    0    0    0  0.00000000000E+00  0.00000000000E+00  0.74505805969E-08  0.10566000000E+00  0.10566000000E+00 0. -1.
     999900   -1    0    0    0    0 -0.00000000000E+00 -0.00000000000E+00 -0.74505805969E-08  0.93827000000E+00  0.93827000000E+00 0.  1.
     999902    2    1    2    0    0 -0.16888885248E-01 -0.94841459323E-02 -0.10758343250E-01  0.10217731632E+01  0.10215329028E+01 0.  0.
     999903    2    3    3    0    0  0.78208275034E-01 -0.57995679681E-01  0.84073656329E-01  0.13026323785E+00  0.20496299669E-01 0.  0.
         14    1    1    2    0    0  0.16888885248E-01  0.94841459323E-02  0.10758343250E-01  0.22156836834E-01  0.00000000000E+00 0. -1.
     999901    1    3    3    0    0 -0.95097160282E-01  0.48511533749E-01 -0.94831999579E-01  0.89150992532E+00  0.88000000000E+00 0.  1.
        -11    1    4    4    0    0  0.41363899180E-02 -0.96941804001E-02  0.13431869824E-01  0.17081074414E-01  0.51100000000E-03 0. -1.
         11    1    4    4    0    0  0.74071885116E-01 -0.48301499281E-01  0.70641786505E-01  0.11318216343E+00  0.51100000000E-03 0.  1.
</event>
<event>
 8    1  0.1137518E+005  0.1043930E+01  0.7957747E-01            NaN
         13   -1    0    0    0    0  0.00000000000E+00  0.00000000000E+00  0.74505805969E-08  0.10566000000E+00  0.10566000000E+00 0. -1.
     999900   -1    0    0    0    0 -0.00000000000E+00 -0.00000000000E+00 -0.74505805969E-08  0.93827000000E+00  0.93827000000E+00 0.  1.
     999902    2    1    2    0    0  0.82032532701E-02  0.52262338942E-02  0.18287449570E-01  0.10232167748E+01  0.10230071019E+01 0.  0.
     999903    2    3    3    0    0  0.11552002275E+00 -0.23482049876E-01  0.63054534229E-01  0.13510352393E+00  0.19514240171E-01 0.  0.
         14    1    1    2    0    0 -0.82032532701E-02 -0.52262338942E-02 -0.18287449570E-01  0.20713225164E-01  0.00000000000E+00 0.  1.
     999901    1    3    3    0    0 -0.10731676948E+00  0.28708283770E-01 -0.44767084659E-01  0.88811325091E+00  0.88000000000E+00 0.  1.
        -11    1    4    4    0    0  0.62098950267E-01 -0.13378086313E-01  0.44863567387E-01  0.77770518948E-01  0.51100000000E-03 0. -1.
         11    1    4    4    0    0  0.53421072480E-01 -0.10103963563E-01  0.18190966841E-01  0.57333004981E-01  0.51100000000E-03 0.  1.
</event>
<event>
 8    1  0.1137518E+005  0.1043930E+01  0.7957747E-01            NaN
         13   -1    0    0    0    0  0.00000000000E+00  0.00000000000E+00  0.74505805969E-08  0.10566000000E+00  0.10566000000E+00 0. -1.
     999900   -1    0    0    0    0 -0.00000000000E+00 -0.00000000000E+00 -0.74505805969E-08  0.93827000000E+00  0.93827000000E+00 0. -1.
     999902    2    1    2    0    0 -0.15575202015E-01 -0.45974809997E-02  0.16353803949E-01  0.10208828602E+01  0.10206226744E+01 0.  0.
     999903    2    3    3    0    0  0.11138157016E+00  0.30060109090E-03  0.64779956465E-01  0.13044077592E+00  0.20307848978E-01 0.  0.
         14    1    1    2    0    0  0.15575202015E-01  0.45974809997E-02 -0.16353803949E-01  0.23047139800E-01  0.00000000000E+00 0. -1.
     999901    1    3    3    0    0 -0.12695677218E+00 -0.48980820906E-02 -0.48426152516E-01  0.89044208428E+00  0.88000000000E+00 0. -1.
        -11    1    4    4    0    0  0.60716782133E-01 -0.52245599304E-02  0.45054465514E-01  0.75789112957E-01  0.51100000000E-03 0.  1.
         11    1    4    4    0    0  0.50664788029E-01  0.55251610213E-02  0.19725490951E-01  0.54651662963E-01  0.51100000000E-03 0. -1.
</event>
<event>
 8    1  0.1137518E+005  0.1043930E+01  0.7957747E-01            NaN
         13   -1    0    0    0    0  0.00000000000E+00  0.00000000000E+00  0.74505805969E-08  0.10566000000E+00  0.10566000000E+00 0. -1.
     999900   -1    0    0    0    0 -0.00000000000E+00 -0.00000000000E+00 -0.74505805969E-08  0.93827000000E+00  0.93827000000E+00 0. -1.
     999902    2    1    2    0    0  0.24176510163E-02 -0.28507324446E-01  0.81440832814E-02  0.10141837620E+01  0.10137474362E+01 0.  0.
     999903    2    3    3    0    0  0.45453791776E-01  0.39706871498E-01 -0.10542208733E+00  0.12322778044E+00  0.20702331899E-01 0.  0.
         14    1    1    2    0    0 -0.24176510163E-02  0.28507324446E-01 -0.81440832814E-02  0.29746238014E-01  0.00000000000E+00 0.  1.
     999901    1    3    3    0    0 -0.43036140759E-01 -0.68214195944E-01  0.11356617061E+00  0.89095598154E+00  0.88000000000E+00 0.  1.
        -11    1    4    4    0    0  0.60617085064E-02  0.16932734707E-02 -0.27811202385E-02  0.68997996960E-02  0.51100000000E-03 0. -1.
         11    1    4    4    0    0  0.39392083269E-01  0.38013598027E-01 -0.10264096709E+00  0.11632798075E+00  0.51100000000E-03 0.  1.
</event>
<event>
 8    1  0.1137518E+005  0.1043930E+01  0.7957747E-01            NaN
         13   -1    0    0    0    0  0.00000000000E+00  0.00000000000E+00  0.74505805969E-08  0.10566000000E+00  0.10566000000E+00 0. -1.
     999900   -1    0    0    0    0 -0.00000000000E+00 -0.00000000000E+00 -0.74505805969E-08  0.93827000000E+00  0.93827000000E+00 0. -1.
     999902    2    1    2    0    0  0.20882411800E-01  0.21485115372E-02  0.98996947732E-02  0.10207201921E+01  0.10204562781E+01 0.  0.
     999903    2    3    3    0    0  0.98869570208E-01  0.11615106778E-01 -0.84663767638E-01  0.13217426664E+00  0.19798499732E-01 0.  0.
         14    1    1    2    0    0 -0.20882411800E-01 -0.21485115372E-02 -0.98996947732E-02  0.23209807863E-01  0.00000000000E+00 0.  1.
     999901    1    3    3    0    0 -0.77987158407E-01 -0.94665952404E-02  0.94563462411E-01  0.88854592550E+00  0.88000000000E+00 0.  1.
        -11    1    4    4    0    0  0.25907354571E-01 -0.41494061101E-02 -0.15910966758E-01  0.30689225733E-01  0.51100000000E-03 0.  1.
         11    1    4    4    0    0  0.72962215636E-01  0.15764512888E-01 -0.68752800880E-01  0.10148504090E+00  0.51100000000E-03 0. -1.
</event>
<event>
 8    1  0.1137518E+005  0.1043930E+01  0.7957747E-01            NaN
         13   -1    0    0    0    0  0.00000000000E+00  0.00000000000E+00  0.74505805969E-08  0.10566000000E+00  0.10566000000E+00 0.  1.
     999900   -1    0    0    0    0 -0.00000000000E+00 -0.00000000000E+00 -0.74505805969E-08  0.93827000000E+00  0.93827000000E+00 0.  1.
     999902    2    1    2    0    0 -0.16168007860E-01  0.17466708140E-01 -0.32200938765E-02  0.10199121030E+01  0.10196292652E+01 0.  0.
     999903    2    3    3    0    0 -0.13318174013E-01 -0.12134947512E+00 -0.35377931912E-01  0.12844579358E+00  0.18537932807E-01 0.  0.
         14    1    1    2    0    0  0.16168007860E-01 -0.17466708140E-01  0.32200938765E-02  0.24017896994E-01  0.00000000000E+00 0.  1.
     999901    1    3    3    0    0 -0.28498338473E-02  0.13881618326E+00  0.32157838036E-01  0.89146630942E+00  0.88000000000E+00 0.  1.
        -11    1    4    4    0    0 -0.45780408620E-02 -0.61825599709E-01 -0.27300375756E-01  0.67741677533E-01  0.51100000000E-03 0. -1.
         11    1    4    4    0    0 -0.87401331511E-02 -0.59523875408E-01 -0.80775561562E-02  0.60704116051E-01  0.51100000000E-03 0.  1.
</event>
<event>
 8    1  0.1137518E+005  0.1043930E+01  0.7957747E-01            NaN
         13   -1    0    0    0    0  0.00000000000E+00  0.00000000000E+00  0.74505805969E-08  0.10566000000E+00  0.10566000000E+00 0.  1.
     999900   -1    0    0    0    0 -0.00000000000E+00 -0.00000000000E+00 -0.74505805969E-08  0.93827000000E+00  0.93827000000E+00 0. -1.
     999902    2    1    2    0    0 -0.13475365647E-01  0.13548552507E-01 -0.13907673320E-01  0.10202958694E+01  0.10200221022E+01 0.  0.
     999903    2    3    3    0    0 -0.40623325198E-01 -0.96854472646E-01 -0.76761965622E-01  0.13075862914E+00  0.13205162081E-01 0.  0.
         14    1    1    2    0    0  0.13475365647E-01 -0.13548552507E-01  0.13907673320E-01  0.23634130649E-01  0.00000000000E+00 0.  1.
     999901    1    3    3    0    0  0.27147959551E-01  0.11040302515E+00  0.62854292301E-01  0.88953724022E+00  0.88000000000E+00 0.  1.
        -11    1    4    4    0    0 -0.15932883247E-01 -0.49431373415E-01 -0.43846148414E-01  0.67971047498E-01  0.51100000000E-03 0.  1.
         11    1    4    4    0    0 -0.24690441951E-01 -0.47423099231E-01 -0.32915817208E-01  0.62787581637E-01  0.51100000000E-03 0. -1.
</event>
<event>
 8    1  0.1137518E+005  0.1043930E+01  0.7957747E-01            NaN
         13   -1    0    0    0    0  0.00000000000E+00  0.00000000000E+00  0.74505805969E-08  0.10566000000E+00  0.10566000000E+00 0.  1.
     999900   -1    0    0    0    0 -0.00000000000E+00 -0.00000000000E+00 -0.74505805969E-08  0.93827000000E+00  0.93827000000E+00 0.  1.
     999902    2    1    2    0    0  0.17058981889E-01 -0.25550539401E-02  0.14140184107E-01  0.10216256961E+01  0.10213821915E+01 0.  0.
     999903    2    3    3    0    0 -0.60326991401E-01  0.11153602000E+00  0.24632731043E-01  0.13083085133E+00  0.20743928557E-01 0.  0.
         14    1    1    2    0    0 -0.17058981889E-01  0.25550539401E-02 -0.14140184107E-01  0.22304303852E-01  0.00000000000E+00 0. -1.
     999901    1    3    3    0    0  0.77385973290E-01 -0.11409107394E+00 -0.10492546936E-01  0.89079484482E+00  0.88000000000E+00 0.  1.
        -11    1    4    4    0    0 -0.40455811560E-01  0.92522775962E-01  0.19062158988E-01  0.10276557686E+00  0.51100000000E-03 0.  1.
         11    1    4    4    0    0 -0.19871179841E-01  0.19013244038E-01  0.55705720553E-02  0.28065274471E-01  0.51100000000E-03 0. -1.
</event>
<event>
 8    1  0.1137518E+005  0.1043930E+01  0.7957747E-01            NaN
         13   -1    0    0    0    0  0.00000000000E+00  0.00000000000E+00  0.74505805969E-08  0.10566000000E+00  0.10566000000E+00 0. -1.
     999900   -1    0    0    0    0 -0.00000000000E+00 -0.00000000000E+00 -0.74505805969E-08  0.93827000000E+00  0.93827000000E+00 0. -1.
     999902    2    1    2    0    0 -0.85112147686E-02 -0.14192571427E-01  0.16450130735E-01  0.10205959763E+01  0.10203291970E+01 0.  0.
     999903    2    3    3    0    0  0.59568090635E-01 -0.14158229226E-01  0.11653623119E+00  0.13230997478E+00  0.13282445951E-01 0.  0.
         14    1    1    2    0    0  0.85112147686E-02  0.14192571427E-01 -0.16450130735E-01  0.23334023694E-01  0.00000000000E+00 0.  1.
     999901    1    3    3    0    0 -0.68079305404E-01 -0.34342201143E-04 -0.10008610045E+00  0.88828600153E+00  0.88000000000E+00 0. -1.
        -11    1    4    4    0    0  0.57285842422E-01 -0.14975261695E-01  0.10532763294E+00  0.12083086355E+00  0.51100000000E-03 0.  1.
         11    1    4    4    0    0  0.22822482136E-02  0.81703246897E-03  0.11208598243E-01  0.11479111226E-01  0.51100000000E-03 0. -1.
</event>
<event>
 8    1  0.1137518E+005  0.1043930E+01  0.7957747E-01            NaN
         13   -1    0    0    0    0  0.00000000000E+00  0.00000000000E+00  0.74505805969E-08  0.10566000000E+00  0.10566000000E+00 0.  1.
     999900   -1    0    0    0    0 -0.00000000000E+00 -0.00000000000E+00 -0.74505805969E-08  0.93827000000E+00  0.93827000000E+00 0. -1.
     999902    2    1    2    0    0  0.16046822402E-01  0.11145259038E-01  0.11432133336E-01  0.10212935033E+01  0.10210426088E+01 0.  0.
     999903    2    3    3    0    0 -0.84127763272E-01  0.91960644298E-01  0.39640919641E-01  0.13148351816E+00  0.13500829042E-01 0.  0.
         14    1    1    2    0    0 -0.16046822402E-01 -0.11145259038E-01 -0.11432133336E-01  0.22636496656E-01  0.00000000000E+00 0. -1.
     999901    1    3    3    0    0  0.10017458567E+00 -0.80815385260E-01 -0.28208786305E-01  0.88980998518E+00  0.88000000000E+00 0. -1.
        -11    1    4    4    0    0 -0.49665979258E-01  0.54594055649E-01  0.30367442422E-01  0.79810169077E-01  0.51100000000E-03 0.  1.
         11    1    4    4    0    0 -0.34461784015E-01  0.37366588649E-01  0.92734772194E-02  0.51673349083E-01  0.51100000000E-03 0. -1.
</event>
<event>
 8    1  0.1137518E+005  0.1043930E+01  0.7957747E-01            NaN
         13   -1    0    0    0    0  0.00000000000E+00  0.00000000000E+00  0.74505805969E-08  0.10566000000E+00  0.10566000000E+00 0.  1.
     999900   -1    0    0    0    0 -0.00000000000E+00 -0.00000000000E+00 -0.74505805969E-08  0.93827000000E+00  0.93827000000E+00 0.  1.
     999902    2    1    2    0    0  0.40309804210E-02  0.11929647478E-01 -0.20376195357E-01  0.10199768242E+01  0.10196955268E+01 0.  0.
     999903    2    3    3    0    0  0.23772669607E-01 -0.10160547399E+00  0.71230638663E-01  0.12774828281E+00  0.18894647691E-01 0.  0.
         14    1    1    2    0    0 -0.40309804210E-02 -0.11929647478E-01  0.20376195357E-01  0.23953175768E-01  0.00000000000E+00 0.  1.
     999901    1    3    3    0    0 -0.19741689186E-01  0.11353512146E+00 -0.91606834020E-01  0.89222854143E+00  0.88000000000E+00 0.  1.
        -11    1    4    4    0    0 -0.12241757877E-02 -0.32993368766E-01  0.22406462227E-01  0.39904531816E-01  0.51100000000E-03 0.  1.
         11    1    4    4    0    0  0.24996845395E-01 -0.68612105220E-01  0.48824176435E-01  0.87843750990E-01  0.51100000000E-03 0. -1.
</event>
<event>
 8    1  0.1137518E+005  0.1043930E+01  0.7957747E-01            NaN
         13   -1    0    0    0    0  0.00000000000E+00  0.00000000000E+00  0.74505805969E-08  0.10566000000E+00  0.10566000000E+00 0. -1.
     999900   -1    0    0    0    0 -0.00000000000E+00 -0.00000000000E+00 -0.74505805969E-08  0.93827000000E+00  0.93827000000E+00 0.  1.
     999902    2    1    2    0    0  0.20882182258E-01 -0.12240242070E-01  0.40127536379E-03  0.10197215287E+01  0.10194341303E+01 0.  0.
     999903    2    3    3    0    0 -0.23225292797E-01 -0.11584429743E+00 -0.53033804432E-01  0.13093889080E+00  0.19315621594E-01 0.  0.
         14    1    1    2    0    0 -0.20882182258E-01  0.12240242070E-01 -0.40127536379E-03  0.24208471321E-01  0.00000000000E+00 0. -1.
     999901    1    3    3    0    0  0.44107475055E-01  0.10360405536E+00  0.53435079796E-01  0.88878263788E+00  0.88000000000E+00 0. -1.
        -11    1    4    4    0    0 -0.10320494837E-01 -0.34654692710E-01 -0.73981031252E-02  0.36911426298E-01  0.51100000000E-03 0.  1.
         11    1    4    4    0    0 -0.12904797960E-01 -0.81189604725E-01 -0.45635701307E-01  0.94027464501E-01  0.51100000000E-03 0. -1.
</event>
<event>
 8    1  0.1137518E+005  0.1043930E+01  0.7957747E-01            NaN
         13   -1    0    0    0    0  0.00000000000E+00  0.00000000000E+00  0.74505805969E-08  0.10566000000E+00  0.10566000000E+00 0. -1.
     999900   -1    0    0    0    0 -0.00000000000E+00 -0.00000000000E+00 -0.74505805969E-08  0.93827000000E+00  0.93827000000E+00 0.  1.
     999902    2    1    2    0    0 -0.84704057460E-02 -0.32570957302E-02 -0.24076261940E-01  0.10182001956E+01  0.10178750490E+01 0.  0.
     999903    2    3    3    0    0 -0.12441050500E+00  0.76126319199E-03  0.25364334514E-01  0.12921052951E+00  0.23946987140E-01 0.  0.
         14    1    1    2    0    0  0.84704057460E-02  0.32570957302E-02  0.24076261940E-01  0.25729804412E-01  0.00000000000E+00 0. -1.
     999901    1    3    3    0    0  0.11594009926E+00 -0.40183589222E-02 -0.49440596454E-01  0.88898966608E+00  0.88000000000E+00 0. -1.
        -11    1    4    4    0    0 -0.84352358849E-01  0.94986688469E-02  0.23873795708E-01  0.88180294827E-01  0.51100000000E-03 0. -1.
         11    1    4    4    0    0 -0.40058146153E-01 -0.87374056549E-02  0.14905388059E-02  0.41030234678E-01  0.51100000000E-03 0.  1.
</event>
<event>
 8    1  0.1137518E+005  0.1043930E+01  0.7957747E-01            NaN
         13   -1    0    0    0    0  0.00000000000E+00  0.00000000000E+00  0.74505805969E-08  0.10566000000E+00  0.10566000000E+00 0.  1.
     999900   -1    0    0    0    0 -0.00000000000E+00 -0.00000000000E+00 -0.74505805969E-08  0.93827000000E+00  0.93827000000E+00 0. -1.
     999902    2    1    2    0    0 -0.41774250202E-02 -0.34256331517E-02 -0.22994976663E-01  0.10203089333E+01  0.10200354722E+01 0.  0.
     999903    2    3    3    0    0 -0.11897063561E+00  0.14844023353E-01  0.46263528011E-01  0.12996742461E+00  0.19412889301E-01 0.  0.
         14    1    1    2    0    0  0.41774250202E-02  0.34256331517E-02  0.22994976663E-01  0.23621066742E-01  0.00000000000E+00 0.  1.
     999901    1    3    3    0    0  0.11479321059E+00 -0.18269656505E-01 -0.69258504674E-01  0.89034150864E+00  0.88000000000E+00 0. -1.
        -11    1    4    4    0    0 -0.43218597911E-01  0.44541436371E-02  0.26854899701E-01  0.51079676584E-01  0.51100000000E-03 0. -1.
         11    1    4    4    0    0 -0.75752037695E-01  0.10389879716E-01  0.19408628310E-01  0.78887748030E-01  0.51100000000E-03 0.  1.
</event>
<event>
 8    1  0.1137518E+005  0.1043930E+01  0.7957747E-01            NaN
         13   -1    0    0    0    0  0.00000000000E+00  0.00000000000E+00  0.74505805969E-08  0.10566000000E+00  0.10566000000E+00 0. -1.
     999900   -1    0    0    0    0 -0.00000000000E+00 -0.00000000000E+00 -0.74505805969E-08  0.93827000000E+00  0.93827000000E+00 0.  1.
     999902    2    1    2    0    0 -0.19188917359E-01  0.26340577253E-02 -0.14543377371E-01  0.10197088804E+01  0.10194211780E+01 0.  0.
     999903    2    3    3    0    0 -0.86949052627E-01 -0.91032350971E-01  0.30313221079E-01  0.13101492493E+00  0.19974796802E-01 0.  0.
         14    1    1    2    0    0  0.19188917359E-01 -0.26340577253E-02  0.14543377371E-01  0.24221119604E-01  0.00000000000E+00 0. -1.
     999901    1    3    3    0    0  0.67760135268E-01  0.93666408696E-01 -0.44856598451E-01  0.88869395546E+00  0.88000000000E+00 0.  1.
        -11    1    4    4    0    0 -0.60983088322E-01 -0.75758771198E-01  0.21220237917E-01  0.99543398038E-01  0.51100000000E-03 0. -1.
         11    1    4    4    0    0 -0.25965964305E-01 -0.15273579772E-01  0.90929831626E-02  0.31471526896E-01  0.51100000000E-03 0.  1.
</event>
<event>
 8    1  0.1137518E+005  0.1043930E+01  0.7957747E-01            NaN
         13   -1    0    0    0    0  0.00000000000E+00  0.00000000000E+00  0.74505805969E-08  0.10566000000E+00  0.10566000000E+00 0. -1.
     999900   -1    0    0    0    0 -0.00000000000E+00 -0.00000000000E+00 -0.74505805969E-08  0.93827000000E+00  0.93827000000E+00 0. -1.
     999902    2    1    2    0    0 -0.17873236485E-01  0.13496739190E-01 -0.87702520520E-02  0.10198773105E+01  0.10195936429E+01 0.  0.
     999903    2    3    3    0    0 -0.14874027415E-01 -0.12566658934E+00 -0.13941660074E-01  0.12892154800E+00  0.20324056831E-01 0.  0.
         14    1    1    2    0    0  0.17873236485E-01 -0.13496739190E-01  0.87702520520E-02  0.24052689502E-01  0.00000000000E+00 0.  1.
     999901    1    3    3    0    0 -0.29992090704E-02  0.13916332853E+00  0.51714080216E-02  0.89095576250E+00  0.88000000000E+00 0.  1.
        -11    1    4    4    0    0 -0.96009680627E-02 -0.25007492931E-01 -0.79434867813E-02  0.27944827673E-01  0.51100000000E-03 0.  1.
         11    1    4    4    0    0 -0.52730593519E-02 -0.10065909641E+00 -0.59981732922E-02  0.10097672033E+00  0.51100000000E-03 0. -1.
</event>
<event>
 8    1  0.1137518E+005  0.1043930E+01  0.7957747E-01            NaN
         13   -1    0    0    0    0  0.00000000000E+00  0.00000000000E+00  0.74505805969E-08  0.10566000000E+00  0.10566000000E+00 0.  1.
     999900   -1    0    0    0    0 -0.00000000000E+00 -0.00000000000E+00 -0.74505805969E-08  0.93827000000E+00  0.93827000000E+00 0. -1.
     999902    2    1    2    0    0 -0.21474160290E-01 -0.10078822665E-01 -0.41064949428E-02  0.10198554174E+01  0.10195712270E+01 0.  0.
     999903    2    3    3    0    0  0.57989819984E-01  0.11187306940E+00 -0.91502998130E-02  0.12788443800E+00  0.19806529632E-01 0.  0.
         14    1    1    2    0    0  0.21474160290E-01  0.10078822665E-01  0.41064949428E-02  0.24074582597E-01  0.00000000000E+00 0.  1.
     999901    1    3    3    0    0 -0.79463980274E-01 -0.12195189206E+00  0.50438048702E-02  0.89197097941E+00  0.88000000000E+00 0.  1.
        -11    1    4    4    0    0  0.87833276426E-02  0.10761376414E-01 -0.66429939982E-02  0.15405990947E-01  0.51100000000E-03 0. -1.
         11    1    4    4    0    0  0.49206492341E-01  0.10111169299E+00 -0.25073058147E-02  0.11247844705E+00  0.51100000000E-03 0.  1.
</event>
<event>
 8    1  0.1137518E+005  0.1043930E+01  0.7957747E-01            NaN
         13   -1    0    0    0    0  0.00000000000E+00  0.00000000000E+00  0.74505805969E-08  0.10566000000E+00  0.10566000000E+00 0.  1.
     999900   -1    0    0    0    0 -0.00000000000E+00 -0.00000000000E+00 -0.74505805969E-08  0.93827000000E+00  0.93827000000E+00 0. -1.
     999902    2    1    2    0    0 -0.10051320085E-01 -0.21397682970E-01  0.17982319792E-01  0.10142272443E+01  0.10137922121E+01 0.  0.
     999903    2    3    3    0    0 -0.12137955397E+00  0.15580661363E-01  0.24852284673E-01  0.12641613260E+00  0.19688814065E-01 0.  0.
         14    1    1    2    0    0  0.10051320085E-01  0.21397682970E-01 -0.17982319792E-01  0.29702755714E-01  0.00000000000E+00 0. -1.
     999901    1    3    3    0    0  0.11132823388E+00 -0.36978344333E-01 -0.68699648812E-02  0.88781111168E+00  0.88000000000E+00 0. -1.
        -11    1    4    4    0    0 -0.10621834788E+00  0.13298771408E-01  0.14779563385E-01  0.10806429273E+00  0.51100000000E-03 0. -1.
         11    1    4    4    0    0 -0.15161206086E-01  0.22818899547E-02  0.10072721288E-01  0.18351839877E-01  0.51100000000E-03 0.  1.
</event>
<event>
 8    1  0.1137518E+005  0.1043930E+01  0.7957747E-01            NaN
         13   -1    0    0    0    0  0.00000000000E+00  0.00000000000E+00  0.74505805969E-08  0.10566000000E+00  0.10566000000E+00 0.  1.
     999900   -1    0    0    0    0 -0.00000000000E+00 -0.00000000000E+00 -0.74505805969E-08  0.93827000000E+00  0.93827000000E+00 0. -1.
     999902    2    1    2    0    0  0.15064641313E-01  0.15286492024E-02  0.18506143481E-01  0.10200185481E+01  0.10197382414E+01 0.  0.
     999903    2    3    3    0    0  0.93083439712E-01 -0.56493532873E-01  0.73552385590E-01  0.13295395332E+00  0.20267073580E-01 0.  0.
         14    1    1    2    0    0 -0.15064641313E-01 -0.15286492024E-02 -0.18506143481E-01  0.23911451918E-01  0.00000000000E+00 0. -1.
     999901    1    3    3    0    0 -0.78018798399E-01  0.58022182075E-01 -0.55046242110E-01  0.88706459477E+00  0.88000000000E+00 0. -1.
        -11    1    4    4    0    0  0.40583682297E-01 -0.35767396345E-01  0.31885007791E-01  0.62795356142E-01  0.51100000000E-03 0. -1.
         11    1    4    4    0    0  0.52499757414E-01 -0.20726136529E-01  0.41667377799E-01  0.70158597175E-01  0.51100000000E-03 0.  1.
</event>
<event>
 8    1  0.1137518E+005  0.1043930E+01  0.7957747E-01            NaN
         13   -1    0    0    0    0  0.00000000000E+00  0.00000000000E+00  0.74505805969E-08  0.10566000000E+00  0.10566000000E+00 0.  1.
     999900   -1    0    0    0    0 -0.00000000000E+00 -0.00000000000E+00 -0.74505805969E-08  0.93827000000E+00  0.93827000000E+00 0.  1.
     999902    2    1    2    0    0  0.13954831473E-01 -0.16013194614E-01 -0.10615768553E-01  0.10201843843E+01  0.10199079977E+01 0.  0.
     999903    2    3    3    0    0  0.25480540426E-01  0.12382466228E+00  0.15218459927E-01  0.12869412885E+00  0.18675447741E-01 0.  0.
         14    1    1    2    0    0 -0.13954831473E-01  0.16013194614E-01  0.10615768553E-01  0.23745615704E-01  0.00000000000E+00 0.  1.
     999901    1    3    3    0    0 -0.11525708953E-01 -0.13983785690E+00 -0.25834228480E-01  0.89149025544E+00  0.88000000000E+00 0. -1.
        -11    1    4    4    0    0  0.98305510275E-02  0.89304169197E-01  0.92243755739E-02  0.90317354895E-01  0.51100000000E-03 0. -1.
         11    1    4    4    0    0  0.15649989399E-01  0.34520493088E-01  0.59940843531E-02  0.38376773958E-01  0.51100000000E-03 0.  1.
</event>
<event>
 8    1  0.1137518E+005  0.1043930E+01  0.7957747E-01            NaN
         13   -1    0    0    0    0  0.00000000000E+00  0.00000000000E+00  0.74505805969E-08  0.10566000000E+00  0.10566000000E+00 0.  1.
     999900   -1    0    0    0    0 -0.00000000000E+00 -0.00000000000E+00 -0.74505805969E-08  0.93827000000E+00  0.93827000000E+00 0. -1.
     999902    2    1    2    0    0 -0.98321567222E-02 -0.48825562515E-02  0.20255132869E-01  0.10208913136E+01  0.10206313209E+01 0.  0.
     999903    2    3    3    0    0  0.63716847616E-01  0.71512136419E-01 -0.82786761580E-01  0.12855548162E+00  0.22339239827E-01 0.  0.
         14    1    1    2    0    0  0.98321567222E-02  0.48825562515E-02 -0.20255132869E-01  0.23038686354E-01  0.00000000000E+00 0. -1.
     999901    1    3    3    0    0 -0.73549004338E-01 -0.76394692671E-01  0.10304189445E+00  0.89233583203E+00  0.88000000000E+00 0. -1.
        -11    1    4    4    0    0  0.30195508872E-01  0.49937957841E-01 -0.52337290049E-01  0.78390187142E-01  0.51100000000E-03 0. -1.
         11    1    4    4    0    0  0.33521338744E-01  0.21574178578E-01 -0.30449471531E-01  0.50165294478E-01  0.51100000000E-03 0.  1.
</event>
<event>
 8    1  0.1137518E+005  0.1043930E+01  0.7957747E-01            NaN
         13   -1    0    0    0    0  0.00000000000E+00  0.00000000000E+00  0.74505805969E-08  0.10566000000E+00  0.10566000000E+00 0.  1.
     999900   -1    0    0    0    0 -0.00000000000E+00 -0.00000000000E+00 -0.74505805969E-08  0.93827000000E+00  0.93827000000E+00 0.  1.
     999902    2    1    2    0    0  0.22413084328E-01 -0.11419657250E-01  0.48273166619E-02  0.10183163726E+01  0.10179941929E+01 0.  0.
     999903    2    3    3    0    0  0.11519702884E+00 -0.21855936233E-01  0.56744377736E-01  0.13185534274E+00  0.20441859069E-01 0.  0.
         14    1    1    2    0    0 -0.22413084328E-01  0.11419657250E-01 -0.48273166619E-02  0.25613627369E-01  0.00000000000E+00 0.  1.
     999901    1    3    3    0    0 -0.92783944517E-01  0.10436278982E-01 -0.51917061074E-01  0.88646102989E+00  0.88000000000E+00 0. -1.
        -11    1    4    4    0    0  0.94946089838E-01 -0.16322165348E-01  0.54625286881E-01  0.11074906837E+00  0.51100000000E-03 0. -1.
         11    1    4    4    0    0  0.20250939006E-01 -0.55337708846E-02  0.21190908549E-02  0.21106274373E-01  0.51100000000E-03 0.  1.
</event>
<event>
 8    1  0.1137518E+005  0.1043930E+01  0.7957747E-01            NaN
         13   -1    0    0    0    0  0.00000000000E+00  0.00000000000E+00  0.74505805969E-08  0.10566000000E+00  0.10566000000E+00 0.  1.
     999900   -1    0    0    0    0 -0.00000000000E+00 -0.00000000000E+00 -0.74505805969E-08  0.93827000000E+00  0.93827000000E+00 0.  1.
     999902    2    1    2    0    0  0.18881148925E-01 -0.31092986281E-02 -0.13565273720E-01  0.10204740376E+01  0.10202044301E+01 0.  0.
     999903    2    3    3    0    0 -0.10410468435E+00  0.50762482690E-01  0.50622387514E-01  0.12797880516E+00  0.20033309764E-01 0.  0.
         14    1    1    2    0    0 -0.18881148925E-01  0.31092986281E-02  0.13565273720E-01  0.23455962435E-01  0.00000000000E+00 0.  1.
     999901    1    3    3    0    0  0.12298583328E+00 -0.53871781318E-01 -0.64187661233E-01  0.89249523240E+00  0.88000000000E+00 0. -1.
        -11    1    4    4    0    0 -0.48849599797E-01  0.34410801325E-01  0.22428729045E-01  0.63825509443E-01  0.51100000000E-03 0. -1.
         11    1    4    4    0    0 -0.55255084554E-01  0.16351681366E-01  0.28193658469E-01  0.64153295718E-01  0.51100000000E-03 0.  1.
</event>
<event>
 8    1  0.1137518E+005  0.1043930E+01  0.7957747E-01            NaN
         13   -1    0    0    0    0  0.00000000000E+00  0.00000000000E+00  0.74505805969E-08  0.10566000000E+00  0.10566000000E+00 0. -1.
     999900   -1    0    0    0    0 -0.00000000000E+00 -0.00000000000E+00 -0.74505805969E-08  0.93827000000E+00  0.93827000000E+00 0.  1.
     999902    2    1    2    0    0 -0.83301320240E-02  0.16412723974E-01  0.15515710882E-01  0.10198570714E+01  0.10195729205E+01 0.  0.
     999903    2    3    3    0    0  0.28287711562E-01  0.12057660897E+00 -0.38727746140E-01  0.13130018855E+00  0.20024683152E-01 0.  0.
         14    1    1    2    0    0  0.83301320240E-02 -0.16412723974E-01 -0.15515710882E-01  0.24072928612E-01  0.00000000000E+00 0. -1.
     999901    1    3    3    0    0 -0.36617843586E-01 -0.10416388500E+00  0.54243457022E-01  0.88855688284E+00  0.88000000000E+00 0. -1.
        -11    1    4    4    0    0  0.26123621906E-01  0.69386201055E-01 -0.20631058055E-01  0.76959666032E-01  0.51100000000E-03 0.  1.
         11    1    4    4    0    0  0.21640896561E-02  0.51190407920E-01 -0.18096688085E-01  0.54340522519E-01  0.51100000000E-03 0. -1.
</event>
<event>
 8    1  0.1137518E+005  0.1043930E+01  0.7957747E-01            NaN
         13   -1    0    0    0    0  0.00000000000E+00  0.00000000000E+00  0.74505805969E-08  0.10566000000E+00  0.10566000000E+00 0.  1.
     999900   -1    0    0    0    0 -0.00000000000E+00 -0.00000000000E+00 -0.74505805969E-08  0.93827000000E+00  0.93827000000E+00 0. -1.
     999902    2    1    2    0    0  0.34713302332E-03 -0.16431401397E-01 -0.12323964570E-01  0.10233875669E+01  0.10231813723E+01 0.  0.
     999903    2    3    3    0    0  0.44613336333E-01 -0.95175383110E-01  0.80595288546E-01  0.13389664568E+00  0.19596118474E-01 0.  0.
         14    1    1    2    0    0 -0.34713302332E-03  0.16431401397E-01  0.12323964570E-01  0.20542433058E-01  0.00000000000E+00 0.  1.
     999901    1    3    3    0    0 -0.44266203310E-01  0.78743981713E-01 -0.92919253115E-01  0.88949092126E+00  0.88000000000E+00 0. -1.
        -11    1    4    4    0    0  0.19870484346E-01 -0.52811954103E-01  0.53933260537E-01  0.78057647655E-01  0.51100000000E-03 0.  1.
         11    1    4    4    0    0  0.24742851987E-01 -0.42363429007E-01  0.26662028009E-01  0.55838998023E-01  0.51100000000E-03 0. -1.
</event>
<event>
 8    1  0.1137518E+005  0.1043930E+01  0.7957747E-01            NaN
         13   -1    0    0    0    0  0.00000000000E+00  0.00000000000E+00  0.74505805969E-08  0.10566000000E+00  0.10566000000E+00 0. -1.
     999900   -1    0    0    0    0 -0.00000000000E+00 -0.00000000000E+00 -0.74505805969E-08  0.93827000000E+00  0.93827000000E+00 0. -1.
     999902    2    1    2    0    0  0.84447468383E-02 -0.17167871468E-01  0.15647689904E-01  0.10192136135E+01  0.10189138778E+01 0.  0.
     999903    2    3    3    0    0  0.41845282586E-02  0.75339947158E-01  0.10388830327E+00  0.12996547505E+00  0.20115348256E-01 0.  0.
         14    1    1    2    0    0 -0.84447468383E-02  0.17167871468E-01 -0.15647689904E-01  0.24716386452E-01  0.00000000000E+00 0.  1.
     999901    1    3    3    0    0  0.42602185798E-02 -0.92507818625E-01 -0.88240613365E-01  0.88924813849E+00  0.88000000000E+00 0. -1.
        -11    1    4    4    0    0  0.40579769662E-02  0.33493337193E-01  0.30503479098E-01  0.45486197593E-01  0.51100000000E-03 0.  1.
         11    1    4    4    0    0  0.12655129237E-03  0.41846609965E-01  0.73384824171E-01  0.84479277461E-01  0.51100000000E-03 0. -1.
</event>
<event>
 8    1  0.1137518E+005  0.1043930E+01  0.7957747E-01            NaN
         13   -1    0    0    0    0  0.00000000000E+00  0.00000000000E+00  0.74505805969E-08  0.10566000000E+00  0.10566000000E+00 0. -1.
     999900   -1    0    0    0    0 -0.00000000000E+00 -0.00000000000E+00 -0.74505805969E-08  0.93827000000E+00  0.93827000000E+00 0.  1.
     999902    2    1    2    0    0  0.13334363389E-01  0.19809872959E-01  0.85494600935E-03  0.10200350791E+01  0.10197551644E+01 0.  0.
     999903    2    3    3    0    0 -0.10615176079E+00  0.36439135757E-01  0.61904547480E-01  0.12970900392E+00  0.19905922875E-01 0.  0.
         14    1    1    2    0    0 -0.13334363389E-01 -0.19809872959E-01 -0.85494600935E-03  0.23894920931E-01  0.00000000000E+00 0. -1.
     999901    1    3    3    0    0  0.11948612418E+00 -0.16629262798E-01 -0.61049601470E-01  0.89032607515E+00  0.88000000000E+00 0.  1.
        -11    1    4    4    0    0 -0.17589107615E-01  0.10066060989E-01  0.19161428178E-01  0.27894869445E-01  0.51100000000E-03 0. -1.
         11    1    4    4    0    0 -0.88562653175E-01  0.26373074768E-01  0.42743119301E-01  0.10181413447E+00  0.51100000000E-03 0.  1.
</event>
<event>
 8    1  0.1137518E+005  0.1043930E+01  0.7957747E-01            NaN
         13   -1    0    0    0    0  0.00000000000E+00  0.00000000000E+00  0.74505805969E-08  0.10566000000E+00  0.10566000000E+00 0. -1.
     999900   -1    0    0    0    0 -0.00000000000E+00 -0.00000000000E+00 -0.74505805969E-08  0.93827000000E+00  0.93827000000E+00 0.  1.
     999902    2    1    2    0    0 -0.29870489213E-02 -0.16333917646E-01  0.16583936524E-01  0.10204620159E+01  0.10201921288E+01 0.  0.
     999903    2    3    3    0    0  0.30578660462E-01 -0.36833140689E-01  0.12270583165E+00  0.13321417476E+00  0.19938919402E-01 0.  0.
         14    1    1    2    0    0  0.29870489213E-02  0.16333917646E-01 -0.16583936524E-01  0.23467984096E-01  0.00000000000E+00 0.  1.
     999901    1    3    3    0    0 -0.33565709383E-01  0.20499223044E-01 -0.10612189513E+00  0.88724784115E+00  0.88000000000E+00 0.  1.
        -11    1    4    4    0    0  0.18141626745E-01 -0.32945513071E-01  0.10231695506E+00  0.10901167766E+00  0.51100000000E-03 0. -1.
         11    1    4    4    0    0  0.12437033717E-01 -0.38876276184E-02  0.20388876586E-01  0.24202497095E-01  0.51100000000E-03 0.  1.
</event>
<event>
 8    1  0.1137518E+005  0.1043930E+01  0.7957747E-01            NaN
         13   -1    0    0    0    0  0.00000000000E+00  0.00000000000E+00  0.74505805969E-08  0.10566000000E+00  0.10566000000E+00 0. -1.
     999900   -1    0    0    0    0 -0.00000000000E+00 -0.00000000000E+00 -0.74505805969E-08  0.93827000000E+00  0.93827000000E+00 0. -1.
     999902    2    1    2    0    0  0.21805784408E-01  0.87063486642E-02 -0.18748987947E-03  0.10204496275E+01  0.10201794520E+01 0.  0.
     999903    2    3    3    0    0  0.36386355670E-01 -0.48035382453E-01 -0.11479874728E+00  0.13108583385E+00  0.19323007354E-01 0.  0.
         14    1    1    2    0    0 -0.21805784408E-01 -0.87063486642E-02  0.18748987947E-03  0.23480372509E-01  0.00000000000E+00 0.  1.
     999901    1    3    3    0    0 -0.14580571262E-01  0.56741731118E-01  0.11461125740E+00  0.88936379364E+00  0.88000000000E+00 0.  1.
        -11    1    4    4    0    0  0.21923171056E-01 -0.22609015735E-01 -0.41015752642E-01  0.51714080359E-01  0.51100000000E-03 0.  1.
         11    1    4    4    0    0  0.14463184614E-01 -0.25426366719E-01 -0.73782994640E-01  0.79371753495E-01  0.51100000000E-03 0. -1.
</event>
<event>
 8    1  0.1137518E+005  0.1043930E+01  0.7957747E-01            NaN
         13   -1    0    0    0    0  0.00000000000E+00  0.00000000000E+00  0.74505805969E-08  0.10566000000E+00  0.10566000000E+00 0.  1.
     999900   -1    0    0    0    0 -0.00000000000E+00 -0.00000000000E+00 -0.74505805969E-08  0.93827000000E+00  0.93827000000E+00 0. -1.
     999902    2    1    2    0    0  0.93927724288E-02  0.20338302928E-01  0.66762105244E-02  0.10205538898E+01  0.10202861361E+01 0.  0.
     999903    2    3    3    0    0  0.39069097777E-01  0.11898555916E+00 -0.40737802901E-01  0.13327712685E+00  0.20475992460E-01 0.  0.
         14    1    1    2    0    0 -0.93927724288E-02 -0.20338302928E-01 -0.66762105244E-02  0.23376110174E-01  0.00000000000E+00 0. -1.
     999901    1    3    3    0    0 -0.29676325348E-01 -0.98647256229E-01  0.47414013426E-01  0.88727676298E+00  0.88000000000E+00 0.  1.
        -11    1    4    4    0    0  0.22347459194E-01  0.86245186464E-01 -0.20955565837E-01  0.91526160092E-01  0.51100000000E-03 0. -1.
         11    1    4    4    0    0  0.16721638583E-01  0.32740372693E-01 -0.19782237065E-01  0.41750966759E-01  0.51100000000E-03 0.  1.
</event>
<event>
 8    1  0.1137518E+005  0.1043930E+01  0.7957747E-01            NaN
         13   -1    0    0    0    0  0.00000000000E+00  0.00000000000E+00  0.74505805969E-08  0.10566000000E+00  0.10566000000E+00 0.  1.
     999900   -1    0    0    0    0 -0.00000000000E+00 -0.00000000000E+00 -0.74505805969E-08  0.93827000000E+00  0.93827000000E+00 0. -1.
     999902    2    1    2    0    0 -0.45541992214E-02  0.72292277161E-02  0.22183263007E-01  0.10201581759E+01  0.10198811716E+01 0.  0.
     999903    2    3    3    0    0  0.95253052060E-02 -0.71113776912E-01 -0.10365884267E+00  0.12764929953E+00  0.20032156655E-01 0.  0.
         14    1    1    2    0    0  0.45541992214E-02 -0.72292277161E-02 -0.22183263007E-01  0.23771824111E-01  0.00000000000E+00 0. -1.
     999901    1    3    3    0    0 -0.14079504427E-01  0.78343004628E-01  0.12584210568E+00  0.89250887636E+00  0.88000000000E+00 0.  1.
        -11    1    4    4    0    0 -0.17233028842E-02 -0.29467328889E-01 -0.28766874237E-01  0.41219988101E-01  0.51100000000E-03 0. -1.
         11    1    4    4    0    0  0.11248608090E-01 -0.41646448023E-01 -0.74891968435E-01  0.86429311429E-01  0.51100000000E-03 0.  1.
</event>
<event>
 8    1  0.1137518E+005  0.1043930E+01  0.7957747E-01            NaN
         13   -1    0    0    0    0  0.00000000000E+00  0.00000000000E+00  0.74505805969E-08  0.10566000000E+00  0.10566000000E+00 0.  1.
     999900   -1    0    0    0    0 -0.00000000000E+00 -0.00000000000E+00 -0.74505805969E-08  0.93827000000E+00  0.93827000000E+00 0. -1.
     999902    2    1    2    0    0  0.10069907399E-01  0.20663338674E-01 -0.50128646628E-02  0.10204033043E+01  0.10201320493E+01 0.  0.
     999903    2    3    3    0    0  0.66181822800E-01  0.85559254597E-01 -0.75821683117E-01  0.13340053328E+00  0.18610613463E-01 0.  0.
         14    1    1    2    0    0 -0.10069907399E-01 -0.20663338674E-01  0.50128646628E-02  0.23526695737E-01  0.00000000000E+00 0.  1.
     999901    1    3    3    0    0 -0.56111915401E-01 -0.64895915924E-01  0.70808818454E-01  0.88700277098E+00  0.88000000000E+00 0.  1.
        -11    1    4    4    0    0  0.30532418254E-01  0.33147851165E-01 -0.21567506262E-01  0.49964257711E-01  0.51100000000E-03 0.  1.
         11    1    4    4    0    0  0.35649404545E-01  0.52411403432E-01 -0.54254176855E-01  0.83436275573E-01  0.51100000000E-03 0. -1.
</event>
<event>
 8    1  0.1137518E+005  0.1043930E+01  0.7957747E-01            NaN
         13   -1    0    0    0    0  0.00000000000E+00  0.00000000000E+00  0.74505805969E-08  0.10566000000E+00  0.10566000000E+00 0.  1.
     999900   -1    0    0    0    0 -0.00000000000E+00 -0.00000000000E+00 -0.74505805969E-08  0.93827000000E+00  0.93827000000E+00 0.  1.
     999902    2    1    2    0    0 -0.22419688786E-01 -0.24898191502E-02 -0.88960486361E-02  0.10196816737E+01  0.10193933169E+01 0.  0.
     999903    2    3    3    0    0 -0.11623185549E+00 -0.42589923115E-01 -0.44694256880E-01  0.13306436472E+00  0.19616390549E-01 0.  0.
         14    1    1    2    0    0  0.22419688786E-01  0.24898191502E-02  0.88960486361E-02  0.24248326251E-01  0.00000000000E+00 0.  1.
     999901    1    3    3    0    0  0.93812166704E-01  0.40100103964E-01  0.35798208244E-01  0.88661730903E+00  0.88000000000E+00 0. -1.
        -11    1    4    4    0    0 -0.71190935515E-01 -0.19833744751E-01 -0.18402875877E-01  0.76160709634E-01  0.51100000000E-03 0. -1.
         11    1    4    4    0    0 -0.45040919975E-01 -0.22756178364E-01 -0.26291381003E-01  0.56903655084E-01  0.51100000000E-03 0.  1.
</event>
<event>
 8    1  0.1137518E+005  0.1043930E+01  0.7957747E-01            NaN
         13   -1    0    0    0    0  0.00000000000E+00  0.00000000000E+00  0.74505805969E-08  0.10566000000E+00  0.10566000000E+00 0. -1.
     999900   -1    0    0    0    0 -0.00000000000E+00 -0.00000000000E+00 -0.74505805969E-08  0.93827000000E+00  0.93827000000E+00 0.  1.
     999902    2    1    2    0    0  0.22311064273E-01  0.54503940170E-02  0.99213800363E-02  0.10189115235E+01  0.10186043239E+01 0.  0.
     999903    2    3    3    0    0 -0.21261077343E-01 -0.10709537534E+00 -0.63119279581E-01  0.12767641442E+00  0.19893981904E-01 0.  0.
         14    1    1    2    0    0 -0.22311064273E-01 -0.54503940170E-02 -0.99213800363E-02  0.25018476488E-01  0.00000000000E+00 0.  1.
     999901    1    3    3    0    0  0.43572141616E-01  0.11254576935E+00  0.73040659617E-01  0.89123510909E+00  0.88000000000E+00 0. -1.
        -11    1    4    4    0    0 -0.15825544845E-01 -0.32143808880E-01 -0.20148106540E-01  0.41108145630E-01  0.51100000000E-03 0.  1.
         11    1    4    4    0    0 -0.54355324986E-02 -0.74951566455E-01 -0.42971173041E-01  0.86568268789E-01  0.51100000000E-03 0. -1.
</event>
<event>
 8    1  0.1137518E+005  0.1043930E+01  0.7957747E-01            NaN
         13   -1    0    0    0    0  0.00000000000E+00  0.00000000000E+00  0.74505805969E-08  0.10566000000E+00  0.10566000000E+00 0.  1.
     999900   -1    0    0    0    0 -0.00000000000E+00 -0.00000000000E+00 -0.74505805969E-08  0.93827000000E+00  0.93827000000E+00 0.  1.
     999902    2    1    2    0    0  0.12035377290E-01 -0.48968281288E-02  0.19226752422E-01  0.10207244567E+01  0.10204606407E+01 0.  0.
     999903    2    3    3    0    0  0.90136596217E-01 -0.85330400086E-01 -0.39334656178E-01  0.13168070158E+00  0.19664913829E-01 0.  0.
         14    1    1    2    0    0 -0.12035377290E-01  0.48968281288E-02 -0.19226752422E-01  0.23205543324E-01  0.00000000000E+00 0. -1.
     999901    1    3    3    0    0 -0.78101218927E-01  0.80433571957E-01  0.58561408601E-01  0.88904375509E+00  0.88000000000E+00 0. -1.
        -11    1    4    4    0    0  0.64361205909E-01 -0.72244560191E-01 -0.30181397573E-01  0.10135491692E+00  0.51100000000E-03 0. -1.
         11    1    4    4    0    0  0.25775390308E-01 -0.13085839895E-01 -0.91532586059E-02  0.30325784663E-01  0.51100000000E-03 0.  1.
</event>
<event>
 8    1  0.1137518E+005  0.1043930E+01  0.7957747E-01            NaN
         13   -1    0    0    0    0  0.00000000000E+00  0.00000000000E+00  0.74505805969E-08  0.10566000000E+00  0.10566000000E+00 0.  1.
     999900   -1    0    0    0    0 -0.00000000000E+00 -0.00000000000E+00 -0.74505805969E-08  0.93827000000E+00  0.93827000000E+00 0. -1.
     999902    2    1    2    0    0 -0.10929091071E-01  0.17092953574E-01  0.13193254050E-01  0.10197292553E+01  0.10194420425E+01 0.  0.
     999903    2    3    3    0    0  0.72184676449E-01 -0.43064987247E-01  0.96751246035E-01  0.12983666948E+00  0.20773456442E-01 0.  0.
         14    1    1    2    0    0  0.10929091071E-01 -0.17092953574E-01 -0.13193254050E-01  0.24200744740E-01  0.00000000000E+00 0.  1.
     999901    1    3    3    0    0 -0.83113767520E-01  0.60157940822E-01 -0.83557991985E-01  0.88989258578E+00  0.88000000000E+00 0. -1.
        -11    1    4    4    0    0  0.31805250006E-01 -0.14004023760E-01  0.26280939599E-01  0.43573334927E-01  0.51100000000E-03 0. -1.
         11    1    4    4    0    0  0.40379426443E-01 -0.29060963487E-01  0.70470306436E-01  0.86263334557E-01  0.51100000000E-03 0.  1.
</event>
<event>
 8    1  0.1137518E+005  0.1043930E+01  0.7957747E-01            NaN
         13   -1    0    0    0    0  0.00000000000E+00  0.00000000000E+00  0.74505805969E-08  0.10566000000E+00  0.10566000000E+00 0. -1.
     999900   -1    0    0    0    0 -0.00000000000E+00 -0.00000000000E+00 -0.74505805969E-08  0.93827000000E+00  0.93827000000E+00 0.  1.
     999902    2    1    2    0    0 -0.34543000012E-02 -0.39595987567E-02  0.23634529256E-01  0.10197183998E+01  0.10194309262E+01 0.  0.
     999903    2    3    3    0    0  0.40580072032E-02  0.11997580472E+00 -0.41703723623E-01  0.12860364497E+00  0.19723990363E-01 0.  0.
         14    1    1    2    0    0  0.34543000012E-02  0.39595987567E-02 -0.23634529256E-01  0.24211600194E-01  0.00000000000E+00 0.  1.
     999901    1    3    3    0    0 -0.75123072044E-02 -0.12393540347E+00  0.65338252878E-01  0.89111475483E+00  0.88000000000E+00 0.  1.
        -11    1    4    4    0    0 -0.54321475044E-02  0.43540118060E-01 -0.83506601510E-02  0.44668162634E-01  0.51100000000E-03 0.  1.
         11    1    4    4    0    0  0.94901547076E-02  0.76435686658E-01 -0.33353063472E-01  0.83935482338E-01  0.51100000000E-03 0. -1.
</event>
<event>
 7    1  0.1137518E+005  0.1043930E+01  0.7957747E-01            NaN
         13   -1    0    0    0    0  0.00000000000E+00  0.00000000000E+00  0.74505805969E-08  0.10566000000E+00  0.10566000000E+00 0.  1.
     999900   -1    0    0    0    0 -0.00000000000E+00 -0.00000000000E+00 -0.74505805969E-08  0.93827000000E+00  0.93827000000E+00 0. -1.
     999903    2    1    2    0    0  0.91813863774E-01 -0.46605595527E-01  0.70186033260E-02  0.10515693743E+00  0.20170611818E-01 0.  0.
         14    1    1    2    0    0 -0.88479428812E-02  0.30109959828E-01 -0.43881174988E-01  0.53948617150E-01  0.00000000000E+00 0. -1.
     999901    1    1    2    0    0 -0.82965920893E-01  0.16495635700E-01  0.36862571662E-01  0.88482444542E+00  0.88000000000E+00 0.  1.
        -11    1    3    3    0    0  0.34109536706E-01 -0.28280245338E-01  0.47905996721E-02  0.44569538217E-01  0.51100000000E-03 0. -1.
         11    1    3    3    0    0  0.57704327068E-01 -0.18325350190E-01  0.22280036539E-02  0.60587399211E-01  0.51100000000E-03 0.  1.
</event>
<event>
 8    1  0.1137518E+005  0.1043930E+01  0.7957747E-01            NaN
         13   -1    0    0    0    0  0.00000000000E+00  0.00000000000E+00  0.74505805969E-08  0.10566000000E+00  0.10566000000E+00 0. -1.
     999900   -1    0    0    0    0 -0.00000000000E+00 -0.00000000000E+00 -0.74505805969E-08  0.93827000000E+00  0.93827000000E+00 0. -1.
     999902    2    1    2    0    0 -0.90165031029E-02  0.22855420740E-01  0.79655221427E-02  0.10181013893E+01  0.10177737086E+01 0.  0.
     999903    2    3    3    0    0  0.46613756353E-02 -0.51495016024E-01  0.11563853955E+00  0.12832133197E+00  0.20509200655E-01 0.  0.
         14    1    1    2    0    0  0.90165031029E-02 -0.22855420740E-01 -0.79655221427E-02  0.25828610656E-01  0.00000000000E+00 0. -1.
     999901    1    3    3    0    0 -0.13677878738E-01  0.74350436764E-01 -0.10767301741E+00  0.88978005737E+00  0.88000000000E+00 0. -1.
        -11    1    4    4    0    0 -0.23055611043E-02 -0.37450363567E-01  0.62340228313E-01  0.72762700131E-01  0.51100000000E-03 0.  1.
         11    1    4    4    0    0  0.69669367397E-02 -0.14044652457E-01  0.53298311240E-01  0.55558631843E-01  0.51100000000E-03 0. -1.
</event>
<event>
 8    1  0.1137518E+005  0.1043930E+01  0.7957747E-01            NaN
         13   -1    0    0    0    0  0.00000000000E+00  0.00000000000E+00  0.74505805969E-08  0.10566000000E+00  0.10566000000E+00 0. -1.
     999900   -1    0    0    0    0 -0.00000000000E+00 -0.00000000000E+00 -0.74505805969E-08  0.93827000000E+00  0.93827000000E+00 0.  1.
     999902    2    1    2    0    0  0.73137794621E-02  0.16641590048E-01 -0.97568202120E-02  0.10232992116E+01  0.10230912213E+01 0.  0.
     999903    2    3    3    0    0  0.13024598900E+00  0.24394852188E-01  0.11471649238E-01  0.13446678131E+00  0.19763351872E-01 0.  0.
         14    1    1    2    0    0 -0.73137794621E-02 -0.16641590048E-01  0.97568202120E-02  0.20630788400E-01  0.00000000000E+00 0. -1.
     999901    1    3    3    0    0 -0.12293220954E+00 -0.77532621404E-02 -0.21228469450E-01  0.88883243029E+00  0.88000000000E+00 0.  1.
        -11    1    4    4    0    0  0.26730837990E-01 -0.31740264563E-03  0.82924805116E-02  0.27994013612E-01  0.51100000000E-03 0.  1.
         11    1    4    4    0    0  0.10351515101E+00  0.24712254834E-01  0.31791687267E-02  0.10647276770E+00  0.51100000000E-03 0. -1.
</event>
<event>
 8    1  0.1137518E+005  0.1043930E+01  0.7957747E-01            NaN
         13   -1    0    0    0    0  0.00000000000E+00  0.00000000000E+00  0.74505805969E-08  0.10566000000E+00  0.10566000000E+00 0.  1.
     999900   -1    0    0    0    0 -0.00000000000E+00 -0.00000000000E+00 -0.74505805969E-08  0.93827000000E+00  0.93827000000E+00 0. -1.
     999902    2    1    2    0    0 -0.12967302060E-01 -0.74371463319E-02  0.17001611688E-01  0.10212911646E+01  0.10210402176E+01 0.  0.
     999903    2    3    3    0    0 -0.32204783772E-01  0.70081670318E-01  0.10671018279E+00  0.13313190221E+00  0.19709177105E-01 0.  0.
         14    1    1    2    0    0  0.12967302060E-01  0.74371463319E-02 -0.17001611688E-01  0.22638835400E-01  0.00000000000E+00 0. -1.
     999901    1    3    3    0    0  0.19237481712E-01 -0.77518816650E-01 -0.89708571106E-01  0.88815926239E+00  0.88000000000E+00 0. -1.
        -11    1    4    4    0    0 -0.78217315244E-02  0.32621918136E-01  0.33897287816E-01  0.47693356656E-01  0.51100000000E-03 0.  1.
         11    1    4    4    0    0 -0.24383052247E-01  0.37459752183E-01  0.72812894978E-01  0.85438545555E-01  0.51100000000E-03 0. -1.
</event>
<event>
 8    1  0.1137518E+005  0.1043930E+01  0.7957747E-01            NaN
         13   -1    0    0    0    0  0.00000000000E+00  0.00000000000E+00  0.74505805969E-08  0.10566000000E+00  0.10566000000E+00 0.  1.
     999900   -1    0    0    0    0 -0.00000000000E+00 -0.00000000000E+00 -0.74505805969E-08  0.93827000000E+00  0.93827000000E+00 0. -1.
     999902    2    1    2    0    0 -0.16148669116E-01 -0.17545967695E-01 -0.11141587087E-02  0.10200578018E+01  0.10197784255E+01 0.  0.
     999903    2    3    3    0    0 -0.96548971733E-01 -0.63980140732E-01 -0.62506028464E-01  0.13304635727E+00  0.19472217048E-01 0.  0.
         14    1    1    2    0    0  0.16148669116E-01  0.17545967695E-01  0.11141587087E-02  0.23872198186E-01  0.00000000000E+00 0.  1.
     999901    1    3    3    0    0  0.80400302617E-01  0.46434173037E-01  0.61391869756E-01  0.88701144455E+00  0.88000000000E+00 0.  1.
        -11    1    4    4    0    0 -0.34040659489E-01 -0.32115903324E-01 -0.19151709618E-01  0.50569228263E-01  0.51100000000E-03 0. -1.
         11    1    4    4    0    0 -0.62508312243E-01 -0.31864237409E-01 -0.43354318846E-01  0.82477129004E-01  0.51100000000E-03 0.  1.
</event>
<event>
 8    1  0.1137518E+005  0.1043930E+01  0.7957747E-01            NaN
         13   -1    0    0    0    0  0.00000000000E+00  0.00000000000E+00  0.74505805969E-08  0.10566000000E+00  0.10566000000E+00 0. -1.
     999900   -1    0    0    0    0 -0.00000000000E+00 -0.00000000000E+00 -0.74505805969E-08  0.93827000000E+00  0.93827000000E+00 0. -1.
     999902    2    1    2    0    0  0.11130119735E-01  0.21434466963E-01 -0.44314989000E-03  0.10197740003E+01  0.10194878613E+01 0.  0.
     999903    2    3    3    0    0 -0.50664312176E-02 -0.11488887523E+00  0.51506977837E-01  0.12761639222E+00  0.20195356430E-01 0.  0.
         14    1    1    2    0    0 -0.11130119735E-01 -0.21434466963E-01  0.44314989000E-03  0.24155999693E-01  0.00000000000E+00 0. -1.
     999901    1    3    3    0    0  0.16196550953E-01  0.13632334219E+00 -0.51950127727E-01  0.89215760808E+00  0.88000000000E+00 0. -1.
        -11    1    4    4    0    0  0.25175522004E-02 -0.77175914804E-01  0.26090105153E-01  0.81507144489E-01  0.51100000000E-03 0.  1.
         11    1    4    4    0    0 -0.75839834179E-02 -0.37712960427E-01  0.25416872684E-01  0.46109247735E-01  0.51100000000E-03 0. -1.
</event>
<event>
 8    1  0.1137518E+005  0.1043930E+01  0.7957747E-01            NaN
         13   -1    0    0    0    0  0.00000000000E+00  0.00000000000E+00  0.74505805969E-08  0.10566000000E+00  0.10566000000E+00 0. -1.
     999900   -1    0    0    0    0 -0.00000000000E+00 -0.00000000000E+00 -0.74505805969E-08  0.93827000000E+00  0.93827000000E+00 0.  1.
     999902    2    1    2    0    0 -0.21738475896E-02 -0.14689065922E-03 -0.14220857566E-01  0.10295432012E+01  0.10294426760E+01 0.  0.
     999903    2    3    3    0    0  0.67704751702E-01 -0.10337942646E+00  0.57022506499E-01  0.13790673266E+00  0.22258963261E-01 0.  0.
         14    1    1    2    0    0  0.21738475896E-02  0.14689065922E-03  0.14220857566E-01  0.14386798814E-01  0.00000000000E+00 0. -1.
     999901    1    3    3    0    0 -0.69878599291E-01  0.10323253580E+00 -0.71243364066E-01  0.89163646853E+00  0.88000000000E+00 0.  1.
        -11    1    4    4    0    0  0.56265152521E-01 -0.85212060808E-01  0.37190164831E-01  0.10867489212E+00  0.51100000000E-03 0. -1.
         11    1    4    4    0    0  0.11439599181E-01 -0.18167365657E-01  0.19832341669E-01  0.29231840541E-01  0.51100000000E-03 0.  1.
</event>
<event>
 8    1  0.1137518E+005  0.1043930E+01  0.7957747E-01            NaN
         13   -1    0    0    0    0  0.00000000000E+00  0.00000000000E+00  0.74505805969E-08  0.10566000000E+00  0.10566000000E+00 0.  1.
     999900   -1    0    0    0    0 -0.00000000000E+00 -0.00000000000E+00 -0.74505805969E-08  0.93827000000E+00  0.93827000000E+00 0. -1.
     999902    2    1    2    0    0  0.18522748048E-01  0.10245179541E-01  0.10612539002E-01  0.10202512778E+01  0.10199764645E+01 0.  0.
     999903    2    3    3    0    0 -0.11739096672E+00 -0.10305235269E-01 -0.45475907338E-01  0.12781597418E+00  0.19545540775E-01 0.  0.
         14    1    1    2    0    0 -0.18522748048E-01 -0.10245179541E-01 -0.10612539002E-01  0.23678722160E-01  0.00000000000E+00 0.  1.
     999901    1    3    3    0    0  0.13591371477E+00  0.20550414810E-01  0.56088446340E-01  0.89243530366E+00  0.88000000000E+00 0.  1.
        -11    1    4    4    0    0 -0.28390270167E-01 -0.10148048991E-03 -0.19824272421E-01  0.34630631477E-01  0.51100000000E-03 0.  1.
         11    1    4    4    0    0 -0.89000696557E-01 -0.10203754779E-01 -0.25651634917E-01  0.93185342700E-01  0.51100000000E-03 0. -1.
</event>
<event>
 8    1  0.1137518E+005  0.1043930E+01  0.7957747E-01            NaN
         13   -1    0    0    0    0  0.00000000000E+00  0.00000000000E+00  0.74505805969E-08  0.10566000000E+00  0.10566000000E+00 0. -1.
     999900   -1    0    0    0    0 -0.00000000000E+00 -0.00000000000E+00 -0.74505805969E-08  0.93827000000E+00  0.93827000000E+00 0.  1.
     999902    2    1    2    0    0  0.55845072522E-02  0.15033842439E-01 -0.17522409906E-01  0.10201763058E+01  0.10198997288E+01 0.  0.
     999903    2    3    3    0    0  0.11769619676E+00  0.46390918329E-01  0.28818659142E-01  0.13130072855E+00  0.20120988256E-01 0.  0.
         14    1    1    2    0    0 -0.55845072522E-02 -0.15033842439E-01  0.17522409906E-01  0.23753694210E-01  0.00000000000E+00 0. -1.
     999901    1    3    3    0    0 -0.11211168951E+00 -0.31357075890E-01 -0.46341069048E-01  0.88887557724E+00  0.88000000000E+00 0.  1.
        -11    1    4    4    0    0  0.52229634292E-01  0.10861063646E-01  0.16170601544E-01  0.55746272316E-01  0.51100000000E-03 0.  1.
         11    1    4    4    0    0  0.65466562466E-01  0.35529854683E-01  0.12648057599E-01  0.75554456235E-01  0.51100000000E-03 0. -1.
</event>
<event>
 8    1  0.1137518E+005  0.1043930E+01  0.7957747E-01            NaN
         13   -1    0    0    0    0  0.00000000000E+00  0.00000000000E+00  0.74505805969E-08  0.10566000000E+00  0.10566000000E+00 0.  1.
     999900   -1    0    0    0    0 -0.00000000000E+00 -0.00000000000E+00 -0.74505805969E-08  0.93827000000E+00  0.93827000000E+00 0. -1.
     999902    2    1    2    0    0 -0.18257094631E-01  0.83387763161E-02  0.10666944944E-01  0.10212002748E+01  0.10209472860E+01 0.  0.
     999903    2    3    3    0    0 -0.84440848796E-01 -0.73826673256E-01 -0.65481623036E-01  0.13163293340E+00  0.21418486656E-01 0.  0.
         14    1    1    2    0    0  0.18257094631E-01 -0.83387763161E-02 -0.10666944944E-01  0.22729725235E-01  0.00000000000E+00 0. -1.
     999901    1    3    3    0    0  0.66183754165E-01  0.82165449572E-01  0.76148567980E-01  0.88956734137E+00  0.88000000000E+00 0.  1.
        -11    1    4    4    0    0 -0.33615357447E-01 -0.33487590830E-01 -0.39476952275E-01  0.61726022696E-01  0.51100000000E-03 0. -1.
         11    1    4    4    0    0 -0.50825491349E-01 -0.40339082426E-01 -0.26004670760E-01  0.69906910704E-01  0.51100000000E-03 0.  1.
</event>
<event>
 8    1  0.1137518E+005  0.1043930E+01  0.7957747E-01            NaN
         13   -1    0    0    0    0  0.00000000000E+00  0.00000000000E+00  0.74505805969E-08  0.10566000000E+00  0.10566000000E+00 0.  1.
     999900   -1    0    0    0    0 -0.00000000000E+00 -0.00000000000E+00 -0.74505805969E-08  0.93827000000E+00  0.93827000000E+00 0. -1.
     999902    2    1    2    0    0 -0.13497283396E-01  0.25836427018E-01  0.13014484328E-01  0.10120070549E+01  0.10115034379E+01 0.  0.
     999903    2    3    3    0    0 -0.11709603986E+00 -0.30776172659E-01 -0.15501237172E-01  0.12366543417E+00  0.19854367318E-01 0.  0.
         14    1    1    2    0    0  0.13497283396E-01 -0.25836427018E-01 -0.13014484328E-01  0.31922945078E-01  0.00000000000E+00 0. -1.
     999901    1    3    3    0    0  0.10359875646E+00  0.56612599677E-01  0.28515721500E-01  0.88834162075E+00  0.88000000000E+00 0.  1.
        -11    1    4    4    0    0 -0.79905552119E-01 -0.29940426660E-01 -0.13640257922E-01  0.86415531967E-01  0.51100000000E-03 0. -1.
         11    1    4    4    0    0 -0.37190487738E-01 -0.83574599931E-03 -0.18609792503E-02  0.37249902206E-01  0.51100000000E-03 0.  1.
</event>
<event>
 8    1  0.1137518E+005  0.1043930E+01  0.7957747E-01            NaN
         13   -1    0    0    0    0  0.00000000000E+00  0.00000000000E+00  0.74505805969E-08  0.10566000000E+00  0.10566000000E+00 0. -1.
     999900   -1    0    0    0    0 -0.00000000000E+00 -0.00000000000E+00 -0.74505805969E-08  0.93827000000E+00  0.93827000000E+00 0. -1.
     999902    2    1    2    0    0 -0.42531500100E-02  0.78614745515E-02  0.19443930495E-01  0.10225300350E+01  0.10223060765E+01 0.  0.
     999903    2    3    3    0    0 -0.40341805964E-01  0.11768907999E+00 -0.42216643138E-01  0.13282979319E+00  0.19578767692E-01 0.  0.
         14    1    1    2    0    0  0.42531500100E-02 -0.78614745515E-02 -0.19443930495E-01  0.21399964958E-01  0.00000000000E+00 0.  1.
     999901    1    3    3    0    0  0.36088655954E-01 -0.10982760544E+00  0.61660573633E-01  0.88970024185E+00  0.88000000000E+00 0. -1.
        -11    1    4    4    0    0 -0.11881062259E-01  0.64582900165E-01 -0.23193948539E-01  0.69644317815E-01  0.51100000000E-03 0.  1.
         11    1    4    4    0    0 -0.28460743704E-01  0.53106179826E-01 -0.19022694599E-01  0.63185475378E-01  0.51100000000E-03 0. -1.
</event>
<event>
 8    1  0.1137518E+005  0.1043930E+01  0.7957747E-01            NaN
         13   -1    0    0    0    0  0.00000000000E+00  0.00000000000E+00  0.74505805969E-08  0.10566000000E+00  0.10566000000E+00 0. -1.
     999900   -1    0    0    0    0 -0.00000000000E+00 -0.00000000000E+00 -0.74505805969E-08  0.93827000000E+00  0.93827000000E+00 0. -1.
     999902    2    1    2    0    0 -0.14725259325E-01 -0.72113089168E-02  0.15757300878E-01  0.10211895345E+01  0.10209363039E+01 0.  0.
     999903    2    3    3    0    0 -0.96928842844E-01  0.76491237830E-01  0.45812446391E-01  0.13289518172E+00  0.17783111097E-01 0.  0.
         14    1    1    2    0    0  0.14725259325E-01  0.72113089168E-02 -0.15757300878E-01  0.22740465463E-01  0.00000000000E+00 0.  1.
     999901    1    3    3    0    0  0.82203583519E-01 -0.83702546746E-01 -0.30055145512E-01  0.88829435282E+00  0.88000000000E+00 0.  1.
        -11    1    4    4    0    0 -0.72738241687E-01  0.48350255439E-01  0.27941713130E-01  0.91703868285E-01  0.51100000000E-03 0.  1.
         11    1    4    4    0    0 -0.24190601157E-01  0.28140982391E-01  0.17870733261E-01  0.41191313436E-01  0.51100000000E-03 0. -1.
</event>
<event>
 8    1  0.1137518E+005  0.1043930E+01  0.7957747E-01            NaN
         13   -1    0    0    0    0  0.00000000000E+00  0.00000000000E+00  0.74505805969E-08  0.10566000000E+00  0.10566000000E+00 0. -1.
     999900   -1    0    0    0    0 -0.00000000000E+00 -0.00000000000E+00 -0.74505805969E-08  0.93827000000E+00  0.93827000000E+00 0. -1.
     999902    2    1    2    0    0  0.16645462574E-01 -0.10688742524E-01  0.12843769524E-01  0.10203443464E+01  0.10200717142E+01 0.  0.
     999903    2    3    3    0    0  0.74411918733E-01  0.29797812279E-01 -0.10074688304E+00  0.13024381221E+00  0.19709716137E-01 0.  0.
         14    1    1    2    0    0 -0.16645462574E-01  0.10688742524E-01 -0.12843769524E-01  0.23585653619E-01  0.00000000000E+00 0.  1.
     999901    1    3    3    0    0 -0.57766456159E-01 -0.40486554803E-01  0.11359065257E+00  0.89010053417E+00  0.88000000000E+00 0.  1.
        -11    1    4    4    0    0  0.68413189062E-01  0.21755829473E-01 -0.82085909311E-01  0.10905062211E+00  0.51100000000E-03 0. -1.
         11    1    4    4    0    0  0.59987296714E-02  0.80419828055E-02 -0.18660973734E-01  0.21193190105E-01  0.51100000000E-03 0.  1.
</event>
<event>
 8    1  0.1137518E+005  0.1043930E+01  0.7957747E-01            NaN
         13   -1    0    0    0    0  0.00000000000E+00  0.00000000000E+00  0.74505805969E-08  0.10566000000E+00  0.10566000000E+00 0. -1.
     999900   -1    0    0    0    0 -0.00000000000E+00 -0.00000000000E+00 -0.74505805969E-08  0.93827000000E+00  0.93827000000E+00 0. -1.
     999902    2    1    2    0    0  0.18914944251E-01 -0.11778194947E-01 -0.68303723937E-02  0.10206243144E+01  0.10203581902E+01 0.  0.
     999903    2    3    3    0    0  0.12902703330E+00 -0.20804290786E-01  0.17959990940E-01  0.13336972602E+00  0.19599201736E-01 0.  0.
         14    1    1    2    0    0 -0.18914944251E-01  0.11778194947E-01  0.68303723937E-02  0.23305685557E-01  0.00000000000E+00 0. -1.
     999901    1    3    3    0    0 -0.11011208904E+00  0.90260958386E-02 -0.24790363333E-01  0.88725458842E+00  0.88000000000E+00 0.  1.
        -11    1    4    4    0    0  0.12228583672E+00 -0.14997284421E-01  0.17564138051E-01  0.12444880260E+00  0.51100000000E-03 0. -1.
         11    1    4    4    0    0  0.67411965752E-02 -0.58070063645E-02  0.39585288849E-03  0.89209234216E-02  0.51100000000E-03 0.  1.
</event>
<event>
 8    1  0.1137518E+005  0.1043930E+01  0.7957747E-01            NaN
         13   -1    0    0    0    0  0.00000000000E+00  0.00000000000E+00  0.74505805969E-08  0.10566000000E+00  0.10566000000E+00 0.  1.
     999900   -1    0    0    0    0 -0.00000000000E+00 -0.00000000000E+00 -0.74505805969E-08  0.93827000000E+00  0.93827000000E+00 0. -1.
     999902    2    1    2    0    0  0.22994110265E-01  0.15696876037E-02  0.11561547403E-01  0.10181450741E+01  0.10178185150E+01 0.  0.
     999903    2    3    3    0    0 -0.18944888003E-01 -0.11511939004E+00 -0.47399650464E-01  0.12749831848E+00  0.19942708100E-01 0.  0.
         14    1    1    2    0    0 -0.22994110265E-01 -0.15696876037E-02 -0.11561547403E-01  0.25784925914E-01  0.00000000000E+00 0. -1.
     999901    1    3    3    0    0  0.41938998268E-01  0.11668907764E+00  0.58961197866E-01  0.89064675561E+00  0.88000000000E+00 0.  1.
        -11    1    4    4    0    0 -0.12277201568E-01 -0.28171518042E-01 -0.17151801311E-01  0.35196725933E-01  0.51100000000E-03 0.  1.
         11    1    4    4    0    0 -0.66676864350E-02 -0.86947871999E-01 -0.30247849152E-01  0.92301592548E-01  0.51100000000E-03 0. -1.
</event>
<event>
 8    1  0.1137518E+005  0.1043930E+01  0.7957747E-01            NaN
         13   -1    0    0    0    0  0.00000000000E+00  0.00000000000E+00  0.74505805969E-08  0.10566000000E+00  0.10566000000E+00 0.  1.
     999900   -1    0    0    0    0 -0.00000000000E+00 -0.00000000000E+00 -0.74505805969E-08  0.93827000000E+00  0.93827000000E+00 0. -1.
     999902    2    1    2    0    0  0.22366454486E-01 -0.71819244610E-02 -0.26015907188E-02  0.10202951402E+01  0.10200213559E+01 0.  0.
     999903    2    3    3    0    0 -0.88198363080E-01  0.37506970979E-01 -0.83170558067E-01  0.12860403067E+00  0.20878957160E-01 0.  0.
         14    1    1    2    0    0 -0.22366454486E-01  0.71819244610E-02  0.26015907188E-02  0.23634859837E-01  0.00000000000E+00 0. -1.
     999901    1    3    3    0    0  0.11056481757E+00 -0.44688895440E-01  0.80568967348E-01  0.89169110950E+00  0.88000000000E+00 0.  1.
        -11    1    4    4    0    0 -0.43261710721E-01  0.10614543728E-01 -0.48181888071E-01  0.65620115911E-01  0.51100000000E-03 0. -1.
         11    1    4    4    0    0 -0.44936652359E-01  0.26892427251E-01 -0.34988669996E-01  0.62983914754E-01  0.51100000000E-03 0.  1.
</event>
<event>
 8    1  0.1137518E+005  0.1043930E+01  0.7957747E-01            NaN
         13   -1    0    0    0    0  0.00000000000E+00  0.00000000000E+00  0.74505805969E-08  0.10566000000E+00  0.10566000000E+00 0. -1.
     999900   -1    0    0    0    0 -0.00000000000E+00 -0.00000000000E+00 -0.74505805969E-08  0.93827000000E+00  0.93827000000E+00 0.  1.
     999902    2    1    2    0    0 -0.18469101687E-01  0.14264160116E-01 -0.26226847092E-02  0.10204469752E+01  0.10201767379E+01 0.  0.
     999903    2    3    3    0    0 -0.98703525654E-01  0.20159047572E-01  0.84071627472E-01  0.13253469556E+00  0.18671738155E-01 0.  0.
         14    1    1    2    0    0  0.18469101687E-01 -0.14264160116E-01  0.26226847092E-02  0.23483024848E-01  0.00000000000E+00 0. -1.
     999901    1    3    3    0    0  0.80234423966E-01 -0.58948874562E-02 -0.86694312181E-01  0.88791227959E+00  0.88000000000E+00 0.  1.
        -11    1    4    4    0    0 -0.15045670977E-01 -0.36165313704E-02  0.12996895679E-01  0.20214646487E-01  0.51100000000E-03 0. -1.
         11    1    4    4    0    0 -0.83657854676E-01  0.23775578943E-01  0.71074731792E-01  0.11232004907E+00  0.51100000000E-03 0.  1.
</event>
<event>
 8    1  0.1137518E+005  0.1043930E+01  0.7957747E-01            NaN
         13   -1    0    0    0    0  0.00000000000E+00  0.00000000000E+00  0.74505805969E-08  0.10566000000E+00  0.10566000000E+00 0. -1.
     999900   -1    0    0    0    0 -0.00000000000E+00 -0.00000000000E+00 -0.74505805969E-08  0.93827000000E+00  0.93827000000E+00 0. -1.
     999902    2    1    2    0    0  0.20832137750E-01 -0.32806174844E-03 -0.11240949548E-01  0.10202562902E+01  0.10199815945E+01 0.  0.
     999903    2    3    3    0    0  0.43728230136E-01 -0.64544037407E-02  0.12066466946E+00  0.13010975429E+00  0.20365860324E-01 0.  0.
         14    1    1    2    0    0 -0.20832137750E-01  0.32806174844E-03  0.11240949548E-01  0.23673709774E-01  0.00000000000E+00 0.  1.
     999901    1    3    3    0    0 -0.22896092386E-01  0.61263419922E-02 -0.13190561901E+00  0.89014653594E+00  0.88000000000E+00 0. -1.
        -11    1    4    4    0    0  0.30730242872E-01 -0.10424658028E-01  0.63060930487E-01  0.70922234856E-01  0.51100000000E-03 0.  1.
         11    1    4    4    0    0  0.12997987263E-01  0.39702542874E-02  0.57603738974E-01  0.59187519434E-01  0.51100000000E-03 0. -1.
</event>
<event>
 8    1  0.1137518E+005  0.1043930E+01  0.7957747E-01            NaN
         13   -1    0    0    0    0  0.00000000000E+00  0.00000000000E+00  0.74505805969E-08  0.10566000000E+00  0.10566000000E+00 0. -1.
     999900   -1    0    0    0    0 -0.00000000000E+00 -0.00000000000E+00 -0.74505805969E-08  0.93827000000E+00  0.93827000000E+00 0. -1.
     999902    2    1    2    0    0  0.12473412491E-01  0.19050893481E-01 -0.31545606264E-02  0.10209414417E+01  0.10206825919E+01 0.  0.
     999903    2    3    3    0    0 -0.60764080399E-01 -0.10621735380E+00 -0.33866701216E-01  0.12852948538E+00  0.19961849725E-01 0.  0.
         14    1    1    2    0    0 -0.12473412491E-01 -0.19050893481E-01  0.31545606264E-02  0.22988558336E-01  0.00000000000E+00 0. -1.
     999901    1    3    3    0    0  0.73237492891E-01  0.12526824729E+00  0.30712140589E-01  0.89241195629E+00  0.88000000000E+00 0. -1.
        -11    1    4    4    0    0 -0.25483294335E-01 -0.58769455415E-01 -0.10322725036E-01  0.64885028729E-01  0.51100000000E-03 0.  1.
         11    1    4    4    0    0 -0.35280786064E-01 -0.47447898388E-01 -0.23543976180E-01  0.63644456649E-01  0.51100000000E-03 0. -1.
</event>
<event>
 8    1  0.1137518E+005  0.1043930E+01  0.7957747E-01            NaN
         13   -1    0    0    0    0  0.00000000000E+00  0.00000000000E+00  0.74505805969E-08  0.10566000000E+00  0.10566000000E+00 0.  1.
     999900   -1    0    0    0    0 -0.00000000000E+00 -0.00000000000E+00 -0.74505805969E-08  0.93827000000E+00  0.93827000000E+00 0.  1.
     999902    2    1    2    0    0 -0.13550907179E-01 -0.61684699124E-02 -0.18463220304E-01  0.10202114922E+01  0.10199357437E+01 0.  0.
     999903    2    3    3    0    0 -0.28330960816E-01 -0.12358694990E+00  0.28230696861E-01  0.13106253322E+00  0.17436680900E-01 0.  0.
         14    1    1    2    0    0  0.13550907179E-01  0.61684699124E-02  0.18463220304E-01  0.23718507761E-01  0.00000000000E+00 0.  1.
     999901    1    3    3    0    0  0.14780053638E-01  0.11741847999E+00 -0.46693917165E-01  0.88914895902E+00  0.88000000000E+00 0. -1.
        -11    1    4    4    0    0 -0.21688723177E-02 -0.36048982483E-01  0.13281414786E-01  0.38482336791E-01  0.51100000000E-03 0.  1.
         11    1    4    4    0    0 -0.26162088498E-01 -0.87537967421E-01  0.14949282075E-01  0.92580196427E-01  0.51100000000E-03 0. -1.
</event>
<event>
 8    1  0.1137518E+005  0.1043930E+01  0.7957747E-01            NaN
         13   -1    0    0    0    0  0.00000000000E+00  0.00000000000E+00  0.74505805969E-08  0.10566000000E+00  0.10566000000E+00 0. -1.
     999900   -1    0    0    0    0 -0.00000000000E+00 -0.00000000000E+00 -0.74505805969E-08  0.93827000000E+00  0.93827000000E+00 0.  1.
     999902    2    1    2    0    0 -0.20779051911E-01 -0.11217140979E-01  0.19535084817E-02  0.10202359196E+01  0.10199607454E+01 0.  0.
     999903    2    3    3    0    0 -0.12813716882E+00  0.28298741194E-01 -0.41668540221E-02  0.13281001902E+00  0.20029620386E-01 0.  0.
         14    1    1    2    0    0  0.20779051911E-01  0.11217140979E-01 -0.19535084817E-02  0.23694080389E-01  0.00000000000E+00 0.  1.
     999901    1    3    3    0    0  0.10735811691E+00 -0.39515882173E-01  0.61203625037E-02  0.88742590059E+00  0.88000000000E+00 0. -1.
        -11    1    4    4    0    0 -0.86786506491E-01  0.12377130070E-01  0.39710515617E-02  0.87756033577E-01  0.51100000000E-03 0. -1.
         11    1    4    4    0    0 -0.41350662327E-01  0.15921611124E-01 -0.81379055837E-02  0.45053985439E-01  0.51100000000E-03 0.  1.
</event>
<event>
 7    1  0.1137518E+005  0.1043930E+01  0.7957747E-01            NaN
         13   -1    0    0    0    0  0.00000000000E+00  0.00000000000E+00  0.74505805969E-08  0.10566000000E+00  0.10566000000E+00 0. -1.
     999900   -1    0    0    0    0 -0.00000000000E+00 -0.00000000000E+00 -0.74505805969E-08  0.93827000000E+00  0.93827000000E+00 0. -1.
     999903    2    1    2    0    0  0.55678719968E-01  0.50599275844E-01 -0.51512575965E-01  0.93768759489E-01  0.21877573001E-01 0.  0.
         14    1    1    2    0    0 -0.62060446350E-01  0.94864540388E-02 -0.18123168547E-01  0.65344785940E-01  0.00000000000E+00 0.  1.
     999901    1    1    2    0    0  0.63817263818E-02 -0.60085729882E-01  0.69635744511E-01  0.88481645457E+00  0.88000000000E+00 0.  1.
        -11    1    3    3    0    0  0.33360984500E-01  0.36907451928E-01 -0.44270978476E-01  0.66598017619E-01  0.51100000000E-03 0. -1.
         11    1    3    3    0    0  0.22317735468E-01  0.13691823916E-01 -0.72415974890E-02  0.27170741870E-01  0.51100000000E-03 0.  1.
</event>
<event>
 8    1  0.1137518E+005  0.1043930E+01  0.7957747E-01            NaN
         13   -1    0    0    0    0  0.00000000000E+00  0.00000000000E+00  0.74505805969E-08  0.10566000000E+00  0.10566000000E+00 0.  1.
     999900   -1    0    0    0    0 -0.00000000000E+00 -0.00000000000E+00 -0.74505805969E-08  0.93827000000E+00  0.93827000000E+00 0. -1.
     999902    2    1    2    0    0  0.10175861179E-01  0.15889114948E-01  0.13095725981E-01  0.10209624106E+01  0.10207040382E+01 0.  0.
     999903    2    3    3    0    0 -0.23552601918E-02  0.13089735506E+00  0.15760918016E-01  0.13338648282E+00  0.20096826861E-01 0.  0.
         14    1    1    2    0    0 -0.10175861179E-01 -0.15889114948E-01 -0.13095725981E-01  0.22967589415E-01  0.00000000000E+00 0. -1.
     999901    1    3    3    0    0  0.12531121370E-01 -0.11500824011E+00 -0.26651920349E-02  0.88757592776E+00  0.88000000000E+00 0. -1.
        -11    1    4    4    0    0 -0.78137146977E-02  0.10432219137E+00  0.69055858911E-02  0.10484332114E+00  0.51100000000E-03 0. -1.
         11    1    4    4    0    0  0.54584545059E-02  0.26575163689E-01  0.88553321249E-02  0.28543161681E-01  0.51100000000E-03 0.  1.
</event>
<event>
 8    1  0.1137518E+005  0.1043930E+01  0.7957747E-01            NaN
         13   -1    0    0    0    0  0.00000000000E+00  0.00000000000E+00  0.74505805969E-08  0.10566000000E+00  0.10566000000E+00 0.  1.
     999900   -1    0    0    0    0 -0.00000000000E+00 -0.00000000000E+00 -0.74505805969E-08  0.93827000000E+00  0.93827000000E+00 0. -1.
     999902    2    1    2    0    0  0.13734518459E-01  0.27741769060E-02 -0.18674212346E-01  0.10205834957E+01  0.10203164276E+01 0.  0.
     999903    2    3    3    0    0 -0.14058151679E-01 -0.26906341912E-01  0.12316967182E+00  0.12829819764E+00  0.19185322440E-01 0.  0.
         14    1    1    2    0    0 -0.13734518459E-01 -0.27741769060E-02  0.18674212346E-01  0.23346504269E-01  0.00000000000E+00 0.  1.
     999901    1    3    3    0    0  0.27792670138E-01  0.29680518818E-01 -0.14184388417E+00  0.89228529809E+00  0.88000000000E+00 0. -1.
        -11    1    4    4    0    0 -0.17253279419E-01 -0.15767779508E-01  0.67527807464E-01  0.71460229661E-01  0.51100000000E-03 0.  1.
         11    1    4    4    0    0  0.31951277396E-02 -0.11138562405E-01  0.55641864360E-01  0.56837967981E-01  0.51100000000E-03 0. -1.
</event>
<event>
 8    1  0.1137518E+005  0.1043930E+01  0.7957747E-01            NaN
         13   -1    0    0    0    0  0.00000000000E+00  0.00000000000E+00  0.74505805969E-08  0.10566000000E+00  0.10566000000E+00 0. -1.
     999900   -1    0    0    0    0 -0.00000000000E+00 -0.00000000000E+00 -0.74505805969E-08  0.93827000000E+00  0.93827000000E+00 0.  1.
     999902    2    1    2    0    0 -0.11836669177E-01 -0.43985402612E-02  0.19835731670E-01  0.10204159586E+01  0.10201449987E+01 0.  0.
     999903    2    3    3    0    0 -0.10745296345E+00 -0.69658952171E-01 -0.23084526424E-01  0.13179706070E+00  0.20953779539E-01 0.  0.
         14    1    1    2    0    0  0.11836669177E-01  0.43985402612E-02 -0.19835731670E-01  0.23514041433E-01  0.00000000000E+00 0.  1.
     999901    1    3    3    0    0  0.95616294273E-01  0.65260411909E-01  0.42920258094E-01  0.88861889787E+00  0.88000000000E+00 0. -1.
        -11    1    4    4    0    0 -0.34968113575E-01 -0.12809279140E-01 -0.11332783335E-01  0.38929933190E-01  0.51100000000E-03 0. -1.
         11    1    4    4    0    0 -0.72484849875E-01 -0.56849673030E-01 -0.11751743089E-01  0.92867127508E-01  0.51100000000E-03 0.  1.
</event>
<event>
 8    1  0.1137518E+005  0.1043930E+01  0.7957747E-01            NaN
         13   -1    0    0    0    0  0.00000000000E+00  0.00000000000E+00  0.74505805969E-08  0.10566000000E+00  0.10566000000E+00 0. -1.
     999900   -1    0    0    0    0 -0.00000000000E+00 -0.00000000000E+00 -0.74505805969E-08  0.93827000000E+00  0.93827000000E+00 0. -1.
     999902    2    1    2    0    0 -0.22052741890E-01 -0.55821908284E-02 -0.82025645968E-02  0.10197480575E+01  0.10194612961E+01 0.  0.
     999903    2    3    3    0    0  0.34305415358E-01 -0.11814578025E+00  0.36307628811E-01  0.12967617223E+00  0.19036250167E-01 0.  0.
         14    1    1    2    0    0  0.22052741890E-01  0.55821908284E-02  0.82025645968E-02  0.24181942545E-01  0.00000000000E+00 0.  1.
     999901    1    3    3    0    0 -0.56358157247E-01  0.11256358942E+00 -0.44510193408E-01  0.89007188523E+00  0.88000000000E+00 0. -1.
        -11    1    4    4    0    0  0.23987891819E-01 -0.98079855815E-01  0.23293750454E-01  0.10362401750E+00  0.51100000000E-03 0.  1.
         11    1    4    4    0    0  0.10317523538E-01 -0.20065924435E-01  0.13013878357E-01  0.26052154734E-01  0.51100000000E-03 0. -1.
</event>
<event>
 8    1  0.1137518E+005  0.1043930E+01  0.7957747E-01            NaN
         13   -1    0    0    0    0  0.00000000000E+00  0.00000000000E+00  0.74505805969E-08  0.10566000000E+00  0.10566000000E+00 0.  1.
     999900   -1    0    0    0    0 -0.00000000000E+00 -0.00000000000E+00 -0.74505805969E-08  0.93827000000E+00  0.93827000000E+00 0.  1.
     999902    2    1    2    0    0 -0.17029138292E-01 -0.11183013887E-01  0.11831150371E-01  0.10203709790E+01  0.10200989694E+01 0.  0.
     999903    2    3    3    0    0  0.46369660247E-01 -0.11164519723E+00  0.47955050691E-01  0.13165449210E+00  0.20455389209E-01 0.  0.
         14    1    1    2    0    0  0.17029138292E-01  0.11183013887E-01 -0.11831150371E-01  0.23559020983E-01  0.00000000000E+00 0. -1.
     999901    1    3    3    0    0 -0.63398798539E-01  0.10046218334E+00 -0.36123900320E-01  0.88871648691E+00  0.88000000000E+00 0.  1.
        -11    1    4    4    0    0  0.25909189816E-01 -0.36857182069E-01  0.16583904662E-01  0.48010675915E-01  0.51100000000E-03 0.  1.
         11    1    4    4    0    0  0.20460470431E-01 -0.74788015163E-01  0.31371146029E-01  0.83643816188E-01  0.51100000000E-03 0. -1.
</event>
<event>
 8    1  0.1137518E+005  0.1043930E+01  0.7957747E-01            NaN
         13   -1    0    0    0    0  0.00000000000E+00  0.00000000000E+00  0.74505805969E-08  0.10566000000E+00  0.10566000000E+00 0. -1.
     999900   -1    0    0    0    0 -0.00000000000E+00 -0.00000000000E+00 -0.74505805969E-08  0.93827000000E+00  0.93827000000E+00 0.  1.
     999902    2    1    2    0    0 -0.17360119046E-01 -0.16334442743E-01 -0.28829734292E-03  0.10200915674E+01  0.10198129902E+01 0.  0.
     999903    2    3    3    0    0 -0.12366938783E+00  0.38005325118E-01  0.15726912149E-01  0.13188497098E+00  0.20193751068E-01 0.  0.
         14    1    1    2    0    0  0.17360119046E-01  0.16334442743E-01  0.28829734292E-03  0.23838432590E-01  0.00000000000E+00 0. -1.
     999901    1    3    3    0    0  0.10630926878E+00 -0.54339767861E-01 -0.16015209492E-01  0.88820659643E+00  0.88000000000E+00 0.  1.
        -11    1    4    4    0    0 -0.66761279798E-01  0.28662790621E-01  0.24130990764E-02  0.72695998615E-01  0.51100000000E-03 0. -1.
         11    1    4    4    0    0 -0.56908108030E-01  0.93425344967E-02  0.13313813073E-01  0.59188972368E-01  0.51100000000E-03 0.  1.
</event>
<event>
 8    1  0.1137518E+005  0.1043930E+01  0.7957747E-01            NaN
         13   -1    0    0    0    0  0.00000000000E+00  0.00000000000E+00  0.74505805969E-08  0.10566000000E+00  0.10566000000E+00 0. -1.
     999900   -1    0    0    0    0 -0.00000000000E+00 -0.00000000000E+00 -0.74505805969E-08  0.93827000000E+00  0.93827000000E+00 0. -1.
     999902    2    1    2    0    0 -0.17435731416E-01 -0.59038264318E-02 -0.14643237528E-01  0.10204080039E+01  0.10201368585E+01 0.  0.
     999903    2    3    3    0    0  0.11213439661E+00  0.24051051704E-01  0.52928691546E-01  0.12785454418E+00  0.19818226160E-01 0.  0.
         14    1    1    2    0    0  0.17435731416E-01  0.59038264318E-02  0.14643237528E-01  0.23521996128E-01  0.00000000000E+00 0. -1.
     999901    1    3    3    0    0 -0.12957012803E+00 -0.29954878136E-01 -0.67571929073E-01  0.89255345969E+00  0.88000000000E+00 0.  1.
        -11    1    4    4    0    0  0.28529641778E-01  0.14865992734E-01  0.12287247551E-01  0.34440902621E-01  0.51100000000E-03 0. -1.
         11    1    4    4    0    0  0.83604754835E-01  0.91850589698E-02  0.40641443995E-01  0.93413641564E-01  0.51100000000E-03 0.  1.
</event>
<event>
 8    1  0.1377363E+005  0.1043930E+01  0.7957747E-01            NaN
         13   -1    0    0    0    0  0.00000000000E+00  0.00000000000E+00  0.74505805969E-08  0.10566000000E+00  0.10566000000E+00 0.  1.
     999900   -1    0    0    0    0 -0.00000000000E+00 -0.00000000000E+00 -0.74505805969E-08  0.93827000000E+00  0.93827000000E+00 0. -1.
     999902    2    1    2    0    0  0.22429454398E-01  0.54554563433E-02 -0.12125062739E-01  0.10178558830E+01  0.10175218617E+01 0.  0.
     999903    2    3    3    0    0 -0.58387246254E-01 -0.50922629214E-01 -0.99498594964E-01  0.12805592701E+00  0.22274769365E-01 0.  0.
         14    1    1    2    0    0 -0.22429454398E-01 -0.54554563433E-02  0.12125062739E-01  0.26074116954E-01  0.00000000000E+00 0.  1.
     999901    1    3    3    0    0  0.80816700653E-01  0.56378085557E-01  0.87373532225E-01  0.88979995604E+00  0.88000000000E+00 0.  1.
        -11    1    4    4    0    0 -0.18178650812E-01 -0.19556775844E-01 -0.19046672778E-01  0.32801946462E-01  0.51100000000E-03 0.  1.
         11    1    4    4    0    0 -0.40208595443E-01 -0.31365853370E-01 -0.80451922186E-01  0.95253980544E-01  0.51100000000E-03 0. -1.
</event>
<event>
 8    1  0.1137518E+005  0.1043930E+01  0.7957747E-01            NaN
         13   -1    0    0    0    0  0.00000000000E+00  0.00000000000E+00  0.74505805969E-08  0.10566000000E+00  0.10566000000E+00 0.  1.
     999900   -1    0    0    0    0 -0.00000000000E+00 -0.00000000000E+00 -0.74505805969E-08  0.93827000000E+00  0.93827000000E+00 0.  1.
     999902    2    1    2    0    0 -0.99993846334E-03  0.20521342555E-01  0.10328276517E-01  0.10209343771E+01  0.10206753664E+01 0.  0.
     999903    2    3    3    0    0 -0.11798353694E+00  0.42033632358E-01 -0.35727484084E-01  0.13173863148E+00  0.19790721775E-01 0.  0.
         14    1    1    2    0    0  0.99993846334E-03 -0.20521342555E-01 -0.10328276517E-01  0.22995622910E-01  0.00000000000E+00 0. -1.
     999901    1    3    3    0    0  0.11698359847E+00 -0.21512289803E-01  0.46055760600E-01  0.88919574561E+00  0.88000000000E+00 0.  1.
        -11    1    4    4    0    0 -0.97373352923E-01  0.26295859836E-01 -0.28707489913E-01  0.10486859970E+00  0.51100000000E-03 0. -1.
         11    1    4    4    0    0 -0.20610184014E-01  0.15737772522E-01 -0.70199941701E-02  0.26870031786E-01  0.51100000000E-03 0.  1.
</event>
<event>
 8    1  0.1137518E+005  0.1043930E+01  0.7957747E-01            NaN
         13   -1    0    0    0    0  0.00000000000E+00  0.00000000000E+00  0.74505805969E-08  0.10566000000E+00  0.10566000000E+00 0. -1.
     999900   -1    0    0    0    0 -0.00000000000E+00 -0.00000000000E+00 -0.74505805969E-08  0.93827000000E+00  0.93827000000E+00 0.  1.
     999902    2    1    2    0    0  0.15119557148E-01 -0.34081093036E-03 -0.18215617035E-01  0.10202545726E+01  0.10199798365E+01 0.  0.
     999903    2    3    3    0    0  0.77463026374E-01 -0.41287327092E-01  0.93667342681E-01  0.13004048482E+00  0.20779623999E-01 0.  0.
         14    1    1    2    0    0 -0.15119557148E-01  0.34081093036E-03  0.18215617035E-01  0.23675427439E-01  0.00000000000E+00 0. -1.
     999901    1    3    3    0    0 -0.62343469225E-01  0.40946516162E-01 -0.11188295972E+00  0.89021408774E+00  0.88000000000E+00 0.  1.
        -11    1    4    4    0    0  0.38648663762E-01 -0.31652289013E-01  0.56809330153E-01  0.75651488576E-01  0.51100000000E-03 0.  1.
         11    1    4    4    0    0  0.38814362612E-01 -0.96350380787E-02  0.36858012529E-01  0.54388996243E-01  0.51100000000E-03 0. -1.
</event>
<event>
 8    1  0.1137518E+005  0.1043930E+01  0.7957747E-01            NaN
         13   -1    0    0    0    0  0.00000000000E+00  0.00000000000E+00  0.74505805969E-08  0.10566000000E+00  0.10566000000E+00 0. -1.
     999900   -1    0    0    0    0 -0.00000000000E+00 -0.00000000000E+00 -0.74505805969E-08  0.93827000000E+00  0.93827000000E+00 0.  1.
     999902    2    1    2    0    0 -0.14003225785E-01  0.75169959193E-03 -0.19030635293E-01  0.10202906162E+01  0.10200167259E+01 0.  0.
     999903    2    3    3    0    0 -0.80797890114E-01 -0.10154039712E+00  0.66556966402E-02  0.13147961953E+00  0.20095789595E-01 0.  0.
         14    1    1    2    0    0  0.14003225785E-01 -0.75169959193E-03  0.19030635293E-01  0.23639383755E-01  0.00000000000E+00 0. -1.
     999901    1    3    3    0    0  0.66794664329E-01  0.10229209671E+00 -0.25686331933E-01  0.88881099671E+00  0.88000000000E+00 0. -1.
        -11    1    4    4    0    0 -0.51554203568E-01 -0.70953938951E-01  0.13071758435E-01  0.88675979542E-01  0.51100000000E-03 0. -1.
         11    1    4    4    0    0 -0.29243686546E-01 -0.30586458171E-01 -0.64160617952E-02  0.42803639988E-01  0.51100000000E-03 0.  1.
</event>
<event>
 8    1  0.1137518E+005  0.1043930E+01  0.7957747E-01            NaN
         13   -1    0    0    0    0  0.00000000000E+00  0.00000000000E+00  0.74505805969E-08  0.10566000000E+00  0.10566000000E+00 0.  1.
     999900   -1    0    0    0    0 -0.00000000000E+00 -0.00000000000E+00 -0.74505805969E-08  0.93827000000E+00  0.93827000000E+00 0.  1.
     999902    2    1    2    0    0 -0.10908651505E-01  0.18274515932E-01 -0.90712851684E-02  0.10207946412E+01  0.10205324369E+01 0.  0.
     999903    2    3    3    0    0  0.73909041347E-01  0.35351147862E-01 -0.10279819653E+00  0.13159815773E+00  0.61932108990E-02 0.  0.
         14    1    1    2    0    0  0.10908651505E-01 -0.18274515932E-01  0.90712851684E-02  0.23135358757E-01  0.00000000000E+00 0.  1.
     999901    1    3    3    0    0 -0.84817692852E-01 -0.17076631931E-01  0.93726911357E-01  0.88919648351E+00  0.88000000000E+00 0.  1.
        -11    1    4    4    0    0  0.39685893683E-01  0.20675331197E-01 -0.60299660328E-01  0.75091608281E-01  0.51100000000E-03 0.  1.
         11    1    4    4    0    0  0.34223147663E-01  0.14675816665E-01 -0.42498536198E-01  0.56506549450E-01  0.51100000000E-03 0. -1.
</event>
<event>
 8    1  0.1137518E+005  0.1043930E+01  0.7957747E-01            NaN
         13   -1    0    0    0    0  0.00000000000E+00  0.00000000000E+00  0.74505805969E-08  0.10566000000E+00  0.10566000000E+00 0. -1.
     999900   -1    0    0    0    0 -0.00000000000E+00 -0.00000000000E+00 -0.74505805969E-08  0.93827000000E+00  0.93827000000E+00 0. -1.
     999902    2    1    2    0    0  0.42143344718E-02 -0.11353356931E-01  0.19167898600E-01  0.10212569397E+01  0.10210052248E+01 0.  0.
     999903    2    3    3    0    0 -0.22119740365E-01 -0.21221297396E-01  0.12891412029E+00  0.13399424297E+00  0.19899255354E-01 0.  0.
         14    1    1    2    0    0 -0.42143344718E-02  0.11353356931E-01 -0.19167898600E-01  0.22673060345E-01  0.00000000000E+00 0.  1.
     999901    1    3    3    0    0  0.26334074837E-01  0.98679404648E-02 -0.10974622169E+00  0.88726269668E+00  0.88000000000E+00 0. -1.
        -11    1    4    4    0    0 -0.21214006318E-01 -0.14837447004E-01  0.68424564813E-01  0.73159866652E-01  0.51100000000E-03 0.  1.
         11    1    4    4    0    0 -0.90573404725E-03 -0.63838503920E-02  0.60489555475E-01  0.60834376323E-01  0.51100000000E-03 0. -1.
</event>
<event>
 8    1  0.1137518E+005  0.1043930E+01  0.7957747E-01            NaN
         13   -1    0    0    0    0  0.00000000000E+00  0.00000000000E+00  0.74505805969E-08  0.10566000000E+00  0.10566000000E+00 0. -1.
     999900   -1    0    0    0    0 -0.00000000000E+00 -0.00000000000E+00 -0.74505805969E-08  0.93827000000E+00  0.93827000000E+00 0. -1.
     999902    2    1    2    0    0  0.84362328506E-02 -0.10976168073E-01  0.18774653683E-01  0.10206033219E+01  0.10203367124E+01 0.  0.
     999903    2    3    3    0    0 -0.87722190382E-01  0.90564166394E-01  0.19868018946E-01  0.12956006968E+00  0.22226618231E-01 0.  0.
         14    1    1    2    0    0 -0.84362328506E-02  0.10976168073E-01 -0.18774653683E-01  0.23326678100E-01  0.00000000000E+00 0.  1.
     999901    1    3    3    0    0  0.96158423233E-01 -0.10154033447E+00 -0.10933652624E-02  0.89104325222E+00  0.88000000000E+00 0. -1.
        -11    1    4    4    0    0 -0.12495805992E-01  0.12662488881E-01 -0.49177638634E-02  0.18464271295E-01  0.51100000000E-03 0.  1.
         11    1    4    4    0    0 -0.75226384390E-01  0.77901677513E-01  0.24785782809E-01  0.11109579838E+00  0.51100000000E-03 0. -1.
</event>
<event>
 8    1  0.1137518E+005  0.1043930E+01  0.7957747E-01            NaN
         13   -1    0    0    0    0  0.00000000000E+00  0.00000000000E+00  0.74505805969E-08  0.10566000000E+00  0.10566000000E+00 0. -1.
     999900   -1    0    0    0    0 -0.00000000000E+00 -0.00000000000E+00 -0.74505805969E-08  0.93827000000E+00  0.93827000000E+00 0.  1.
     999902    2    1    2    0    0  0.15672217243E-02  0.97648610508E-02  0.21435098117E-01  0.10203233881E+01  0.10200502655E+01 0.  0.
     999903    2    3    3    0    0 -0.11187853359E+00  0.40343301833E-01  0.53363417404E-01  0.13194036369E+00  0.20401396347E-01 0.  0.
         14    1    1    2    0    0 -0.15672217243E-02 -0.97648610508E-02 -0.21435098117E-01  0.23606611924E-01  0.00000000000E+00 0. -1.
     999901    1    3    3    0    0  0.11344575532E+00 -0.30578440782E-01 -0.31928319288E-01  0.88838302438E+00  0.88000000000E+00 0.  1.
        -11    1    4    4    0    0 -0.59826613734E-01  0.19431797069E-01  0.39067751369E-01  0.74049772222E-01  0.51100000000E-03 0. -1.
         11    1    4    4    0    0 -0.52051919858E-01  0.20911504764E-01  0.14295666036E-01  0.57890591470E-01  0.51100000000E-03 0.  1.
</event>
<event>
 8    1  0.1137518E+005  0.1043930E+01  0.7957747E-01            NaN
         13   -1    0    0    0    0  0.00000000000E+00  0.00000000000E+00  0.74505805969E-08  0.10566000000E+00  0.10566000000E+00 0. -1.
     999900   -1    0    0    0    0 -0.00000000000E+00 -0.00000000000E+00 -0.74505805969E-08  0.93827000000E+00  0.93827000000E+00 0.  1.
     999902    2    1    2    0    0  0.69222105755E-02 -0.13333753009E-01 -0.18270912492E-01  0.10202755668E+01  0.10200013235E+01 0.  0.
     999903    2    3    3    0    0 -0.78036633696E-01 -0.80900763932E-01 -0.67578396867E-01  0.13223585245E+00  0.16876941245E-01 0.  0.
         14    1    1    2    0    0 -0.69222105755E-02  0.13333753009E-01  0.18270912492E-01  0.23654433239E-01  0.00000000000E+00 0.  1.
     999901    1    3    3    0    0  0.84958844271E-01  0.67567010923E-01  0.49307484375E-01  0.88803971431E+00  0.88000000000E+00 0. -1.
        -11    1    4    4    0    0 -0.15948651952E-01 -0.25131911186E-01 -0.22987175748E-01  0.37611751206E-01  0.51100000000E-03 0.  1.
         11    1    4    4    0    0 -0.62087981744E-01 -0.55768852746E-01 -0.44591221120E-01  0.94624101241E-01  0.51100000000E-03 0. -1.
</event>
<event>
 8    1  0.1137518E+005  0.1043930E+01  0.7957747E-01            NaN
         13   -1    0    0    0    0  0.00000000000E+00  0.00000000000E+00  0.74505805969E-08  0.10566000000E+00  0.10566000000E+00 0.  1.
     999900   -1    0    0    0    0 -0.00000000000E+00 -0.00000000000E+00 -0.74505805969E-08  0.93827000000E+00  0.93827000000E+00 0. -1.
     999902    2    1    2    0    0  0.10489462646E-01 -0.22599208758E-01 -0.88073517420E-02  0.10175042075E+01  0.10171609950E+01 0.  0.
     999903    2    3    3    0    0 -0.51525107558E-01 -0.30182320355E-01 -0.11282512142E+00  0.12917824995E+00  0.19791489741E-01 0.  0.
         14    1    1    2    0    0 -0.10489462646E-01  0.22599208758E-01  0.88073517420E-02  0.26425792473E-01  0.00000000000E+00 0.  1.
     999901    1    3    3    0    0  0.62014570204E-01  0.75831115962E-02  0.10401776968E+00  0.88832595758E+00  0.88000000000E+00 0.  1.
        -11    1    4    4    0    0 -0.41993133755E-02 -0.17503099269E-02 -0.13395656869E-02  0.47700497791E-02  0.51100000000E-03 0. -1.
         11    1    4    4    0    0 -0.47325794183E-01 -0.28432010428E-01 -0.11148555573E+00  0.12440820017E+00  0.51100000000E-03 0.  1.
</event>
<event>
 7    1  0.1137518E+005  0.1043930E+01  0.7957747E-01            NaN
         13   -1    0    0    0    0  0.00000000000E+00  0.00000000000E+00  0.74505805969E-08  0.10566000000E+00  0.10566000000E+00 0.  1.
     999900   -1    0    0    0    0 -0.00000000000E+00 -0.00000000000E+00 -0.74505805969E-08  0.93827000000E+00  0.93827000000E+00 0. -1.
     999903    2    1    2    0    0  0.11676394415E-01 -0.97791964745E-01  0.35953336166E-01  0.10662915979E+00  0.19430099886E-01 0.  0.
         14    1    1    2    0    0 -0.11152341880E-01 -0.27662165241E-01  0.34512552831E-01  0.45614541740E-01  0.00000000000E+00 0.  1.
     999901    1    1    2    0    0 -0.52405253514E-03  0.12545412999E+00 -0.70465888997E-01  0.89168629847E+00  0.88000000000E+00 0. -1.
        -11    1    3    3    0    0  0.15986258305E-01 -0.90230277207E-01  0.32094446440E-01  0.97094685708E-01  0.51100000000E-03 0.  1.
         11    1    3    3    0    0 -0.43098638897E-02 -0.75616875377E-02  0.38588897258E-02  0.95344740853E-02  0.51100000000E-03 0. -1.
</event>
<event>
 8    1  0.1137518E+005  0.1043930E+01  0.7957747E-01            NaN
         13   -1    0    0    0    0  0.00000000000E+00  0.00000000000E+00  0.74505805969E-08  0.10566000000E+00  0.10566000000E+00 0.  1.
     999900   -1    0    0    0    0 -0.00000000000E+00 -0.00000000000E+00 -0.74505805969E-08  0.93827000000E+00  0.93827000000E+00 0. -1.
     999902    2    1    2    0    0  0.10501400525E-02  0.21183015288E-01  0.90034145224E-02  0.10208890711E+01  0.10206290272E+01 0.  0.
     999903    2    3    3    0    0 -0.47492662186E-01  0.11521740300E+00 -0.41713758807E-01  0.13309906138E+00  0.21088374766E-01 0.  0.
         14    1    1    2    0    0 -0.10501400525E-02 -0.21183015288E-01 -0.90034145224E-02  0.23040928885E-01  0.00000000000E+00 0.  1.
     999901    1    3    3    0    0  0.48542802238E-01 -0.94034387711E-01  0.50717173330E-01  0.88779000974E+00  0.88000000000E+00 0.  1.
        -11    1    4    4    0    0 -0.27860856965E-01  0.87593625285E-01 -0.24724484075E-01  0.95186300355E-01  0.51100000000E-03 0. -1.
         11    1    4    4    0    0 -0.19631805221E-01  0.27623777713E-01 -0.16989274732E-01  0.37912761022E-01  0.51100000000E-03 0.  1.
</event>
<event>
 8    1  0.1137518E+005  0.1043930E+01  0.7957747E-01            NaN
         13   -1    0    0    0    0  0.00000000000E+00  0.00000000000E+00  0.74505805969E-08  0.10566000000E+00  0.10566000000E+00 0.  1.
     999900   -1    0    0    0    0 -0.00000000000E+00 -0.00000000000E+00 -0.74505805969E-08  0.93827000000E+00  0.93827000000E+00 0.  1.
     999902    2    1    2    0    0 -0.18025867281E-01 -0.16405008428E-01 -0.34145279513E-02  0.10193187182E+01  0.10190215572E+01 0.  0.
     999903    2    3    3    0    0 -0.38390701817E-01 -0.86857360810E-01  0.88633962296E-01  0.13148360678E+00  0.20344838818E-01 0.  0.
         14    1    1    2    0    0  0.18025867281E-01  0.16405008428E-01  0.34145279513E-02  0.24611281841E-01  0.00000000000E+00 0.  1.
     999901    1    3    3    0    0  0.20364834536E-01  0.70452352382E-01 -0.92048490247E-01  0.88783511138E+00  0.88000000000E+00 0.  1.
        -11    1    4    4    0    0 -0.25775879079E-01 -0.52366173434E-01  0.40980646104E-01  0.71318206220E-01  0.51100000000E-03 0. -1.
         11    1    4    4    0    0 -0.12614822738E-01 -0.34491187376E-01  0.47653316192E-01  0.60165400559E-01  0.51100000000E-03 0.  1.
</event>
<event>
 8    1  0.1137518E+005  0.1043930E+01  0.7957747E-01            NaN
         13   -1    0    0    0    0  0.00000000000E+00  0.00000000000E+00  0.74505805969E-08  0.10566000000E+00  0.10566000000E+00 0.  1.
     999900   -1    0    0    0    0 -0.00000000000E+00 -0.00000000000E+00 -0.74505805969E-08  0.93827000000E+00  0.93827000000E+00 0.  1.
     999902    2    1    2    0    0 -0.39663849795E-02  0.12643445633E-01  0.19664410800E-01  0.10202175986E+01  0.10199419937E+01 0.  0.
     999903    2    3    3    0    0 -0.90598527811E-01  0.29999292264E-01  0.90294159010E-01  0.13297754377E+00  0.20541207824E-01 0.  0.
         14    1    1    2    0    0  0.39663849795E-02 -0.12643445633E-01 -0.19664410800E-01  0.23712401384E-01  0.00000000000E+00 0. -1.
     999901    1    3    3    0    0  0.86632142831E-01 -0.17355846630E-01 -0.70629748210E-01  0.88724005484E+00  0.88000000000E+00 0.  1.
        -11    1    4    4    0    0 -0.33839339987E-01  0.66772849031E-02  0.45027598824E-01  0.56722419212E-01  0.51100000000E-03 0.  1.
         11    1    4    4    0    0 -0.56759187824E-01  0.23322007361E-01  0.45266560186E-01  0.76255124561E-01  0.51100000000E-03 0. -1.
</event>
<event>
 8    1  0.1137518E+005  0.1043930E+01  0.7957747E-01            NaN
         13   -1    0    0    0    0  0.00000000000E+00  0.00000000000E+00  0.74505805969E-08  0.10566000000E+00  0.10566000000E+00 0.  1.
     999900   -1    0    0    0    0 -0.00000000000E+00 -0.00000000000E+00 -0.74505805969E-08  0.93827000000E+00  0.93827000000E+00 0.  1.
     999902    2    1    2    0    0 -0.28609013165E-03  0.22687480840E-01 -0.11897400631E-01  0.10183106367E+01  0.10179883108E+01 0.  0.
     999903    2    3    3    0    0 -0.67848508467E-01  0.15820682952E-01  0.10201917638E+00  0.12837309967E+00  0.34900232932E-01 0.  0.
         14    1    1    2    0    0  0.28609013165E-03 -0.22687480840E-01  0.11897400631E-01  0.25619363306E-01  0.00000000000E+00 0.  1.
     999901    1    3    3    0    0  0.67562418336E-01  0.68667978887E-02 -0.11391657701E+00  0.88993753702E+00  0.88000000000E+00 0.  1.
        -11    1    4    4    0    0 -0.52863004186E-01  0.10705756952E-01  0.48426799879E-01  0.72488112895E-01  0.51100000000E-03 0. -1.
         11    1    4    4    0    0 -0.14985504281E-01  0.51149259998E-02  0.53592376504E-01  0.55884986775E-01  0.51100000000E-03 0.  1.
</event>
<event>
 8    1  0.1137518E+005  0.1043930E+01  0.7957747E-01            NaN
         13   -1    0    0    0    0  0.00000000000E+00  0.00000000000E+00  0.74505805969E-08  0.10566000000E+00  0.10566000000E+00 0. -1.
     999900   -1    0    0    0    0 -0.00000000000E+00 -0.00000000000E+00 -0.74505805969E-08  0.93827000000E+00  0.93827000000E+00 0. -1.
     999902    2    1    2    0    0  0.29292012795E-01 -0.46694915749E-02  0.15669643487E-01  0.10103835562E+01  0.10098265033E+01 0.  0.
     999903    2    3    3    0    0 -0.37487099335E-01 -0.40726287829E-01  0.10691274021E+00  0.12241686477E+00  0.22172993129E-01 0.  0.
         14    1    1    2    0    0 -0.29292012795E-01  0.46694915749E-02 -0.15669643487E-01  0.33546443808E-01  0.00000000000E+00 0.  1.
     999901    1    3    3    0    0  0.66779112130E-01  0.36056796254E-01 -0.91243096723E-01  0.88796669142E+00  0.88000000000E+00 0. -1.
        -11    1    4    4    0    0 -0.90322129929E-02 -0.24752101855E-01  0.56770286707E-01  0.62588928666E-01  0.51100000000E-03 0.  1.
         11    1    4    4    0    0 -0.28454886342E-01 -0.15974185974E-01  0.50142453504E-01  0.59827936106E-01  0.51100000000E-03 0. -1.
</event>
<event>
 8    1  0.1137518E+005  0.1043930E+01  0.7957747E-01            NaN
         13   -1    0    0    0    0  0.00000000000E+00  0.00000000000E+00  0.74505805969E-08  0.10566000000E+00  0.10566000000E+00 0.  1.
     999900   -1    0    0    0    0 -0.00000000000E+00 -0.00000000000E+00 -0.74505805969E-08  0.93827000000E+00  0.93827000000E+00 0.  1.
     999902    2    1    2    0    0  0.16795542201E-01 -0.17854750352E-01  0.43123442505E-02  0.10190406717E+01  0.10187366745E+01 0.  0.
     999903    2    3    3    0    0 -0.11989504196E+00 -0.35002149912E-01  0.21900952730E-01  0.12814914734E+00  0.18508934293E-01 0.  0.
         14    1    1    2    0    0 -0.16795542201E-01  0.17854750352E-01 -0.43123442505E-02  0.24889328253E-01  0.00000000000E+00 0. -1.
     999901    1    3    3    0    0  0.13669058416E+00  0.17147399560E-01 -0.17588608480E-01  0.89089152441E+00  0.88000000000E+00 0.  1.
        -11    1    4    4    0    0 -0.20162144587E-02 -0.69462629038E-03 -0.21203544454E-02  0.30503525044E-02  0.51100000000E-03 0. -1.
         11    1    4    4    0    0 -0.11787882750E+00 -0.34307523622E-01  0.24021307175E-01  0.12509879484E+00  0.51100000000E-03 0.  1.
</event>
<event>
 8    1  0.1137518E+005  0.1043930E+01  0.7957747E-01            NaN
         13   -1    0    0    0    0  0.00000000000E+00  0.00000000000E+00  0.74505805969E-08  0.10566000000E+00  0.10566000000E+00 0.  1.
     999900   -1    0    0    0    0 -0.00000000000E+00 -0.00000000000E+00 -0.74505805969E-08  0.93827000000E+00  0.93827000000E+00 0.  1.
     999902    2    1    2    0    0 -0.34336023877E-02  0.18976255732E-01 -0.15686180193E-01  0.10190715174E+01  0.10187682825E+01 0.  0.
     999903    2    3    3    0    0  0.22921424087E-02 -0.15292656585E-01 -0.12870987732E+00  0.13116302066E+00  0.19959614409E-01 0.  0.
         14    1    1    2    0    0  0.34336023877E-02 -0.18976255732E-01  0.15686180193E-01  0.24858482577E-01  0.00000000000E+00 0. -1.
     999901    1    3    3    0    0 -0.57257447964E-02  0.34268912317E-01  0.11302369713E+00  0.88790849676E+00  0.88000000000E+00 0. -1.
        -11    1    4    4    0    0 -0.38699782531E-02  0.30703899716E-02 -0.43244701462E-01  0.43528948434E-01  0.51100000000E-03 0.  1.
         11    1    4    4    0    0  0.61621206618E-02 -0.18363046556E-01 -0.85465175859E-01  0.87634072230E-01  0.51100000000E-03 0. -1.
</event>
<event>
 8    1  0.1137518E+005  0.1043930E+01  0.7957747E-01            NaN
         13   -1    0    0    0    0  0.00000000000E+00  0.00000000000E+00  0.74505805969E-08  0.10566000000E+00  0.10566000000E+00 0. -1.
     999900   -1    0    0    0    0 -0.00000000000E+00 -0.00000000000E+00 -0.74505805969E-08  0.93827000000E+00  0.93827000000E+00 0. -1.
     999902    2    1    2    0    0 -0.23342130177E-01  0.12156151982E-02 -0.85483955350E-02  0.10190420947E+01  0.10187381327E+01 0.  0.
     999903    2    3    3    0    0 -0.99991736544E-01  0.58040929378E-01  0.59291165614E-01  0.13128847772E+00  0.18818214656E-01 0.  0.
         14    1    1    2    0    0  0.23342130177E-01 -0.12156151982E-02  0.85483955350E-02  0.24887905250E-01  0.00000000000E+00 0. -1.
     999901    1    3    3    0    0  0.76649606367E-01 -0.56825314179E-01 -0.67839561149E-01  0.88775361703E+00  0.88000000000E+00 0. -1.
        -11    1    4    4    0    0 -0.77085619267E-01  0.49449086442E-01  0.39172853280E-01  0.99610132029E-01  0.51100000000E-03 0. -1.
         11    1    4    4    0    0 -0.22906117277E-01  0.85918429351E-02  0.20118312334E-01  0.31678345694E-01  0.51100000000E-03 0.  1.
</event>
<event>
 8    1  0.1137518E+005  0.1043930E+01  0.7957747E-01            NaN
         13   -1    0    0    0    0  0.00000000000E+00  0.00000000000E+00  0.74505805969E-08  0.10566000000E+00  0.10566000000E+00 0.  1.
     999900   -1    0    0    0    0 -0.00000000000E+00 -0.00000000000E+00 -0.74505805969E-08  0.93827000000E+00  0.93827000000E+00 0. -1.
     999902    2    1    2    0    0 -0.45540784944E-02 -0.22525391485E-01 -0.63022357428E-02  0.10201003742E+01  0.10198220052E+01 0.  0.
     999903    2    3    3    0    0 -0.34188852795E-01  0.84601443922E-01  0.87546699290E-01  0.12815755014E+00  0.20824291863E-01 0.  0.
         14    1    1    2    0    0  0.45540784944E-02  0.22525391485E-01  0.63022357428E-02  0.23829625843E-01  0.00000000000E+00 0. -1.
     999901    1    3    3    0    0  0.29634774300E-01 -0.10712683541E+00 -0.93848935033E-01  0.89194282402E+00  0.88000000000E+00 0.  1.
        -11    1    4    4    0    0 -0.23452957725E-01  0.62336271402E-01  0.50350659439E-01  0.83494323072E-01  0.51100000000E-03 0. -1.
         11    1    4    4    0    0 -0.10735895070E-01  0.22265172520E-01  0.37196039851E-01  0.44663227065E-01  0.51100000000E-03 0.  1.
</event>
<event>
 8    1  0.1137518E+005  0.1043930E+01  0.7957747E-01            NaN
         13   -1    0    0    0    0  0.00000000000E+00  0.00000000000E+00  0.74505805969E-08  0.10566000000E+00  0.10566000000E+00 0. -1.
     999900   -1    0    0    0    0 -0.00000000000E+00 -0.00000000000E+00 -0.74505805969E-08  0.93827000000E+00  0.93827000000E+00 0. -1.
     999902    2    1    2    0    0 -0.16291640545E-01 -0.21695532673E-02 -0.17828569499E-01  0.10196816515E+01  0.10193932941E+01 0.  0.
     999903    2    3    3    0    0  0.66087385165E-01 -0.10464465535E+00 -0.33784037468E-01  0.12977040462E+00  0.19517949595E-01 0.  0.
         14    1    1    2    0    0  0.16291640545E-01  0.21695532673E-02  0.17828569499E-01  0.24248348468E-01  0.00000000000E+00 0. -1.
     999901    1    3    3    0    0 -0.82379025710E-01  0.10247510208E+00  0.15955467969E-01  0.88991124691E+00  0.88000000000E+00 0.  1.
        -11    1    4    4    0    0  0.54061398987E-01 -0.70646504546E-01 -0.27866405925E-01  0.93222106634E-01  0.51100000000E-03 0. -1.
         11    1    4    4    0    0  0.12025986178E-01 -0.33998150803E-01 -0.59176315425E-02  0.36548297986E-01  0.51100000000E-03 0.  1.
</event>
<event>
 8    1  0.1137518E+005  0.1043930E+01  0.7957747E-01            NaN
         13   -1    0    0    0    0  0.00000000000E+00  0.00000000000E+00  0.74505805969E-08  0.10566000000E+00  0.10566000000E+00 0. -1.
     999900   -1    0    0    0    0 -0.00000000000E+00 -0.00000000000E+00 -0.74505805969E-08  0.93827000000E+00  0.93827000000E+00 0.  1.
     999902    2    1    2    0    0  0.57036932633E-02 -0.14559246494E-01 -0.17817752315E-01  0.10202239655E+01  0.10199485103E+01 0.  0.
     999903    2    3    3    0    0 -0.41252127030E-01  0.37344222863E-01  0.11321722607E+00  0.12777285491E+00  0.20283816359E-01 0.  0.
         14    1    1    2    0    0 -0.57036932633E-02  0.14559246494E-01  0.17817752315E-01  0.23706034525E-01  0.00000000000E+00 0. -1.
     999901    1    3    3    0    0  0.46955820293E-01 -0.51903469357E-01 -0.13103497839E+00  0.89245111057E+00  0.88000000000E+00 0.  1.
        -11    1    4    4    0    0 -0.27954315959E-01  0.11772034858E-01  0.60983864720E-01  0.68112535282E-01  0.51100000000E-03 0.  1.
         11    1    4    4    0    0 -0.13297811071E-01  0.25572188005E-01  0.52233361353E-01  0.59660319626E-01  0.51100000000E-03 0. -1.
</event>
<event>
 8    1  0.1137518E+005  0.1043930E+01  0.7957747E-01            NaN
         13   -1    0    0    0    0  0.00000000000E+00  0.00000000000E+00  0.74505805969E-08  0.10566000000E+00  0.10566000000E+00 0. -1.
     999900   -1    0    0    0    0 -0.00000000000E+00 -0.00000000000E+00 -0.74505805969E-08  0.93827000000E+00  0.93827000000E+00 0.  1.
     999902    2    1    2    0    0 -0.10470698095E-01  0.12815782041E-01 -0.17897248151E-01  0.10195539610E+01  0.10192625216E+01 0.  0.
     999903    2    3    3    0    0  0.51329098909E-01  0.10802667314E+00 -0.51265356989E-01  0.13163630747E+00  0.19888240581E-01 0.  0.
         14    1    1    2    0    0  0.10470698095E-01 -0.12815782041E-01  0.17897248151E-01  0.24376039040E-01  0.00000000000E+00 0. -1.
     999901    1    3    3    0    0 -0.61799797005E-01 -0.95210891094E-01  0.33368108838E-01  0.88791765349E+00  0.88000000000E+00 0.  1.
        -11    1    4    4    0    0  0.35051327230E-01  0.90082404896E-01 -0.44897692513E-01  0.10658095105E+00  0.51100000000E-03 0.  1.
         11    1    4    4    0    0  0.16277771679E-01  0.17944268239E-01 -0.63676644759E-02  0.25055356421E-01  0.51100000000E-03 0. -1.
</event>
<event>
 8    1  0.1137518E+005  0.1043930E+01  0.7957747E-01            NaN
         13   -1    0    0    0    0  0.00000000000E+00  0.00000000000E+00  0.74505805969E-08  0.10566000000E+00  0.10566000000E+00 0. -1.
     999900   -1    0    0    0    0 -0.00000000000E+00 -0.00000000000E+00 -0.74505805969E-08  0.93827000000E+00  0.93827000000E+00 0.  1.
     999902    2    1    2    0    0  0.17392202305E-01 -0.15182054273E-01 -0.62175623475E-02  0.10200209734E+01  0.10197407242E+01 0.  0.
     999903    2    3    3    0    0 -0.11132999561E+00 -0.63127596302E-01  0.53504766513E-03  0.12933933722E+00  0.18679307725E-01 0.  0.
         14    1    1    2    0    0 -0.17392202305E-01  0.15182054273E-01  0.62175623475E-02  0.23909026632E-01  0.00000000000E+00 0. -1.
     999901    1    3    3    0    0  0.12872219792E+00  0.47945542029E-01 -0.67526100126E-02  0.89068163615E+00  0.88000000000E+00 0.  1.
        -11    1    4    4    0    0 -0.79457793896E-01 -0.35177281193E-01  0.19708726618E-02  0.86920236901E-01  0.51100000000E-03 0. -1.
         11    1    4    4    0    0 -0.31872201717E-01 -0.27950315109E-01 -0.14358249966E-02  0.42419100314E-01  0.51100000000E-03 0.  1.
</event>
<event>
 8    1  0.1137518E+005  0.1043930E+01  0.7957747E-01            NaN
         13   -1    0    0    0    0  0.00000000000E+00  0.00000000000E+00  0.74505805969E-08  0.10566000000E+00  0.10566000000E+00 0.  1.
     999900   -1    0    0    0    0 -0.00000000000E+00 -0.00000000000E+00 -0.74505805969E-08  0.93827000000E+00  0.93827000000E+00 0.  1.
     999902    2    1    2    0    0 -0.14205542062E-01 -0.17816422108E-01 -0.89484701457E-02  0.10194494477E+01  0.10191554734E+01 0.  0.
     999903    2    3    3    0    0  0.10458402581E+00  0.29572042192E-01 -0.65968730274E-01  0.12837821709E+00  0.17798008773E-01 0.  0.
         14    1    1    2    0    0  0.14205542062E-01  0.17816422108E-01  0.89484701457E-02  0.24480552281E-01  0.00000000000E+00 0.  1.
     999901    1    3    3    0    0 -0.11878956787E+00 -0.47388464300E-01  0.57020260128E-01  0.89107123063E+00  0.88000000000E+00 0. -1.
        -11    1    4    4    0    0  0.32718254022E-01  0.14342889101E-02 -0.16174142900E-01  0.36529513416E-01  0.51100000000E-03 0.  1.
         11    1    4    4    0    0  0.71865771788E-01  0.28137753282E-01 -0.49794587375E-01  0.91848703677E-01  0.51100000000E-03 0. -1.
</event>
<event>
 8    1  0.1137518E+005  0.1043930E+01  0.7957747E-01            NaN
         13   -1    0    0    0    0  0.00000000000E+00  0.00000000000E+00  0.74505805969E-08  0.10566000000E+00  0.10566000000E+00 0. -1.
     999900   -1    0    0    0    0 -0.00000000000E+00 -0.00000000000E+00 -0.74505805969E-08  0.93827000000E+00  0.93827000000E+00 0. -1.
     999902    2    1    2    0    0 -0.81163615945E-02 -0.21607543264E-01  0.45349659445E-02  0.10204070927E+01  0.10201359261E+01 0.  0.
     999903    2    3    3    0    0 -0.12167305127E+00  0.40518030906E-01 -0.16154455005E-01  0.13069772394E+00  0.19361983150E-01 0.  0.
         14    1    1    2    0    0  0.81163615945E-02  0.21607543264E-01 -0.45349659445E-02  0.23522907294E-01  0.00000000000E+00 0. -1.
     999901    1    3    3    0    0  0.11355668968E+00 -0.62125574170E-01  0.20689420950E-01  0.88970936877E+00  0.88000000000E+00 0.  1.
        -11    1    4    4    0    0 -0.19654611679E-01  0.14257769054E-01 -0.14359301829E-02  0.24329216082E-01  0.51100000000E-03 0. -1.
         11    1    4    4    0    0 -0.10201843959E+00  0.26260261853E-01 -0.14718524822E-01  0.10636850786E+00  0.51100000000E-03 0.  1.
</event>
<event>
 8    1  0.1137518E+005  0.1043930E+01  0.7957747E-01            NaN
         13   -1    0    0    0    0  0.00000000000E+00  0.00000000000E+00  0.74505805969E-08  0.10566000000E+00  0.10566000000E+00 0.  1.
     999900   -1    0    0    0    0 -0.00000000000E+00 -0.00000000000E+00 -0.74505805969E-08  0.93827000000E+00  0.93827000000E+00 0.  1.
     999902    2    1    2    0    0  0.26806013148E-01  0.10662983633E-01  0.11941651072E-01  0.10127071784E+01  0.10122257478E+01 0.  0.
     999903    2    3    3    0    0 -0.91239987415E-01 -0.58914890058E-01 -0.47029461716E-01  0.12015268092E+00  0.20717067574E-01 0.  0.
         14    1    1    2    0    0 -0.26806013148E-01 -0.10662983633E-01 -0.11941651072E-01  0.31222821640E-01  0.00000000000E+00 0. -1.
     999901    1    3    3    0    0  0.11804600056E+00  0.69577873691E-01  0.58971112788E-01  0.89255449744E+00  0.88000000000E+00 0. -1.
        -11    1    4    4    0    0 -0.54900701470E-02 -0.38393979323E-02 -0.93110233696E-02  0.11482078379E-01  0.51100000000E-03 0.  1.
         11    1    4    4    0    0 -0.85749917268E-01 -0.55075492125E-01 -0.37718438346E-01  0.10867060254E+00  0.51100000000E-03 0. -1.
</event>
<event>
 8    1  0.1137518E+005  0.1043930E+01  0.7957747E-01            NaN
         13   -1    0    0    0    0  0.00000000000E+00  0.00000000000E+00  0.74505805969E-08  0.10566000000E+00  0.10566000000E+00 0. -1.
     999900   -1    0    0    0    0 -0.00000000000E+00 -0.00000000000E+00 -0.74505805969E-08  0.93827000000E+00  0.93827000000E+00 0.  1.
     999902    2    1    2    0    0 -0.11298756953E-02  0.15418965713E-01  0.18477277473E-01  0.10198378663E+01  0.10195532564E+01 0.  0.
     999903    2    3    3    0    0 -0.11546633975E+00  0.52028995216E-01  0.29628031267E-01  0.13161635082E+00  0.20138311971E-01 0.  0.
         14    1    1    2    0    0  0.11298756953E-02 -0.15418965713E-01 -0.18477277473E-01  0.24092133687E-01  0.00000000000E+00 0.  1.
     999901    1    3    3    0    0  0.11433646405E+00 -0.36610029503E-01 -0.11150753794E-01  0.88822151549E+00  0.88000000000E+00 0.  1.
        -11    1    4    4    0    0 -0.27738624532E-01  0.34502747240E-02  0.64132049453E-02  0.28683200750E-01  0.51100000000E-03 0. -1.
         11    1    4    4    0    0 -0.87727715215E-01  0.48578720492E-01  0.23214826321E-01  0.10293315007E+00  0.51100000000E-03 0.  1.
</event>
<event>
 8    1  0.1137518E+005  0.1043930E+01  0.7957747E-01            NaN
         13   -1    0    0    0    0  0.00000000000E+00  0.00000000000E+00  0.74505805969E-08  0.10566000000E+00  0.10566000000E+00 0.  1.
     999900   -1    0    0    0    0 -0.00000000000E+00 -0.00000000000E+00 -0.74505805969E-08  0.93827000000E+00  0.93827000000E+00 0.  1.
     999902    2    1    2    0    0 -0.15993248758E-01  0.17429135413E-01 -0.24182868469E-02  0.10201517141E+01  0.10198745575E+01 0.  0.
     999903    2    3    3    0    0  0.67947435757E-01 -0.10143012502E+00  0.30630674785E-01  0.12759034585E+00  0.20883817385E-01 0.  0.
         14    1    1    2    0    0  0.15993248758E-01 -0.17429135413E-01  0.24182868469E-02  0.23778285858E-01  0.00000000000E+00 0.  1.
     999901    1    3    3    0    0 -0.83940684515E-01  0.11885926043E+00 -0.33048961632E-01  0.89256136829E+00  0.88000000000E+00 0.  1.
        -11    1    4    4    0    0  0.27601157062E-01 -0.24187166789E-01  0.83625112253E-02  0.37643533620E-01  0.51100000000E-03 0.  1.
         11    1    4    4    0    0  0.40346278695E-01 -0.77242958229E-01  0.22268163559E-01  0.89946812227E-01  0.51100000000E-03 0. -1.
</event>
<event>
 8    1  0.1137518E+005  0.1043930E+01  0.7957747E-01            NaN
         13   -1    0    0    0    0  0.00000000000E+00  0.00000000000E+00  0.74505805969E-08  0.10566000000E+00  0.10566000000E+00 0. -1.
     999900   -1    0    0    0    0 -0.00000000000E+00 -0.00000000000E+00 -0.74505805969E-08  0.93827000000E+00  0.93827000000E+00 0.  1.
     999902    2    1    2    0    0 -0.86654647734E-02  0.19138664039E-01  0.90636534097E-02  0.10210492536E+01  0.10207928535E+01 0.  0.
     999903    2    3    3    0    0  0.54320767221E-01 -0.70779758865E-01  0.92930715523E-01  0.13027078943E+00  0.19334959875E-01 0.  0.
         14    1    1    2    0    0  0.86654647734E-02 -0.19138664039E-01 -0.90636534097E-02  0.22880746362E-01  0.00000000000E+00 0. -1.
     999901    1    3    3    0    0 -0.62986231994E-01  0.89918422904E-01 -0.83867062113E-01  0.89077846421E+00  0.88000000000E+00 0.  1.
        -11    1    4    4    0    0  0.11854623780E-01 -0.18931867238E-01  0.12592083385E-01  0.25647015169E-01  0.51100000000E-03 0.  1.
         11    1    4    4    0    0  0.42466143441E-01 -0.51847891628E-01  0.80338632138E-01  0.10462377426E+00  0.51100000000E-03 0. -1.
</event>
<event>
 8    1  0.1137518E+005  0.1043930E+01  0.7957747E-01            NaN
         13   -1    0    0    0    0  0.00000000000E+00  0.00000000000E+00  0.74505805969E-08  0.10566000000E+00  0.10566000000E+00 0. -1.
     999900   -1    0    0    0    0 -0.00000000000E+00 -0.00000000000E+00 -0.74505805969E-08  0.93827000000E+00  0.93827000000E+00 0.  1.
     999902    2    1    2    0    0  0.17117195564E-01  0.10183319938E-01 -0.13642634205E-01  0.10197883377E+01  0.10195025424E+01 0.  0.
     999903    2    3    3    0    0  0.12844646818E+00  0.12701479888E-01 -0.23104217477E-01  0.13272009367E+00  0.20518177775E-01 0.  0.
         14    1    1    2    0    0 -0.17117195564E-01 -0.10183319938E-01  0.13642634205E-01  0.24141662266E-01  0.00000000000E+00 0.  1.
     999901    1    3    3    0    0 -0.11132927261E+00 -0.25181599495E-02  0.94615832721E-02  0.88706824406E+00  0.88000000000E+00 0. -1.
        -11    1    4    4    0    0  0.95527053826E-01  0.18371465102E-01 -0.17780510891E-01  0.98890527510E-01  0.51100000000E-03 0.  1.
         11    1    4    4    0    0  0.32919414353E-01 -0.56699852141E-02 -0.53237065864E-02  0.33829566159E-01  0.51100000000E-03 0. -1.
</event>
<event>
 8    1  0.1137518E+005  0.1043930E+01  0.7957747E-01            NaN
         13   -1    0    0    0    0  0.00000000000E+00  0.00000000000E+00  0.74505805969E-08  0.10566000000E+00  0.10566000000E+00 0.  1.
     999900   -1    0    0    0    0 -0.00000000000E+00 -0.00000000000E+00 -0.74505805969E-08  0.93827000000E+00  0.93827000000E+00 0. -1.
     999902    2    1    2    0    0  0.12434726793E-01  0.13504585744E-03  0.22819180532E-01  0.10179423940E+01  0.10176106140E+01 0.  0.
     999903    2    3    3    0    0 -0.70410538778E-01  0.25930060683E-01  0.10429093380E+00  0.12992979979E+00  0.19368582362E-01 0.  0.
         14    1    1    2    0    0 -0.12434726793E-01 -0.13504585744E-03 -0.22819180532E-01  0.25987606044E-01  0.00000000000E+00 0. -1.
     999901    1    3    3    0    0  0.82845265570E-01 -0.25795014826E-01 -0.81471753267E-01  0.88801259417E+00  0.88000000000E+00 0. -1.
        -11    1    4    4    0    0 -0.29539612799E-01  0.20928357770E-01  0.45376981800E-01  0.58050981745E-01  0.51100000000E-03 0.  1.
         11    1    4    4    0    0 -0.40870925979E-01  0.50017029134E-02  0.58913951998E-01  0.71878818044E-01  0.51100000000E-03 0. -1.
</event>
<event>
 8    1  0.1137518E+005  0.1043930E+01  0.7957747E-01            NaN
         13   -1    0    0    0    0  0.00000000000E+00  0.00000000000E+00  0.74505805969E-08  0.10566000000E+00  0.10566000000E+00 0. -1.
     999900   -1    0    0    0    0 -0.00000000000E+00 -0.00000000000E+00 -0.74505805969E-08  0.93827000000E+00  0.93827000000E+00 0. -1.
     999902    2    1    2    0    0 -0.21502782635E-01  0.62432265521E-02  0.50914416924E-02  0.10209676326E+01  0.10207093790E+01 0.  0.
     999903    2    3    3    0    0 -0.71745408505E-01 -0.10890150818E+00 -0.58832723162E-02  0.13197771378E+00  0.19405203283E-01 0.  0.
         14    1    1    2    0    0  0.21502782635E-01 -0.62432265521E-02 -0.50914416924E-02  0.22962367416E-01  0.00000000000E+00 0.  1.
     999901    1    3    3    0    0  0.50242625870E-01  0.11514473474E+00  0.10974714009E-01  0.88898991881E+00  0.88000000000E+00 0.  1.
        -11    1    4    4    0    0 -0.35158798627E-01 -0.59371932818E-01 -0.12206850295E-01  0.70074502085E-01  0.51100000000E-03 0. -1.
         11    1    4    4    0    0 -0.36586609878E-01 -0.49529575366E-01  0.63235779783E-02  0.61903211692E-01  0.51100000000E-03 0.  1.
</event>
<event>
 8    1  0.1137518E+005  0.1043930E+01  0.7957747E-01            NaN
         13   -1    0    0    0    0  0.00000000000E+00  0.00000000000E+00  0.74505805969E-08  0.10566000000E+00  0.10566000000E+00 0.  1.
     999900   -1    0    0    0    0 -0.00000000000E+00 -0.00000000000E+00 -0.74505805969E-08  0.93827000000E+00  0.93827000000E+00 0. -1.
     999902    2    1    2    0    0  0.10599055081E-01 -0.84320971050E-02 -0.19596117550E-01  0.10201088318E+01  0.10198306628E+01 0.  0.
     999903    2    3    3    0    0 -0.99184059733E-01 -0.80572225629E-01 -0.16648633651E-01  0.13035312484E+00  0.19631579312E-01 0.  0.
         14    1    1    2    0    0 -0.10599055081E-01  0.84320971050E-02  0.19596117550E-01  0.23821168176E-01  0.00000000000E+00 0.  1.
     999901    1    3    3    0    0  0.10978311481E+00  0.72140128524E-01 -0.29474838995E-02  0.88975570698E+00  0.88000000000E+00 0. -1.
        -11    1    4    4    0    0 -0.23845435997E-01 -0.23825395431E-01  0.35353071150E-02  0.33897106111E-01  0.51100000000E-03 0.  1.
         11    1    4    4    0    0 -0.75338623737E-01 -0.56746830199E-01 -0.20183940766E-01  0.96456018734E-01  0.51100000000E-03 0. -1.
</event>
<event>
 8    1  0.1137518E+005  0.1043930E+01  0.7957747E-01            NaN
         13   -1    0    0    0    0  0.00000000000E+00  0.00000000000E+00  0.74505805969E-08  0.10566000000E+00  0.10566000000E+00 0.  1.
     999900   -1    0    0    0    0 -0.00000000000E+00 -0.00000000000E+00 -0.74505805969E-08  0.93827000000E+00  0.93827000000E+00 0.  1.
     999902    2    1    2    0    0 -0.46744234092E-02  0.23004349739E-01 -0.33012771748E-02  0.10202245413E+01  0.10199490997E+01 0.  0.
     999903    2    3    3    0    0 -0.98435476453E-01 -0.51860501578E-01 -0.64173910327E-01  0.12999908756E+00  0.20060342724E-01 0.  0.
         14    1    1    2    0    0  0.46744234092E-02 -0.23004349739E-01  0.33012771748E-02  0.23705458699E-01  0.00000000000E+00 0.  1.
     999901    1    3    3    0    0  0.93761053044E-01  0.74864851316E-01  0.60872633152E-01  0.89022545375E+00  0.88000000000E+00 0.  1.
        -11    1    4    4    0    0 -0.37283146817E-01 -0.23320033904E-01 -0.14883150215E-01  0.46428722781E-01  0.51100000000E-03 0. -1.
         11    1    4    4    0    0 -0.61152329636E-01 -0.28540467674E-01 -0.49290760112E-01  0.83570364774E-01  0.51100000000E-03 0.  1.
</event>
<event>
 8    1  0.1137518E+005  0.1043930E+01  0.7957747E-01            NaN
         13   -1    0    0    0    0  0.00000000000E+00  0.00000000000E+00  0.74505805969E-08  0.10566000000E+00  0.10566000000E+00 0.  1.
     999900   -1    0    0    0    0 -0.00000000000E+00 -0.00000000000E+00 -0.74505805969E-08  0.93827000000E+00  0.93827000000E+00 0. -1.
     999902    2    1    2    0    0 -0.33695133686E-02 -0.88127274627E-02  0.21450803832E-01  0.10204959485E+01  0.10202268503E+01 0.  0.
     999903    2    3    3    0    0 -0.38583322230E-01 -0.21188237017E-01  0.12473318874E+00  0.13366991334E+00  0.19278568804E-01 0.  0.
         14    1    1    2    0    0  0.33695133686E-02  0.88127274627E-02 -0.21450803832E-01  0.23434051521E-01  0.00000000000E+00 0. -1.
     999901    1    3    3    0    0  0.35213808862E-01  0.12375509555E-01 -0.10328238491E+00  0.88682603514E+00  0.88000000000E+00 0. -1.
        -11    1    4    4    0    0 -0.23438492839E-01 -0.19361722005E-01  0.61303393073E-01  0.68429572181E-01  0.51100000000E-03 0.  1.
         11    1    4    4    0    0 -0.15144829392E-01 -0.18265150123E-02  0.63429795671E-01  0.65240341157E-01  0.51100000000E-03 0. -1.
</event>
<event>
 8    1  0.1137518E+005  0.1043930E+01  0.7957747E-01            NaN
         13   -1    0    0    0    0  0.00000000000E+00  0.00000000000E+00  0.74505805969E-08  0.10566000000E+00  0.10566000000E+00 0. -1.
     999900   -1    0    0    0    0 -0.00000000000E+00 -0.00000000000E+00 -0.74505805969E-08  0.93827000000E+00  0.93827000000E+00 0.  1.
     999902    2    1    2    0    0  0.94936007677E-02  0.20287652549E-01  0.82365608063E-02  0.10200645808E+01  0.10197853650E+01 0.  0.
     999903    2    3    3    0    0  0.66623888982E-01 -0.67085225587E-01  0.88035438963E-01  0.13030857453E+00  0.17056260090E-01 0.  0.
         14    1    1    2    0    0 -0.94936007677E-02 -0.20287652549E-01 -0.82365608063E-02  0.23865419238E-01  0.00000000000E+00 0. -1.
     999901    1    3    3    0    0 -0.57130288214E-01  0.87372878136E-01 -0.79798878156E-01  0.88975600623E+00  0.88000000000E+00 0.  1.
        -11    1    4    4    0    0  0.51193868019E-01 -0.48048916839E-01  0.74240795036E-01  0.10218349818E+00  0.51100000000E-03 0. -1.
         11    1    4    4    0    0  0.15430020963E-01 -0.19036308748E-01  0.13794643927E-01  0.28125076351E-01  0.51100000000E-03 0.  1.
</event>
<event>
 8    1  0.1137518E+005  0.1043930E+01  0.7957747E-01            NaN
         13   -1    0    0    0    0  0.00000000000E+00  0.00000000000E+00  0.74505805969E-08  0.10566000000E+00  0.10566000000E+00 0.  1.
     999900   -1    0    0    0    0 -0.00000000000E+00 -0.00000000000E+00 -0.74505805969E-08  0.93827000000E+00  0.93827000000E+00 0.  1.
     999902    2    1    2    0    0 -0.95560168024E-02  0.19534825857E-01 -0.75100782630E-02  0.10209228673E+01  0.10206635944E+01 0.  0.
     999903    2    3    3    0    0 -0.22096503354E-02 -0.12297032472E-01 -0.12976223571E+00  0.13187122298E+00  0.19891758912E-01 0.  0.
         14    1    1    2    0    0  0.95560168024E-02 -0.19534825857E-01  0.75100782630E-02  0.23007132675E-01  0.00000000000E+00 0.  1.
     999901    1    3    3    0    0 -0.73463664670E-02  0.31831858330E-01  0.12225215745E+00  0.88905164434E+00  0.88000000000E+00 0. -1.
        -11    1    4    4    0    0 -0.93388126317E-02 -0.11403758678E-02 -0.71696929822E-01  0.72313378744E-01  0.51100000000E-03 0.  1.
         11    1    4    4    0    0  0.71291622963E-02 -0.11156656605E-01 -0.58065305888E-01  0.59557844240E-01  0.51100000000E-03 0. -1.
</event>
<event>
 8    1  0.1137518E+005  0.1043930E+01  0.7957747E-01            NaN
         13   -1    0    0    0    0  0.00000000000E+00  0.00000000000E+00  0.74505805969E-08  0.10566000000E+00  0.10566000000E+00 0. -1.
     999900   -1    0    0    0    0 -0.00000000000E+00 -0.00000000000E+00 -0.74505805969E-08  0.93827000000E+00  0.93827000000E+00 0.  1.
     999902    2    1    2    0    0 -0.13629044896E-01 -0.30910301644E-02  0.19934469518E-01  0.10195848073E+01  0.10192941140E+01 0.  0.
     999903    2    3    3    0    0 -0.10921427267E+00 -0.40048813323E-03 -0.67777973102E-01  0.13006963185E+00  0.19908233096E-01 0.  0.
         14    1    1    2    0    0  0.13629044896E-01  0.30910301644E-02 -0.19934469518E-01  0.24345192692E-01  0.00000000000E+00 0.  1.
     999901    1    3    3    0    0  0.95585227775E-01 -0.26905420312E-02  0.87712442620E-01  0.88951517546E+00  0.88000000000E+00 0. -1.
        -11    1    4    4    0    0 -0.87122784056E-01 -0.12637233335E-02 -0.62788738009E-01  0.10739954953E+00  0.51100000000E-03 0.  1.
         11    1    4    4    0    0 -0.22091488615E-01  0.86323520029E-03 -0.49892350934E-02  0.22670082313E-01  0.51100000000E-03 0. -1.
</event>
<event>
 8    1  0.1137518E+005  0.1043930E+01  0.7957747E-01            NaN
         13   -1    0    0    0    0  0.00000000000E+00  0.00000000000E+00  0.74505805969E-08  0.10566000000E+00  0.10566000000E+00 0.  1.
     999900   -1    0    0    0    0 -0.00000000000E+00 -0.00000000000E+00 -0.74505805969E-08  0.93827000000E+00  0.93827000000E+00 0.  1.
     999902    2    1    2    0    0  0.29937848929E-04 -0.22773774235E-01  0.50108472828E-02  0.10206114606E+01  0.10203450393E+01 0.  0.
     999903    2    3    3    0    0  0.11701532281E+00  0.50677575946E-01 -0.12595932684E-01  0.12966214676E+00  0.19819493074E-01 0.  0.
         14    1    1    2    0    0 -0.29937848929E-04  0.22773774235E-01 -0.50108472828E-02  0.23318539398E-01  0.00000000000E+00 0.  1.
     999901    1    3    3    0    0 -0.11698538496E+00 -0.73451350181E-01  0.17606779967E-01  0.89094931384E+00  0.88000000000E+00 0. -1.
        -11    1    4    4    0    0  0.89141210707E-01  0.35307371020E-01 -0.13207399110E-02  0.95889370472E-01  0.51100000000E-03 0.  1.
         11    1    4    4    0    0  0.27874112103E-01  0.15370204926E-01 -0.11275192773E-01  0.33772776286E-01  0.51100000000E-03 0. -1.
</event>
<event>
 8    1  0.1137518E+005  0.1043930E+01  0.7957747E-01            NaN
         13   -1    0    0    0    0  0.00000000000E+00  0.00000000000E+00  0.74505805969E-08  0.10566000000E+00  0.10566000000E+00 0.  1.
     999900   -1    0    0    0    0 -0.00000000000E+00 -0.00000000000E+00 -0.74505805969E-08  0.93827000000E+00  0.93827000000E+00 0.  1.
     999902    2    1    2    0    0 -0.57013003080E-02 -0.21807578490E-01 -0.12864867443E-01  0.10179765779E+01  0.10176456815E+01 0.  0.
     999903    2    3    3    0    0 -0.10882824771E+00 -0.44715882584E-01  0.47450628988E-01  0.12960845780E+00  0.26527202784E-01 0.  0.
         14    1    1    2    0    0  0.57013003080E-02  0.21807578490E-01  0.12864867443E-01  0.25953422108E-01  0.00000000000E+00 0.  1.
     999901    1    3    3    0    0  0.10312694740E+00  0.22908304094E-01 -0.60315496432E-01  0.88836812009E+00  0.88000000000E+00 0.  1.
        -11    1    4    4    0    0 -0.14873339102E-01 -0.16063977248E-01  0.13261461892E-01  0.25600685022E-01  0.51100000000E-03 0. -1.
         11    1    4    4    0    0 -0.93954908611E-01 -0.28651905336E-01  0.34189167096E-01  0.10400777278E+00  0.51100000000E-03 0.  1.
</event>
<event>
 8    1  0.1137518E+005  0.1043930E+01  0.7957747E-01            NaN
         13   -1    0    0    0    0  0.00000000000E+00  0.00000000000E+00  0.74505805969E-08  0.10566000000E+00  0.10566000000E+00 0.  1.
     999900   -1    0    0    0    0 -0.00000000000E+00 -0.00000000000E+00 -0.74505805969E-08  0.93827000000E+00  0.93827000000E+00 0.  1.
     999902    2    1    2    0    0 -0.29995002869E-02  0.11105675981E-01  0.21604202382E-01  0.10194539995E+01  0.10191601358E+01 0.  0.
     999903    2    3    3    0    0 -0.78905875424E-01  0.10263864399E+00  0.10208547681E-01  0.13138309974E+00  0.19911705985E-01 0.  0.
         14    1    1    2    0    0  0.29995002869E-02 -0.11105675981E-01 -0.21604202382E-01  0.24476000521E-01  0.00000000000E+00 0. -1.
     999901    1    3    3    0    0  0.75906375137E-01 -0.91532968006E-01  0.11395654701E-01  0.88807089974E+00  0.88000000000E+00 0.  1.
        -11    1    4    4    0    0 -0.22170153714E-01  0.35157108464E-01 -0.51714339164E-02  0.41887263470E-01  0.51100000000E-03 0. -1.
         11    1    4    4    0    0 -0.56735721710E-01  0.67481535524E-01  0.15379981597E-01  0.89495836269E-01  0.51100000000E-03 0.  1.
</event>
<event>
 8    1  0.1137518E+005  0.1043930E+01  0.7957747E-01            NaN
         13   -1    0    0    0    0  0.00000000000E+00  0.00000000000E+00  0.74505805969E-08  0.10566000000E+00  0.10566000000E+00 0. -1.
     999900   -1    0    0    0    0 -0.00000000000E+00 -0.00000000000E+00 -0.74505805969E-08  0.93827000000E+00  0.93827000000E+00 0.  1.
     999902    2    1    2    0    0 -0.19822823279E-01 -0.57196143476E-02 -0.11293088919E-01  0.10204099624E+01  0.10201388627E+01 0.  0.
     999903    2    3    3    0    0 -0.15005131767E-01  0.29708813886E-01 -0.12643291026E+00  0.13218951559E+00  0.19519724239E-01 0.  0.
         14    1    1    2    0    0  0.19822823279E-01  0.57196143476E-02  0.11293088919E-01  0.23520037592E-01  0.00000000000E+00 0. -1.
     999901    1    3    3    0    0 -0.48176915115E-02 -0.35428428233E-01  0.11513982134E+00  0.88822044681E+00  0.88000000000E+00 0. -1.
        -11    1    4    4    0    0 -0.53002841445E-02  0.24513099373E-01 -0.63069258514E-01  0.67874719472E-01  0.51100000000E-03 0.  1.
         11    1    4    4    0    0 -0.97048476225E-02  0.51957145129E-02 -0.63363651746E-01  0.64314796122E-01  0.51100000000E-03 0. -1.
</event>
<event>
 8    1  0.1137518E+005  0.1043930E+01  0.7957747E-01            NaN
         13   -1    0    0    0    0  0.00000000000E+00  0.00000000000E+00  0.74505805969E-08  0.10566000000E+00  0.10566000000E+00 0. -1.
     999900   -1    0    0    0    0 -0.00000000000E+00 -0.00000000000E+00 -0.74505805969E-08  0.93827000000E+00  0.93827000000E+00 0.  1.
     999902    2    1    2    0    0  0.10067469675E-01  0.97531870598E-02 -0.19078452712E-01  0.10202558377E+01  0.10199811314E+01 0.  0.
     999903    2    3    3    0    0  0.12183468806E-01 -0.94583865742E-01  0.83179437586E-01  0.12820910451E+00  0.20596384910E-01 0.  0.
         14    1    1    2    0    0 -0.10067469675E-01 -0.97531870598E-02  0.19078452712E-01  0.23674162315E-01  0.00000000000E+00 0. -1.
     999901    1    3    3    0    0 -0.21159991316E-02  0.10433705280E+00 -0.10225789030E+00  0.89204673317E+00  0.88000000000E+00 0.  1.
        -11    1    4    4    0    0  0.19777490558E-02 -0.58963094349E-01  0.61738426709E-01  0.85395857276E-01  0.51100000000E-03 0. -1.
         11    1    4    4    0    0  0.10205719750E-01 -0.35620771393E-01  0.21441010877E-01  0.42813247233E-01  0.51100000000E-03 0.  1.
</event>
<event>
 8    1  0.1137518E+005  0.1043930E+01  0.7957747E-01            NaN
         13   -1    0    0    0    0  0.00000000000E+00  0.00000000000E+00  0.74505805969E-08  0.10566000000E+00  0.10566000000E+00 0. -1.
     999900   -1    0    0    0    0 -0.00000000000E+00 -0.00000000000E+00 -0.74505805969E-08  0.93827000000E+00  0.93827000000E+00 0.  1.
     999902    2    1    2    0    0  0.49611716778E-02  0.65386162458E-03  0.22648747473E-01  0.10207350324E+01  0.10204714596E+01 0.  0.
     999903    2    3    3    0    0 -0.11826945979E+00  0.44736309612E-01 -0.22149283260E-01  0.12992870424E+00  0.20046818176E-01 0.  0.
         14    1    1    2    0    0 -0.49611716778E-02 -0.65386162458E-03 -0.22648747473E-01  0.23194967591E-01  0.00000000000E+00 0.  1.
     999901    1    3    3    0    0  0.12323063147E+00 -0.44082447987E-01  0.44798030734E-01  0.89080632817E+00  0.88000000000E+00 0. -1.
        -11    1    4    4    0    0 -0.11043495337E+00  0.41555917230E-01 -0.15197703210E-01  0.11897060345E+00  0.51100000000E-03 0. -1.
         11    1    4    4    0    0 -0.78345064222E-02  0.31803923820E-02 -0.69515800504E-02  0.10958100783E-01  0.51100000000E-03 0.  1.
</event>
<event>
 8    1  0.1137518E+005  0.1043930E+01  0.7957747E-01            NaN
         13   -1    0    0    0    0  0.00000000000E+00  0.00000000000E+00  0.74505805969E-08  0.10566000000E+00  0.10566000000E+00 0. -1.
     999900   -1    0    0    0    0 -0.00000000000E+00 -0.00000000000E+00 -0.74505805969E-08  0.93827000000E+00  0.93827000000E+00 0. -1.
     999902    2    1    2    0    0 -0.14743730304E-01 -0.17386421621E-01 -0.77774442064E-02  0.10198436163E+01  0.10195591439E+01 0.  0.
     999903    2    3    3    0    0 -0.43166664359E-01  0.42316435025E-01 -0.11459450762E+00  0.13092169664E+00  0.18829442045E-01 0.  0.
         14    1    1    2    0    0  0.14743730304E-01  0.17386421621E-01  0.77774442064E-02  0.24086383673E-01  0.00000000000E+00 0. -1.
     999901    1    3    3    0    0  0.28422934055E-01 -0.59702856646E-01  0.10681706341E+00  0.88892191969E+00  0.88000000000E+00 0.  1.
        -11    1    4    4    0    0 -0.14098108683E-01  0.65743130320E-02 -0.17307056414E-01  0.23276030225E-01  0.51100000000E-03 0.  1.
         11    1    4    4    0    0 -0.29068555676E-01  0.35742121993E-01 -0.97287451207E-01  0.10764566641E+00  0.51100000000E-03 0. -1.
</event>
<event>
 8    1  0.1157121E+005  0.1043930E+01  0.7957747E-01            NaN
         13   -1    0    0    0    0  0.00000000000E+00  0.00000000000E+00  0.74505805969E-08  0.10566000000E+00  0.10566000000E+00 0.  1.
     999900   -1    0    0    0    0 -0.00000000000E+00 -0.00000000000E+00 -0.74505805969E-08  0.93827000000E+00  0.93827000000E+00 0.  1.
     999902    2    1    2    0    0 -0.17790042181E-01  0.80350280212E-02 -0.14908103362E-01  0.10193678580E+01  0.10190718969E+01 0.  0.
     999903    2    3    3    0    0  0.12534963081E+00  0.10949066255E-01 -0.84713354729E-02  0.12777440262E+00  0.20545618648E-01 0.  0.
         14    1    1    2    0    0  0.17790042181E-01 -0.80350280212E-02  0.14908103362E-01  0.24562142047E-01  0.00000000000E+00 0.  1.
     999901    1    3    3    0    0 -0.14313967299E+00 -0.29140382334E-02 -0.64367678893E-02  0.89159345533E+00  0.88000000000E+00 0.  1.
        -11    1    4    4    0    0  0.56630336660E-01  0.14403536213E-01  0.91683504180E-04  0.58435660452E-01  0.51100000000E-03 0.  1.
         11    1    4    4    0    0  0.68719294149E-01 -0.34544699582E-02 -0.85630189771E-02  0.69338742173E-01  0.51100000000E-03 0. -1.
</event>
<event>
 8    1  0.1137518E+005  0.1043930E+01  0.7957747E-01            NaN
         13   -1    0    0    0    0  0.00000000000E+00  0.00000000000E+00  0.74505805969E-08  0.10566000000E+00  0.10566000000E+00 0. -1.
     999900   -1    0    0    0    0 -0.00000000000E+00 -0.00000000000E+00 -0.74505805969E-08  0.93827000000E+00  0.93827000000E+00 0. -1.
     999902    2    1    2    0    0 -0.18409340564E-01  0.40913104822E-02 -0.17860843655E-01  0.10179559287E+01  0.10176244988E+01 0.  0.
     999903    2    3    3    0    0 -0.24219494375E-01 -0.12395795727E+00 -0.13397401579E-01  0.12865828725E+00  0.20525726069E-01 0.  0.
         14    1    1    2    0    0  0.18409340564E-01 -0.40913104822E-02  0.17860843655E-01  0.25974071255E-01  0.00000000000E+00 0. -1.
     999901    1    3    3    0    0  0.58101538104E-02  0.12804926775E+00 -0.44634420765E-02  0.88929764150E+00  0.88000000000E+00 0. -1.
        -11    1    4    4    0    0 -0.13455815823E-01 -0.52130159708E-01 -0.15395956264E-01  0.55999188574E-01  0.51100000000E-03 0. -1.
         11    1    4    4    0    0 -0.10763678552E-01 -0.71827797559E-01  0.19985546857E-02  0.72659098673E-01  0.51100000000E-03 0.  1.
</event>
<event>
 8    1  0.1137518E+005  0.1043930E+01  0.7957747E-01            NaN
         13   -1    0    0    0    0  0.00000000000E+00  0.00000000000E+00  0.74505805969E-08  0.10566000000E+00  0.10566000000E+00 0. -1.
     999900   -1    0    0    0    0 -0.00000000000E+00 -0.00000000000E+00 -0.74505805969E-08  0.93827000000E+00  0.93827000000E+00 0.  1.
     999902    2    1    2    0    0 -0.32016250503E-02 -0.21063633440E-01  0.10268346648E-01  0.10202790804E+01  0.10200049195E+01 0.  0.
     999903    2    3    3    0    0  0.80978893441E-02  0.75076209591E-01 -0.10128443158E+00  0.12797051783E+00  0.20393731749E-01 0.  0.
         14    1    1    2    0    0  0.32016250503E-02  0.21063633440E-01 -0.10268346648E-01  0.23650919635E-01  0.00000000000E+00 0.  1.
     999901    1    3    3    0    0 -0.11299514394E-01 -0.96139843031E-01  0.11155277823E+00  0.89230856254E+00  0.88000000000E+00 0.  1.
        -11    1    4    4    0    0 -0.35180521096E-02  0.44264377732E-01 -0.67442367478E-01  0.80749277884E-01  0.51100000000E-03 0. -1.
         11    1    4    4    0    0  0.11615941454E-01  0.30811831858E-01 -0.33842064103E-01  0.47221239946E-01  0.51100000000E-03 0.  1.
</event>
<event>
 8    1  0.1137518E+005  0.1043930E+01  0.7957747E-01            NaN
         13   -1    0    0    0    0  0.00000000000E+00  0.00000000000E+00  0.74505805969E-08  0.10566000000E+00  0.10566000000E+00 0.  1.
     999900   -1    0    0    0    0 -0.00000000000E+00 -0.00000000000E+00 -0.74505805969E-08  0.93827000000E+00  0.93827000000E+00 0. -1.
     999902    2    1    2    0    0 -0.15816214288E-01 -0.58829567586E-02 -0.14187152791E-01  0.10218837505E+01  0.10216459085E+01 0.  0.
     999903    2    3    3    0    0 -0.10042899363E-03  0.11304507203E+00  0.61701544012E-01  0.13050843318E+00  0.21122788690E-01 0.  0.
         14    1    1    2    0    0  0.15816214288E-01  0.58829567586E-02  0.14187152791E-01  0.22046249544E-01  0.00000000000E+00 0.  1.
     999901    1    3    3    0    0 -0.15715785295E-01 -0.11892802879E+00 -0.75888696803E-01  0.89137531727E+00  0.88000000000E+00 0. -1.
        -11    1    4    4    0    0 -0.10454773777E-01  0.47866138220E-01  0.26956367498E-01  0.55922950141E-01  0.51100000000E-03 0. -1.
         11    1    4    4    0    0  0.10354344783E-01  0.65178933812E-01  0.34745176514E-01  0.74585483043E-01  0.51100000000E-03 0.  1.
</event>
<event>
 8    1  0.1137518E+005  0.1043930E+01  0.7957747E-01            NaN
         13   -1    0    0    0    0  0.00000000000E+00  0.00000000000E+00  0.74505805969E-08  0.10566000000E+00  0.10566000000E+00 0. -1.
     999900   -1    0    0    0    0 -0.00000000000E+00 -0.00000000000E+00 -0.74505805969E-08  0.93827000000E+00  0.93827000000E+00 0.  1.
     999902    2    1    2    0    0 -0.18919123361E-02  0.24551341994E-01  0.66726863078E-03  0.10192968318E+01  0.10189991356E+01 0.  0.
     999903    2    3    3    0    0  0.16668093904E-01 -0.42431152221E-01  0.11871102374E+00  0.12869846194E+00  0.19818146064E-01 0.  0.
         14    1    1    2    0    0  0.18919123361E-02 -0.24551341994E-01 -0.66726863078E-03  0.24633168156E-01  0.00000000000E+00 0. -1.
     999901    1    3    3    0    0 -0.18560006240E-01  0.66982494215E-01 -0.11804375511E+00  0.89059836991E+00  0.88000000000E+00 0.  1.
        -11    1    4    4    0    0 -0.19441577620E-02 -0.16576263395E-01  0.54772655510E-01  0.57261306047E-01  0.51100000000E-03 0.  1.
         11    1    4    4    0    0  0.18612251666E-01 -0.25854888826E-01  0.63938368232E-01  0.71437155888E-01  0.51100000000E-03 0. -1.
</event>
<event>
 8    1  0.1137518E+005  0.1043930E+01  0.7957747E-01            NaN
         13   -1    0    0    0    0  0.00000000000E+00  0.00000000000E+00  0.74505805969E-08  0.10566000000E+00  0.10566000000E+00 0.  1.
     999900   -1    0    0    0    0 -0.00000000000E+00 -0.00000000000E+00 -0.74505805969E-08  0.93827000000E+00  0.93827000000E+00 0.  1.
     999902    2    1    2    0    0 -0.13835035462E-02  0.75477811634E-02 -0.21935622671E-01  0.10206909246E+01  0.10204263369E+01 0.  0.
     999903    2    3    3    0    0 -0.89392001192E-01  0.34240425852E-01  0.84774674163E-01  0.12948663806E+00  0.20413412653E-01 0.  0.
         14    1    1    2    0    0  0.13835035462E-02 -0.75477811634E-02  0.21935622671E-01  0.23239075380E-01  0.00000000000E+00 0.  1.
     999901    1    3    3    0    0  0.88008497646E-01 -0.26692644688E-01 -0.10671029683E+00  0.89120428656E+00  0.88000000000E+00 0.  1.
        -11    1    4    4    0    0 -0.72937626458E-01  0.21099050705E-01  0.73121380857E-01  0.10541377876E+00  0.51100000000E-03 0.  1.
         11    1    4    4    0    0 -0.16454374734E-01  0.13141375146E-01  0.11653293306E-01  0.24072859292E-01  0.51100000000E-03 0. -1.
</event>
<event>
 8    1  0.1137518E+005  0.1043930E+01  0.7957747E-01            NaN
         13   -1    0    0    0    0  0.00000000000E+00  0.00000000000E+00  0.74505805969E-08  0.10566000000E+00  0.10566000000E+00 0. -1.
     999900   -1    0    0    0    0 -0.00000000000E+00 -0.00000000000E+00 -0.74505805969E-08  0.93827000000E+00  0.93827000000E+00 0.  1.
     999902    2    1    2    0    0  0.24566732729E-02 -0.12157789247E-01  0.19596349202E-01  0.10207381052E+01  0.10204746030E+01 0.  0.
     999903    2    3    3    0    0  0.36307062922E-01  0.81462279091E-01 -0.89805483519E-01  0.12839325757E+00  0.21575402324E-01 0.  0.
         14    1    1    2    0    0 -0.24566732729E-02  0.12157789247E-01 -0.19596349202E-01  0.23191894813E-01  0.00000000000E+00 0.  1.
     999901    1    3    3    0    0 -0.33850389649E-01 -0.93620068338E-01  0.10940183272E+00  0.89234484762E+00  0.88000000000E+00 0. -1.
        -11    1    4    4    0    0  0.27388816341E-02  0.11118494810E-01 -0.23159330508E-01  0.25840629056E-01  0.51100000000E-03 0.  1.
         11    1    4    4    0    0  0.33568181288E-01  0.70343784281E-01 -0.66646153011E-01  0.10255262851E+00  0.51100000000E-03 0. -1.
</event>
<event>
 8    1  0.1137518E+005  0.1043930E+01  0.7957747E-01            NaN
         13   -1    0    0    0    0  0.00000000000E+00  0.00000000000E+00  0.74505805969E-08  0.10566000000E+00  0.10566000000E+00 0.  1.
     999900   -1    0    0    0    0 -0.00000000000E+00 -0.00000000000E+00 -0.74505805969E-08  0.93827000000E+00  0.93827000000E+00 0.  1.
     999902    2    1    2    0    0  0.14186333847E-01  0.18513138554E-01 -0.53752949725E-03  0.10206002485E+01  0.10203335680E+01 0.  0.
     999903    2    3    3    0    0 -0.12611483678E+00 -0.12601881619E-01 -0.11190507996E-01  0.12887941275E+00  0.20516239554E-01 0.  0.
         14    1    1    2    0    0 -0.14186333847E-01 -0.18513138554E-01  0.53752949725E-03  0.23329751501E-01  0.00000000000E+00 0. -1.
     999901    1    3    3    0    0  0.14030117063E+00  0.31115020174E-01  0.10652978498E-01  0.89172083575E+00  0.88000000000E+00 0.  1.
        -11    1    4    4    0    0 -0.10372328103E+00 -0.25499634452E-02 -0.71762197463E-02  0.10400375278E+00  0.51100000000E-03 0. -1.
         11    1    4    4    0    0 -0.22391555745E-01 -0.10051918174E-01 -0.40142882493E-02  0.24875659968E-01  0.51100000000E-03 0.  1.
</event>
<event>
 8    1  0.1137518E+005  0.1043930E+01  0.7957747E-01            NaN
         13   -1    0    0    0    0  0.00000000000E+00  0.00000000000E+00  0.74505805969E-08  0.10566000000E+00  0.10566000000E+00 0.  1.
     999900   -1    0    0    0    0 -0.00000000000E+00 -0.00000000000E+00 -0.74505805969E-08  0.93827000000E+00  0.93827000000E+00 0. -1.
     999902    2    1    2    0    0  0.11482860123E-01 -0.14268585839E-02 -0.21232470163E-01  0.10197492268E+01  0.10194624936E+01 0.  0.
     999903    2    3    3    0    0  0.43517456809E-01  0.86524563274E-02 -0.12389907773E+00  0.13314433158E+00  0.20193997154E-01 0.  0.
         14    1    1    2    0    0 -0.11482860123E-01  0.14268585839E-02  0.21232470163E-01  0.24180773173E-01  0.00000000000E+00 0.  1.
     999901    1    3    3    0    0 -0.32034596686E-01 -0.10079314911E-01  0.10266660757E+00  0.88660489525E+00  0.88000000000E+00 0.  1.
        -11    1    4    4    0    0  0.12287272102E-01  0.15737810999E-02 -0.64309126878E-01  0.65493349001E-01  0.51100000000E-03 0.  1.
         11    1    4    4    0    0  0.31230184707E-01  0.70786752275E-02 -0.59589950852E-01  0.67650982575E-01  0.51100000000E-03 0. -1.
</event>
<event>
 8    1  0.1137518E+005  0.1043930E+01  0.7957747E-01            NaN
         13   -1    0    0    0    0  0.00000000000E+00  0.00000000000E+00  0.74505805969E-08  0.10566000000E+00  0.10566000000E+00 0. -1.
     999900   -1    0    0    0    0 -0.00000000000E+00 -0.00000000000E+00 -0.74505805969E-08  0.93827000000E+00  0.93827000000E+00 0.  1.
     999902    2    1    2    0    0 -0.32826971661E-02 -0.38732850035E-02  0.22411712269E-01  0.10209503724E+01  0.10206917261E+01 0.  0.
     999903    2    3    3    0    0  0.90489137738E-01  0.42288754391E-02  0.95257257995E-01  0.13293839301E+00  0.19811706109E-01 0.  0.
         14    1    1    2    0    0  0.32826971661E-02  0.38732850035E-02 -0.22411712269E-01  0.22979627591E-01  0.00000000000E+00 0.  1.
     999901    1    3    3    0    0 -0.93771834904E-01 -0.81021604426E-02 -0.72845545726E-01  0.88801197940E+00  0.88000000000E+00 0.  1.
        -11    1    4    4    0    0  0.43935211701E-01  0.32307285104E-02  0.32291868280E-01  0.54623862112E-01  0.51100000000E-03 0. -1.
         11    1    4    4    0    0  0.46553926037E-01  0.99814692866E-03  0.62965389715E-01  0.78314530897E-01  0.51100000000E-03 0.  1.
</event>
<event>
 8    1  0.1137518E+005  0.1043930E+01  0.7957747E-01            NaN
         13   -1    0    0    0    0  0.00000000000E+00  0.00000000000E+00  0.74505805969E-08  0.10566000000E+00  0.10566000000E+00 0.  1.
     999900   -1    0    0    0    0 -0.00000000000E+00 -0.00000000000E+00 -0.74505805969E-08  0.93827000000E+00  0.93827000000E+00 0.  1.
     999902    2    1    2    0    0 -0.13205288717E-01  0.89816245410E-02  0.16338803994E-01  0.10210825549E+01  0.10208269091E+01 0.  0.
     999903    2    3    3    0    0  0.42080881265E-01 -0.15284996647E-01  0.12316287220E+00  0.13256873342E+00  0.20023593600E-01 0.  0.
         14    1    1    2    0    0  0.13205288717E-01 -0.89816245410E-02 -0.16338803994E-01  0.22847445053E-01  0.00000000000E+00 0. -1.
     999901    1    3    3    0    0 -0.55286169982E-01  0.24266621188E-01 -0.10682406821E+00  0.88851382153E+00  0.88000000000E+00 0.  1.
        -11    1    4    4    0    0  0.39162033785E-01 -0.12047834027E-01  0.12084991521E+00  0.12760790854E+00  0.51100000000E-03 0.  1.
         11    1    4    4    0    0  0.29188474799E-02 -0.32371626200E-02  0.23129569957E-02  0.49608248813E-02  0.51100000000E-03 0. -1.
</event>
<event>
 8    1  0.1137518E+005  0.1043930E+01  0.7957747E-01            NaN
         13   -1    0    0    0    0  0.00000000000E+00  0.00000000000E+00  0.74505805969E-08  0.10566000000E+00  0.10566000000E+00 0.  1.
     999900   -1    0    0    0    0 -0.00000000000E+00 -0.00000000000E+00 -0.74505805969E-08  0.93827000000E+00  0.93827000000E+00 0.  1.
     999902    2    1    2    0    0 -0.60233214781E-02 -0.84972537801E-02 -0.21318248349E-01  0.10202034023E+01  0.10199274635E+01 0.  0.
     999903    2    3    3    0    0 -0.90785422087E-01 -0.93535414192E-01 -0.71388124067E-02  0.13193702404E+00  0.19119338348E-01 0.  0.
         14    1    1    2    0    0  0.60233214781E-02  0.84972537801E-02  0.21318248349E-01  0.23726597651E-01  0.00000000000E+00 0.  1.
     999901    1    3    3    0    0  0.84762100609E-01  0.85038160412E-01 -0.14179435942E-01  0.88826637831E+00  0.88000000000E+00 0. -1.
        -11    1    4    4    0    0 -0.53021295843E-01 -0.45772096023E-01  0.34501978415E-02  0.70132072359E-01  0.51100000000E-03 0. -1.
         11    1    4    4    0    0 -0.37764126244E-01 -0.47763318170E-01 -0.10589010248E-01  0.61804951684E-01  0.51100000000E-03 0.  1.
</event>
<event>
 8    1  0.1137518E+005  0.1043930E+01  0.7957747E-01            NaN
         13   -1    0    0    0    0  0.00000000000E+00  0.00000000000E+00  0.74505805969E-08  0.10566000000E+00  0.10566000000E+00 0. -1.
     999900   -1    0    0    0    0 -0.00000000000E+00 -0.00000000000E+00 -0.74505805969E-08  0.93827000000E+00  0.93827000000E+00 0. -1.
     999902    2    1    2    0    0  0.20351537858E-02  0.11382363829E-01 -0.21669238106E-01  0.10193687309E+01  0.10190727912E+01 0.  0.
     999903    2    3    3    0    0  0.12618115830E+00 -0.19277223262E-01 -0.13102092070E-02  0.12989319403E+00  0.24025593862E-01 0.  0.
         14    1    1    2    0    0 -0.20351537858E-02 -0.11382363829E-01  0.21669238106E-01  0.24561269051E-01  0.00000000000E+00 0. -1.
     999901    1    3    3    0    0 -0.12414600452E+00  0.30659587091E-01 -0.20359028899E-01  0.88947553692E+00  0.88000000000E+00 0. -1.
        -11    1    4    4    0    0  0.31347310660E-01  0.50657878493E-02  0.29209563327E-02  0.31892149489E-01  0.51100000000E-03 0.  1.
         11    1    4    4    0    0  0.94833847642E-01 -0.24343011112E-01 -0.42311655398E-02  0.98001044542E-01  0.51100000000E-03 0. -1.
</event>
<event>
 8    1  0.1137518E+005  0.1043930E+01  0.7957747E-01            NaN
         13   -1    0    0    0    0  0.00000000000E+00  0.00000000000E+00  0.74505805969E-08  0.10566000000E+00  0.10566000000E+00 0.  1.
     999900   -1    0    0    0    0 -0.00000000000E+00 -0.00000000000E+00 -0.74505805969E-08  0.93827000000E+00  0.93827000000E+00 0.  1.
     999902    2    1    2    0    0 -0.16011487746E-01  0.19156460809E-01 -0.28233289404E-02  0.10188041385E+01  0.10184942630E+01 0.  0.
     999903    2    3    3    0    0  0.74249755546E-01  0.72835996227E-01  0.74079428860E-01  0.12922973535E+00  0.19860870379E-01 0.  0.
         14    1    1    2    0    0  0.16011487746E-01 -0.19156460809E-01  0.28233289404E-02  0.25125861515E-01  0.00000000000E+00 0. -1.
     999901    1    3    3    0    0 -0.90261243293E-01 -0.53679535418E-01 -0.76902757800E-01  0.88957440314E+00  0.88000000000E+00 0. -1.
        -11    1    4    4    0    0  0.61034157613E-01  0.68894020288E-01  0.65686288667E-01  0.11307742510E+00  0.51100000000E-03 0.  1.
         11    1    4    4    0    0  0.13215597933E-01  0.39419759392E-02  0.83931401931E-02  0.16152310248E-01  0.51100000000E-03 0. -1.
</event>
<event>
 8    1  0.1137518E+005  0.1043930E+01  0.7957747E-01            NaN
         13   -1    0    0    0    0  0.00000000000E+00  0.00000000000E+00  0.74505805969E-08  0.10566000000E+00  0.10566000000E+00 0. -1.
     999900   -1    0    0    0    0 -0.00000000000E+00 -0.00000000000E+00 -0.74505805969E-08  0.93827000000E+00  0.93827000000E+00 0. -1.
     999902    2    1    2    0    0 -0.16651210892E-01  0.12290806962E-02 -0.16212757339E-01  0.10206571196E+01  0.10203917526E+01 0.  0.
     999903    2    3    3    0    0 -0.11095336279E+00  0.71277837152E-01 -0.14797421621E-01  0.13284986159E+00  0.62404530578E-02 0.  0.
         14    1    1    2    0    0  0.16651210892E-01 -0.12290806962E-02  0.16212757339E-01  0.23272880442E-01  0.00000000000E+00 0. -1.
     999901    1    3    3    0    0  0.94302151893E-01 -0.70048756456E-01 -0.14153357178E-02  0.88780725797E+00  0.88000000000E+00 0. -1.
        -11    1    4    4    0    0 -0.66785484184E-01  0.39350606010E-01 -0.81945438943E-02  0.77949873391E-01  0.51100000000E-03 0.  1.
         11    1    4    4    0    0 -0.44167878601E-01  0.31927231142E-01 -0.66028777268E-02  0.54899988195E-01  0.51100000000E-03 0. -1.
</event>
<event>
 7    1  0.1137518E+005  0.1043930E+01  0.7957747E-01            NaN
         13   -1    0    0    0    0  0.00000000000E+00  0.00000000000E+00  0.74505805969E-08  0.10566000000E+00  0.10566000000E+00 0. -1.
     999900   -1    0    0    0    0 -0.00000000000E+00 -0.00000000000E+00 -0.74505805969E-08  0.93827000000E+00  0.93827000000E+00 0.  1.
     999903    2    1    2    0    0 -0.46939013684E-01 -0.75291908189E-01  0.33735091500E-01  0.97114642750E-01  0.20519624594E-01 0.  0.
         14    1    1    2    0    0  0.59006424414E-01  0.88265115952E-02  0.19101987605E-01  0.62646239788E-01  0.00000000000E+00 0. -1.
     999901    1    1    2    0    0 -0.12067410730E-01  0.66465396594E-01 -0.52837079104E-01  0.88416911746E+00  0.88000000000E+00 0.  1.
        -11    1    3    3    0    0 -0.17329748516E-01 -0.37667092655E-01  0.63312408594E-02  0.41946105714E-01  0.51100000000E-03 0. -1.
         11    1    3    3    0    0 -0.29609265168E-01 -0.37624815534E-01  0.27403850640E-01  0.55168537036E-01  0.51100000000E-03 0.  1.
</event>
<event>
 8    1  0.1137518E+005  0.1043930E+01  0.7957747E-01            NaN
         13   -1    0    0    0    0  0.00000000000E+00  0.00000000000E+00  0.74505805969E-08  0.10566000000E+00  0.10566000000E+00 0. -1.
     999900   -1    0    0    0    0 -0.00000000000E+00 -0.00000000000E+00 -0.74505805969E-08  0.93827000000E+00  0.93827000000E+00 0.  1.
     999902    2    1    2    0    0  0.19737733640E-01  0.13585295471E-01 -0.36171005959E-02  0.10196973402E+01  0.10194093603E+01 0.  0.
     999903    2    3    3    0    0  0.16506457343E-02  0.71062252876E-01  0.10785158185E+00  0.13062140954E+00  0.19427313460E-01 0.  0.
         14    1    1    2    0    0 -0.19737733640E-01 -0.13585295471E-01  0.36171005959E-02  0.24232659759E-01  0.00000000000E+00 0. -1.
     999901    1    3    3    0    0  0.18087087906E-01 -0.57476957405E-01 -0.11146868245E+00  0.88907593070E+00  0.88000000000E+00 0.  1.
        -11    1    4    4    0    0  0.69362701620E-02  0.10911719252E-01  0.14414956922E-01  0.19370843163E-01  0.51100000000E-03 0. -1.
         11    1    4    4    0    0 -0.52856244276E-02  0.60150533624E-01  0.93436624928E-01  0.11125056638E+00  0.51100000000E-03 0.  1.
</event>
<event>
 8    1  0.1137518E+005  0.1043930E+01  0.7957747E-01            NaN
         13   -1    0    0    0    0  0.00000000000E+00  0.00000000000E+00  0.74505805969E-08  0.10566000000E+00  0.10566000000E+00 0.  1.
     999900   -1    0    0    0    0 -0.00000000000E+00 -0.00000000000E+00 -0.74505805969E-08  0.93827000000E+00  0.93827000000E+00 0. -1.
     999902    2    1    2    0    0 -0.20616646307E-01 -0.98054081505E-04 -0.13508322581E-01  0.10192818662E+01  0.10189838038E+01 0.  0.
     999903    2    3    3    0    0  0.10927445140E+00 -0.62092620697E-01 -0.51679607802E-02  0.12755063699E+00  0.21120082963E-01 0.  0.
         14    1    1    2    0    0  0.20616646307E-01  0.98054081505E-04  0.13508322581E-01  0.24648133774E-01  0.00000000000E+00 0.  1.
     999901    1    3    3    0    0 -0.12989109771E+00  0.61994566615E-01 -0.83403618011E-02  0.89173122923E+00  0.88000000000E+00 0.  1.
        -11    1    4    4    0    0  0.78659351263E-01 -0.54800764906E-01 -0.60923572274E-02  0.96061414277E-01  0.51100000000E-03 0.  1.
         11    1    4    4    0    0  0.30615100140E-01 -0.72918557908E-02  0.92439644718E-03  0.31489222716E-01  0.51100000000E-03 0. -1.
</event>
<event>
 8    1  0.1137518E+005  0.1043930E+01  0.7957747E-01            NaN
         13   -1    0    0    0    0  0.00000000000E+00  0.00000000000E+00  0.74505805969E-08  0.10566000000E+00  0.10566000000E+00 0.  1.
     999900   -1    0    0    0    0 -0.00000000000E+00 -0.00000000000E+00 -0.74505805969E-08  0.93827000000E+00  0.93827000000E+00 0.  1.
     999902    2    1    2    0    0 -0.23335935111E-01  0.15984759318E-02  0.18255572913E-02  0.10204682513E+01  0.10201985092E+01 0.  0.
     999903    2    3    3    0    0 -0.43655689226E-01 -0.12145566746E+00  0.16056413613E-01  0.13156008287E+00  0.19822931841E-01 0.  0.
         14    1    1    2    0    0  0.23335935111E-01 -0.15984759318E-02 -0.18255572913E-02  0.23461748704E-01  0.00000000000E+00 0.  1.
     999901    1    3    3    0    0  0.20319754114E-01  0.12305414340E+00 -0.14230856322E-01  0.88890816842E+00  0.88000000000E+00 0.  1.
        -11    1    4    4    0    0 -0.58803629191E-02 -0.43119546307E-01  0.75953451710E-02  0.44179455984E-01  0.51100000000E-03 0. -1.
         11    1    4    4    0    0 -0.37775326307E-01 -0.78336121158E-01  0.84610684422E-02  0.87380626891E-01  0.51100000000E-03 0.  1.
</event>
<event>
 8    1  0.1137518E+005  0.1043930E+01  0.7957747E-01            NaN
         13   -1    0    0    0    0  0.00000000000E+00  0.00000000000E+00  0.74505805969E-08  0.10566000000E+00  0.10566000000E+00 0.  1.
     999900   -1    0    0    0    0 -0.00000000000E+00 -0.00000000000E+00 -0.74505805969E-08  0.93827000000E+00  0.93827000000E+00 0.  1.
     999902    2    1    2    0    0  0.15429705717E-01 -0.16556779547E-01 -0.42825878694E-02  0.10208964739E+01  0.10206365989E+01 0.  0.
     999903    2    3    3    0    0 -0.90309013888E-01  0.72576728877E-01  0.51278271561E-01  0.12836497960E+00  0.20615704925E-01 0.  0.
         14    1    1    2    0    0 -0.15429705717E-01  0.16556779547E-01  0.42825878694E-02  0.23033526138E-01  0.00000000000E+00 0.  1.
     999901    1    3    3    0    0  0.10573871960E+00 -0.89133508425E-01 -0.55560859431E-01  0.89253149426E+00  0.88000000000E+00 0.  1.
        -11    1    4    4    0    0 -0.18315466328E-01  0.23780753088E-01  0.72564343432E-02  0.30885230850E-01  0.51100000000E-03 0. -1.
         11    1    4    4    0    0 -0.71993547560E-01  0.48795975789E-01  0.44021837218E-01  0.97479748751E-01  0.51100000000E-03 0.  1.
</event>
<event>
 8    1  0.1137518E+005  0.1043930E+01  0.7957747E-01            NaN
         13   -1    0    0    0    0  0.00000000000E+00  0.00000000000E+00  0.74505805969E-08  0.10566000000E+00  0.10566000000E+00 0.  1.
     999900   -1    0    0    0    0 -0.00000000000E+00 -0.00000000000E+00 -0.74505805969E-08  0.93827000000E+00  0.93827000000E+00 0. -1.
     999902    2    1    2    0    0  0.53638541420E-02 -0.81890860383E-02 -0.21979012426E-01  0.10198694711E+01  0.10195856164E+01 0.  0.
     999903    2    3    3    0    0 -0.71647853721E-01  0.10495795683E+00  0.63953679406E-02  0.12883739433E+00  0.20213505422E-01 0.  0.
         14    1    1    2    0    0 -0.53638541420E-02  0.81890860383E-02  0.21979012426E-01  0.24060528852E-01  0.00000000000E+00 0.  1.
     999901    1    3    3    0    0  0.77011707863E-01 -0.11314704287E+00 -0.28374380367E-01  0.89103207682E+00  0.88000000000E+00 0. -1.
        -11    1    4    4    0    0 -0.17130129759E-01  0.25345843048E-01 -0.70949073552E-02  0.31407832411E-01  0.51100000000E-03 0. -1.
         11    1    4    4    0    0 -0.54517723961E-01  0.79612113784E-01  0.13490275296E-01  0.97429561919E-01  0.51100000000E-03 0.  1.
</event>
<event>
 8    1  0.1137518E+005  0.1043930E+01  0.7957747E-01            NaN
         13   -1    0    0    0    0  0.00000000000E+00  0.00000000000E+00  0.74505805969E-08  0.10566000000E+00  0.10566000000E+00 0.  1.
     999900   -1    0    0    0    0 -0.00000000000E+00 -0.00000000000E+00 -0.74505805969E-08  0.93827000000E+00  0.93827000000E+00 0. -1.
     999902    2    1    2    0    0  0.19517772246E-01 -0.13429890379E-01 -0.15090444061E-02  0.10201901052E+01  0.10199138533E+01 0.  0.
     999903    2    3    3    0    0  0.44642812877E-01  0.12006555820E+00  0.39672061624E-02  0.12975072392E+00  0.20268019744E-01 0.  0.
         14    1    1    2    0    0 -0.19517772246E-01  0.13429890379E-01  0.15090444061E-02  0.23739894778E-01  0.00000000000E+00 0. -1.
     999901    1    3    3    0    0 -0.25125040631E-01 -0.13349544858E+00 -0.54762505685E-02  0.89043938130E+00  0.88000000000E+00 0.  1.
        -11    1    4    4    0    0  0.30077581743E-01  0.57815274835E-01  0.81488069628E-02  0.65680523016E-01  0.51100000000E-03 0. -1.
         11    1    4    4    0    0  0.14565231135E-01  0.62250283366E-01 -0.41816008004E-02  0.64070200901E-01  0.51100000000E-03 0.  1.
</event>
<event>
 8    1  0.1137518E+005  0.1043930E+01  0.7957747E-01            NaN
         13   -1    0    0    0    0  0.00000000000E+00  0.00000000000E+00  0.74505805969E-08  0.10566000000E+00  0.10566000000E+00 0.  1.
     999900   -1    0    0    0    0 -0.00000000000E+00 -0.00000000000E+00 -0.74505805969E-08  0.93827000000E+00  0.93827000000E+00 0.  1.
     999902    2    1    2    0    0  0.47930825124E-02 -0.10936740016E-01 -0.23212141906E-01  0.10178265624E+01  0.10174917797E+01 0.  0.
     999903    2    3    3    0    0 -0.89900869629E-01 -0.89392442892E-01 -0.14820365778E-01  0.12923629474E+00  0.20228727866E-01 0.  0.
         14    1    1    2    0    0 -0.47930825124E-02  0.10936740016E-01  0.23212141906E-01  0.26103437590E-01  0.00000000000E+00 0.  1.
     999901    1    3    3    0    0  0.94693952141E-01  0.78455702875E-01 -0.83917761276E-02  0.88859026767E+00  0.88000000000E+00 0. -1.
        -11    1    4    4    0    0 -0.54174878564E-01 -0.41323053986E-01 -0.12656306977E-01  0.69303358399E-01  0.51100000000E-03 0. -1.
         11    1    4    4    0    0 -0.35725991065E-01 -0.48069388906E-01 -0.21640588010E-02  0.59932936344E-01  0.51100000000E-03 0.  1.
</event>
<event>
 8    1  0.1137518E+005  0.1043930E+01  0.7957747E-01            NaN
         13   -1    0    0    0    0  0.00000000000E+00  0.00000000000E+00  0.74505805969E-08  0.10566000000E+00  0.10566000000E+00 0.  1.
     999900   -1    0    0    0    0 -0.00000000000E+00 -0.00000000000E+00 -0.74505805969E-08  0.93827000000E+00  0.93827000000E+00 0. -1.
     999902    2    1    2    0    0  0.17787247189E-01  0.58312639993E-02  0.15198540173E-01  0.10198180647E+01  0.10195329811E+01 0.  0.
     999903    2    3    3    0    0  0.94936370797E-01 -0.88136850085E-01  0.10324714766E-01  0.13144553699E+00  0.19756280468E-01 0.  0.
         14    1    1    2    0    0 -0.17787247189E-01 -0.58312639993E-02 -0.15198540173E-01  0.24111935339E-01  0.00000000000E+00 0. -1.
     999901    1    3    3    0    0 -0.77149123608E-01  0.93968114084E-01  0.48738254071E-02  0.88837252767E+00  0.88000000000E+00 0. -1.
        -11    1    4    4    0    0  0.83690676416E-01 -0.78225096441E-01  0.15449576192E-01  0.11559517965E+00  0.51100000000E-03 0. -1.
         11    1    4    4    0    0  0.11245694381E-01 -0.99117536437E-02 -0.51248614266E-02  0.15850357347E-01  0.51100000000E-03 0.  1.
</event>
<event>
 8    1  0.1137518E+005  0.1043930E+01  0.7957747E-01            NaN
         13   -1    0    0    0    0  0.00000000000E+00  0.00000000000E+00  0.74505805969E-08  0.10566000000E+00  0.10566000000E+00 0.  1.
     999900   -1    0    0    0    0 -0.00000000000E+00 -0.00000000000E+00 -0.74505805969E-08  0.93827000000E+00  0.93827000000E+00 0.  1.
     999902    2    1    2    0    0 -0.17534409559E-01  0.27697568275E-03 -0.14675410579E-01  0.10210629952E+01  0.10208069064E+01 0.  0.
     999903    2    3    3    0    0 -0.89889310321E-01  0.41376744462E-01  0.84305228152E-01  0.13161283384E+00  0.20553429022E-01 0.  0.
         14    1    1    2    0    0  0.17534409559E-01 -0.27697568275E-03  0.14675410579E-01  0.22867004827E-01  0.00000000000E+00 0.  1.
     999901    1    3    3    0    0  0.72354900762E-01 -0.41099768779E-01 -0.98980638730E-01  0.88945016134E+00  0.88000000000E+00 0. -1.
        -11    1    4    4    0    0 -0.64678515974E-01  0.24437397257E-01  0.68664884901E-01  0.97445494266E-01  0.51100000000E-03 0. -1.
         11    1    4    4    0    0 -0.25210794347E-01  0.16939347205E-01  0.15640343251E-01  0.34167339571E-01  0.51100000000E-03 0.  1.
</event>
<event>
 8    1  0.1252106E+005  0.1043930E+01  0.7957747E-01            NaN
         13   -1    0    0    0    0  0.00000000000E+00  0.00000000000E+00  0.74505805969E-08  0.10566000000E+00  0.10566000000E+00 0.  1.
     999900   -1    0    0    0    0 -0.00000000000E+00 -0.00000000000E+00 -0.74505805969E-08  0.93827000000E+00  0.93827000000E+00 0. -1.
     999902    2    1    2    0    0  0.27746909470E-02 -0.35717785636E-02 -0.23683466321E-01  0.10198185279E+01  0.10195334554E+01 0.  0.
     999903    2    3    3    0    0  0.53806353155E-01 -0.11166600664E+00  0.33040200933E-01  0.12992742940E+00  0.20617016111E-01 0.  0.
         14    1    1    2    0    0 -0.27746909470E-02  0.35717785636E-02  0.23683466321E-01  0.24111472144E-01  0.00000000000E+00 0.  1.
     999901    1    3    3    0    0 -0.51031662208E-01  0.10809422808E+00 -0.56723667255E-01  0.88989109846E+00  0.88000000000E+00 0. -1.
        -11    1    4    4    0    0  0.29160630200E-01 -0.39611792511E-01  0.17448524285E-01  0.52193376786E-01  0.51100000000E-03 0. -1.
         11    1    4    4    0    0  0.24645722955E-01 -0.72054214127E-01  0.15591676649E-01  0.77734052610E-01  0.51100000000E-03 0.  1.
</event>
<event>
 8    1  0.1137518E+005  0.1043930E+01  0.7957747E-01            NaN
         13   -1    0    0    0    0  0.00000000000E+00  0.00000000000E+00  0.74505805969E-08  0.10566000000E+00  0.10566000000E+00 0. -1.
     999900   -1    0    0    0    0 -0.00000000000E+00 -0.00000000000E+00 -0.74505805969E-08  0.93827000000E+00  0.93827000000E+00 0. -1.
     999902    2    1    2    0    0 -0.95692525034E-02 -0.90119633832E-02  0.19979145033E-01  0.10200144755E+01  0.10197340721E+01 0.  0.
     999903    2    3    3    0    0  0.12444012877E+00 -0.23413515503E-02  0.30925409373E-01  0.12977696107E+00  0.19870860696E-01 0.  0.
         14    1    1    2    0    0  0.95692525034E-02  0.90119633832E-02 -0.19979145033E-01  0.23915524534E-01  0.00000000000E+00 0.  1.
     999901    1    3    3    0    0 -0.13400938127E+00 -0.66706118329E-02 -0.10946264340E-01  0.89023751439E+00  0.88000000000E+00 0. -1.
        -11    1    4    4    0    0  0.16929268509E-01  0.60796984595E-02  0.70327447618E-02  0.19320545683E-01  0.51100000000E-03 0.  1.
         11    1    4    4    0    0  0.10751086026E+00 -0.84210500098E-02  0.23892664612E-01  0.11045641539E+00  0.51100000000E-03 0. -1.
</event>
<event>
 8    1  0.1137518E+005  0.1043930E+01  0.7957747E-01            NaN
         13   -1    0    0    0    0  0.00000000000E+00  0.00000000000E+00  0.74505805969E-08  0.10566000000E+00  0.10566000000E+00 0.  1.
     999900   -1    0    0    0    0 -0.00000000000E+00 -0.00000000000E+00 -0.74505805969E-08  0.93827000000E+00  0.93827000000E+00 0. -1.
     999902    2    1    2    0    0  0.27490504221E-01 -0.83398471202E-03 -0.12121037935E-01  0.10138743364E+01  0.10134287479E+01 0.  0.
     999903    2    3    3    0    0  0.11032405650E+00  0.11455682262E-01  0.58768306842E-01  0.12706109086E+00  0.19702203449E-01 0.  0.
         14    1    1    2    0    0 -0.27490504221E-01  0.83398471202E-03  0.12121037935E-01  0.30055663584E-01  0.00000000000E+00 0.  1.
     999901    1    3    3    0    0 -0.82833552283E-01 -0.12289666974E-01 -0.70889344778E-01  0.88681324556E+00  0.88000000000E+00 0. -1.
        -11    1    4    4    0    0  0.90777639483E-01  0.16917390624E-01  0.48822162432E-01  0.10445402147E+00  0.51100000000E-03 0. -1.
         11    1    4    4    0    0  0.19546417021E-01 -0.54617083624E-02  0.99461444103E-02  0.22607069386E-01  0.51100000000E-03 0.  1.
</event>
<event>
 8    1  0.1137518E+005  0.1043930E+01  0.7957747E-01            NaN
         13   -1    0    0    0    0  0.00000000000E+00  0.00000000000E+00  0.74505805969E-08  0.10566000000E+00  0.10566000000E+00 0. -1.
     999900   -1    0    0    0    0 -0.00000000000E+00 -0.00000000000E+00 -0.74505805969E-08  0.93827000000E+00  0.93827000000E+00 0.  1.
     999902    2    1    2    0    0  0.21625969391E-01  0.64860632542E-02 -0.58136172893E-02  0.10206158473E+01  0.10203495274E+01 0.  0.
     999903    2    3    3    0    0 -0.93340118434E-01  0.70060144987E-01  0.51335735713E-01  0.12903022959E+00  0.19815164944E-01 0.  0.
         14    1    1    2    0    0 -0.21625969391E-01 -0.64860632542E-02  0.58136172893E-02  0.23314152668E-01  0.00000000000E+00 0. -1.
     999901    1    3    3    0    0  0.11496608783E+00 -0.63574081733E-01 -0.57149353002E-01  0.89158561774E+00  0.88000000000E+00 0.  1.
        -11    1    4    4    0    0  0.22511049536E-03  0.20501282580E-03  0.23164405512E-02  0.23915942007E-02  0.51100000000E-03 0. -1.
         11    1    4    4    0    0 -0.93565228930E-01  0.69855132161E-01  0.49019295161E-01  0.12663863539E+00  0.51100000000E-03 0.  1.
</event>
<event>
 8    1  0.1137518E+005  0.1043930E+01  0.7957747E-01            NaN
         13   -1    0    0    0    0  0.00000000000E+00  0.00000000000E+00  0.74505805969E-08  0.10566000000E+00  0.10566000000E+00 0. -1.
     999900   -1    0    0    0    0 -0.00000000000E+00 -0.00000000000E+00 -0.74505805969E-08  0.93827000000E+00  0.93827000000E+00 0. -1.
     999902    2    1    2    0    0 -0.36392922252E-02  0.34699907603E-02  0.23105965012E-01  0.10202832052E+01  0.10200091411E+01 0.  0.
     999903    2    3    3    0    0  0.28191801963E-02  0.10977822807E+00  0.71828201974E-01  0.13252366033E+00  0.18547852005E-01 0.  0.
         14    1    1    2    0    0  0.36392922252E-02 -0.34699907603E-02 -0.23105965012E-01  0.23646794771E-01  0.00000000000E+00 0.  1.
     999901    1    3    3    0    0 -0.64584724215E-02 -0.10630823731E+00 -0.48722236962E-01  0.88775954490E+00  0.88000000000E+00 0.  1.
        -11    1    4    4    0    0  0.10693958149E-01  0.58146136203E-01  0.37066420696E-01  0.69781907114E-01  0.51100000000E-03 0.  1.
         11    1    4    4    0    0 -0.78747779523E-02  0.51632091864E-01  0.34761781278E-01  0.62741753216E-01  0.51100000000E-03 0. -1.
</event>
<event>
 8    1  0.1137518E+005  0.1043930E+01  0.7957747E-01            NaN
         13   -1    0    0    0    0  0.00000000000E+00  0.00000000000E+00  0.74505805969E-08  0.10566000000E+00  0.10566000000E+00 0.  1.
     999900   -1    0    0    0    0 -0.00000000000E+00 -0.00000000000E+00 -0.74505805969E-08  0.93827000000E+00  0.93827000000E+00 0.  1.
     999902    2    1    2    0    0  0.93378944264E-02 -0.13706550746E-01 -0.15564460195E-01  0.10211853693E+01  0.10209320448E+01 0.  0.
     999903    2    3    3    0    0  0.40139146915E-01 -0.46624064307E-01 -0.11772580673E+00  0.13412887695E+00  0.18607406417E-01 0.  0.
         14    1    1    2    0    0 -0.93378944264E-02  0.13706550746E-01  0.15564460195E-01  0.22744630725E-01  0.00000000000E+00 0.  1.
     999901    1    3    3    0    0 -0.30801252489E-01  0.32917513561E-01  0.10216134653E+00  0.88705649233E+00  0.88000000000E+00 0. -1.
        -11    1    4    4    0    0  0.81680225143E-02 -0.64618805938E-02 -0.37177305789E-01  0.38611988803E-01  0.51100000000E-03 0.  1.
         11    1    4    4    0    0  0.31971124401E-01 -0.40162183713E-01 -0.80548500940E-01  0.95516888144E-01  0.51100000000E-03 0. -1.
</event>
<event>
 7    1  0.1137518E+005  0.1043930E+01  0.7957747E-01            NaN
         13   -1    0    0    0    0  0.00000000000E+00  0.00000000000E+00  0.74505805969E-08  0.10566000000E+00  0.10566000000E+00 0. -1.
     999900   -1    0    0    0    0 -0.00000000000E+00 -0.00000000000E+00 -0.74505805969E-08  0.93827000000E+00  0.93827000000E+00 0. -1.
     999903    2    1    2    0    0 -0.69533658866E-01  0.49351049451E-01 -0.74355115568E-01  0.11484798604E+00  0.19771719406E-01 0.  0.
         14    1    1    2    0    0 -0.20793893981E-02  0.38227878119E-01  0.96604361993E-02  0.39484408990E-01  0.00000000000E+00 0.  1.
     999901    1    1    2    0    0  0.71613048264E-01 -0.87578927569E-01  0.64694679369E-01  0.88959760497E+00  0.88000000000E+00 0. -1.
        -11    1    3    3    0    0 -0.21809051024E-01  0.10826667550E-01 -0.32415826336E-01  0.40545016400E-01  0.51100000000E-03 0.  1.
         11    1    3    3    0    0 -0.47724607842E-01  0.38524381901E-01 -0.41939289232E-01  0.74302969636E-01  0.51100000000E-03 0. -1.
</event>
<event>
 8    1  0.1137518E+005  0.1043930E+01  0.7957747E-01            NaN
         13   -1    0    0    0    0  0.00000000000E+00  0.00000000000E+00  0.74505805969E-08  0.10566000000E+00  0.10566000000E+00 0.  1.
     999900   -1    0    0    0    0 -0.00000000000E+00 -0.00000000000E+00 -0.74505805969E-08  0.93827000000E+00  0.93827000000E+00 0.  1.
     999902    2    1    2    0    0  0.12498190851E-02  0.13630094381E-02 -0.23298635772E-01  0.10205580880E+01  0.10202904315E+01 0.  0.
     999903    2    3    3    0    0  0.11258667518E+00 -0.59283759070E-01  0.20503021016E-01  0.13039377102E+00  0.19794901713E-01 0.  0.
         14    1    1    2    0    0 -0.12498190851E-02 -0.13630094381E-02  0.23298635772E-01  0.23371912017E-01  0.00000000000E+00 0.  1.
     999901    1    3    3    0    0 -0.11133685609E+00  0.60646768508E-01 -0.43801656788E-01  0.89016431696E+00  0.88000000000E+00 0. -1.
        -11    1    4    4    0    0  0.63151943729E-01 -0.38870554266E-01  0.33833069999E-02  0.74234734949E-01  0.51100000000E-03 0. -1.
         11    1    4    4    0    0  0.49434731447E-01 -0.20413204804E-01  0.17119714016E-01  0.56159036073E-01  0.51100000000E-03 0.  1.
</event>
<event>
 8    1  0.1137518E+005  0.1043930E+01  0.7957747E-01            NaN
         13   -1    0    0    0    0  0.00000000000E+00  0.00000000000E+00  0.74505805969E-08  0.10566000000E+00  0.10566000000E+00 0. -1.
     999900   -1    0    0    0    0 -0.00000000000E+00 -0.00000000000E+00 -0.74505805969E-08  0.93827000000E+00  0.93827000000E+00 0.  1.
     999902    2    1    2    0    0  0.68770592044E-02  0.22501560386E-01  0.63360689086E-02  0.10195628103E+01  0.10192715851E+01 0.  0.
     999903    2    3    3    0    0  0.14787441556E-01 -0.95012652489E-01 -0.81188465703E-01  0.12741220167E+00  0.19905517091E-01 0.  0.
         14    1    1    2    0    0 -0.68770592044E-02 -0.22501560386E-01 -0.63360689086E-02  0.24367189668E-01  0.00000000000E+00 0. -1.
     999901    1    3    3    0    0 -0.79103823513E-02  0.11751421287E+00  0.87524534611E-01  0.89215060866E+00  0.88000000000E+00 0. -1.
        -11    1    4    4    0    0  0.31105731748E-02 -0.73959381143E-01 -0.63553240072E-01  0.97565061211E-01  0.51100000000E-03 0. -1.
         11    1    4    4    0    0  0.11676868381E-01 -0.21053271346E-01 -0.17635225630E-01  0.29847140459E-01  0.51100000000E-03 0.  1.
</event>
<event>
 8    1  0.1137518E+005  0.1043930E+01  0.7957747E-01            NaN
         13   -1    0    0    0    0  0.00000000000E+00  0.00000000000E+00  0.74505805969E-08  0.10566000000E+00  0.10566000000E+00 0.  1.
     999900   -1    0    0    0    0 -0.00000000000E+00 -0.00000000000E+00 -0.74505805969E-08  0.93827000000E+00  0.93827000000E+00 0. -1.
     999902    2    1    2    0    0  0.20758097848E-01 -0.10667782021E-01  0.25284695359E-02  0.10204546223E+01  0.10201845631E+01 0.  0.
     999903    2    3    3    0    0 -0.64384094396E-01  0.10396922512E+00  0.33286580381E-01  0.12841376131E+00  0.20668485125E-01 0.  0.
         14    1    1    2    0    0 -0.20758097848E-01  0.10667782021E-01 -0.25284695359E-02  0.23475377690E-01  0.00000000000E+00 0. -1.
     999901    1    3    3    0    0  0.85142192244E-01 -0.11463700714E+00 -0.30758110845E-01  0.89204086100E+00  0.88000000000E+00 0.  1.
        -11    1    4    4    0    0 -0.38323653942E-01  0.42458351324E-01  0.16514519131E-01  0.59534901627E-01  0.51100000000E-03 0.  1.
         11    1    4    4    0    0 -0.26060440454E-01  0.61510873797E-01  0.16772061250E-01  0.68878859685E-01  0.51100000000E-03 0. -1.
</event>
<event>
 8    1  0.1137518E+005  0.1043930E+01  0.7957747E-01            NaN
         13   -1    0    0    0    0  0.00000000000E+00  0.00000000000E+00  0.74505805969E-08  0.10566000000E+00  0.10566000000E+00 0. -1.
     999900   -1    0    0    0    0 -0.00000000000E+00 -0.00000000000E+00 -0.74505805969E-08  0.93827000000E+00  0.93827000000E+00 0. -1.
     999902    2    1    2    0    0  0.12032605073E-01  0.33946425308E-02  0.15798644894E-01  0.10237829316E+01  0.10235846749E+01 0.  0.
     999903    2    3    3    0    0 -0.37149861274E-01 -0.12338147056E+00 -0.23430745188E-01  0.13247488002E+00  0.19937265246E-01 0.  0.
         14    1    1    2    0    0 -0.12032605073E-01 -0.33946425308E-02 -0.15798644894E-01  0.20147068354E-01  0.00000000000E+00 0.  1.
     999901    1    3    3    0    0  0.49182466347E-01  0.12677611309E+00  0.39229390082E-01  0.89130805163E+00  0.88000000000E+00 0.  1.
        -11    1    4    4    0    0 -0.19877362843E-01 -0.34589021400E-01 -0.85057375254E-02  0.40793610369E-01  0.51100000000E-03 0.  1.
         11    1    4    4    0    0 -0.17272498431E-01 -0.88792449162E-01 -0.14925007663E-01  0.91681269652E-01  0.51100000000E-03 0. -1.
</event>
<event>
 8    1  0.1137518E+005  0.1043930E+01  0.7957747E-01            NaN
         13   -1    0    0    0    0  0.00000000000E+00  0.00000000000E+00  0.74505805969E-08  0.10566000000E+00  0.10566000000E+00 0. -1.
     999900   -1    0    0    0    0 -0.00000000000E+00 -0.00000000000E+00 -0.74505805969E-08  0.93827000000E+00  0.93827000000E+00 0.  1.
     999902    2    1    2    0    0  0.99176912302E-02 -0.13188612353E-01 -0.18039163400E-01  0.10194818608E+01  0.10191886739E+01 0.  0.
     999903    2    3    3    0    0  0.28997747728E-01  0.17587804971E-01 -0.12606054193E+00  0.13213759014E+00  0.20466612803E-01 0.  0.
         14    1    1    2    0    0 -0.99176912302E-02  0.13188612353E-01  0.18039163400E-01  0.24448139220E-01  0.00000000000E+00 0. -1.
     999901    1    3    3    0    0 -0.19080056498E-01 -0.30776417324E-01  0.10802137853E+00  0.88734427064E+00  0.88000000000E+00 0. -1.
        -11    1    4    4    0    0  0.23061145919E-01  0.10720834966E-01 -0.56205376905E-01  0.61693259498E-01  0.51100000000E-03 0. -1.
         11    1    4    4    0    0  0.59366018091E-02  0.68669700046E-02 -0.69855165024E-01  0.70444330642E-01  0.51100000000E-03 0.  1.
</event>
<event>
 8    1  0.1137518E+005  0.1043930E+01  0.7957747E-01            NaN
         13   -1    0    0    0    0  0.00000000000E+00  0.00000000000E+00  0.74505805969E-08  0.10566000000E+00  0.10566000000E+00 0.  1.
     999900   -1    0    0    0    0 -0.00000000000E+00 -0.00000000000E+00 -0.74505805969E-08  0.93827000000E+00  0.93827000000E+00 0. -1.
     999902    2    1    2    0    0  0.15211904719E-01  0.17674114124E-01 -0.30870152448E-02  0.10204075423E+01  0.10201363861E+01 0.  0.
     999903    2    3    3    0    0 -0.57864636947E-01 -0.11172091898E+00  0.98104828226E-02  0.12785524631E+00  0.20514348401E-01 0.  0.
         14    1    1    2    0    0 -0.15211904719E-01 -0.17674114124E-01  0.30870152448E-02  0.23522457745E-01  0.00000000000E+00 0. -1.
     999901    1    3    3    0    0  0.73076541666E-01  0.12939503310E+00 -0.12897498067E-01  0.89255229594E+00  0.88000000000E+00 0. -1.
        -11    1    4    4    0    0 -0.30419773785E-01 -0.73459917070E-01 -0.11006777901E-02  0.79518517753E-01  0.51100000000E-03 0.  1.
         11    1    4    4    0    0 -0.27444863162E-01 -0.38261001909E-01  0.10911160613E-01  0.48336728561E-01  0.51100000000E-03 0. -1.
</event>
<event>
 8    1  0.1137518E+005  0.1043930E+01  0.7957747E-01            NaN
         13   -1    0    0    0    0  0.00000000000E+00  0.00000000000E+00  0.74505805969E-08  0.10566000000E+00  0.10566000000E+00 0. -1.
     999900   -1    0    0    0    0 -0.00000000000E+00 -0.00000000000E+00 -0.74505805969E-08  0.93827000000E+00  0.93827000000E+00 0. -1.
     999902    2    1    2    0    0 -0.93176169384E-03 -0.22593487289E-01 -0.70799021691E-02  0.10202348768E+01  0.10199596781E+01 0.  0.
     999903    2    3    3    0    0  0.71061332893E-01 -0.14095447729E-01  0.10616051182E+00  0.13002219790E+00  0.19680523308E-01 0.  0.
         14    1    1    2    0    0  0.93176169384E-03  0.22593487289E-01  0.70799021691E-02  0.23695123179E-01  0.00000000000E+00 0.  1.
     999901    1    3    3    0    0 -0.71993094587E-01 -0.84980395595E-02 -0.11324041399E+00  0.89021267892E+00  0.88000000000E+00 0. -1.
        -11    1    4    4    0    0  0.51368036345E-01 -0.16453505759E-01  0.66088131347E-01  0.85307064395E-01  0.51100000000E-03 0.  1.
         11    1    4    4    0    0  0.19693296548E-01  0.23580580296E-02  0.40072380477E-01  0.44715133509E-01  0.51100000000E-03 0. -1.
</event>
<event>
 7    1  0.1137518E+005  0.1043930E+01  0.7957747E-01            NaN
         13   -1    0    0    0    0  0.00000000000E+00  0.00000000000E+00  0.74505805969E-08  0.10566000000E+00  0.10566000000E+00 0.  1.
     999900   -1    0    0    0    0 -0.00000000000E+00 -0.00000000000E+00 -0.74505805969E-08  0.93827000000E+00  0.93827000000E+00 0. -1.
     999902    2    1    2    0    0  0.20807902438E-01  0.16626572425E-02  0.95728028997E-02  0.10209654232E+01  0.10207071194E+01 0.  0.
         14    1    1    2    0    0 -0.20807902438E-01 -0.16626572425E-02 -0.95728028997E-02  0.22964576816E-01  0.00000000000E+00 0. -1.
     999901    1    3    3    0    0 -0.85563771611E-01  0.28486757083E-02 -0.64463137833E-01  0.88650142138E+00  0.88000000000E+00 0. -1.
        -11    1    3    3    0    0  0.61287092341E-01 -0.13804479052E-01  0.27929192713E-01  0.68752979980E-01  0.51100000000E-03 0. -1.
         11    1    3    3    0    0  0.45084581709E-01  0.12618460586E-01  0.46106748020E-01  0.65711021826E-01  0.51100000000E-03 0.  1.
</event>
<event>
 8    1  0.1137518E+005  0.1043930E+01  0.7957747E-01            NaN
         13   -1    0    0    0    0  0.00000000000E+00  0.00000000000E+00  0.74505805969E-08  0.10566000000E+00  0.10566000000E+00 0.  1.
     999900   -1    0    0    0    0 -0.00000000000E+00 -0.00000000000E+00 -0.74505805969E-08  0.93827000000E+00  0.93827000000E+00 0.  1.
     999902    2    1    2    0    0  0.22881926843E-02  0.21952958577E-01 -0.10251388109E-01  0.10195936245E+01  0.10193031442E+01 0.  0.
     999903    2    3    3    0    0 -0.33250676802E-01  0.99009265436E-01 -0.79568307724E-01  0.13279854046E+00  0.19897100392E-01 0.  0.
         14    1    1    2    0    0 -0.22881926843E-02 -0.21952958577E-01  0.10251388109E-01  0.24336375535E-01  0.00000000000E+00 0. -1.
     999901    1    3    3    0    0  0.35538869487E-01 -0.77056306859E-01  0.69316919615E-01  0.88679508401E+00  0.88000000000E+00 0. -1.
        -11    1    4    4    0    0 -0.71581810232E-02  0.45542615220E-01 -0.42467551498E-01  0.62682720170E-01  0.51100000000E-03 0.  1.
         11    1    4    4    0    0 -0.26092495779E-01  0.53466650216E-01 -0.37100756226E-01  0.70115820290E-01  0.51100000000E-03 0. -1.
</event>
<event>
 8    1  0.1137518E+005  0.1043930E+01  0.7957747E-01            NaN
         13   -1    0    0    0    0  0.00000000000E+00  0.00000000000E+00  0.74505805969E-08  0.10566000000E+00  0.10566000000E+00 0. -1.
     999900   -1    0    0    0    0 -0.00000000000E+00 -0.00000000000E+00 -0.74505805969E-08  0.93827000000E+00  0.93827000000E+00 0.  1.
     999902    2    1    2    0    0  0.28031650329E-01  0.17298270408E-01 -0.57413030968E-04  0.10109905574E+01  0.10104538091E+01 0.  0.
     999903    2    3    3    0    0  0.21656189049E-01  0.10820129589E+00  0.50049806310E-01  0.12486712362E+00  0.30171252781E-01 0.  0.
         14    1    1    2    0    0 -0.28031650329E-01 -0.17298270408E-01  0.57413030968E-04  0.32939442550E-01  0.00000000000E+00 0.  1.
     999901    1    3    3    0    0  0.63754612803E-02 -0.90903025479E-01 -0.50107219341E-01  0.88612343383E+00  0.88000000000E+00 0.  1.
        -11    1    4    4    0    0  0.26650740385E-01  0.66031589128E-01  0.38047924913E-01  0.80736227538E-01  0.51100000000E-03 0. -1.
         11    1    4    4    0    0 -0.49945513360E-02  0.42169706759E-01  0.12001881397E-01  0.44130896085E-01  0.51100000000E-03 0.  1.
</event>
<event>
 8    1  0.1137518E+005  0.1043930E+01  0.7957747E-01            NaN
         13   -1    0    0    0    0  0.00000000000E+00  0.00000000000E+00  0.74505805969E-08  0.10566000000E+00  0.10566000000E+00 0.  1.
     999900   -1    0    0    0    0 -0.00000000000E+00 -0.00000000000E+00 -0.74505805969E-08  0.93827000000E+00  0.93827000000E+00 0. -1.
     999902    2    1    2    0    0  0.20715462426E-01 -0.79169832190E-02 -0.74311532348E-02  0.10205413052E+01  0.10202732597E+01 0.  0.
     999903    2    3    3    0    0 -0.10937569665E+00  0.49918723637E-01  0.37409273325E-01  0.12797234846E+00  0.22859270577E-01 0.  0.
         14    1    1    2    0    0 -0.20715462426E-01  0.79169832190E-02  0.74311532348E-02  0.23388694817E-01  0.00000000000E+00 0.  1.
     999901    1    3    3    0    0  0.13009115908E+00 -0.57835706856E-01 -0.44840426559E-01  0.89256895673E+00  0.88000000000E+00 0. -1.
        -11    1    4    4    0    0 -0.10118639761E+00  0.44803122940E-01  0.27294168075E-01  0.11397911922E+00  0.51100000000E-03 0. -1.
         11    1    4    4    0    0 -0.81892990466E-02  0.51156006972E-02  0.10115105249E-01  0.13993229240E-01  0.51100000000E-03 0.  1.
</event>
<event>
 8    1  0.1137518E+005  0.1043930E+01  0.7957747E-01            NaN
         13   -1    0    0    0    0  0.00000000000E+00  0.00000000000E+00  0.74505805969E-08  0.10566000000E+00  0.10566000000E+00 0. -1.
     999900   -1    0    0    0    0 -0.00000000000E+00 -0.00000000000E+00 -0.74505805969E-08  0.93827000000E+00  0.93827000000E+00 0. -1.
     999902    2    1    2    0    0  0.51211844306E-03  0.23834057843E-01  0.17299256409E-02  0.10200277570E+01  0.10197476687E+01 0.  0.
     999903    2    3    3    0    0 -0.47304203714E-01 -0.24724136077E-01  0.11683178781E+00  0.12991948405E+00  0.19504745572E-01 0.  0.
         14    1    1    2    0    0 -0.51211844306E-03 -0.23834057843E-01 -0.17299256409E-02  0.23902243018E-01  0.00000000000E+00 0.  1.
     999901    1    3    3    0    0  0.47816322157E-01  0.48558193920E-01 -0.11510186217E+00  0.89010827293E+00  0.88000000000E+00 0. -1.
        -11    1    4    4    0    0 -0.53974673845E-02 -0.33344742394E-02  0.34574485685E-01  0.35155476870E-01  0.51100000000E-03 0. -1.
         11    1    4    4    0    0 -0.41906736329E-01 -0.21389661837E-01  0.82257302126E-01  0.94764007183E-01  0.51100000000E-03 0.  1.
</event>
<event>
 8    1  0.1137518E+005  0.1043930E+01  0.7957747E-01            NaN
         13   -1    0    0    0    0  0.00000000000E+00  0.00000000000E+00  0.74505805969E-08  0.10566000000E+00  0.10566000000E+00 0.  1.
     999900   -1    0    0    0    0 -0.00000000000E+00 -0.00000000000E+00 -0.74505805969E-08  0.93827000000E+00  0.93827000000E+00 0.  1.
     999902    2    1    2    0    0  0.97453398495E-03 -0.21573803161E-01  0.86597303326E-02  0.10206626489E+01  0.10203974094E+01 0.  0.
     999903    2    3    3    0    0  0.35728507697E-01 -0.82270119649E-01 -0.94646728313E-01  0.13186339936E+00  0.19622794435E-01 0.  0.
         14    1    1    2    0    0 -0.97453398495E-03  0.21573803161E-01 -0.86597303326E-02  0.23267351133E-01  0.00000000000E+00 0.  1.
     999901    1    3    3    0    0 -0.34753973712E-01  0.60696316488E-01  0.10330645865E+00  0.88879924951E+00  0.88000000000E+00 0. -1.
        -11    1    4    4    0    0  0.25922876990E-01 -0.46553408587E-01 -0.43932272024E-01  0.69061719127E-01  0.51100000000E-03 0. -1.
         11    1    4    4    0    0  0.98056307074E-02 -0.35716711062E-01 -0.50714456289E-01  0.62801680235E-01  0.51100000000E-03 0.  1.
</event>
<event>
 7    1  0.1137518E+005  0.1043930E+01  0.7957747E-01            NaN
         13   -1    0    0    0    0  0.00000000000E+00  0.00000000000E+00  0.74505805969E-08  0.10566000000E+00  0.10566000000E+00 0.  1.
     999900   -1    0    0    0    0 -0.00000000000E+00 -0.00000000000E+00 -0.74505805969E-08  0.93827000000E+00  0.93827000000E+00 0.  1.
     999902    2    1    2    0    0 -0.17273811190E-01 -0.16550460017E-01  0.53293986602E-02  0.10194207207E+01  0.10191260477E+01 0.  0.
         14    1    1    2    0    0  0.17273811190E-01  0.16550460017E-01 -0.53293986602E-02  0.24509279260E-01  0.00000000000E+00 0. -1.
     999901    1    3    3    0    0  0.66931868148E-01  0.67744314027E-01 -0.40452722765E-01  0.88606184312E+00  0.88000000000E+00 0. -1.
        -11    1    3    3    0    0 -0.32585950041E-01 -0.87763764536E-02  0.11116342056E-01  0.35534533984E-01  0.51100000000E-03 0. -1.
         11    1    3    3    0    0 -0.51619729296E-01 -0.75518397590E-01  0.34665779369E-01  0.97824343634E-01  0.51100000000E-03 0.  1.
</event>
<event>
 8    1  0.1137518E+005  0.1043930E+01  0.7957747E-01            NaN
         13   -1    0    0    0    0  0.00000000000E+00  0.00000000000E+00  0.74505805969E-08  0.10566000000E+00  0.10566000000E+00 0. -1.
     999900   -1    0    0    0    0 -0.00000000000E+00 -0.00000000000E+00 -0.74505805969E-08  0.93827000000E+00  0.93827000000E+00 0.  1.
     999902    2    1    2    0    0 -0.13151494452E-01 -0.19227797394E-01 -0.50594341823E-02  0.10200916302E+01  0.10198130545E+01 0.  0.
     999903    2    3    3    0    0  0.11135632944E+00 -0.54128533668E-01  0.33624068073E-01  0.12980141185E+00  0.19690055886E-01 0.  0.
         14    1    1    2    0    0  0.13151494452E-01  0.19227797394E-01  0.50594341823E-02  0.23838369768E-01  0.00000000000E+00 0. -1.
     999901    1    3    3    0    0 -0.12450782389E+00  0.34900736273E-01 -0.38683502255E-01  0.89029021838E+00  0.88000000000E+00 0. -1.
        -11    1    4    4    0    0  0.65756007221E-01 -0.21089429969E-01  0.18507199887E-01  0.71494014510E-01  0.51100000000E-03 0.  1.
         11    1    4    4    0    0  0.45600322219E-01 -0.33039103699E-01  0.15116868185E-01  0.58307397339E-01  0.51100000000E-03 0. -1.
</event>
<event>
 8    1  0.1137518E+005  0.1043930E+01  0.7957747E-01            NaN
         13   -1    0    0    0    0  0.00000000000E+00  0.00000000000E+00  0.74505805969E-08  0.10566000000E+00  0.10566000000E+00 0.  1.
     999900   -1    0    0    0    0 -0.00000000000E+00 -0.00000000000E+00 -0.74505805969E-08  0.93827000000E+00  0.93827000000E+00 0. -1.
     999902    2    1    2    0    0  0.20533060708E-01 -0.10364958351E-01  0.15654319040E-02  0.10208759435E+01  0.10206155998E+01 0.  0.
     999903    2    3    3    0    0  0.81014198033E-01  0.69219878151E-01  0.75615889942E-01  0.13212671875E+00  0.19621803739E-01 0.  0.
         14    1    1    2    0    0 -0.20533060708E-01  0.10364958351E-01 -0.15654319040E-02  0.23054056491E-01  0.00000000000E+00 0. -1.
     999901    1    3    3    0    0 -0.60481137325E-01 -0.79584836502E-01 -0.74050458038E-01  0.88874922476E+00  0.88000000000E+00 0. -1.
        -11    1    4    4    0    0  0.21474397010E-01  0.85010592867E-02  0.19585821813E-01  0.30286684748E-01  0.51100000000E-03 0. -1.
         11    1    4    4    0    0  0.59539801023E-01  0.60718818864E-01  0.56030068129E-01  0.10184003400E+00  0.51100000000E-03 0.  1.
</event>
<event>
 8    1  0.1137518E+005  0.1043930E+01  0.7957747E-01            NaN
         13   -1    0    0    0    0  0.00000000000E+00  0.00000000000E+00  0.74505805969E-08  0.10566000000E+00  0.10566000000E+00 0. -1.
     999900   -1    0    0    0    0 -0.00000000000E+00 -0.00000000000E+00 -0.74505805969E-08  0.93827000000E+00  0.93827000000E+00 0.  1.
     999902    2    1    2    0    0  0.12662874636E-01 -0.90878022669E-03  0.21053729471E-01  0.10193447646E+01  0.10190482399E+01 0.  0.
     999903    2    3    3    0    0 -0.18726276590E-01 -0.23238237341E-01  0.12719112078E+00  0.13213056875E+00  0.19753908018E-01 0.  0.
         14    1    1    2    0    0 -0.12662874636E-01  0.90878022669E-03 -0.21053729471E-01  0.24585235410E-01  0.00000000000E+00 0.  1.
     999901    1    3    3    0    0  0.31389151227E-01  0.22329457114E-01 -0.10613739131E+00  0.88721419584E+00  0.88000000000E+00 0.  1.
        -11    1    4    4    0    0  0.37184019409E-02 -0.74246446105E-02  0.28303600637E-01  0.29500962537E-01  0.51100000000E-03 0. -1.
         11    1    4    4    0    0 -0.22444678531E-01 -0.15813592730E-01  0.98887520146E-01  0.10262960621E+00  0.51100000000E-03 0.  1.
</event>
<event>
 8    1  0.1137518E+005  0.1043930E+01  0.7957747E-01            NaN
         13   -1    0    0    0    0  0.00000000000E+00  0.00000000000E+00  0.74505805969E-08  0.10566000000E+00  0.10566000000E+00 0.  1.
     999900   -1    0    0    0    0 -0.00000000000E+00 -0.00000000000E+00 -0.74505805969E-08  0.93827000000E+00  0.93827000000E+00 0. -1.
     999902    2    1    2    0    0 -0.45053831459E-02 -0.40405493871E-02  0.22070191976E-01  0.10210451166E+01  0.10207886227E+01 0.  0.
     999903    2    3    3    0    0 -0.49095480341E-01  0.81161291180E-01  0.90687087270E-01  0.13315103012E+00  0.22528374282E-01 0.  0.
         14    1    1    2    0    0  0.45053831459E-02  0.40405493871E-02 -0.22070191976E-01  0.22884883450E-01  0.00000000000E+00 0. -1.
     999901    1    3    3    0    0  0.44590097195E-01 -0.85201840568E-01 -0.68616895294E-01  0.88789408643E+00  0.88000000000E+00 0.  1.
        -11    1    4    4    0    0 -0.26669775590E-01  0.60733725195E-01  0.69957532465E-01  0.96406326430E-01  0.51100000000E-03 0. -1.
         11    1    4    4    0    0 -0.22425704751E-01  0.20427565985E-01  0.20729554804E-01  0.36744703687E-01  0.51100000000E-03 0.  1.
</event>
<event>
 8    1  0.1137518E+005  0.1043930E+01  0.7957747E-01            NaN
         13   -1    0    0    0    0  0.00000000000E+00  0.00000000000E+00  0.74505805969E-08  0.10566000000E+00  0.10566000000E+00 0.  1.
     999900   -1    0    0    0    0 -0.00000000000E+00 -0.00000000000E+00 -0.74505805969E-08  0.93827000000E+00  0.93827000000E+00 0.  1.
     999902    2    1    2    0    0  0.14401113408E-01  0.57832058235E-02 -0.18037664580E-01  0.10201351501E+01  0.10198576026E+01 0.  0.
     999903    2    3    3    0    0  0.12408806663E+00  0.16750666170E-02  0.39376603830E-01  0.13145944846E+00  0.18177335688E-01 0.  0.
         14    1    1    2    0    0 -0.14401113408E-01 -0.57832058235E-02  0.18037664580E-01  0.23794849873E-01  0.00000000000E+00 0.  1.
     999901    1    3    3    0    0 -0.10968695322E+00  0.41081392065E-02 -0.57414268409E-01  0.88867570167E+00  0.88000000000E+00 0.  1.
        -11    1    4    4    0    0  0.54760481771E-01 -0.63227503495E-03  0.26755895909E-01  0.60952844252E-01  0.51100000000E-03 0. -1.
         11    1    4    4    0    0  0.69327584858E-01  0.23073416519E-02  0.12620707921E-01  0.70506604209E-01  0.51100000000E-03 0.  1.
</event>
<event>
 8    1  0.1137518E+005  0.1043930E+01  0.7957747E-01            NaN
         13   -1    0    0    0    0  0.00000000000E+00  0.00000000000E+00  0.74505805969E-08  0.10566000000E+00  0.10566000000E+00 0. -1.
     999900   -1    0    0    0    0 -0.00000000000E+00 -0.00000000000E+00 -0.74505805969E-08  0.93827000000E+00  0.93827000000E+00 0.  1.
     999902    2    1    2    0    0 -0.57297711811E-02  0.42376760370E-02  0.21582722368E-01  0.10212011179E+01  0.10209481481E+01 0.  0.
     999903    2    3    3    0    0 -0.90642753453E-01 -0.75688776352E-01 -0.51623366491E-01  0.13049489037E+00  0.20470584370E-01 0.  0.
         14    1    1    2    0    0  0.57297711811E-02 -0.42376760370E-02 -0.21582722368E-01  0.22728882084E-01  0.00000000000E+00 0.  1.
     999901    1    3    3    0    0  0.84912982272E-01  0.79926452389E-01  0.73206088859E-01  0.89070622755E+00  0.88000000000E+00 0. -1.
        -11    1    4    4    0    0 -0.39871267272E-01 -0.36516104105E-01 -0.34433948966E-01  0.64102275898E-01  0.51100000000E-03 0.  1.
         11    1    4    4    0    0 -0.50771486181E-01 -0.39172672247E-01 -0.17189417524E-01  0.66392614468E-01  0.51100000000E-03 0. -1.
</event>
<event>
 8    1  0.1137518E+005  0.1043930E+01  0.7957747E-01            NaN
         13   -1    0    0    0    0  0.00000000000E+00  0.00000000000E+00  0.74505805969E-08  0.10566000000E+00  0.10566000000E+00 0. -1.
     999900   -1    0    0    0    0 -0.00000000000E+00 -0.00000000000E+00 -0.74505805969E-08  0.93827000000E+00  0.93827000000E+00 0. -1.
     999902    2    1    2    0    0  0.64601014283E-02  0.41373992668E-02 -0.22411805821E-01  0.10202416057E+01  0.10199665652E+01 0.  0.
     999903    2    3    3    0    0  0.28032842636E-01 -0.12558556564E+00 -0.24357028425E-03  0.13019393203E+00  0.19819839706E-01 0.  0.
         14    1    1    2    0    0 -0.64601014283E-02 -0.41373992668E-02  0.22411805821E-01  0.23688394274E-01  0.00000000000E+00 0. -1.
     999901    1    3    3    0    0 -0.21572741207E-01  0.12972296491E+00 -0.22168235536E-01  0.89004767370E+00  0.88000000000E+00 0. -1.
        -11    1    4    4    0    0  0.14812163049E-01 -0.77176281485E-01 -0.95134361991E-02  0.79160250046E-01  0.51100000000E-03 0.  1.
         11    1    4    4    0    0  0.13220679586E-01 -0.48409284159E-01  0.92698659149E-02  0.51033681981E-01  0.51100000000E-03 0. -1.
</event>
<event>
 8    1  0.1137518E+005  0.1043930E+01  0.7957747E-01            NaN
         13   -1    0    0    0    0  0.00000000000E+00  0.00000000000E+00  0.74505805969E-08  0.10566000000E+00  0.10566000000E+00 0. -1.
     999900   -1    0    0    0    0 -0.00000000000E+00 -0.00000000000E+00 -0.74505805969E-08  0.93827000000E+00  0.93827000000E+00 0.  1.
     999902    2    1    2    0    0  0.20842159048E-01 -0.13957764619E-01  0.51828631119E-02  0.10183160027E+01  0.10179938136E+01 0.  0.
     999903    2    3    3    0    0  0.32196720852E-01  0.73638761126E-02 -0.12281751095E+00  0.12872753932E+00  0.19894292612E-01 0.  0.
         14    1    1    2    0    0 -0.20842159048E-01  0.13957764619E-01 -0.51828631119E-02  0.25613997286E-01  0.00000000000E+00 0. -1.
     999901    1    3    3    0    0 -0.11354561805E-01 -0.21321640732E-01  0.12800037406E+00  0.88958846339E+00  0.88000000000E+00 0. -1.
        -11    1    4    4    0    0  0.32898713562E-01  0.33735849947E-02 -0.94585621995E-01  0.10020183351E+00  0.51100000000E-03 0. -1.
         11    1    4    4    0    0 -0.70199270987E-03  0.39902911179E-02 -0.28231888957E-01  0.28525705812E-01  0.51100000000E-03 0.  1.
</event>
<event>
 8    1  0.1137518E+005  0.1043930E+01  0.7957747E-01            NaN
         13   -1    0    0    0    0  0.00000000000E+00  0.00000000000E+00  0.74505805969E-08  0.10566000000E+00  0.10566000000E+00 0.  1.
     999900   -1    0    0    0    0 -0.00000000000E+00 -0.00000000000E+00 -0.74505805969E-08  0.93827000000E+00  0.93827000000E+00 0. -1.
     999902    2    1    2    0    0  0.14768115676E-01 -0.18440245433E-01  0.48921075445E-02  0.10198038190E+01  0.10195183945E+01 0.  0.
     999903    2    3    3    0    0  0.96082246422E-01  0.59334252557E-01 -0.61554603624E-01  0.13015443538E+00  0.19971384958E-01 0.  0.
         14    1    1    2    0    0 -0.14768115676E-01  0.18440245433E-01 -0.48921075445E-02  0.24126180976E-01  0.00000000000E+00 0.  1.
     999901    1    3    3    0    0 -0.81314130746E-01 -0.77774497991E-01  0.66446711168E-01  0.88964938365E+00  0.88000000000E+00 0.  1.
        -11    1    4    4    0    0  0.26641085584E-01  0.22088324067E-01 -0.27950542901E-01  0.44487475436E-01  0.51100000000E-03 0.  1.
         11    1    4    4    0    0  0.69441160838E-01  0.37245928490E-01 -0.33604060723E-01  0.85666959942E-01  0.51100000000E-03 0. -1.
</event>
<event>
 8    1  0.1137518E+005  0.1043930E+01  0.7957747E-01            NaN
         13   -1    0    0    0    0  0.00000000000E+00  0.00000000000E+00  0.74505805969E-08  0.10566000000E+00  0.10566000000E+00 0. -1.
     999900   -1    0    0    0    0 -0.00000000000E+00 -0.00000000000E+00 -0.74505805969E-08  0.93827000000E+00  0.93827000000E+00 0. -1.
     999902    2    1    2    0    0  0.21351231799E-01  0.81435672331E-02 -0.54152050377E-02  0.10204455960E+01  0.10201753267E+01 0.  0.
     999903    2    3    3    0    0  0.86204178248E-01  0.97676388958E-01 -0.19369214970E-01  0.13341868251E+00  0.21296503144E-01 0.  0.
         14    1    1    2    0    0 -0.21351231799E-01 -0.81435672331E-02  0.54152050377E-02  0.23484404021E-01  0.00000000000E+00 0. -1.
     999901    1    3    3    0    0 -0.64852946449E-01 -0.89532821725E-01  0.13954009932E-01  0.88702691347E+00  0.88000000000E+00 0.  1.
        -11    1    4    4    0    0  0.47708446866E-01  0.64498909318E-01 -0.40172945965E-02  0.80328108296E-01  0.51100000000E-03 0.  1.
         11    1    4    4    0    0  0.38495731383E-01  0.33177479640E-01 -0.15351920374E-01  0.53090574211E-01  0.51100000000E-03 0. -1.
</event>
<event>
 8    1  0.1137518E+005  0.1043930E+01  0.7957747E-01            NaN
         13   -1    0    0    0    0  0.00000000000E+00  0.00000000000E+00  0.74505805969E-08  0.10566000000E+00  0.10566000000E+00 0. -1.
     999900   -1    0    0    0    0 -0.00000000000E+00 -0.00000000000E+00 -0.74505805969E-08  0.93827000000E+00  0.93827000000E+00 0.  1.
     999902    2    1    2    0    0 -0.13135182021E-01 -0.16853467788E-01 -0.11795122653E-01  0.10195230891E+01  0.10192309021E+01 0.  0.
     999903    2    3    3    0    0 -0.75159829452E-01 -0.30782267455E-01 -0.10292021271E+00  0.13253670225E+00  0.19412864433E-01 0.  0.
         14    1    1    2    0    0  0.13135182021E-01  0.16853467788E-01  0.11795122653E-01  0.24406910939E-01  0.00000000000E+00 0. -1.
     999901    1    3    3    0    0  0.62024647431E-01  0.13928799667E-01  0.91125090060E-01  0.88698638681E+00  0.88000000000E+00 0. -1.
        -11    1    4    4    0    0 -0.63208865120E-01 -0.18158138645E-01 -0.86075731761E-01  0.10832530336E+00  0.51100000000E-03 0.  1.
         11    1    4    4    0    0 -0.11950964332E-01 -0.12624128810E-01 -0.16844480952E-01  0.24211398890E-01  0.51100000000E-03 0. -1.
</event>
<event>
 8    1  0.1137518E+005  0.1043930E+01  0.7957747E-01            NaN
         13   -1    0    0    0    0  0.00000000000E+00  0.00000000000E+00  0.74505805969E-08  0.10566000000E+00  0.10566000000E+00 0. -1.
     999900   -1    0    0    0    0 -0.00000000000E+00 -0.00000000000E+00 -0.74505805969E-08  0.93827000000E+00  0.93827000000E+00 0.  1.
     999902    2    1    2    0    0 -0.95998018870E-02  0.18775646349E-01 -0.30826949279E-03  0.10228402840E+01  0.10226228388E+01 0.  0.
     999903    2    3    3    0    0  0.11953375787E+00  0.37181097648E-01  0.37790088706E-01  0.13241020710E+00  0.20823516722E-01 0.  0.
         14    1    1    2    0    0  0.95998018870E-02 -0.18775646349E-01  0.30826949279E-03  0.21089716028E-01  0.00000000000E+00 0. -1.
     999901    1    3    3    0    0 -0.12913355976E+00 -0.18405451299E-01 -0.38098358199E-01  0.89043007687E+00  0.88000000000E+00 0. -1.
        -11    1    4    4    0    0  0.11923845847E+00  0.37470708827E-01  0.35361805276E-01  0.12989450486E+00  0.51100000000E-03 0.  1.
         11    1    4    4    0    0  0.29529939373E-03 -0.28961117961E-03  0.24282834301E-02  0.25157022447E-02  0.51100000000E-03 0. -1.
</event>
<event>
 8    1  0.1137518E+005  0.1043930E+01  0.7957747E-01            NaN
         13   -1    0    0    0    0  0.00000000000E+00  0.00000000000E+00  0.74505805969E-08  0.10566000000E+00  0.10566000000E+00 0. -1.
     999900   -1    0    0    0    0 -0.00000000000E+00 -0.00000000000E+00 -0.74505805969E-08  0.93827000000E+00  0.93827000000E+00 0. -1.
     999902    2    1    2    0    0  0.23995119140E-01  0.35682816531E-02 -0.44009006791E-02  0.10192750552E+01  0.10189768260E+01 0.  0.
     999903    2    3    3    0    0  0.52080294126E-01  0.70083369878E-01  0.95267862770E-01  0.13071054070E+00  0.19627633665E-01 0.  0.
         14    1    1    2    0    0 -0.23995119140E-01 -0.35682816531E-02  0.44009006791E-02  0.24654944804E-01  0.00000000000E+00 0. -1.
     999901    1    3    3    0    0 -0.28085174986E-01 -0.66515088225E-01 -0.99668763449E-01  0.88856451450E+00  0.88000000000E+00 0. -1.
        -11    1    4    4    0    0  0.50815103088E-01  0.63706647964E-01  0.80410259356E-01  0.11448485763E+00  0.51100000000E-03 0. -1.
         11    1    4    4    0    0  0.12651910380E-02  0.63767219140E-02  0.14857603414E-01  0.16225683065E-01  0.51100000000E-03 0.  1.
</event>
<event>
 8    1  0.1137518E+005  0.1043930E+01  0.7957747E-01            NaN
         13   -1    0    0    0    0  0.00000000000E+00  0.00000000000E+00  0.74505805969E-08  0.10566000000E+00  0.10566000000E+00 0.  1.
     999900   -1    0    0    0    0 -0.00000000000E+00 -0.00000000000E+00 -0.74505805969E-08  0.93827000000E+00  0.93827000000E+00 0.  1.
     999902    2    1    2    0    0 -0.20216920458E-01  0.71859462180E-02 -0.14503222541E-01  0.10180320240E+01  0.10177025581E+01 0.  0.
     999903    2    3    3    0    0  0.10216574247E+00 -0.44909624261E-01 -0.57118398772E-01  0.12701714317E+00  0.20399262112E-01 0.  0.
         14    1    1    2    0    0  0.20216920458E-01 -0.71859462180E-02  0.14503222541E-01  0.25897975981E-01  0.00000000000E+00 0.  1.
     999901    1    3    3    0    0 -0.12238266293E+00  0.52095570479E-01  0.42615176231E-01  0.89101488085E+00  0.88000000000E+00 0. -1.
        -11    1    4    4    0    0  0.60518142587E-01 -0.37199996846E-01 -0.37643685031E-01  0.80396476858E-01  0.51100000000E-03 0.  1.
         11    1    4    4    0    0  0.41647599885E-01 -0.77096274149E-02 -0.19474713742E-01  0.46620666312E-01  0.51100000000E-03 0. -1.
</event>
<event>
 8    1  0.1137518E+005  0.1043930E+01  0.7957747E-01            NaN
         13   -1    0    0    0    0  0.00000000000E+00  0.00000000000E+00  0.74505805969E-08  0.10566000000E+00  0.10566000000E+00 0.  1.
     999900   -1    0    0    0    0 -0.00000000000E+00 -0.00000000000E+00 -0.74505805969E-08  0.93827000000E+00  0.93827000000E+00 0.  1.
     999902    2    1    2    0    0 -0.17917338746E-01  0.45350677328E-03 -0.15653590487E-01  0.10201335383E+01  0.10198559527E+01 0.  0.
     999903    2    3    3    0    0 -0.59236769941E-01  0.11125527638E+00 -0.33281205900E-01  0.13204848582E+00  0.21034079635E-01 0.  0.
         14    1    1    2    0    0  0.17917338746E-01 -0.45350677328E-03  0.15653590487E-01  0.23796461738E-01  0.00000000000E+00 0.  1.
     999901    1    3    3    0    0  0.41319431195E-01 -0.11080176961E+00  0.17627615413E-01  0.88808505244E+00  0.88000000000E+00 0. -1.
        -11    1    4    4    0    0 -0.48755340383E-01  0.82152260867E-01 -0.16809054382E-01  0.96999394903E-01  0.51100000000E-03 0. -1.
         11    1    4    4    0    0 -0.10481429558E-01  0.29103015514E-01 -0.16472151518E-01  0.35049090919E-01  0.51100000000E-03 0.  1.
</event>
<event>
 8    1  0.1137518E+005  0.1043930E+01  0.7957747E-01            NaN
         13   -1    0    0    0    0  0.00000000000E+00  0.00000000000E+00  0.74505805969E-08  0.10566000000E+00  0.10566000000E+00 0.  1.
     999900   -1    0    0    0    0 -0.00000000000E+00 -0.00000000000E+00 -0.74505805969E-08  0.93827000000E+00  0.93827000000E+00 0.  1.
     999902    2    1    2    0    0 -0.20362359701E-01  0.30930330369E-02 -0.86348491053E-02  0.10215972177E+01  0.10213530839E+01 0.  0.
     999903    2    3    3    0    0  0.52542375529E-01 -0.11613122974E+00  0.17052429907E-01  0.13019979705E+00  0.20347924665E-01 0.  0.
         14    1    1    2    0    0  0.20362359701E-01 -0.30930330369E-02  0.86348491053E-02  0.22332782295E-01  0.00000000000E+00 0.  1.
     999901    1    3    3    0    0 -0.72904735231E-01  0.11922426278E+00 -0.25687279012E-01  0.89139742066E+00  0.88000000000E+00 0. -1.
        -11    1    4    4    0    0  0.50913421081E-01 -0.10519704681E+00  0.10507235960E-01  0.11734248264E+00  0.51100000000E-03 0.  1.
         11    1    4    4    0    0  0.16289544484E-02 -0.10934182929E-01  0.65451939472E-02  0.12857314406E-01  0.51100000000E-03 0. -1.
</event>
<event>
 8    1  0.1137518E+005  0.1043930E+01  0.7957747E-01            NaN
         13   -1    0    0    0    0  0.00000000000E+00  0.00000000000E+00  0.74505805969E-08  0.10566000000E+00  0.10566000000E+00 0.  1.
     999900   -1    0    0    0    0 -0.00000000000E+00 -0.00000000000E+00 -0.74505805969E-08  0.93827000000E+00  0.93827000000E+00 0. -1.
     999902    2    1    2    0    0  0.17601884365E-01  0.10676325176E-01  0.10768085395E-01  0.10206972232E+01  0.10204327806E+01 0.  0.
     999903    2    3    3    0    0 -0.71619610873E-01 -0.55109688694E-02 -0.10461677861E+00  0.12854467433E+00  0.20477389765E-01 0.  0.
         14    1    1    2    0    0 -0.17601884365E-01 -0.10676325176E-01 -0.10768085395E-01  0.23232776750E-01  0.00000000000E+00 0.  1.
     999901    1    3    3    0    0  0.89221495238E-01  0.16187294045E-01  0.11538486401E+00  0.89215254892E+00  0.88000000000E+00 0.  1.
        -11    1    4    4    0    0 -0.37933894780E-01 -0.16180366900E-02 -0.37613386593E-01  0.53447417037E-01  0.51100000000E-03 0. -1.
         11    1    4    4    0    0 -0.33685716093E-01 -0.38929321795E-02 -0.67003392022E-01  0.75097257294E-01  0.51100000000E-03 0.  1.
</event>
<event>
 8    1  0.1137518E+005  0.1043930E+01  0.7957747E-01            NaN
         13   -1    0    0    0    0  0.00000000000E+00  0.00000000000E+00  0.74505805969E-08  0.10566000000E+00  0.10566000000E+00 0. -1.
     999900   -1    0    0    0    0 -0.00000000000E+00 -0.00000000000E+00 -0.74505805969E-08  0.93827000000E+00  0.93827000000E+00 0.  1.
     999902    2    1    2    0    0  0.13993053660E-01  0.19211008635E-01 -0.17153737616E-02  0.10201012168E+01  0.10198228677E+01 0.  0.
     999903    2    3    3    0    0 -0.76963271801E-01 -0.31161572028E-01 -0.96676036392E-01  0.12890652565E+00  0.19397101949E-01 0.  0.
         14    1    1    2    0    0 -0.13993053660E-01 -0.19211008635E-01  0.17153737616E-02  0.23828783239E-01  0.00000000000E+00 0. -1.
     999901    1    3    3    0    0  0.90956325461E-01  0.50372580664E-01  0.94960662631E-01  0.89119469111E+00  0.88000000000E+00 0.  1.
        -11    1    4    4    0    0 -0.31269077473E-01 -0.40065535546E-02 -0.43437103379E-01  0.53673557255E-01  0.51100000000E-03 0. -1.
         11    1    4    4    0    0 -0.45694194328E-01 -0.27155018474E-01 -0.53238933013E-01  0.75232968391E-01  0.51100000000E-03 0.  1.
</event>
<event>
 8    1  0.1137518E+005  0.1043930E+01  0.7957747E-01            NaN
         13   -1    0    0    0    0  0.00000000000E+00  0.00000000000E+00  0.74505805969E-08  0.10566000000E+00  0.10566000000E+00 0.  1.
     999900   -1    0    0    0    0 -0.00000000000E+00 -0.00000000000E+00 -0.74505805969E-08  0.93827000000E+00  0.93827000000E+00 0.  1.
     999902    2    1    2    0    0 -0.38991403365E-02  0.21912365218E-01 -0.76749602751E-02  0.10203872716E+01  0.10201156425E+01 0.  0.
     999903    2    3    3    0    0 -0.90583993301E-01 -0.80316279193E-01  0.39490255010E-01  0.12898976376E+00  0.20560018672E-01 0.  0.
         14    1    1    2    0    0  0.38991403365E-02 -0.21912365218E-01  0.76749602751E-02  0.23542728390E-01  0.00000000000E+00 0. -1.
     999901    1    3    3    0    0  0.86684852965E-01  0.10222864441E+00 -0.47165215285E-01  0.89139750785E+00  0.88000000000E+00 0.  1.
        -11    1    4    4    0    0 -0.30298283968E-01 -0.40234614458E-01  0.14782584830E-01  0.52493772462E-01  0.51100000000E-03 0.  1.
         11    1    4    4    0    0 -0.60285709333E-01 -0.40081664735E-01  0.24707670180E-01  0.76495991296E-01  0.51100000000E-03 0. -1.
</event>
<event>
 8    1  0.1137518E+005  0.1043930E+01  0.7957747E-01            NaN
         13   -1    0    0    0    0  0.00000000000E+00  0.00000000000E+00  0.74505805969E-08  0.10566000000E+00  0.10566000000E+00 0. -1.
     999900   -1    0    0    0    0 -0.00000000000E+00 -0.00000000000E+00 -0.74505805969E-08  0.93827000000E+00  0.93827000000E+00 0.  1.
     999902    2    1    2    0    0 -0.14187325374E-02 -0.72920765413E-03  0.23838686632E-01  0.10200380029E+01  0.10197581575E+01 0.  0.
     999903    2    3    3    0    0  0.58381681061E-01  0.11448160298E+00 -0.21746045771E-02  0.13013558595E+00  0.20398130277E-01 0.  0.
         14    1    1    2    0    0  0.14187325374E-02  0.72920765413E-03 -0.23838686632E-01  0.23891997116E-01  0.00000000000E+00 0.  1.
     999901    1    3    3    0    0 -0.59800413598E-01 -0.11521081064E+00  0.26013291210E-01  0.88990241694E+00  0.88000000000E+00 0. -1.
        -11    1    4    4    0    0  0.50476103719E-01  0.97900504432E-01  0.53507866845E-02  0.11027800258E+00  0.51100000000E-03 0. -1.
         11    1    4    4    0    0  0.79055773420E-02  0.16581098553E-01 -0.75253912616E-02  0.19857583362E-01  0.51100000000E-03 0.  1.
</event>
<event>
 8    1  0.1137518E+005  0.1043930E+01  0.7957747E-01            NaN
         13   -1    0    0    0    0  0.00000000000E+00  0.00000000000E+00  0.74505805969E-08  0.10566000000E+00  0.10566000000E+00 0.  1.
     999900   -1    0    0    0    0 -0.00000000000E+00 -0.00000000000E+00 -0.74505805969E-08  0.93827000000E+00  0.93827000000E+00 0. -1.
     999902    2    1    2    0    0 -0.14908592505E-01 -0.16856439949E-01  0.69285254462E-02  0.10203840839E+01  0.10201123804E+01 0.  0.
     999903    2    3    3    0    0  0.11589432577E+00  0.46673677601E-01  0.21219284472E-01  0.12833604428E+00  0.20247352953E-01 0.  0.
         14    1    1    2    0    0  0.14908592505E-01  0.16856439949E-01 -0.69285254462E-02  0.23545916060E-01  0.00000000000E+00 0. -1.
     999901    1    3    3    0    0 -0.13080291828E+00 -0.63530117550E-01 -0.14290759026E-01  0.89204803966E+00  0.88000000000E+00 0. -1.
        -11    1    4    4    0    0  0.56001758637E-01  0.14422971778E-01  0.16537119776E-01  0.60149451675E-01  0.51100000000E-03 0.  1.
         11    1    4    4    0    0  0.59892567134E-01  0.32250705823E-01  0.46821646957E-02  0.68186592606E-01  0.51100000000E-03 0. -1.
</event>
<event>
 8    1  0.1137518E+005  0.1043930E+01  0.7957747E-01            NaN
         13   -1    0    0    0    0  0.00000000000E+00  0.00000000000E+00  0.74505805969E-08  0.10566000000E+00  0.10566000000E+00 0. -1.
     999900   -1    0    0    0    0 -0.00000000000E+00 -0.00000000000E+00 -0.74505805969E-08  0.93827000000E+00  0.93827000000E+00 0. -1.
     999902    2    1    2    0    0  0.31696683192E-02  0.14067927104E-01  0.18428188118E-01  0.10205301819E+01  0.10202618785E+01 0.  0.
     999903    2    3    3    0    0  0.79024572152E-01  0.10054854351E+00 -0.24448540334E-01  0.13200821970E+00  0.21761119873E-01 0.  0.
         14    1    1    2    0    0 -0.31696683192E-02 -0.14067927104E-01 -0.18428188118E-01  0.23399818110E-01  0.00000000000E+00 0.  1.
     999901    1    3    3    0    0 -0.75854903833E-01 -0.86480616407E-01  0.42876728452E-01  0.88852196219E+00  0.88000000000E+00 0.  1.
        -11    1    4    4    0    0  0.18347529605E-01  0.14807685064E-01 -0.11292415176E-01  0.26147258768E-01  0.51100000000E-03 0. -1.
         11    1    4    4    0    0  0.60677042547E-01  0.85740858446E-01 -0.13156125157E-01  0.10586096093E+00  0.51100000000E-03 0.  1.
</event>
<event>
 8    1  0.1137518E+005  0.1043930E+01  0.7957747E-01            NaN
         13   -1    0    0    0    0  0.00000000000E+00  0.00000000000E+00  0.74505805969E-08  0.10566000000E+00  0.10566000000E+00 0. -1.
     999900   -1    0    0    0    0 -0.00000000000E+00 -0.00000000000E+00 -0.74505805969E-08  0.93827000000E+00  0.93827000000E+00 0.  1.
     999902    2    1    2    0    0  0.14123109064E-01 -0.16434216909E-01  0.10186505104E-01  0.10199860951E+01  0.10197050180E+01 0.  0.
     999903    2    3    3    0    0  0.66829843324E-01  0.10888130586E+00 -0.29635864748E-02  0.12944979322E+00  0.20666383236E-01 0.  0.
         14    1    1    2    0    0 -0.14123109064E-01  0.16434216909E-01 -0.10186505104E-01  0.23943904888E-01  0.00000000000E+00 0.  1.
     999901    1    3    3    0    0 -0.52706734260E-01 -0.12531552276E+00  0.13150091579E-01  0.89053630189E+00  0.88000000000E+00 0. -1.
        -11    1    4    4    0    0  0.16124044057E-01  0.43271566349E-01  0.32548172895E-02  0.46295444783E-01  0.51100000000E-03 0.  1.
         11    1    4    4    0    0  0.50705799267E-01  0.65609739506E-01 -0.62184037643E-02  0.83154348436E-01  0.51100000000E-03 0. -1.
</event>
<event>
 8    1  0.1137518E+005  0.1043930E+01  0.7957747E-01            NaN
         13   -1    0    0    0    0  0.00000000000E+00  0.00000000000E+00  0.74505805969E-08  0.10566000000E+00  0.10566000000E+00 0.  1.
     999900   -1    0    0    0    0 -0.00000000000E+00 -0.00000000000E+00 -0.74505805969E-08  0.93827000000E+00  0.93827000000E+00 0.  1.
     999902    2    1    2    0    0  0.18483461013E-01  0.17581632035E-01  0.38011098915E-02  0.10181385178E+01  0.10178117905E+01 0.  0.
     999903    2    3    3    0    0 -0.11423499175E+00 -0.44138397077E-01 -0.20139431342E-01  0.12572790650E+00  0.20101699999E-01 0.  0.
         14    1    1    2    0    0 -0.18483461013E-01 -0.17581632035E-01 -0.38011098915E-02  0.25791482169E-01  0.00000000000E+00 0. -1.
     999901    1    3    3    0    0  0.13271845276E+00  0.61720029112E-01  0.23940541234E-01  0.89241061133E+00  0.88000000000E+00 0. -1.
        -11    1    4    4    0    0 -0.36412325101E-01 -0.14259737753E-01 -0.16023282906E-01  0.42263509747E-01  0.51100000000E-03 0. -1.
         11    1    4    4    0    0 -0.77822666646E-01 -0.29878659324E-01 -0.41161484363E-02  0.83464396756E-01  0.51100000000E-03 0.  1.
</event>
<event>
 8    1  0.1137518E+005  0.1043930E+01  0.7957747E-01            NaN
         13   -1    0    0    0    0  0.00000000000E+00  0.00000000000E+00  0.74505805969E-08  0.10566000000E+00  0.10566000000E+00 0. -1.
     999900   -1    0    0    0    0 -0.00000000000E+00 -0.00000000000E+00 -0.74505805969E-08  0.93827000000E+00  0.93827000000E+00 0.  1.
     999902    2    1    2    0    0  0.21420866671E-01  0.58330657664E-02 -0.72229636690E-02  0.10205837072E+01  0.10203166440E+01 0.  0.
     999903    2    3    3    0    0 -0.75404163723E-01  0.70609594101E-01  0.74958526422E-01  0.12911027377E+00  0.19472529958E-01 0.  0.
         14    1    1    2    0    0 -0.21420866671E-01 -0.58330657664E-02  0.72229636690E-02  0.23346292839E-01  0.00000000000E+00 0. -1.
     999901    1    3    3    0    0  0.96825030394E-01 -0.64776528334E-01 -0.82181490091E-01  0.89147343339E+00  0.88000000000E+00 0.  1.
        -11    1    4    4    0    0 -0.38905665153E-01  0.24517359002E-01  0.38059074470E-01  0.59695108208E-01  0.51100000000E-03 0.  1.
         11    1    4    4    0    0 -0.36498498570E-01  0.46092235098E-01  0.36899451952E-01  0.69415165559E-01  0.51100000000E-03 0. -1.
</event>
<event>
 8    1  0.1137518E+005  0.1043930E+01  0.7957747E-01            NaN
         13   -1    0    0    0    0  0.00000000000E+00  0.00000000000E+00  0.74505805969E-08  0.10566000000E+00  0.10566000000E+00 0. -1.
     999900   -1    0    0    0    0 -0.00000000000E+00 -0.00000000000E+00 -0.74505805969E-08  0.93827000000E+00  0.93827000000E+00 0. -1.
     999902    2    1    2    0    0 -0.18445607999E-01  0.14779880979E-01  0.16628406631E-02  0.10202350559E+01  0.10199598614E+01 0.  0.
     999903    2    3    3    0    0 -0.22905593133E-01 -0.38325102372E-01  0.12104851253E+00  0.13057614972E+00  0.20097482985E-01 0.  0.
         14    1    1    2    0    0  0.18445607999E-01 -0.14779880979E-01 -0.16628406631E-02  0.23694944087E-01  0.00000000000E+00 0.  1.
     999901    1    3    3    0    0  0.44599851340E-02  0.53104983352E-01 -0.11938567186E+00  0.88965890619E+00  0.88000000000E+00 0. -1.
        -11    1    4    4    0    0 -0.66739486684E-02  0.61136897901E-03  0.18853844636E-01  0.20016092061E-01  0.51100000000E-03 0.  1.
         11    1    4    4    0    0 -0.16231644464E-01 -0.38936471351E-01  0.10219466789E+00  0.11056005766E+00  0.51100000000E-03 0. -1.
</event>
<event>
 8    1  0.1137518E+005  0.1043930E+01  0.7957747E-01            NaN
         13   -1    0    0    0    0  0.00000000000E+00  0.00000000000E+00  0.74505805969E-08  0.10566000000E+00  0.10566000000E+00 0.  1.
     999900   -1    0    0    0    0 -0.00000000000E+00 -0.00000000000E+00 -0.74505805969E-08  0.93827000000E+00  0.93827000000E+00 0. -1.
     999902    2    1    2    0    0 -0.21674429156E-02 -0.20190439277E-01  0.13853634495E-01  0.10193479977E+01  0.10190515520E+01 0.  0.
     999903    2    3    3    0    0  0.11117546646E+00 -0.41268042159E-01 -0.48391276616E-01  0.12964843641E+00  0.20098899574E-01 0.  0.
         14    1    1    2    0    0  0.21674429156E-02  0.20190439277E-01 -0.13853634495E-01  0.24582002272E-01  0.00000000000E+00 0. -1.
     999901    1    3    3    0    0 -0.11334290938E+00  0.21077602882E-01  0.62244911111E-01  0.88969956132E+00  0.88000000000E+00 0. -1.
        -11    1    4    4    0    0  0.23272191646E-01 -0.10183611157E-01 -0.19524474470E-01  0.32043206215E-01  0.51100000000E-03 0.  1.
         11    1    4    4    0    0  0.87903274817E-01 -0.31084431002E-01 -0.28866802146E-01  0.97605230195E-01  0.51100000000E-03 0. -1.
</event>
<event>
 8    1  0.1137518E+005  0.1043930E+01  0.7957747E-01            NaN
         13   -1    0    0    0    0  0.00000000000E+00  0.00000000000E+00  0.74505805969E-08  0.10566000000E+00  0.10566000000E+00 0.  1.
     999900   -1    0    0    0    0 -0.00000000000E+00 -0.00000000000E+00 -0.74505805969E-08  0.93827000000E+00  0.93827000000E+00 0. -1.
     999902    2    1    2    0    0  0.78407677055E-02 -0.16525097916E-01  0.15464822794E-01  0.10199776046E+01  0.10196963257E+01 0.  0.
     999903    2    3    3    0    0  0.49854589770E-02 -0.12445699109E+00  0.41595316410E-01  0.13299381164E+00  0.21042484535E-01 0.  0.
         14    1    1    2    0    0 -0.78407677055E-02  0.16525097916E-01 -0.15464822794E-01  0.23952395358E-01  0.00000000000E+00 0. -1.
     999901    1    3    3    0    0  0.28553087285E-02  0.10793189317E+00 -0.26130493616E-01  0.88698379300E+00  0.88000000000E+00 0. -1.
        -11    1    4    4    0    0 -0.64820484951E-02 -0.61217737058E-01  0.26185552479E-01  0.66899720200E-01  0.51100000000E-03 0. -1.
         11    1    4    4    0    0  0.11467507472E-01 -0.63239254030E-01  0.15409763931E-01  0.66094091440E-01  0.51100000000E-03 0.  1.
</event>
<event>
 8    1  0.1137518E+005  0.1043930E+01  0.7957747E-01            NaN
         13   -1    0    0    0    0  0.00000000000E+00  0.00000000000E+00  0.74505805969E-08  0.10566000000E+00  0.10566000000E+00 0. -1.
     999900   -1    0    0    0    0 -0.00000000000E+00 -0.00000000000E+00 -0.74505805969E-08  0.93827000000E+00  0.93827000000E+00 0. -1.
     999902    2    1    2    0    0  0.18365372671E-01  0.45079890336E-02 -0.13756376263E-01  0.10205452450E+01  0.10202772909E+01 0.  0.
     999903    2    3    3    0    0 -0.44250297008E-01 -0.28895405574E-01 -0.11874607889E+00  0.13146743822E+00  0.19748995185E-01 0.  0.
         14    1    1    2    0    0 -0.18365372671E-01 -0.45079890336E-02  0.13756376263E-01  0.23384754999E-01  0.00000000000E+00 0. -1.
     999901    1    3    3    0    0  0.62615669679E-01  0.33403394608E-01  0.10498970263E+00  0.88907780679E+00  0.88000000000E+00 0.  1.
        -11    1    4    4    0    0 -0.20979122297E-01 -0.17235851320E-01 -0.38573097224E-01  0.47173542304E-01  0.51100000000E-03 0.  1.
         11    1    4    4    0    0 -0.23271174711E-01 -0.11659554255E-01 -0.80172981666E-01  0.84293895912E-01  0.51100000000E-03 0. -1.
</event>
<event>
 8    1  0.1137518E+005  0.1043930E+01  0.7957747E-01            NaN
         13   -1    0    0    0    0  0.00000000000E+00  0.00000000000E+00  0.74505805969E-08  0.10566000000E+00  0.10566000000E+00 0.  1.
     999900   -1    0    0    0    0 -0.00000000000E+00 -0.00000000000E+00 -0.74505805969E-08  0.93827000000E+00  0.93827000000E+00 0. -1.
     999902    2    1    2    0    0 -0.30086364295E-03  0.51718013693E-02 -0.21056765353E-01  0.10222453184E+01  0.10220152962E+01 0.  0.
     999903    2    3    3    0    0 -0.49581366669E-01  0.30052501756E-01  0.11468672265E+00  0.13012766263E+00  0.20462146702E-01 0.  0.
         14    1    1    2    0    0  0.30086364295E-03 -0.51718013693E-02  0.21056765353E-01  0.21684681586E-01  0.00000000000E+00 0.  1.
     999901    1    3    3    0    0  0.49280503026E-01 -0.24880700387E-01 -0.13574348800E+00  0.89211765579E+00  0.88000000000E+00 0. -1.
        -11    1    4    4    0    0 -0.16832036325E-01  0.85877061772E-02  0.19298843215E-01  0.27014303891E-01  0.51100000000E-03 0.  1.
         11    1    4    4    0    0 -0.32749330344E-01  0.21464795579E-01  0.95387879430E-01  0.10311335874E+00  0.51100000000E-03 0. -1.
</event>
<event>
 8    1  0.1137518E+005  0.1043930E+01  0.7957747E-01            NaN
         13   -1    0    0    0    0  0.00000000000E+00  0.00000000000E+00  0.74505805969E-08  0.10566000000E+00  0.10566000000E+00 0. -1.
     999900   -1    0    0    0    0 -0.00000000000E+00 -0.00000000000E+00 -0.74505805969E-08  0.93827000000E+00  0.93827000000E+00 0. -1.
     999902    2    1    2    0    0 -0.96887227475E-02 -0.18747065284E-01  0.11266558895E-01  0.10200080612E+01  0.10197275057E+01 0.  0.
     999903    2    3    3    0    0  0.85045289634E-01  0.90944789128E-01 -0.19578382848E-01  0.12761899448E+00  0.19990965909E-01 0.  0.
         14    1    1    2    0    0  0.96887227475E-02  0.18747065284E-01 -0.11266558895E-01  0.23921938771E-01  0.00000000000E+00 0.  1.
     999901    1    3    3    0    0 -0.94734012382E-01 -0.10969185441E+00  0.30844941743E-01  0.89238906675E+00  0.88000000000E+00 0. -1.
        -11    1    4    4    0    0  0.52716436614E-01  0.43008646098E-01 -0.14584302243E-01  0.69582536037E-01  0.51100000000E-03 0.  1.
         11    1    4    4    0    0  0.32328853020E-01  0.47936143030E-01 -0.49940806046E-02  0.58036458440E-01  0.51100000000E-03 0. -1.
</event>
<event>
 8    1  0.1137518E+005  0.1043930E+01  0.7957747E-01            NaN
         13   -1    0    0    0    0  0.00000000000E+00  0.00000000000E+00  0.74505805969E-08  0.10566000000E+00  0.10566000000E+00 0.  1.
     999900   -1    0    0    0    0 -0.00000000000E+00 -0.00000000000E+00 -0.74505805969E-08  0.93827000000E+00  0.93827000000E+00 0.  1.
     999902    2    1    2    0    0 -0.19863267718E-01  0.11302415323E-01  0.46629319864E-02  0.10206054007E+01  0.10203388393E+01 0.  0.
     999903    2    3    3    0    0 -0.10667337677E+00 -0.21360980051E-01  0.73767793383E-01  0.13303660097E+00  0.20531660353E-01 0.  0.
         14    1    1    2    0    0  0.19863267718E-01 -0.11302415323E-01 -0.46629319864E-02  0.23324599274E-01  0.00000000000E+00 0. -1.
     999901    1    3    3    0    0  0.86810109052E-01  0.32663395374E-01 -0.69104861396E-01  0.88756879976E+00  0.88000000000E+00 0.  1.
        -11    1    4    4    0    0 -0.26368015288E-01 -0.96877625654E-03  0.90435981522E-02  0.27897285642E-01  0.51100000000E-03 0.  1.
         11    1    4    4    0    0 -0.80305361482E-01 -0.20392203794E-01  0.64724195231E-01  0.10513931533E+00  0.51100000000E-03 0. -1.
</event>
<event>
 8    1  0.1137518E+005  0.1043930E+01  0.7957747E-01            NaN
         13   -1    0    0    0    0  0.00000000000E+00  0.00000000000E+00  0.74505805969E-08  0.10566000000E+00  0.10566000000E+00 0. -1.
     999900   -1    0    0    0    0 -0.00000000000E+00 -0.00000000000E+00 -0.74505805969E-08  0.93827000000E+00  0.93827000000E+00 0. -1.
     999902    2    1    2    0    0  0.35376446065E-02 -0.23245893580E-01  0.10491870182E-02  0.10203930654E+01  0.10201215715E+01 0.  0.
     999903    2    3    3    0    0  0.12120583219E+00  0.12608878928E-02 -0.46089752888E-01  0.13097276858E+00  0.18361840725E-01 0.  0.
         14    1    1    2    0    0 -0.35376446065E-02  0.23245893580E-01 -0.10491870182E-02  0.23536934616E-01  0.00000000000E+00 0. -1.
     999901    1    3    3    0    0 -0.11766818758E+00 -0.24506781473E-01  0.47138939906E-01  0.88942029680E+00  0.88000000000E+00 0.  1.
        -11    1    4    4    0    0  0.39884663688E-01 -0.55522878382E-02 -0.86710423093E-02  0.41195417142E-01  0.51100000000E-03 0.  1.
         11    1    4    4    0    0  0.81321168498E-01  0.68131757310E-02 -0.37418710579E-01  0.89777351441E-01  0.51100000000E-03 0. -1.
</event>
<event>
 8    1  0.1137518E+005  0.1043930E+01  0.7957747E-01            NaN
         13   -1    0    0    0    0  0.00000000000E+00  0.00000000000E+00  0.74505805969E-08  0.10566000000E+00  0.10566000000E+00 0. -1.
     999900   -1    0    0    0    0 -0.00000000000E+00 -0.00000000000E+00 -0.74505805969E-08  0.93827000000E+00  0.93827000000E+00 0.  1.
     999902    2    1    2    0    0 -0.12498961521E-01 -0.21012816819E-01  0.52997793436E-02  0.10189130024E+01  0.10186058395E+01 0.  0.
     999903    2    3    3    0    0  0.44589668940E-01  0.77880586677E-01 -0.86903421446E-01  0.12675805662E+00  0.21488971601E-01 0.  0.
         14    1    1    2    0    0  0.12498961521E-01  0.21012816819E-01 -0.52997793436E-02  0.25016997639E-01  0.00000000000E+00 0. -1.
     999901    1    3    3    0    0 -0.57088630461E-01 -0.98893403496E-01  0.92203200790E-01  0.89215494575E+00  0.88000000000E+00 0.  1.
        -11    1    4    4    0    0 -0.16374521430E-02  0.99761333996E-02 -0.10088378661E-01  0.14291290779E-01  0.51100000000E-03 0.  1.
         11    1    4    4    0    0  0.46227121083E-01  0.67904453278E-01 -0.76815042785E-01  0.11246676584E+00  0.51100000000E-03 0. -1.
</event>
<event>
 8    1  0.1137518E+005  0.1043930E+01  0.7957747E-01            NaN
         13   -1    0    0    0    0  0.00000000000E+00  0.00000000000E+00  0.74505805969E-08  0.10566000000E+00  0.10566000000E+00 0.  1.
     999900   -1    0    0    0    0 -0.00000000000E+00 -0.00000000000E+00 -0.74505805969E-08  0.93827000000E+00  0.93827000000E+00 0. -1.
     999902    2    1    2    0    0 -0.31546104418E-01  0.33043996154E-02 -0.37735474773E-02  0.10119876234E+01  0.10114833832E+01 0.  0.
     999903    2    3    3    0    0 -0.27207598416E-01  0.11915109620E+00  0.11063732778E-01  0.12426051185E+00  0.19520027790E-01 0.  0.
         14    1    1    2    0    0  0.31546104418E-01 -0.33043996154E-02  0.37735474773E-02  0.31942376576E-01  0.00000000000E+00 0.  1.
     999901    1    3    3    0    0 -0.43385060020E-02 -0.11584669658E+00 -0.14837280255E-01  0.88772711158E+00  0.88000000000E+00 0. -1.
        -11    1    4    4    0    0 -0.69889064121E-02  0.22868659314E-01 -0.53700931641E-02  0.24513657688E-01  0.51100000000E-03 0. -1.
         11    1    4    4    0    0 -0.20218692004E-01  0.96282436884E-01  0.16433825942E-01  0.99746854160E-01  0.51100000000E-03 0.  1.
</event>
<event>
 8    1  0.1137518E+005  0.1043930E+01  0.7957747E-01            NaN
         13   -1    0    0    0    0  0.00000000000E+00  0.00000000000E+00  0.74505805969E-08  0.10566000000E+00  0.10566000000E+00 0. -1.
     999900   -1    0    0    0    0 -0.00000000000E+00 -0.00000000000E+00 -0.74505805969E-08  0.93827000000E+00  0.93827000000E+00 0.  1.
     999902    2    1    2    0    0 -0.14270486705E-02  0.13891050469E-01  0.18353167277E-01  0.10208684194E+01  0.10206079038E+01 0.  0.
     999903    2    3    3    0    0  0.36370400822E-01  0.12561303485E+00  0.13890894520E-01  0.13298871985E+00  0.19788938234E-01 0.  0.
         14    1    1    2    0    0  0.14270486705E-02 -0.13891050469E-01 -0.18353167277E-01  0.23061580608E-01  0.00000000000E+00 0.  1.
     999901    1    3    3    0    0 -0.37797449493E-01 -0.11172198438E+00  0.44622727572E-02  0.88787969954E+00  0.88000000000E+00 0. -1.
        -11    1    4    4    0    0  0.25291092840E-01  0.53849328132E-01  0.31006835864E-02  0.59575707105E-01  0.51100000000E-03 0.  1.
         11    1    4    4    0    0  0.11079307982E-01  0.71763706718E-01  0.10790210934E-01  0.73413012744E-01  0.51100000000E-03 0. -1.
</event>
<event>
 8    1  0.1137518E+005  0.1043930E+01  0.7957747E-01            NaN
         13   -1    0    0    0    0  0.00000000000E+00  0.00000000000E+00  0.74505805969E-08  0.10566000000E+00  0.10566000000E+00 0. -1.
     999900   -1    0    0    0    0 -0.00000000000E+00 -0.00000000000E+00 -0.74505805969E-08  0.93827000000E+00  0.93827000000E+00 0.  1.
     999902    2    1    2    0    0  0.54105886171E-02  0.19293128828E-01  0.12110348234E-01  0.10205171868E+01  0.10202485818E+01 0.  0.
     999903    2    3    3    0    0 -0.10813082374E+00 -0.55093398773E-01 -0.36590619201E-01  0.12877911309E+00  0.22751459832E-01 0.  0.
         14    1    1    2    0    0 -0.54105886171E-02 -0.19293128828E-01 -0.12110348234E-01  0.23412813233E-01  0.00000000000E+00 0.  1.
     999901    1    3    3    0    0  0.11354141236E+00  0.74386527601E-01  0.48700967435E-01  0.89173807367E+00  0.88000000000E+00 0.  1.
        -11    1    4    4    0    0 -0.71927070013E-01 -0.39244165100E-01 -0.35341606496E-01  0.89235072509E-01  0.51100000000E-03 0.  1.
         11    1    4    4    0    0 -0.36203753728E-01 -0.15849233673E-01 -0.12490127053E-02  0.39544040585E-01  0.51100000000E-03 0. -1.
</event>
<event>
 8    1  0.1137518E+005  0.1043930E+01  0.7957747E-01            NaN
         13   -1    0    0    0    0  0.00000000000E+00  0.00000000000E+00  0.74505805969E-08  0.10566000000E+00  0.10566000000E+00 0.  1.
     999900   -1    0    0    0    0 -0.00000000000E+00 -0.00000000000E+00 -0.74505805969E-08  0.93827000000E+00  0.93827000000E+00 0.  1.
     999902    2    1    2    0    0  0.18780682570E-01  0.12956355360E-02  0.56873756151E-02  0.10242643205E+01  0.10240755144E+01 0.  0.
     999903    2    3    3    0    0  0.66481295311E-01  0.44739679058E-01  0.10803873043E+00  0.13598591075E+00  0.19959938422E-01 0.  0.
         14    1    1    2    0    0 -0.18780682570E-01 -0.12956355360E-02 -0.56873756151E-02  0.19665679511E-01  0.00000000000E+00 0. -1.
     999901    1    3    3    0    0 -0.47700612741E-01 -0.43444043522E-01 -0.10235135481E+00  0.88827840974E+00  0.88000000000E+00 0.  1.
        -11    1    4    4    0    0  0.43859649136E-01  0.18846738037E-01  0.55671094184E-01  0.73337577037E-01  0.51100000000E-03 0. -1.
         11    1    4    4    0    0  0.22621646175E-01  0.25892941020E-01  0.52367636245E-01  0.62648333715E-01  0.51100000000E-03 0.  1.
</event>
<event>
 8    1  0.1137518E+005  0.1043930E+01  0.7957747E-01            NaN
         13   -1    0    0    0    0  0.00000000000E+00  0.00000000000E+00  0.74505805969E-08  0.10566000000E+00  0.10566000000E+00 0.  1.
     999900   -1    0    0    0    0 -0.00000000000E+00 -0.00000000000E+00 -0.74505805969E-08  0.93827000000E+00  0.93827000000E+00 0. -1.
     999902    2    1    2    0    0 -0.19007356987E-01  0.51770825468E-02  0.12789177155E-01  0.10204428789E+01  0.10201725464E+01 0.  0.
     999903    2    3    3    0    0  0.20165143056E-01  0.12348603350E+00  0.36005817862E-01  0.13135879684E+00  0.17414968426E-01 0.  0.
         14    1    1    2    0    0  0.19007356987E-01 -0.51770825468E-02 -0.12789177155E-01  0.23487121059E-01  0.00000000000E+00 0. -1.
     999901    1    3    3    0    0 -0.39172500043E-01 -0.11830895095E+00 -0.23216640708E-01  0.88908408210E+00  0.88000000000E+00 0.  1.
        -11    1    4    4    0    0  0.35019652232E-02  0.12771308863E-01  0.94869851060E-02  0.16298285122E-01  0.51100000000E-03 0.  1.
         11    1    4    4    0    0  0.16663177832E-01  0.11071472463E+00  0.26518832756E-01  0.11506051172E+00  0.51100000000E-03 0. -1.
</event>
<event>
 8    1  0.1137518E+005  0.1043930E+01  0.7957747E-01            NaN
         13   -1    0    0    0    0  0.00000000000E+00  0.00000000000E+00  0.74505805969E-08  0.10566000000E+00  0.10566000000E+00 0.  1.
     999900   -1    0    0    0    0 -0.00000000000E+00 -0.00000000000E+00 -0.74505805969E-08  0.93827000000E+00  0.93827000000E+00 0.  1.
     999902    2    1    2    0    0 -0.19122793362E-01  0.10414803540E-01 -0.35426486644E-02  0.10218687281E+01  0.10216305583E+01 0.  0.
     999903    2    3    3    0    0 -0.20422583343E-02  0.86777522251E-01 -0.99074369939E-01  0.13324658159E+00  0.20109986037E-01 0.  0.
         14    1    1    2    0    0  0.19122793362E-01 -0.10414803540E-01  0.35426486644E-02  0.22061271911E-01  0.00000000000E+00 0.  1.
     999901    1    3    3    0    0 -0.17080535028E-01 -0.76362718711E-01  0.95531721275E-01  0.88862214650E+00  0.88000000000E+00 0. -1.
        -11    1    4    4    0    0  0.90383201421E-02  0.42176803219E-01 -0.47349690102E-01  0.64053323368E-01  0.51100000000E-03 0.  1.
         11    1    4    4    0    0 -0.11080578476E-01  0.44600719032E-01 -0.51724679838E-01  0.69193258219E-01  0.51100000000E-03 0. -1.
</event>
<event>
 8    1  0.1137518E+005  0.1043930E+01  0.7957747E-01            NaN
         13   -1    0    0    0    0  0.00000000000E+00  0.00000000000E+00  0.74505805969E-08  0.10566000000E+00  0.10566000000E+00 0. -1.
     999900   -1    0    0    0    0 -0.00000000000E+00 -0.00000000000E+00 -0.74505805969E-08  0.93827000000E+00  0.93827000000E+00 0. -1.
     999902    2    1    2    0    0  0.94991504147E-02  0.65662429430E-02  0.20871650109E-01  0.10200767993E+01  0.10197978728E+01 0.  0.
     999903    2    3    3    0    0  0.65270597589E-01 -0.99138934850E-01 -0.47838950640E-01  0.12934385078E+00  0.18774643119E-01 0.  0.
         14    1    1    2    0    0 -0.94991504147E-02 -0.65662429430E-02 -0.20871650109E-01  0.23853200692E-01  0.00000000000E+00 0.  1.
     999901    1    3    3    0    0 -0.55771447175E-01  0.10570517779E+00  0.68710600749E-01  0.89073294852E+00  0.88000000000E+00 0. -1.
        -11    1    4    4    0    0  0.28340493767E-01 -0.50234974840E-01 -0.14066747275E-01  0.59370622230E-01  0.51100000000E-03 0.  1.
         11    1    4    4    0    0  0.36930103823E-01 -0.48903960010E-01 -0.33772203365E-01  0.69973228553E-01  0.51100000000E-03 0. -1.
</event>
<event>
 8    1  0.1137518E+005  0.1043930E+01  0.7957747E-01            NaN
         13   -1    0    0    0    0  0.00000000000E+00  0.00000000000E+00  0.74505805969E-08  0.10566000000E+00  0.10566000000E+00 0.  1.
     999900   -1    0    0    0    0 -0.00000000000E+00 -0.00000000000E+00 -0.74505805969E-08  0.93827000000E+00  0.93827000000E+00 0. -1.
     999902    2    1    2    0    0 -0.19809945501E-01 -0.13284525019E-01  0.82781902753E-02  0.10186824065E+01  0.10183694832E+01 0.  0.
     999903    2    3    3    0    0 -0.80257667291E-01 -0.95985400541E-01 -0.35762998111E-01  0.13164633720E+00  0.19931778343E-01 0.  0.
         14    1    1    2    0    0  0.19809945501E-01  0.13284525019E-01 -0.82781902753E-02  0.25247593548E-01  0.00000000000E+00 0.  1.
     999901    1    3    3    0    0  0.60447721791E-01  0.82700875522E-01  0.44041188387E-01  0.88703606925E+00  0.88000000000E+00 0.  1.
        -11    1    4    4    0    0 -0.79203565363E-02 -0.16763210441E-01  0.46221195964E-04  0.18547251262E-01  0.51100000000E-03 0.  1.
         11    1    4    4    0    0 -0.72337310755E-01 -0.79222190100E-01 -0.35809219307E-01  0.11309908594E+00  0.51100000000E-03 0. -1.
</event>
<event>
 8    1  0.1137518E+005  0.1043930E+01  0.7957747E-01            NaN
         13   -1    0    0    0    0  0.00000000000E+00  0.00000000000E+00  0.74505805969E-08  0.10566000000E+00  0.10566000000E+00 0.  1.
     999900   -1    0    0    0    0 -0.00000000000E+00 -0.00000000000E+00 -0.74505805969E-08  0.93827000000E+00  0.93827000000E+00 0.  1.
     999902    2    1    2    0    0 -0.88234464443E-02 -0.22282547669E-01  0.12580525991E-02  0.10199310868E+01  0.10196487013E+01 0.  0.
     999903    2    3    3    0    0 -0.18464455200E-01 -0.48726372814E-01 -0.11898736862E+00  0.13130788980E+00  0.19198242627E-01 0.  0.
         14    1    1    2    0    0  0.88234464443E-02  0.22282547669E-01 -0.12580525991E-02  0.23998913186E-01  0.00000000000E+00 0.  1.
     999901    1    3    3    0    0  0.96410087553E-02  0.26443825145E-01  0.12024542122E+00  0.88862319701E+00  0.88000000000E+00 0. -1.
        -11    1    4    4    0    0  0.10576422816E-02 -0.17628434544E-01 -0.51947256576E-01  0.54869471461E-01  0.51100000000E-03 0. -1.
         11    1    4    4    0    0 -0.19522097481E-01 -0.31097938271E-01 -0.67040112045E-01  0.76438418343E-01  0.51100000000E-03 0.  1.
</event>
<event>
 8    1  0.1137518E+005  0.1043930E+01  0.7957747E-01            NaN
         13   -1    0    0    0    0  0.00000000000E+00  0.00000000000E+00  0.74505805969E-08  0.10566000000E+00  0.10566000000E+00 0.  1.
     999900   -1    0    0    0    0 -0.00000000000E+00 -0.00000000000E+00 -0.74505805969E-08  0.93827000000E+00  0.93827000000E+00 0. -1.
     999902    2    1    2    0    0 -0.21938147847E-01 -0.13019397611E-02 -0.10638968878E-01  0.10195135089E+01  0.10192210898E+01 0.  0.
     999903    2    3    3    0    0  0.56948642464E-01 -0.27906617804E-02  0.11227502252E+00  0.12747472542E+00  0.19829000665E-01 0.  0.
         14    1    1    2    0    0  0.21938147847E-01  0.13019397611E-02  0.10638968878E-01  0.24416491085E-01  0.00000000000E+00 0. -1.
     999901    1    3    3    0    0 -0.78886790311E-01  0.14887220193E-02 -0.12291399140E+00  0.89203878350E+00  0.88000000000E+00 0. -1.
        -11    1    4    4    0    0  0.29493344996E-01  0.59120412444E-02  0.43291674783E-01  0.52718496348E-01  0.51100000000E-03 0.  1.
         11    1    4    4    0    0  0.27455297468E-01 -0.87027030248E-02  0.68983347737E-01  0.74756229072E-01  0.51100000000E-03 0. -1.
</event>
<event>
 8    1  0.1137518E+005  0.1043930E+01  0.7957747E-01            NaN
         13   -1    0    0    0    0  0.00000000000E+00  0.00000000000E+00  0.74505805969E-08  0.10566000000E+00  0.10566000000E+00 0. -1.
     999900   -1    0    0    0    0 -0.00000000000E+00 -0.00000000000E+00 -0.74505805969E-08  0.93827000000E+00  0.93827000000E+00 0.  1.
     999902    2    1    2    0    0  0.13081205323E-01  0.18305960524E-01  0.75550049544E-02  0.10201959691E+01  0.10199198552E+01 0.  0.
     999903    2    3    3    0    0 -0.66360650688E-01  0.93949267196E-01  0.60883649093E-01  0.13178341705E+00  0.20732812562E-01 0.  0.
         14    1    1    2    0    0 -0.13081205323E-01 -0.18305960524E-01 -0.75550049544E-02  0.23734030911E-01  0.00000000000E+00 0.  1.
     999901    1    3    3    0    0  0.79441856011E-01 -0.75643306672E-01 -0.53328644139E-01  0.88841255204E+00  0.88000000000E+00 0.  1.
        -11    1    4    4    0    0 -0.12429918982E-01  0.19856259334E-01  0.22305915967E-01  0.32351026703E-01  0.51100000000E-03 0. -1.
         11    1    4    4    0    0 -0.53930731706E-01  0.74093007863E-01  0.38577733126E-01  0.99432390349E-01  0.51100000000E-03 0.  1.
</event>
<event>
 8    1  0.1137518E+005  0.1043930E+01  0.7957747E-01            NaN
         13   -1    0    0    0    0  0.00000000000E+00  0.00000000000E+00  0.74505805969E-08  0.10566000000E+00  0.10566000000E+00 0. -1.
     999900   -1    0    0    0    0 -0.00000000000E+00 -0.00000000000E+00 -0.74505805969E-08  0.93827000000E+00  0.93827000000E+00 0.  1.
     999902    2    1    2    0    0 -0.17310353909E-01  0.13834630216E-01 -0.85932859347E-02  0.10201625872E+01  0.10198856870E+01 0.  0.
     999903    2    3    3    0    0 -0.48806940290E-01  0.10836755291E+00 -0.56738037584E-01  0.13323168490E+00  0.20145297420E-01 0.  0.
         14    1    1    2    0    0  0.17310353909E-01 -0.13834630216E-01  0.85932859347E-02  0.23767412750E-01  0.00000000000E+00 0. -1.
     999901    1    3    3    0    0  0.31496586381E-01 -0.94532922697E-01  0.48144751649E-01  0.88693090235E+00  0.88000000000E+00 0.  1.
        -11    1    4    4    0    0 -0.25568827837E-01  0.45422127615E-01 -0.34638789036E-01  0.62586272144E-01  0.51100000000E-03 0. -1.
         11    1    4    4    0    0 -0.23238112454E-01  0.62945425298E-01 -0.22099248548E-01  0.70645412758E-01  0.51100000000E-03 0.  1.
</event>
<event>
 8    1  0.1137518E+005  0.1043930E+01  0.7957747E-01            NaN
         13   -1    0    0    0    0  0.00000000000E+00  0.00000000000E+00  0.74505805969E-08  0.10566000000E+00  0.10566000000E+00 0. -1.
     999900   -1    0    0    0    0 -0.00000000000E+00 -0.00000000000E+00 -0.74505805969E-08  0.93827000000E+00  0.93827000000E+00 0. -1.
     999902    2    1    2    0    0  0.16390167413E-01  0.23233249143E-01  0.45772859315E-02  0.10151311632E+01  0.10147225756E+01 0.  0.
     999903    2    3    3    0    0  0.47350689157E-01  0.72859582685E-01  0.92925386357E-01  0.12877530142E+00  0.19933496286E-01 0.  0.
         14    1    1    2    0    0 -0.16390167413E-01 -0.23233249143E-01 -0.45772859315E-02  0.28798836784E-01  0.00000000000E+00 0.  1.
     999901    1    3    3    0    0 -0.30960521743E-01 -0.49626333542E-01 -0.88348100426E-01  0.88635586179E+00  0.88000000000E+00 0.  1.
        -11    1    4    4    0    0  0.16725781807E-02  0.12814571057E-01  0.81384965484E-02  0.15280935711E-01  0.51100000000E-03 0.  1.
         11    1    4    4    0    0  0.45678110976E-01  0.60045011628E-01  0.84786889809E-01  0.11349436571E+00  0.51100000000E-03 0. -1.
</event>
<event>
 8    1  0.1137518E+005  0.1043930E+01  0.7957747E-01            NaN
         13   -1    0    0    0    0  0.00000000000E+00  0.00000000000E+00  0.74505805969E-08  0.10566000000E+00  0.10566000000E+00 0. -1.
     999900   -1    0    0    0    0 -0.00000000000E+00 -0.00000000000E+00 -0.74505805969E-08  0.93827000000E+00  0.93827000000E+00 0. -1.
     999902    2    1    2    0    0 -0.20517448221E-01 -0.87967411432E-02  0.85451620052E-02  0.10200266921E+01  0.10197465785E+01 0.  0.
     999903    2    3    3    0    0 -0.78225010037E-01  0.74938471508E-01 -0.70357543639E-01  0.13066321998E+00  0.19691785142E-01 0.  0.
         14    1    1    2    0    0  0.20517448221E-01  0.87967411432E-02 -0.85451620052E-02  0.23903307929E-01  0.00000000000E+00 0.  1.
     999901    1    3    3    0    0  0.57707561816E-01 -0.83735212651E-01  0.78902705644E-01  0.88936347209E+00  0.88000000000E+00 0.  1.
        -11    1    4    4    0    0 -0.77401632735E-01  0.67945825809E-01 -0.66772790172E-01  0.12274573159E+00  0.51100000000E-03 0.  1.
         11    1    4    4    0    0 -0.82337730217E-03  0.69926456985E-02 -0.35847534672E-02  0.79174883939E-02  0.51100000000E-03 0. -1.
</event>
<event>
 8    1  0.1137518E+005  0.1043930E+01  0.7957747E-01            NaN
         13   -1    0    0    0    0  0.00000000000E+00  0.00000000000E+00  0.74505805969E-08  0.10566000000E+00  0.10566000000E+00 0.  1.
     999900   -1    0    0    0    0 -0.00000000000E+00 -0.00000000000E+00 -0.74505805969E-08  0.93827000000E+00  0.93827000000E+00 0. -1.
     999902    2    1    2    0    0  0.15712891457E-01 -0.17165404866E-01 -0.40358996478E-02  0.10203114783E+01  0.10200380768E+01 0.  0.
     999903    2    3    3    0    0 -0.13113410387E-01 -0.66244597673E-01  0.11049124676E+00  0.13106674813E+00  0.20245211822E-01 0.  0.
         14    1    1    2    0    0 -0.15712891457E-01  0.17165404866E-01  0.40358996478E-02  0.23618521718E-01  0.00000000000E+00 0.  1.
     999901    1    3    3    0    0  0.28826301844E-01  0.49079192807E-01 -0.11452714641E+00  0.88924473015E+00  0.88000000000E+00 0. -1.
        -11    1    4    4    0    0 -0.23102290911E-02 -0.23765407378E-02  0.16996649906E-01  0.17324327789E-01  0.51100000000E-03 0. -1.
         11    1    4    4    0    0 -0.10803181295E-01 -0.63868056935E-01  0.93494596852E-01  0.11374242034E+00  0.51100000000E-03 0.  1.
</event>
<event>
 8    1  0.1137518E+005  0.1043930E+01  0.7957747E-01            NaN
         13   -1    0    0    0    0  0.00000000000E+00  0.00000000000E+00  0.74505805969E-08  0.10566000000E+00  0.10566000000E+00 0. -1.
     999900   -1    0    0    0    0 -0.00000000000E+00 -0.00000000000E+00 -0.74505805969E-08  0.93827000000E+00  0.93827000000E+00 0.  1.
     999902    2    1    2    0    0  0.54808429421E-03  0.14456231520E-01  0.20676742572E-01  0.10186948913E+01  0.10183822813E+01 0.  0.
     999903    2    3    3    0    0 -0.43690212177E-01 -0.11755528225E+00  0.13309130123E-01  0.12771882636E+00  0.20171431163E-01 0.  0.
         14    1    1    2    0    0 -0.54808429421E-03 -0.14456231520E-01 -0.20676742572E-01  0.25235108670E-01  0.00000000000E+00 0. -1.
     999901    1    3    3    0    0  0.44238296471E-01  0.13201151377E+00  0.73676124496E-02  0.89097606497E+00  0.88000000000E+00 0.  1.
        -11    1    4    4    0    0 -0.33731070999E-01 -0.69670619130E-01  0.14678239433E-01  0.78787639605E-01  0.51100000000E-03 0.  1.
         11    1    4    4    0    0 -0.99591411779E-02 -0.47884663125E-01 -0.13691093101E-02  0.48931186751E-01  0.51100000000E-03 0. -1.
</event>
<event>
 8    1  0.1137518E+005  0.1043930E+01  0.7957747E-01            NaN
         13   -1    0    0    0    0  0.00000000000E+00  0.00000000000E+00  0.74505805969E-08  0.10566000000E+00  0.10566000000E+00 0. -1.
     999900   -1    0    0    0    0 -0.00000000000E+00 -0.00000000000E+00 -0.74505805969E-08  0.93827000000E+00  0.93827000000E+00 0. -1.
     999902    2    1    2    0    0  0.23399140042E-01 -0.44831334386E-02 -0.72809000792E-02  0.10190175584E+01  0.10187129893E+01 0.  0.
     999903    2    3    3    0    0 -0.14366747592E-01 -0.47579478147E-01 -0.11860863811E+00  0.13015456421E+00  0.20049722538E-01 0.  0.
         14    1    1    2    0    0 -0.23399140042E-01  0.44831334386E-02  0.72809000792E-02  0.24912441593E-01  0.00000000000E+00 0. -1.
     999901    1    3    3    0    0  0.37765887635E-01  0.43096344708E-01  0.11132773803E+00  0.88886299420E+00  0.88000000000E+00 0.  1.
        -11    1    4    4    0    0 -0.10784232815E-02 -0.13905903123E-02 -0.23682766774E-01  0.23753553445E-01  0.51100000000E-03 0.  1.
         11    1    4    4    0    0 -0.13288324311E-01 -0.46188887835E-01 -0.94925871335E-01  0.10640101077E+00  0.51100000000E-03 0. -1.
</event>
<event>
 8    1  0.1137518E+005  0.1043930E+01  0.7957747E-01            NaN
         13   -1    0    0    0    0  0.00000000000E+00  0.00000000000E+00  0.74505805969E-08  0.10566000000E+00  0.10566000000E+00 0. -1.
     999900   -1    0    0    0    0 -0.00000000000E+00 -0.00000000000E+00 -0.74505805969E-08  0.93827000000E+00  0.93827000000E+00 0.  1.
     999902    2    1    2    0    0 -0.19474997180E-01 -0.19999328059E-01  0.19366893180E-01  0.10099546385E+01  0.10093830029E+01 0.  0.
     999903    2    3    3    0    0  0.43055343144E-01 -0.21412624077E-01 -0.10684603908E+00  0.11875222314E+00  0.19332650886E-01 0.  0.
         14    1    1    2    0    0  0.19474997180E-01  0.19999328059E-01 -0.19366893180E-01  0.33975361505E-01  0.00000000000E+00 0.  1.
     999901    1    3    3    0    0 -0.62530340324E-01  0.14132960180E-02  0.12621293226E+00  0.89120241536E+00  0.88000000000E+00 0. -1.
        -11    1    4    4    0    0  0.25644498268E-01 -0.76948425008E-02 -0.77337020878E-01  0.81842084601E-01  0.51100000000E-03 0.  1.
         11    1    4    4    0    0  0.17410844876E-01 -0.13717781576E-01 -0.29509018202E-01  0.36910138538E-01  0.51100000000E-03 0. -1.
</event>
<event>
 8    1  0.1137518E+005  0.1043930E+01  0.7957747E-01            NaN
         13   -1    0    0    0    0  0.00000000000E+00  0.00000000000E+00  0.74505805969E-08  0.10566000000E+00  0.10566000000E+00 0. -1.
     999900   -1    0    0    0    0 -0.00000000000E+00 -0.00000000000E+00 -0.74505805969E-08  0.93827000000E+00  0.93827000000E+00 0.  1.
     999902    2    1    2    0    0 -0.16085539670E-01  0.10699178880E-02 -0.16630522505E-01  0.10207683163E+01  0.10205055081E+01 0.  0.
     999903    2    3    3    0    0  0.96964590560E-01  0.16513173578E-01 -0.83785046028E-01  0.13086463835E+00  0.20755792145E-01 0.  0.
         14    1    1    2    0    0  0.16085539670E-01 -0.10699178880E-02  0.16630522505E-01  0.23161683652E-01  0.00000000000E+00 0. -1.
     999901    1    3    3    0    0 -0.11305013023E+00 -0.15443255690E-01  0.67154523523E-01  0.88990367800E+00  0.88000000000E+00 0. -1.
        -11    1    4    4    0    0  0.35764768351E-01 -0.35082894521E-02 -0.26170615020E-01  0.44458845708E-01  0.51100000000E-03 0. -1.
         11    1    4    4    0    0  0.61199822209E-01  0.20021463030E-01 -0.57614431008E-01  0.86405792639E-01  0.51100000000E-03 0.  1.
</event>
<event>
 8    1  0.1137518E+005  0.1043930E+01  0.7957747E-01            NaN
         13   -1    0    0    0    0  0.00000000000E+00  0.00000000000E+00  0.74505805969E-08  0.10566000000E+00  0.10566000000E+00 0. -1.
     999900   -1    0    0    0    0 -0.00000000000E+00 -0.00000000000E+00 -0.74505805969E-08  0.93827000000E+00  0.93827000000E+00 0.  1.
     999902    2    1    2    0    0 -0.59814058550E-02 -0.21701732376E-01 -0.10256868212E-01  0.10191924627E+01  0.10188922074E+01 0.  0.
     999903    2    3    3    0    0 -0.93634495784E-01  0.26941562245E-01 -0.83629021740E-01  0.13046713554E+00  0.23121280307E-01 0.  0.
         14    1    1    2    0    0  0.59814058550E-02  0.21701732376E-01  0.10256868212E-01  0.24737537259E-01  0.00000000000E+00 0. -1.
     999901    1    3    3    0    0  0.87653089929E-01 -0.48643294622E-01  0.73372153529E-01  0.88872532720E+00  0.88000000000E+00 0. -1.
        -11    1    4    4    0    0 -0.44039742647E-01  0.74773303123E-03 -0.36531228637E-01  0.57226303601E-01  0.51100000000E-03 0.  1.
         11    1    4    4    0    0 -0.49594753137E-01  0.26193829214E-01 -0.47097793104E-01  0.73240831944E-01  0.51100000000E-03 0. -1.
</event>
<event>
 8    1  0.1137518E+005  0.1043930E+01  0.7957747E-01            NaN
         13   -1    0    0    0    0  0.00000000000E+00  0.00000000000E+00  0.74505805969E-08  0.10566000000E+00  0.10566000000E+00 0. -1.
     999900   -1    0    0    0    0 -0.00000000000E+00 -0.00000000000E+00 -0.74505805969E-08  0.93827000000E+00  0.93827000000E+00 0.  1.
     999902    2    1    2    0    0 -0.43203181298E-02 -0.23367286771E-01 -0.18217212150E-02  0.10200969576E+01  0.10198185079E+01 0.  0.
     999903    2    3    3    0    0 -0.27761347606E-01  0.11410778172E+00  0.46174711249E-01  0.12782315782E+00  0.20380810748E-01 0.  0.
         14    1    1    2    0    0  0.43203181298E-02  0.23367286771E-01  0.18217212150E-02  0.23833042357E-01  0.00000000000E+00 0.  1.
     999901    1    3    3    0    0  0.23441029476E-01 -0.13747506849E+00 -0.47996432464E-01  0.89227379982E+00  0.88000000000E+00 0.  1.
        -11    1    4    4    0    0 -0.15717932013E-01  0.90625312027E-01  0.41939106624E-01  0.10108981330E+00  0.51100000000E-03 0. -1.
         11    1    4    4    0    0 -0.12043415593E-01  0.23482469693E-01  0.42356046247E-02  0.26733344526E-01  0.51100000000E-03 0.  1.
</event>
<event>
 8    1  0.1137518E+005  0.1043930E+01  0.7957747E-01            NaN
         13   -1    0    0    0    0  0.00000000000E+00  0.00000000000E+00  0.74505805969E-08  0.10566000000E+00  0.10566000000E+00 0.  1.
     999900   -1    0    0    0    0 -0.00000000000E+00 -0.00000000000E+00 -0.74505805969E-08  0.93827000000E+00  0.93827000000E+00 0. -1.
     999902    2    1    2    0    0 -0.68897121565E-02 -0.10152564246E-01 -0.20120132813E-01  0.10203638709E+01  0.10200916952E+01 0.  0.
     999903    2    3    3    0    0  0.37309585011E-01 -0.69421014571E-01  0.10032368364E+00  0.12908779699E+00  0.19685919729E-01 0.  0.
         14    1    1    2    0    0  0.68897121565E-02  0.10152564246E-01  0.20120132813E-01  0.23566129058E-01  0.00000000000E+00 0.  1.
     999901    1    3    3    0    0 -0.44199297168E-01  0.59268450325E-01 -0.12044381645E+00  0.89127607395E+00  0.88000000000E+00 0. -1.
        -11    1    4    4    0    0  0.34677332927E-01 -0.51127466958E-01  0.68188901897E-01  0.92013709627E-01  0.51100000000E-03 0. -1.
         11    1    4    4    0    0  0.26322520838E-02 -0.18293547613E-01  0.32134781742E-01  0.37074087365E-01  0.51100000000E-03 0.  1.
</event>
<event>
 8    1  0.1137518E+005  0.1043930E+01  0.7957747E-01            NaN
         13   -1    0    0    0    0  0.00000000000E+00  0.00000000000E+00  0.74505805969E-08  0.10566000000E+00  0.10566000000E+00 0.  1.
     999900   -1    0    0    0    0 -0.00000000000E+00 -0.00000000000E+00 -0.74505805969E-08  0.93827000000E+00  0.93827000000E+00 0.  1.
     999902    2    1    2    0    0 -0.21251348745E-01 -0.42652094902E-02 -0.93775575511E-02  0.10203132597E+01  0.10200399000E+01 0.  0.
     999903    2    3    3    0    0  0.63912317680E-01  0.80653491615E-01 -0.76096273738E-01  0.12963069957E+00  0.20584103907E-01 0.  0.
         14    1    1    2    0    0  0.21251348745E-01  0.42652094902E-02  0.93775575511E-02  0.23616740273E-01  0.00000000000E+00 0. -1.
     999901    1    3    3    0    0 -0.85163666425E-01 -0.84918701105E-01  0.66718716187E-01  0.89068256016E+00  0.88000000000E+00 0. -1.
        -11    1    4    4    0    0  0.63400235102E-01  0.80033287585E-01 -0.70799103886E-01  0.12424850568E+00  0.51100000000E-03 0. -1.
         11    1    4    4    0    0  0.51208257785E-03  0.62020403068E-03 -0.52971698516E-02  0.53821938876E-02  0.51100000000E-03 0.  1.
</event>
<event>
 8    1  0.1137518E+005  0.1043930E+01  0.7957747E-01            NaN
         13   -1    0    0    0    0  0.00000000000E+00  0.00000000000E+00  0.74505805969E-08  0.10566000000E+00  0.10566000000E+00 0.  1.
     999900   -1    0    0    0    0 -0.00000000000E+00 -0.00000000000E+00 -0.74505805969E-08  0.93827000000E+00  0.93827000000E+00 0.  1.
     999902    2    1    2    0    0 -0.11813606958E-01  0.10445974457E-01 -0.18274629069E-01  0.10197920266E+01  0.10195063196E+01 0.  0.
     999903    2    3    3    0    0  0.69590244303E-01  0.40435941996E-01 -0.10204675513E+00  0.13156696827E+00  0.20456280249E-01 0.  0.
         14    1    1    2    0    0  0.11813606958E-01 -0.10445974457E-01  0.18274629069E-01  0.24137973389E-01  0.00000000000E+00 0.  1.
     999901    1    3    3    0    0 -0.81403851260E-01 -0.29989967538E-01  0.83772126058E-01  0.88822505834E+00  0.88000000000E+00 0. -1.
        -11    1    4    4    0    0  0.60071955741E-01  0.39369306468E-01 -0.79930097966E-01  0.10746005695E+00  0.51100000000E-03 0. -1.
         11    1    4    4    0    0  0.95182885620E-02  0.10666355276E-02 -0.22116657161E-01  0.24106911322E-01  0.51100000000E-03 0.  1.
</event>
<event>
 8    1  0.1137518E+005  0.1043930E+01  0.7957747E-01            NaN
         13   -1    0    0    0    0  0.00000000000E+00  0.00000000000E+00  0.74505805969E-08  0.10566000000E+00  0.10566000000E+00 0.  1.
     999900   -1    0    0    0    0 -0.00000000000E+00 -0.00000000000E+00 -0.74505805969E-08  0.93827000000E+00  0.93827000000E+00 0.  1.
     999902    2    1    2    0    0  0.74289059345E-02  0.22743947376E-01  0.47431817934E-02  0.10195379202E+01  0.10192460925E+01 0.  0.
     999903    2    3    3    0    0 -0.68947840375E-01  0.44644934209E-01 -0.98589015705E-01  0.12993654671E+00  0.20414144838E-01 0.  0.
         14    1    1    2    0    0 -0.74289059345E-02 -0.22743947376E-01 -0.47431817934E-02  0.24392079845E-01  0.00000000000E+00 0.  1.
     999901    1    3    3    0    0  0.76376746310E-01 -0.21900986833E-01  0.10333219750E+00  0.88960137345E+00  0.88000000000E+00 0. -1.
        -11    1    4    4    0    0 -0.53616625738E-01  0.30869554622E-01 -0.85418800326E-01  0.10547181865E+00  0.51100000000E-03 0.  1.
         11    1    4    4    0    0 -0.15331214637E-01  0.13775379587E-01 -0.13170215378E-01  0.24464728062E-01  0.51100000000E-03 0. -1.
</event>
<event>
 8    1  0.1137518E+005  0.1043930E+01  0.7957747E-01            NaN
         13   -1    0    0    0    0  0.00000000000E+00  0.00000000000E+00  0.74505805969E-08  0.10566000000E+00  0.10566000000E+00 0. -1.
     999900   -1    0    0    0    0 -0.00000000000E+00 -0.00000000000E+00 -0.74505805969E-08  0.93827000000E+00  0.93827000000E+00 0. -1.
     999902    2    1    2    0    0  0.10430174362E-01 -0.20499374035E-01  0.96160982981E-02  0.10190004549E+01  0.10186954623E+01 0.  0.
     999903    2    3    3    0    0  0.39875327959E-02  0.10912138975E+00 -0.60900112632E-01  0.12669132345E+00  0.20457018404E-01 0.  0.
         14    1    1    2    0    0 -0.10430174362E-01  0.20499374035E-01 -0.96160982981E-02  0.24929545113E-01  0.00000000000E+00 0. -1.
     999901    1    3    3    0    0  0.64426415658E-02 -0.12962076378E+00  0.70516210931E-01  0.89230913143E+00  0.88000000000E+00 0. -1.
        -11    1    4    4    0    0  0.70209593309E-02  0.63646280711E-01 -0.45605162649E-01  0.78614470039E-01  0.51100000000E-03 0.  1.
         11    1    4    4    0    0 -0.30334265350E-02  0.45475109036E-01 -0.15294949983E-01  0.48076853416E-01  0.51100000000E-03 0. -1.
</event>
<event>
 8    1  0.1137518E+005  0.1043930E+01  0.7957747E-01            NaN
         13   -1    0    0    0    0  0.00000000000E+00  0.00000000000E+00  0.74505805969E-08  0.10566000000E+00  0.10566000000E+00 0. -1.
     999900   -1    0    0    0    0 -0.00000000000E+00 -0.00000000000E+00 -0.74505805969E-08  0.93827000000E+00  0.93827000000E+00 0. -1.
     999902    2    1    2    0    0  0.22817347066E-01  0.38872668213E-04  0.57930459665E-02  0.10203887124E+01  0.10201171169E+01 0.  0.
     999903    2    3    3    0    0  0.11148703454E+00  0.45824084063E-01 -0.51673756281E-01  0.13288601813E+00  0.21431546262E-01 0.  0.
         14    1    1    2    0    0 -0.22817347066E-01 -0.38872668213E-04 -0.57930459665E-02  0.23541287556E-01  0.00000000000E+00 0. -1.
     999901    1    3    3    0    0 -0.88669687473E-01 -0.45785211394E-01  0.57466802248E-01  0.88750269432E+00  0.88000000000E+00 0. -1.
        -11    1    4    4    0    0  0.63128026185E-01  0.16086738986E-01 -0.21569204402E-01  0.68625232683E-01  0.51100000000E-03 0.  1.
         11    1    4    4    0    0  0.48359008354E-01  0.29737345076E-01 -0.30104551879E-01  0.64260785445E-01  0.51100000000E-03 0. -1.
</event>
<event>
 8    1  0.1137518E+005  0.1043930E+01  0.7957747E-01            NaN
         13   -1    0    0    0    0  0.00000000000E+00  0.00000000000E+00  0.74505805969E-08  0.10566000000E+00  0.10566000000E+00 0. -1.
     999900   -1    0    0    0    0 -0.00000000000E+00 -0.00000000000E+00 -0.74505805969E-08  0.93827000000E+00  0.93827000000E+00 0.  1.
     999902    2    1    2    0    0 -0.81271772251E-02  0.14127830517E-01 -0.80024156968E-02  0.10257727628E+01  0.10256120493E+01 0.  0.
     999903    2    3    3    0    0  0.11897042779E+00  0.61484536719E-01 -0.12268584273E-02  0.13535580039E+00  0.19631010522E-01 0.  0.
         14    1    1    2    0    0  0.81271772251E-02 -0.14127830517E-01  0.80024156968E-02  0.18157237172E-01  0.00000000000E+00 0.  1.
     999901    1    3    3    0    0 -0.12709760501E+00 -0.47356706203E-01 -0.67755572695E-02  0.89041696244E+00  0.88000000000E+00 0.  1.
        -11    1    4    4    0    0  0.78953146949E-01  0.41452963015E-01 -0.10052665009E-01  0.89739984124E-01  0.51100000000E-03 0.  1.
         11    1    4    4    0    0  0.40017280838E-01  0.20031573704E-01  0.88258065812E-02  0.45615816265E-01  0.51100000000E-03 0. -1.
</event>
<event>
 8    1  0.1137518E+005  0.1043930E+01  0.7957747E-01            NaN
         13   -1    0    0    0    0  0.00000000000E+00  0.00000000000E+00  0.74505805969E-08  0.10566000000E+00  0.10566000000E+00 0.  1.
     999900   -1    0    0    0    0 -0.00000000000E+00 -0.00000000000E+00 -0.74505805969E-08  0.93827000000E+00  0.93827000000E+00 0.  1.
     999902    2    1    2    0    0  0.21238118178E-02 -0.73654120243E-02  0.23378090196E-01  0.10193272568E+01  0.10190303045E+01 0.  0.
     999903    2    3    3    0    0  0.80017167653E-01 -0.73549863968E-01  0.72298493860E-01  0.13206125248E+00  0.20019305243E-01 0.  0.
         14    1    1    2    0    0 -0.21238118178E-02  0.73654120243E-02 -0.23378090196E-01  0.24602743184E-01  0.00000000000E+00 0. -1.
     999901    1    3    3    0    0 -0.77893355835E-01  0.66184451944E-01 -0.48920403663E-01  0.88726600434E+00  0.88000000000E+00 0.  1.
        -11    1    4    4    0    0  0.65842716625E-01 -0.69269174642E-01  0.60376080669E-01  0.11304430161E+00  0.51100000000E-03 0.  1.
         11    1    4    4    0    0  0.14174451028E-01 -0.42806893265E-02  0.11922413191E-01  0.19016950869E-01  0.51100000000E-03 0. -1.
</event>
<event>
 8    1  0.1137518E+005  0.1043930E+01  0.7957747E-01            NaN
         13   -1    0    0    0    0  0.00000000000E+00  0.00000000000E+00  0.74505805969E-08  0.10566000000E+00  0.10566000000E+00 0. -1.
     999900   -1    0    0    0    0 -0.00000000000E+00 -0.00000000000E+00 -0.74505805969E-08  0.93827000000E+00  0.93827000000E+00 0. -1.
     999902    2    1    2    0    0  0.12508351192E-01  0.17240470638E-01  0.10593728787E-01  0.10201409318E+01  0.10198635207E+01 0.  0.
     999903    2    3    3    0    0  0.90835167623E-02  0.16089755960E-01  0.12926362860E+00  0.13216818515E+00  0.20443897918E-01 0.  0.
         14    1    1    2    0    0 -0.12508351192E-01 -0.17240470638E-01 -0.10593728787E-01  0.23789068224E-01  0.00000000000E+00 0.  1.
     999901    1    3    3    0    0  0.34248344295E-02  0.11507146781E-02 -0.11866989981E+00  0.88797274663E+00  0.88000000000E+00 0. -1.
        -11    1    4    4    0    0  0.14722358722E-02  0.17965446276E-01  0.66017972442E-01  0.68436529315E-01  0.51100000000E-03 0. -1.
         11    1    4    4    0    0  0.76112808900E-02 -0.18756903158E-02  0.63245656159E-01  0.63731655831E-01  0.51100000000E-03 0.  1.
</event>
<event>
 8    1  0.1137518E+005  0.1043930E+01  0.7957747E-01            NaN
         13   -1    0    0    0    0  0.00000000000E+00  0.00000000000E+00  0.74505805969E-08  0.10566000000E+00  0.10566000000E+00 0.  1.
     999900   -1    0    0    0    0 -0.00000000000E+00 -0.00000000000E+00 -0.74505805969E-08  0.93827000000E+00  0.93827000000E+00 0. -1.
     999902    2    1    2    0    0  0.16836920540E-01  0.14702267870E-01 -0.15210999292E-02  0.10215257076E+01  0.10212799905E+01 0.  0.
     999903    2    3    3    0    0  0.12758985601E+00 -0.33079117751E-01  0.52485206877E-03  0.13329518601E+00  0.19847714136E-01 0.  0.
         14    1    1    2    0    0 -0.16836920540E-01 -0.14702267870E-01  0.15210999292E-02  0.22404292419E-01  0.00000000000E+00 0. -1.
     999901    1    3    3    0    0 -0.11075293547E+00  0.47781385621E-01 -0.20459519980E-02  0.88823052157E+00  0.88000000000E+00 0. -1.
        -11    1    4    4    0    0  0.78514720713E-01 -0.29783159493E-01 -0.25149681126E-02  0.84012999849E-01  0.51100000000E-03 0. -1.
         11    1    4    4    0    0  0.49075135297E-01 -0.32959582579E-02  0.30398201814E-02  0.49282186163E-01  0.51100000000E-03 0.  1.
</event>
<event>
 8    1  0.1137518E+005  0.1043930E+01  0.7957747E-01            NaN
         13   -1    0    0    0    0  0.00000000000E+00  0.00000000000E+00  0.74505805969E-08  0.10566000000E+00  0.10566000000E+00 0. -1.
     999900   -1    0    0    0    0 -0.00000000000E+00 -0.00000000000E+00 -0.74505805969E-08  0.93827000000E+00  0.93827000000E+00 0.  1.
     999902    2    1    2    0    0 -0.37057966759E-03 -0.97811670203E-02 -0.22490678448E-01  0.10194016659E+01  0.10191065289E+01 0.  0.
     999903    2    3    3    0    0 -0.34672671068E-01  0.11888670947E+00  0.25093012906E-01  0.12811256374E+00  0.21140621633E-01 0.  0.
         14    1    1    2    0    0  0.37057966759E-03  0.97811670203E-02  0.22490678448E-01  0.24528334118E-01  0.00000000000E+00 0. -1.
     999901    1    3    3    0    0  0.34302091400E-01 -0.12866787649E+00 -0.47583691354E-01  0.89128910214E+00  0.88000000000E+00 0. -1.
        -11    1    4    4    0    0 -0.14062056286E-01  0.72342081378E-01  0.22841427333E-01  0.77156400180E-01  0.51100000000E-03 0.  1.
         11    1    4    4    0    0 -0.20610614782E-01  0.46544628094E-01  0.22515855736E-02  0.50956163559E-01  0.51100000000E-03 0. -1.
</event>
<event>
 8    1  0.1137518E+005  0.1043930E+01  0.7957747E-01            NaN
         13   -1    0    0    0    0  0.00000000000E+00  0.00000000000E+00  0.74505805969E-08  0.10566000000E+00  0.10566000000E+00 0.  1.
     999900   -1    0    0    0    0 -0.00000000000E+00 -0.00000000000E+00 -0.74505805969E-08  0.93827000000E+00  0.93827000000E+00 0. -1.
     999902    2    1    2    0    0 -0.68507890383E-02  0.23628380855E-01 -0.99311676780E-03  0.10193084653E+01  0.10190110536E+01 0.  0.
     999903    2    3    3    0    0 -0.87373177044E-01  0.84369879400E-01  0.44370249304E-01  0.13238613517E+00  0.28372894572E-01 0.  0.
         14    1    1    2    0    0  0.68507890383E-02 -0.23628380855E-01  0.99311676780E-03  0.24621534745E-01  0.00000000000E+00 0. -1.
     999901    1    3    3    0    0  0.80522388005E-01 -0.60741498545E-01 -0.45363366072E-01  0.88692233008E+00  0.88000000000E+00 0.  1.
        -11    1    4    4    0    0 -0.67934039117E-01  0.47357740271E-01  0.32052175231E-01  0.88799731376E-01  0.51100000000E-03 0. -1.
         11    1    4    4    0    0 -0.19439137926E-01  0.37012139128E-01  0.12318074074E-01  0.43586403798E-01  0.51100000000E-03 0.  1.
</event>
<event>
 8    1  0.1137518E+005  0.1043930E+01  0.7957747E-01            NaN
         13   -1    0    0    0    0  0.00000000000E+00  0.00000000000E+00  0.74505805969E-08  0.10566000000E+00  0.10566000000E+00 0.  1.
     999900   -1    0    0    0    0 -0.00000000000E+00 -0.00000000000E+00 -0.74505805969E-08  0.93827000000E+00  0.93827000000E+00 0.  1.
     999902    2    1    2    0    0 -0.15098215971E-01 -0.38901223363E-02  0.28814634087E-01  0.10111676387E+01  0.10106367405E+01 0.  0.
     999903    2    3    3    0    0 -0.53967513636E-03 -0.10995434209E+00  0.53541327659E-01  0.12433452074E+00  0.22408718976E-01 0.  0.
         14    1    1    2    0    0  0.15098215971E-01  0.38901223363E-02 -0.28814634087E-01  0.32762361253E-01  0.00000000000E+00 0. -1.
     999901    1    3    3    0    0 -0.14558540835E-01  0.10606421975E+00 -0.24726693573E-01  0.88683311801E+00  0.88000000000E+00 0.  1.
        -11    1    4    4    0    0 -0.93655612815E-02 -0.32113984971E-01  0.21024178693E-01  0.39513275991E-01  0.51100000000E-03 0. -1.
         11    1    4    4    0    0  0.88258861451E-02 -0.77840357118E-01  0.32517148967E-01  0.84821244747E-01  0.51100000000E-03 0.  1.
</event>
<event>
 8    1  0.1137518E+005  0.1043930E+01  0.7957747E-01            NaN
         13   -1    0    0    0    0  0.00000000000E+00  0.00000000000E+00  0.74505805969E-08  0.10566000000E+00  0.10566000000E+00 0.  1.
     999900   -1    0    0    0    0 -0.00000000000E+00 -0.00000000000E+00 -0.74505805969E-08  0.93827000000E+00  0.93827000000E+00 0.  1.
     999902    2    1    2    0    0 -0.30299606342E-02  0.93322587269E-03 -0.22523305936E-01  0.10211846514E+01  0.10209313108E+01 0.  0.
     999903    2    3    3    0    0 -0.71839497902E-01 -0.10834681832E+00 -0.86578206106E-02  0.13165155357E+00  0.18900455014E-01 0.  0.
         14    1    1    2    0    0  0.30299606342E-02 -0.93322587269E-03  0.22523305936E-01  0.22745348585E-01  0.00000000000E+00 0.  1.
     999901    1    3    3    0    0  0.68809537268E-01  0.10928004420E+00 -0.13865485325E-01  0.88953309785E+00  0.88000000000E+00 0. -1.
        -11    1    4    4    0    0 -0.51141160202E-01 -0.61174724432E-01 -0.25871501817E-02  0.79779193047E-01  0.51100000000E-03 0.  1.
         11    1    4    4    0    0 -0.20698337700E-01 -0.47172093893E-01 -0.60706704289E-02  0.51872360523E-01  0.51100000000E-03 0. -1.
</event>
<event>
 8    1  0.1137518E+005  0.1043930E+01  0.7957747E-01            NaN
         13   -1    0    0    0    0  0.00000000000E+00  0.00000000000E+00  0.74505805969E-08  0.10566000000E+00  0.10566000000E+00 0. -1.
     999900   -1    0    0    0    0 -0.00000000000E+00 -0.00000000000E+00 -0.74505805969E-08  0.93827000000E+00  0.93827000000E+00 0. -1.
     999902    2    1    2    0    0  0.22914595732E-01 -0.18609090231E-01 -0.26545121697E-02  0.10142917920E+01  0.10138586765E+01 0.  0.
     999903    2    3    3    0    0  0.11998449213E+00  0.23615708519E-01  0.29733450897E-01  0.12735634987E+00  0.19534116506E-01 0.  0.
         14    1    1    2    0    0 -0.22914595732E-01  0.18609090231E-01  0.26545121697E-02  0.29638207970E-01  0.00000000000E+00 0. -1.
     999901    1    3    3    0    0 -0.97069896400E-01 -0.42224798751E-01 -0.32387963067E-01  0.88693544216E+00  0.88000000000E+00 0. -1.
        -11    1    4    4    0    0  0.78073028163E-01  0.61737489380E-02  0.16117764995E-01  0.79959717183E-01  0.51100000000E-03 0.  1.
         11    1    4    4    0    0  0.41911463969E-01  0.17441959581E-01  0.13615685902E-01  0.47396632682E-01  0.51100000000E-03 0. -1.
</event>
<event>
 8    1  0.1137518E+005  0.1043930E+01  0.7957747E-01            NaN
         13   -1    0    0    0    0  0.00000000000E+00  0.00000000000E+00  0.74505805969E-08  0.10566000000E+00  0.10566000000E+00 0.  1.
     999900   -1    0    0    0    0 -0.00000000000E+00 -0.00000000000E+00 -0.74505805969E-08  0.93827000000E+00  0.93827000000E+00 0. -1.
     999902    2    1    2    0    0 -0.24103971874E-01  0.93965161973E-03 -0.39679973477E-03  0.10198044564E+01  0.10195190471E+01 0.  0.
     999903    2    3    3    0    0 -0.10951833353E+00 -0.95461367898E-02  0.71525975105E-01  0.13268639744E+00  0.20107730972E-01 0.  0.
         14    1    1    2    0    0  0.24103971874E-01 -0.93965161973E-03  0.39679973477E-03  0.24125543627E-01  0.00000000000E+00 0.  1.
     999901    1    3    3    0    0  0.85414361659E-01  0.10485788409E-01 -0.71922774839E-01  0.88711805893E+00  0.88000000000E+00 0. -1.
        -11    1    4    4    0    0 -0.56001084137E-01  0.47628012354E-02  0.32557921443E-01  0.64954484601E-01  0.51100000000E-03 0. -1.
         11    1    4    4    0    0 -0.53517249396E-01 -0.14308938025E-01  0.38968053661E-01  0.67731912844E-01  0.51100000000E-03 0.  1.
</event>
<event>
 8    1  0.1137518E+005  0.1043930E+01  0.7957747E-01            NaN
         13   -1    0    0    0    0  0.00000000000E+00  0.00000000000E+00  0.74505805969E-08  0.10566000000E+00  0.10566000000E+00 0.  1.
     999900   -1    0    0    0    0 -0.00000000000E+00 -0.00000000000E+00 -0.74505805969E-08  0.93827000000E+00  0.93827000000E+00 0.  1.
     999902    2    1    2    0    0  0.15559157276E-02  0.14960533935E-01  0.18032903901E-01  0.10204475795E+01  0.10201773564E+01 0.  0.
     999903    2    3    3    0    0  0.42429081478E-01  0.64224676149E-01  0.10723916806E+00  0.13362441283E+00  0.20741469465E-01 0.  0.
         14    1    1    2    0    0 -0.15559157276E-02 -0.14960533935E-01 -0.18032903901E-01  0.23482420499E-01  0.00000000000E+00 0. -1.
     999901    1    3    3    0    0 -0.40873165750E-01 -0.49264142214E-01 -0.89206264158E-01  0.88682316668E+00  0.88000000000E+00 0.  1.
        -11    1    4    4    0    0  0.87823520748E-02  0.74425722342E-02  0.29343219269E-01  0.31524708206E-01  0.51100000000E-03 0. -1.
         11    1    4    4    0    0  0.33646729403E-01  0.56782103915E-01  0.77895948791E-01  0.10209970462E+00  0.51100000000E-03 0.  1.
</event>
<event>
 8    1  0.1137518E+005  0.1043930E+01  0.7957747E-01            NaN
         13   -1    0    0    0    0  0.00000000000E+00  0.00000000000E+00  0.74505805969E-08  0.10566000000E+00  0.10566000000E+00 0.  1.
     999900   -1    0    0    0    0 -0.00000000000E+00 -0.00000000000E+00 -0.74505805969E-08  0.93827000000E+00  0.93827000000E+00 0.  1.
     999902    2    1    2    0    0 -0.26635676801E-01 -0.15447607984E-01 -0.29455909509E-02  0.10129983919E+01  0.10125260380E+01 0.  0.
     999903    2    3    3    0    0 -0.92527900956E-01  0.55394992193E-01 -0.64035025291E-01  0.12559071889E+00  0.65212415647E-02 0.  0.
         14    1    1    2    0    0  0.26635676801E-01  0.15447607984E-01  0.29455909509E-02  0.30931608059E-01  0.00000000000E+00 0.  1.
     999901    1    3    3    0    0  0.65892224155E-01 -0.70842600177E-01  0.61089434341E-01  0.88740767305E+00  0.88000000000E+00 0. -1.
        -11    1    4    4    0    0 -0.32153007537E-01  0.16460463799E-01 -0.19271470276E-01  0.40944028255E-01  0.51100000000E-03 0.  1.
         11    1    4    4    0    0 -0.60374893419E-01  0.38934528394E-01 -0.44763555016E-01  0.84646690634E-01  0.51100000000E-03 0. -1.
</event>
<event>
 8    1  0.1137518E+005  0.1043930E+01  0.7957747E-01            NaN
         13   -1    0    0    0    0  0.00000000000E+00  0.00000000000E+00  0.74505805969E-08  0.10566000000E+00  0.10566000000E+00 0. -1.
     999900   -1    0    0    0    0 -0.00000000000E+00 -0.00000000000E+00 -0.74505805969E-08  0.93827000000E+00  0.93827000000E+00 0.  1.
     999902    2    1    2    0    0 -0.26173368793E-03 -0.10665221868E-01 -0.20542854933E-01  0.10207821200E+01  0.10205196285E+01 0.  0.
     999903    2    3    3    0    0  0.41994034491E-01 -0.74950061935E-01  0.95266267110E-01  0.12986694814E+00  0.20217612476E-01 0.  0.
         14    1    1    2    0    0  0.26173368793E-03  0.10665221868E-01  0.20542854933E-01  0.23147880050E-01  0.00000000000E+00 0. -1.
     999901    1    3    3    0    0 -0.42255768179E-01  0.64284840067E-01 -0.11580912204E+00  0.89091517181E+00  0.88000000000E+00 0.  1.
        -11    1    4    4    0    0  0.28842658307E-01 -0.36199501440E-01  0.40538914411E-01  0.61530216523E-01  0.51100000000E-03 0. -1.
         11    1    4    4    0    0  0.13151376184E-01 -0.38750560495E-01  0.54727352699E-01  0.68336731621E-01  0.51100000000E-03 0.  1.
</event>
<event>
 8    1  0.1137518E+005  0.1043930E+01  0.7957747E-01            NaN
         13   -1    0    0    0    0  0.00000000000E+00  0.00000000000E+00  0.74505805969E-08  0.10566000000E+00  0.10566000000E+00 0. -1.
     999900   -1    0    0    0    0 -0.00000000000E+00 -0.00000000000E+00 -0.74505805969E-08  0.93827000000E+00  0.93827000000E+00 0. -1.
     999902    2    1    2    0    0  0.19023714691E-02 -0.15469797214E-02 -0.23061927880E-01  0.10207380902E+01  0.10204745877E+01 0.  0.
     999903    2    3    3    0    0 -0.82021047604E-01 -0.15631636394E-01  0.95631183167E-01  0.12870133509E+00  0.21140249617E-01 0.  0.
         14    1    1    2    0    0 -0.19023714691E-02  0.15469797214E-02  0.23061927880E-01  0.23191909818E-01  0.00000000000E+00 0. -1.
     999901    1    3    3    0    0  0.83923419073E-01  0.14084656673E-01 -0.11869311105E+00  0.89203675509E+00  0.88000000000E+00 0. -1.
        -11    1    4    4    0    0 -0.41353847161E-01 -0.44287658274E-02  0.32556792562E-01  0.52820076719E-01  0.51100000000E-03 0.  1.
         11    1    4    4    0    0 -0.40667200443E-01 -0.11202870567E-01  0.63074390605E-01  0.75881258372E-01  0.51100000000E-03 0. -1.
</event>
<event>
 8    1  0.1137518E+005  0.1043930E+01  0.7957747E-01            NaN
         13   -1    0    0    0    0  0.00000000000E+00  0.00000000000E+00  0.74505805969E-08  0.10566000000E+00  0.10566000000E+00 0.  1.
     999900   -1    0    0    0    0 -0.00000000000E+00 -0.00000000000E+00 -0.74505805969E-08  0.93827000000E+00  0.93827000000E+00 0. -1.
     999902    2    1    2    0    0 -0.13940473118E-01  0.20548017748E-01  0.21367358568E-02  0.10190076513E+01  0.10187028369E+01 0.  0.
     999903    2    3    3    0    0  0.86499547632E-02  0.11251645652E+00  0.64994858179E-01  0.13169729709E+00  0.19623245562E-01 0.  0.
         14    1    1    2    0    0  0.13940473118E-01 -0.20548017748E-01 -0.21367358568E-02  0.24922348690E-01  0.00000000000E+00 0. -1.
     999901    1    3    3    0    0 -0.22590427882E-01 -0.91968438771E-01 -0.62858122322E-01  0.88731035422E+00  0.88000000000E+00 0.  1.
        -11    1    4    4    0    0  0.14871233015E-01  0.69527120600E-01  0.40244074651E-01  0.81700800093E-01  0.51100000000E-03 0. -1.
         11    1    4    4    0    0 -0.62212782517E-02  0.42989335919E-01  0.24750783528E-01  0.49996496998E-01  0.51100000000E-03 0.  1.
</event>
<event>
 8    1  0.1137518E+005  0.1043930E+01  0.7957747E-01            NaN
         13   -1    0    0    0    0  0.00000000000E+00  0.00000000000E+00  0.74505805969E-08  0.10566000000E+00  0.10566000000E+00 0.  1.
     999900   -1    0    0    0    0 -0.00000000000E+00 -0.00000000000E+00 -0.74505805969E-08  0.93827000000E+00  0.93827000000E+00 0.  1.
     999902    2    1    2    0    0 -0.23013853851E-02  0.30886093896E-02 -0.23572854855E-01  0.10200445365E+01  0.10197648459E+01 0.  0.
     999903    2    3    3    0    0  0.97534075383E-01  0.77015486458E-01 -0.37087880328E-01  0.13121668007E+00  0.19950570060E-01 0.  0.
         14    1    1    2    0    0  0.23013853851E-02 -0.30886093896E-02  0.23572854855E-01  0.23885463543E-01  0.00000000000E+00 0.  1.
     999901    1    3    3    0    0 -0.99835460768E-01 -0.73926877068E-01  0.13515025473E-01  0.88882785639E+00  0.88000000000E+00 0. -1.
        -11    1    4    4    0    0  0.52589840073E-01  0.38093981351E-01 -0.29330709795E-01  0.71255837320E-01  0.51100000000E-03 0.  1.
         11    1    4    4    0    0  0.44944235310E-01  0.38921505107E-01 -0.77571705323E-02  0.59960842748E-01  0.51100000000E-03 0. -1.
</event>
<event>
 8    1  0.1137518E+005  0.1043930E+01  0.7957747E-01            NaN
         13   -1    0    0    0    0  0.00000000000E+00  0.00000000000E+00  0.74505805969E-08  0.10566000000E+00  0.10566000000E+00 0. -1.
     999900   -1    0    0    0    0 -0.00000000000E+00 -0.00000000000E+00 -0.74505805969E-08  0.93827000000E+00  0.93827000000E+00 0.  1.
     999902    2    1    2    0    0 -0.12247416222E-02 -0.22419722377E-01  0.56627979722E-02  0.10207737649E+01  0.10205110817E+01 0.  0.
     999903    2    3    3    0    0  0.91157328631E-01 -0.82924860890E-01 -0.44362342304E-01  0.13246197653E+00  0.19798148739E-01 0.  0.
         14    1    1    2    0    0  0.12247416222E-02  0.22419722377E-01 -0.56627979722E-02  0.23156235108E-01  0.00000000000E+00 0.  1.
     999901    1    3    3    0    0 -0.92382070254E-01  0.60505138513E-01  0.50025140276E-01  0.88831178837E+00  0.88000000000E+00 0. -1.
        -11    1    4    4    0    0  0.12700155694E-01 -0.48607129024E-02 -0.88192525672E-02  0.16216066768E-01  0.51100000000E-03 0.  1.
         11    1    4    4    0    0  0.78457172937E-01 -0.78064147988E-01 -0.35543089737E-01  0.11624590976E+00  0.51100000000E-03 0. -1.
</event>
<event>
 8    1  0.1137518E+005  0.1043930E+01  0.7957747E-01            NaN
         13   -1    0    0    0    0  0.00000000000E+00  0.00000000000E+00  0.74505805969E-08  0.10566000000E+00  0.10566000000E+00 0. -1.
     999900   -1    0    0    0    0 -0.00000000000E+00 -0.00000000000E+00 -0.74505805969E-08  0.93827000000E+00  0.93827000000E+00 0.  1.
     999902    2    1    2    0    0 -0.38713081019E-02 -0.17711574116E-01 -0.15436787934E-01  0.10201186307E+01  0.10198406932E+01 0.  0.
     999903    2    3    3    0    0  0.96601726093E-01 -0.27853617978E-01 -0.82726733284E-01  0.13179119764E+00  0.20432568558E-01 0.  0.
         14    1    1    2    0    0  0.38713081019E-02  0.17711574116E-01  0.15436787934E-01  0.23811369255E-01  0.00000000000E+00 0. -1.
     999901    1    3    3    0    0 -0.10047303419E+00  0.10142043862E-01  0.67289945350E-01  0.88832743310E+00  0.88000000000E+00 0. -1.
        -11    1    4    4    0    0  0.28929013202E-01 -0.12005941751E-01 -0.14949240062E-01  0.34709816214E-01  0.51100000000E-03 0.  1.
         11    1    4    4    0    0  0.67672712891E-01 -0.15847676228E-01 -0.67777493223E-01  0.97081381430E-01  0.51100000000E-03 0. -1.
</event>
<event>
 8    1  0.1137518E+005  0.1043930E+01  0.7957747E-01            NaN
         13   -1    0    0    0    0  0.00000000000E+00  0.00000000000E+00  0.74505805969E-08  0.10566000000E+00  0.10566000000E+00 0.  1.
     999900   -1    0    0    0    0 -0.00000000000E+00 -0.00000000000E+00 -0.74505805969E-08  0.93827000000E+00  0.93827000000E+00 0.  1.
     999902    2    1    2    0    0 -0.39982282105E-02 -0.16031583998E-01  0.17477714998E-01  0.10198786375E+01  0.10195950016E+01 0.  0.
     999903    2    3    3    0    0 -0.86085810601E-01 -0.50227728159E-01  0.85337729277E-01  0.13279762152E+00  0.20471657974E-01 0.  0.
         14    1    1    2    0    0  0.39982282105E-02  0.16031583998E-01 -0.17477714998E-01  0.24051362454E-01  0.00000000000E+00 0. -1.
     999901    1    3    3    0    0  0.82087582390E-01  0.34196144161E-01 -0.67860014278E-01  0.88708101603E+00  0.88000000000E+00 0.  1.
        -11    1    4    4    0    0 -0.80841196817E-01 -0.41608087887E-01  0.71518155687E-01  0.11567903783E+00  0.51100000000E-03 0.  1.
         11    1    4    4    0    0 -0.52446137834E-02 -0.86196402723E-02  0.13819573590E-01  0.17118583685E-01  0.51100000000E-03 0. -1.
</event>
<event>
 8    1  0.1137518E+005  0.1043930E+01  0.7957747E-01            NaN
         13   -1    0    0    0    0  0.00000000000E+00  0.00000000000E+00  0.74505805969E-08  0.10566000000E+00  0.10566000000E+00 0. -1.
     999900   -1    0    0    0    0 -0.00000000000E+00 -0.00000000000E+00 -0.74505805969E-08  0.93827000000E+00  0.93827000000E+00 0.  1.
     999902    2    1    2    0    0 -0.18108947153E-01 -0.13775879490E-01 -0.66842416045E-02  0.10202152808E+01  0.10199396213E+01 0.  0.
     999903    2    3    3    0    0 -0.11430762055E+00  0.55589538403E-01  0.25514488835E-01  0.13167574635E+00  0.23045262914E-01 0.  0.
         14    1    1    2    0    0  0.18108947153E-01  0.13775879490E-01  0.66842416045E-02  0.23714719238E-01  0.00000000000E+00 0.  1.
     999901    1    3    3    0    0  0.96198673393E-01 -0.69365417893E-01 -0.32198730439E-01  0.88853953441E+00  0.88000000000E+00 0. -1.
        -11    1    4    4    0    0 -0.52862709120E-01  0.20439092187E-01  0.76622259624E-03  0.56683954723E-01  0.51100000000E-03 0.  1.
         11    1    4    4    0    0 -0.61444911426E-01  0.35150446216E-01  0.24748266239E-01  0.74991791632E-01  0.51100000000E-03 0. -1.
</event>
<event>
 8    1  0.1137518E+005  0.1043930E+01  0.7957747E-01            NaN
         13   -1    0    0    0    0  0.00000000000E+00  0.00000000000E+00  0.74505805969E-08  0.10566000000E+00  0.10566000000E+00 0. -1.
     999900   -1    0    0    0    0 -0.00000000000E+00 -0.00000000000E+00 -0.74505805969E-08  0.93827000000E+00  0.93827000000E+00 0. -1.
     999902    2    1    2    0    0  0.22784050670E-01 -0.71705109833E-02 -0.12082554940E-03  0.10200439415E+01  0.10197642369E+01 0.  0.
     999903    2    3    3    0    0 -0.10727903282E-01 -0.82906615993E-01  0.99416675502E-01  0.13056840906E+00  0.13260437117E-01 0.  0.
         14    1    1    2    0    0 -0.22784050670E-01  0.71705109833E-02  0.12082554940E-03  0.23886058518E-01  0.00000000000E+00 0.  1.
     999901    1    3    3    0    0  0.33511953953E-01  0.75736105010E-01 -0.99537501052E-01  0.88947553242E+00  0.88000000000E+00 0. -1.
        -11    1    4    4    0    0 -0.13321865343E-01 -0.74144565273E-01  0.86023532704E-01  0.11434683186E+00  0.51100000000E-03 0.  1.
         11    1    4    4    0    0  0.25939620602E-02 -0.87620507208E-02  0.13393142798E-01  0.16221577205E-01  0.51100000000E-03 0. -1.
</event>
<event>
 8    1  0.1137518E+005  0.1043930E+01  0.7957747E-01            NaN
         13   -1    0    0    0    0  0.00000000000E+00  0.00000000000E+00  0.74505805969E-08  0.10566000000E+00  0.10566000000E+00 0.  1.
     999900   -1    0    0    0    0 -0.00000000000E+00 -0.00000000000E+00 -0.74505805969E-08  0.93827000000E+00  0.93827000000E+00 0. -1.
     999902    2    1    2    0    0  0.17158080785E-01 -0.12845537806E-03 -0.16572011483E-01  0.10200752772E+01  0.10197963146E+01 0.  0.
     999903    2    3    3    0    0 -0.47388962170E-01  0.97728350020E-01 -0.70736808002E-01  0.13065068772E+00  0.16412253451E-01 0.  0.
         14    1    1    2    0    0 -0.17158080785E-01  0.12845537805E-03  0.16572011483E-01  0.23854722836E-01  0.00000000000E+00 0.  1.
     999901    1    3    3    0    0  0.64547042955E-01 -0.97856805398E-01  0.54164796518E-01  0.88942458944E+00  0.88000000000E+00 0. -1.
        -11    1    4    4    0    0 -0.43129793815E-01  0.95845492099E-01 -0.68533712722E-01  0.12547377563E+00  0.51100000000E-03 0.  1.
         11    1    4    4    0    0 -0.42591683549E-02  0.18828579209E-02 -0.22030952802E-02  0.51769120949E-02  0.51100000000E-03 0. -1.
</event>
<event>
 8    1  0.1137518E+005  0.1043930E+01  0.7957747E-01            NaN
         13   -1    0    0    0    0  0.00000000000E+00  0.00000000000E+00  0.74505805969E-08  0.10566000000E+00  0.10566000000E+00 0.  1.
     999900   -1    0    0    0    0 -0.00000000000E+00 -0.00000000000E+00 -0.74505805969E-08  0.93827000000E+00  0.93827000000E+00 0.  1.
     999902    2    1    2    0    0  0.20973619903E-01  0.90057966103E-02  0.59644629456E-02  0.10203382234E+01  0.10200654480E+01 0.  0.
     999903    2    3    3    0    0 -0.94685722919E-01  0.83374921103E-01  0.20689806364E-01  0.12953819759E+00  0.20864154774E-01 0.  0.
         14    1    1    2    0    0 -0.20973619903E-01 -0.90057966103E-02 -0.59644629456E-02  0.23591776590E-01  0.00000000000E+00 0.  1.
     999901    1    3    3    0    0  0.11565934282E+00 -0.74369124492E-01 -0.14725343418E-01  0.89080002582E+00  0.88000000000E+00 0.  1.
        -11    1    4    4    0    0 -0.32914931384E-01  0.31257929087E-01 -0.24758011164E-02  0.45462529087E-01  0.51100000000E-03 0. -1.
         11    1    4    4    0    0 -0.61770791534E-01  0.52116992016E-01  0.23165607480E-01  0.84075668504E-01  0.51100000000E-03 0.  1.
</event>
<event>
 8    1  0.1137518E+005  0.1043930E+01  0.7957747E-01            NaN
         13   -1    0    0    0    0  0.00000000000E+00  0.00000000000E+00  0.74505805969E-08  0.10566000000E+00  0.10566000000E+00 0.  1.
     999900   -1    0    0    0    0 -0.00000000000E+00 -0.00000000000E+00 -0.74505805969E-08  0.93827000000E+00  0.93827000000E+00 0.  1.
     999902    2    1    2    0    0 -0.15056239890E-01  0.17580290648E-01  0.51842966574E-02  0.10202100946E+01  0.10199343132E+01 0.  0.
     999903    2    3    3    0    0  0.65303324023E-01 -0.65944413203E-01 -0.85725926340E-01  0.12796645957E+00  0.20329549089E-01 0.  0.
         14    1    1    2    0    0  0.15056239890E-01 -0.17580290648E-01 -0.51842966574E-02  0.23719905369E-01  0.00000000000E+00 0.  1.
     999901    1    3    3    0    0 -0.80359563914E-01  0.83524703851E-01  0.90910222997E-01  0.89224363506E+00  0.88000000000E+00 0.  1.
        -11    1    4    4    0    0  0.17350086466E-01 -0.30535380001E-01 -0.27172871595E-01  0.44407893486E-01  0.51100000000E-03 0. -1.
         11    1    4    4    0    0  0.47953237558E-01 -0.35409033202E-01 -0.58553054745E-01  0.83558566081E-01  0.51100000000E-03 0.  1.
</event>
<event>
 8    1  0.1137518E+005  0.1043930E+01  0.7957747E-01            NaN
         13   -1    0    0    0    0  0.00000000000E+00  0.00000000000E+00  0.74505805969E-08  0.10566000000E+00  0.10566000000E+00 0. -1.
     999900   -1    0    0    0    0 -0.00000000000E+00 -0.00000000000E+00 -0.74505805969E-08  0.93827000000E+00  0.93827000000E+00 0. -1.
     999902    2    1    2    0    0 -0.20519635577E-01  0.64175758571E-02 -0.92403585350E-02  0.10205286122E+01  0.10202602724E+01 0.  0.
     999903    2    3    3    0    0  0.96691700646E-01  0.24726364977E-01  0.78230788379E-01  0.12827029164E+00  0.19301123523E-01 0.  0.
         14    1    1    2    0    0  0.20519635577E-01 -0.64175758571E-02  0.92403585350E-02  0.23401387778E-01  0.00000000000E+00 0.  1.
     999901    1    3    3    0    0 -0.11721133622E+00 -0.18308789119E-01 -0.87471146914E-01  0.89225832058E+00  0.88000000000E+00 0. -1.
        -11    1    4    4    0    0  0.56644810151E-01  0.23544100283E-01  0.51588009537E-01  0.80153247122E-01  0.51100000000E-03 0. -1.
         11    1    4    4    0    0  0.40046890495E-01  0.11822646935E-02  0.26642778843E-01  0.48117044522E-01  0.51100000000E-03 0.  1.
</event>
<event>
 8    1  0.1137518E+005  0.1043930E+01  0.7957747E-01            NaN
         13   -1    0    0    0    0  0.00000000000E+00  0.00000000000E+00  0.74505805969E-08  0.10566000000E+00  0.10566000000E+00 0. -1.
     999900   -1    0    0    0    0 -0.00000000000E+00 -0.00000000000E+00 -0.74505805969E-08  0.93827000000E+00  0.93827000000E+00 0. -1.
     999902    2    1    2    0    0  0.18634712861E-01  0.49230221770E-02  0.13647434293E-01  0.10203134564E+01  0.10200401012E+01 0.  0.
     999903    2    3    3    0    0  0.11345944747E+00 -0.63640632557E-01 -0.12996106080E-01  0.13216786959E+00  0.19397696947E-01 0.  0.
         14    1    1    2    0    0 -0.18634712861E-01 -0.49230221770E-02 -0.13647434293E-01  0.23616543641E-01  0.00000000000E+00 0. -1.
     999901    1    3    3    0    0 -0.94824734612E-01  0.68563654734E-01  0.26643540373E-01  0.88814558676E+00  0.88000000000E+00 0.  1.
        -11    1    4    4    0    0  0.45950898814E-01 -0.15106257049E-01 -0.40590584606E-02  0.48542982814E-01  0.51100000000E-03 0. -1.
         11    1    4    4    0    0  0.67508548659E-01 -0.48534375508E-01 -0.89370476190E-02  0.83624886781E-01  0.51100000000E-03 0.  1.
</event>
<event>
 8    1  0.1137518E+005  0.1043930E+01  0.7957747E-01            NaN
         13   -1    0    0    0    0  0.00000000000E+00  0.00000000000E+00  0.74505805969E-08  0.10566000000E+00  0.10566000000E+00 0.  1.
     999900   -1    0    0    0    0 -0.00000000000E+00 -0.00000000000E+00 -0.74505805969E-08  0.93827000000E+00  0.93827000000E+00 0.  1.
     999902    2    1    2    0    0  0.19296774285E-01  0.13237892355E-01 -0.63757358354E-02  0.10196759839E+01  0.10193874900E+01 0.  0.
     999903    2    3    3    0    0  0.96531166977E-01  0.59270193082E-01 -0.67046546555E-01  0.13301648247E+00  0.19155239940E-01 0.  0.
         14    1    1    2    0    0 -0.19296774285E-01 -0.13237892355E-01  0.63757358354E-02  0.24254016147E-01  0.00000000000E+00 0. -1.
     999901    1    3    3    0    0 -0.77234392692E-01 -0.46032300727E-01  0.60670810719E-01  0.88665950139E+00  0.88000000000E+00 0. -1.
        -11    1    4    4    0    0  0.69343463862E-01  0.36689899338E-01 -0.54433866952E-01  0.95488070911E-01  0.51100000000E-03 0. -1.
         11    1    4    4    0    0  0.27187703115E-01  0.22580293744E-01 -0.12612679602E-01  0.37528411557E-01  0.51100000000E-03 0.  1.
</event>
<event>
 8    1  0.1137518E+005  0.1043930E+01  0.7957747E-01            NaN
         13   -1    0    0    0    0  0.00000000000E+00  0.00000000000E+00  0.74505805969E-08  0.10566000000E+00  0.10566000000E+00 0.  1.
     999900   -1    0    0    0    0 -0.00000000000E+00 -0.00000000000E+00 -0.74505805969E-08  0.93827000000E+00  0.93827000000E+00 0.  1.
     999902    2    1    2    0    0 -0.15461208523E-01 -0.18834854742E-01  0.52722343567E-02  0.10189981493E+01  0.10186930996E+01 0.  0.
     999903    2    3    3    0    0  0.16282201196E-01  0.32400286834E-01  0.12236947976E+00  0.12919791970E+00  0.20072972263E-01 0.  0.
         14    1    1    2    0    0  0.15461208523E-01  0.18834854742E-01 -0.52722343567E-02  0.24931850658E-01  0.00000000000E+00 0.  1.
     999901    1    3    3    0    0 -0.31743409720E-01 -0.51235141576E-01 -0.11709724540E+00  0.88980022964E+00  0.88000000000E+00 0.  1.
        -11    1    4    4    0    0  0.17738692048E-01  0.13444616182E-01  0.60229547883E-01  0.64212759316E-01  0.51100000000E-03 0. -1.
         11    1    4    4    0    0 -0.14564908511E-02  0.18955670652E-01  0.62139931875E-01  0.64985160382E-01  0.51100000000E-03 0.  1.
</event>
<event>
 8    1  0.1137518E+005  0.1043930E+01  0.7957747E-01            NaN
         13   -1    0    0    0    0  0.00000000000E+00  0.00000000000E+00  0.74505805969E-08  0.10566000000E+00  0.10566000000E+00 0. -1.
     999900   -1    0    0    0    0 -0.00000000000E+00 -0.00000000000E+00 -0.74505805969E-08  0.93827000000E+00  0.93827000000E+00 0.  1.
     999902    2    1    2    0    0  0.21467100809E-01  0.96160579777E-02  0.17233248461E-03  0.10204069329E+01  0.10201357625E+01 0.  0.
     999903    2    3    3    0    0  0.63245202620E-01  0.18281355953E-02 -0.11408335937E+00  0.13200363221E+00  0.20165522453E-01 0.  0.
         14    1    1    2    0    0 -0.21467100809E-01 -0.96160579777E-02 -0.17233248461E-03  0.23523067119E-01  0.00000000000E+00 0.  1.
     999901    1    3    3    0    0 -0.41778101811E-01  0.77879223824E-02  0.11425569186E+00  0.88840330067E+00  0.88000000000E+00 0. -1.
        -11    1    4    4    0    0  0.57360347338E-01 -0.35558547678E-02 -0.91551524530E-01  0.10809623636E+00  0.51100000000E-03 0.  1.
         11    1    4    4    0    0  0.58848552822E-02  0.53839903631E-02 -0.22531834843E-01  0.23907395850E-01  0.51100000000E-03 0. -1.
</event>
<event>
 8    1  0.1137518E+005  0.1043930E+01  0.7957747E-01            NaN
         13   -1    0    0    0    0  0.00000000000E+00  0.00000000000E+00  0.74505805969E-08  0.10566000000E+00  0.10566000000E+00 0.  1.
     999900   -1    0    0    0    0 -0.00000000000E+00 -0.00000000000E+00 -0.74505805969E-08  0.93827000000E+00  0.93827000000E+00 0. -1.
     999902    2    1    2    0    0  0.11669303983E-01 -0.14907296376E-01  0.13947637802E-01  0.10204153930E+01  0.10201444200E+01 0.  0.
     999903    2    3    3    0    0  0.10475045767E+00  0.82601767511E-02 -0.75289320346E-01  0.13071652955E+00  0.19427826352E-01 0.  0.
         14    1    1    2    0    0 -0.11669303983E-01  0.14907296376E-01 -0.13947637802E-01  0.23514606970E-01  0.00000000000E+00 0.  1.
     999901    1    3    3    0    0 -0.93081153687E-01 -0.23167473127E-01  0.89236958148E-01  0.88969886348E+00  0.88000000000E+00 0.  1.
        -11    1    4    4    0    0  0.49245684415E-01  0.39767714391E-02 -0.47320210915E-01  0.68413563177E-01  0.51100000000E-03 0. -1.
         11    1    4    4    0    0  0.55504773255E-01  0.42834053120E-02 -0.27969109431E-01  0.62302966370E-01  0.51100000000E-03 0.  1.
</event>
<event>
 8    1  0.1137518E+005  0.1043930E+01  0.7957747E-01            NaN
         13   -1    0    0    0    0  0.00000000000E+00  0.00000000000E+00  0.74505805969E-08  0.10566000000E+00  0.10566000000E+00 0. -1.
     999900   -1    0    0    0    0 -0.00000000000E+00 -0.00000000000E+00 -0.74505805969E-08  0.93827000000E+00  0.93827000000E+00 0.  1.
     999902    2    1    2    0    0  0.34478952854E-02  0.15124567255E-02 -0.21847963684E-01  0.10217599972E+01  0.10215194481E+01 0.  0.
     999903    2    3    3    0    0  0.78726085627E-01  0.28666082943E-01  0.97600401247E-01  0.13009187662E+00  0.19455517737E-01 0.  0.
         14    1    1    2    0    0 -0.34478952854E-02 -0.15124567255E-02  0.21847963684E-01  0.22170002806E-01  0.00000000000E+00 0. -1.
     999901    1    3    3    0    0 -0.75278190342E-01 -0.27153626217E-01 -0.11944836493E+00  0.89166812057E+00  0.88000000000E+00 0.  1.
        -11    1    4    4    0    0  0.33335745441E-01  0.33895142832E-02  0.45537187436E-01  0.56538989129E-01  0.51100000000E-03 0. -1.
         11    1    4    4    0    0  0.45390340187E-01  0.25276568660E-01  0.52063213811E-01  0.73552887495E-01  0.51100000000E-03 0.  1.
</event>
<event>
 8    1  0.1137518E+005  0.1043930E+01  0.7957747E-01            NaN
         13   -1    0    0    0    0  0.00000000000E+00  0.00000000000E+00  0.74505805969E-08  0.10566000000E+00  0.10566000000E+00 0.  1.
     999900   -1    0    0    0    0 -0.00000000000E+00 -0.00000000000E+00 -0.74505805969E-08  0.93827000000E+00  0.93827000000E+00 0.  1.
     999902    2    1    2    0    0  0.15485782018E-01  0.92639303656E-02 -0.15989407199E-01  0.10198200230E+01  0.10195349863E+01 0.  0.
     999903    2    3    3    0    0 -0.83763926853E-01  0.50048761039E-01 -0.84460402635E-01  0.13066189060E+00  0.20437615261E-01 0.  0.
         14    1    1    2    0    0 -0.15485782018E-01 -0.92639303656E-02  0.15989407199E-01  0.24109977045E-01  0.00000000000E+00 0.  1.
     999901    1    3    3    0    0  0.99249708871E-01 -0.40784830674E-01  0.68470995435E-01  0.88915813236E+00  0.88000000000E+00 0. -1.
        -11    1    4    4    0    0 -0.58113474953E-01  0.42555503635E-01 -0.69197581707E-01  0.99883498617E-01  0.51100000000E-03 0. -1.
         11    1    4    4    0    0 -0.25650451899E-01  0.74932574040E-02 -0.15262820928E-01  0.30778391980E-01  0.51100000000E-03 0.  1.
</event>
<event>
 8    1  0.1137518E+005  0.1043930E+01  0.7957747E-01            NaN
         13   -1    0    0    0    0  0.00000000000E+00  0.00000000000E+00  0.74505805969E-08  0.10566000000E+00  0.10566000000E+00 0.  1.
     999900   -1    0    0    0    0 -0.00000000000E+00 -0.00000000000E+00 -0.74505805969E-08  0.93827000000E+00  0.93827000000E+00 0.  1.
     999902    2    1    2    0    0 -0.23437961358E-01  0.49409637767E-02 -0.94981500292E-03  0.10199580726E+01  0.10196763293E+01 0.  0.
     999903    2    3    3    0    0 -0.11872711272E+00 -0.54946720007E-01  0.97721009012E-02  0.13272556838E+00  0.20132392060E-01 0.  0.
         14    1    1    2    0    0  0.23437961358E-01 -0.49409637767E-02  0.94981500292E-03  0.23971927420E-01  0.00000000000E+00 0.  1.
     999901    1    3    3    0    0  0.95289151363E-01  0.59887683784E-01 -0.10721915904E-01  0.88723250420E+00  0.88000000000E+00 0. -1.
        -11    1    4    4    0    0 -0.32267201361E-01 -0.11083406525E-01 -0.55532378947E-02  0.34570417354E-01  0.51100000000E-03 0. -1.
         11    1    4    4    0    0 -0.86459911359E-01 -0.43863313483E-01  0.15325338796E-01  0.98155151022E-01  0.51100000000E-03 0.  1.
</event>
<event>
 8    1  0.1137518E+005  0.1043930E+01  0.7957747E-01            NaN
         13   -1    0    0    0    0  0.00000000000E+00  0.00000000000E+00  0.74505805969E-08  0.10566000000E+00  0.10566000000E+00 0.  1.
     999900   -1    0    0    0    0 -0.00000000000E+00 -0.00000000000E+00 -0.74505805969E-08  0.93827000000E+00  0.93827000000E+00 0. -1.
     999902    2    1    2    0    0 -0.20634823033E-01  0.10850884295E-03 -0.11739430259E-01  0.10201892772E+01  0.10199130058E+01 0.  0.
     999903    2    3    3    0    0 -0.67770350172E-01  0.40807677709E-01  0.10221767356E+00  0.13065883828E+00  0.19110005535E-01 0.  0.
         14    1    1    2    0    0  0.20634823033E-01 -0.10850884295E-03  0.11739430259E-01  0.23740722790E-01  0.00000000000E+00 0.  1.
     999901    1    3    3    0    0  0.47135527139E-01 -0.40699168866E-01 -0.11395710382E+00  0.88953043893E+00  0.88000000000E+00 0. -1.
        -11    1    4    4    0    0 -0.25637708833E-01  0.51123494292E-02  0.33947205822E-01  0.42849762368E-01  0.51100000000E-03 0. -1.
         11    1    4    4    0    0 -0.42132641339E-01  0.35695328279E-01  0.68270467737E-01  0.87809075916E-01  0.51100000000E-03 0.  1.
</event>
<event>
 8    1  0.1137518E+005  0.1043930E+01  0.7957747E-01            NaN
         13   -1    0    0    0    0  0.00000000000E+00  0.00000000000E+00  0.74505805969E-08  0.10566000000E+00  0.10566000000E+00 0. -1.
     999900   -1    0    0    0    0 -0.00000000000E+00 -0.00000000000E+00 -0.74505805969E-08  0.93827000000E+00  0.93827000000E+00 0. -1.
     999902    2    1    2    0    0 -0.23805866233E-01  0.43780049919E-03  0.10104384962E-01  0.10180647814E+01  0.10177361592E+01 0.  0.
     999903    2    3    3    0    0  0.29874453860E-01  0.34913467228E-01 -0.11601987553E+00  0.12678621810E+00  0.22420981154E-01 0.  0.
         14    1    1    2    0    0  0.23805866233E-01 -0.43780049919E-03 -0.10104384962E-01  0.25865218573E-01  0.00000000000E+00 0. -1.
     999901    1    3    3    0    0 -0.53680320093E-01 -0.34475666729E-01  0.12612426049E+00  0.89127856333E+00  0.88000000000E+00 0.  1.
        -11    1    4    4    0    0  0.28717847966E-01  0.21242068821E-01 -0.67619141976E-01  0.76475811615E-01  0.51100000000E-03 0.  1.
         11    1    4    4    0    0  0.11566058941E-02  0.13671398407E-01 -0.48400733550E-01  0.50310406486E-01  0.51100000000E-03 0. -1.
</event>
<event>
 8    1  0.1137518E+005  0.1043930E+01  0.7957747E-01            NaN
         13   -1    0    0    0    0  0.00000000000E+00  0.00000000000E+00  0.74505805969E-08  0.10566000000E+00  0.10566000000E+00 0.  1.
     999900   -1    0    0    0    0 -0.00000000000E+00 -0.00000000000E+00 -0.74505805969E-08  0.93827000000E+00  0.93827000000E+00 0. -1.
     999902    2    1    2    0    0 -0.28098005170E-01 -0.33914087912E-02 -0.53860977253E-02  0.10151201129E+01  0.10147112072E+01 0.  0.
     999903    2    3    3    0    0  0.93121956682E-02  0.12314106662E+00 -0.74844132460E-02  0.12528058048E+00  0.19717203845E-01 0.  0.
         14    1    1    2    0    0  0.28098005170E-01  0.33914087912E-02  0.53860977253E-02  0.28809887137E-01  0.00000000000E+00 0.  1.
     999901    1    3    3    0    0 -0.37410200838E-01 -0.12653247541E+00  0.20983155206E-02  0.88983953238E+00  0.88000000000E+00 0.  1.
        -11    1    4    4    0    0  0.15439175722E-02  0.73500364122E-01 -0.13252089278E-01  0.74703187340E-01  0.51100000000E-03 0. -1.
         11    1    4    4    0    0  0.77682780960E-02  0.49640702499E-01  0.57676760323E-02  0.50577393142E-01  0.51100000000E-03 0.  1.
</event>
<event>
 8    1  0.1137518E+005  0.1043930E+01  0.7957747E-01            NaN
         13   -1    0    0    0    0  0.00000000000E+00  0.00000000000E+00  0.74505805969E-08  0.10566000000E+00  0.10566000000E+00 0. -1.
     999900   -1    0    0    0    0 -0.00000000000E+00 -0.00000000000E+00 -0.74505805969E-08  0.93827000000E+00  0.93827000000E+00 0. -1.
     999902    2    1    2    0    0  0.15770618146E-01 -0.35685196373E-05  0.18566105147E-01  0.10195699370E+01  0.10192788842E+01 0.  0.
     999903    2    3    3    0    0  0.10336117388E+00 -0.23112220667E-01 -0.72740839492E-01  0.13022013326E+00  0.21174191067E-01 0.  0.
         14    1    1    2    0    0 -0.15770618146E-01  0.35685196373E-05 -0.18566105147E-01  0.24360063008E-01  0.00000000000E+00 0.  1.
     999901    1    3    3    0    0 -0.87590555730E-01  0.23108652148E-01  0.91306944639E-01  0.88934980373E+00  0.88000000000E+00 0. -1.
        -11    1    4    4    0    0  0.65103580437E-01 -0.45772509012E-02 -0.39872129432E-01  0.76481862150E-01  0.51100000000E-03 0.  1.
         11    1    4    4    0    0  0.38257593439E-01 -0.18534969766E-01 -0.32868710060E-01  0.53738271111E-01  0.51100000000E-03 0. -1.
</event>
<event>
 8    1  0.1137518E+005  0.1043930E+01  0.7957747E-01            NaN
         13   -1    0    0    0    0  0.00000000000E+00  0.00000000000E+00  0.74505805969E-08  0.10566000000E+00  0.10566000000E+00 0.  1.
     999900   -1    0    0    0    0 -0.00000000000E+00 -0.00000000000E+00 -0.74505805969E-08  0.93827000000E+00  0.93827000000E+00 0. -1.
     999902    2    1    2    0    0 -0.20286354759E-01  0.30302060136E-02 -0.12140436752E-01  0.10200949724E+01  0.10198164757E+01 0.  0.
     999903    2    3    3    0    0 -0.66225485272E-01  0.10045284576E+00  0.49100683137E-01  0.13141502479E+00  0.19556138081E-01 0.  0.
         14    1    1    2    0    0  0.20286354759E-01 -0.30302060136E-02  0.12140436752E-01  0.23835027636E-01  0.00000000000E+00 0.  1.
     999901    1    3    3    0    0  0.45939130513E-01 -0.97422639745E-01 -0.61241119888E-01  0.88867994757E+00  0.88000000000E+00 0.  1.
        -11    1    4    4    0    0 -0.21276010982E-01  0.36762689573E-01  0.27201092704E-01  0.50441298093E-01  0.51100000000E-03 0. -1.
         11    1    4    4    0    0 -0.44949474289E-01  0.63690156186E-01  0.21899590433E-01  0.80973726702E-01  0.51100000000E-03 0.  1.
</event>
<event>
 8    1  0.1137518E+005  0.1043930E+01  0.7957747E-01            NaN
         13   -1    0    0    0    0  0.00000000000E+00  0.00000000000E+00  0.74505805969E-08  0.10566000000E+00  0.10566000000E+00 0.  1.
     999900   -1    0    0    0    0 -0.00000000000E+00 -0.00000000000E+00 -0.74505805969E-08  0.93827000000E+00  0.93827000000E+00 0.  1.
     999902    2    1    2    0    0 -0.17567424062E-01  0.13523179775E-01 -0.79039796748E-02  0.10203935671E+01  0.10201220849E+01 0.  0.
     999903    2    3    3    0    0 -0.80904967632E-01 -0.80328004212E-03 -0.10334894255E+00  0.13285391569E+00  0.20564531143E-01 0.  0.
         14    1    1    2    0    0  0.17567424062E-01 -0.13523179775E-01  0.79039796748E-02  0.23536432910E-01  0.00000000000E+00 0. -1.
     999901    1    3    3    0    0  0.63337543569E-01  0.14326459817E-01  0.95444962873E-01  0.88753965140E+00  0.88000000000E+00 0. -1.
        -11    1    4    4    0    0 -0.68762019716E-01  0.66645854847E-02 -0.82753568929E-01  0.10780095708E+00  0.51100000000E-03 0. -1.
         11    1    4    4    0    0 -0.12142947915E-01 -0.74678655268E-02 -0.20595373619E-01  0.25052958610E-01  0.51100000000E-03 0.  1.
</event>
<event>
 8    1  0.1137518E+005  0.1043930E+01  0.7957747E-01            NaN
         13   -1    0    0    0    0  0.00000000000E+00  0.00000000000E+00  0.74505805969E-08  0.10566000000E+00  0.10566000000E+00 0. -1.
     999900   -1    0    0    0    0 -0.00000000000E+00 -0.00000000000E+00 -0.74505805969E-08  0.93827000000E+00  0.93827000000E+00 0. -1.
     999902    2    1    2    0    0 -0.49962146982E-02  0.15172340593E-01  0.21430561935E-01  0.10172011567E+01  0.10168499211E+01 0.  0.
     999903    2    3    3    0    0 -0.95719131553E-01 -0.79777231147E-01  0.13898449860E-01  0.12742432987E+00  0.22742783021E-01 0.  0.
         14    1    1    2    0    0  0.49962146982E-02 -0.15172340593E-01 -0.21430561935E-01  0.26728843320E-01  0.00000000000E+00 0.  1.
     999901    1    3    3    0    0  0.90722916855E-01  0.94949571739E-01  0.75321120755E-02  0.88977682681E+00  0.88000000000E+00 0.  1.
        -11    1    4    4    0    0 -0.28174831405E-01 -0.18457065635E-01 -0.55650790493E-02  0.34142577852E-01  0.51100000000E-03 0.  1.
         11    1    4    4    0    0 -0.67544300147E-01 -0.61320165512E-01  0.19463528909E-01  0.93281752017E-01  0.51100000000E-03 0. -1.
</event>
<event>
 8    1  0.1137518E+005  0.1043930E+01  0.7957747E-01            NaN
         13   -1    0    0    0    0  0.00000000000E+00  0.00000000000E+00  0.74505805969E-08  0.10566000000E+00  0.10566000000E+00 0. -1.
     999900   -1    0    0    0    0 -0.00000000000E+00 -0.00000000000E+00 -0.74505805969E-08  0.93827000000E+00  0.93827000000E+00 0.  1.
     999902    2    1    2    0    0 -0.79955899759E-02  0.90594541282E-03  0.21424264520E-01  0.10210444302E+01  0.10207879207E+01 0.  0.
     999903    2    3    3    0    0  0.26759229917E-01  0.12672119169E+00  0.72988845260E-02  0.13130463671E+00  0.20330201616E-01 0.  0.
         14    1    1    2    0    0  0.79955899759E-02 -0.90594541282E-03 -0.21424264520E-01  0.22885569828E-01  0.00000000000E+00 0.  1.
     999901    1    3    3    0    0 -0.34754819892E-01 -0.12581524628E+00  0.14125379994E-01  0.88973979346E+00  0.88000000000E+00 0.  1.
        -11    1    4    4    0    0  0.21987027515E-01  0.85287957412E-01  0.13597801763E-01  0.89121413770E-01  0.51100000000E-03 0.  1.
         11    1    4    4    0    0  0.47722024010E-02  0.41433234279E-01 -0.62989172367E-02  0.42183222944E-01  0.51100000000E-03 0. -1.
</event>
<event>
 8    1  0.1137518E+005  0.1043930E+01  0.7957747E-01            NaN
         13   -1    0    0    0    0  0.00000000000E+00  0.00000000000E+00  0.74505805969E-08  0.10566000000E+00  0.10566000000E+00 0.  1.
     999900   -1    0    0    0    0 -0.00000000000E+00 -0.00000000000E+00 -0.74505805969E-08  0.93827000000E+00  0.93827000000E+00 0. -1.
     999902    2    1    2    0    0 -0.80148840346E-02 -0.11307867267E-01 -0.18827743930E-01  0.10205507321E+01  0.10202829051E+01 0.  0.
     999903    2    3    3    0    0  0.43405377849E-01  0.11659455266E+00  0.25636532380E-01  0.12870985823E+00  0.20752813676E-01 0.  0.
         14    1    1    2    0    0  0.80148840346E-02  0.11307867267E-01  0.18827743930E-01  0.23379267947E-01  0.00000000000E+00 0.  1.
     999901    1    3    3    0    0 -0.51420261884E-01 -0.12790241993E+00 -0.44464276310E-01  0.89184087382E+00  0.88000000000E+00 0.  1.
        -11    1    4    4    0    0  0.28922652680E-01  0.94635409295E-01  0.14006723548E-01  0.99944134175E-01  0.51100000000E-03 0. -1.
         11    1    4    4    0    0  0.14482725169E-01  0.21959143370E-01  0.11629808832E-01  0.28765724053E-01  0.51100000000E-03 0.  1.
</event>
<event>
 8    1  0.1137518E+005  0.1043930E+01  0.7957747E-01            NaN
         13   -1    0    0    0    0  0.00000000000E+00  0.00000000000E+00  0.74505805969E-08  0.10566000000E+00  0.10566000000E+00 0. -1.
     999900   -1    0    0    0    0 -0.00000000000E+00 -0.00000000000E+00 -0.74505805969E-08  0.93827000000E+00  0.93827000000E+00 0. -1.
     999902    2    1    2    0    0 -0.18927674266E-02 -0.11733430954E-01  0.19888324190E-01  0.10207610248E+01  0.10204980492E+01 0.  0.
     999903    2    3    3    0    0  0.97629125960E-01 -0.25607853614E-01  0.83765676335E-01  0.13274220580E+00  0.20410690005E-01 0.  0.
         14    1    1    2    0    0  0.18927674266E-02  0.11733430954E-01 -0.19888324190E-01  0.23168975152E-01  0.00000000000E+00 0.  1.
     999901    1    3    3    0    0 -0.99521893386E-01  0.13874422660E-01 -0.63877352144E-01  0.88801881905E+00  0.88000000000E+00 0.  1.
        -11    1    4    4    0    0  0.42975081128E-01 -0.60212450461E-02  0.47241839618E-01  0.64149555894E-01  0.51100000000E-03 0. -1.
         11    1    4    4    0    0  0.54654044831E-01 -0.19586608568E-01  0.36523836716E-01  0.68592649906E-01  0.51100000000E-03 0.  1.
</event>
<event>
 8    1  0.1137518E+005  0.1043930E+01  0.7957747E-01            NaN
         13   -1    0    0    0    0  0.00000000000E+00  0.00000000000E+00  0.74505805969E-08  0.10566000000E+00  0.10566000000E+00 0.  1.
     999900   -1    0    0    0    0 -0.00000000000E+00 -0.00000000000E+00 -0.74505805969E-08  0.93827000000E+00  0.93827000000E+00 0. -1.
     999902    2    1    2    0    0 -0.15954719278E-01 -0.16241146436E-01  0.15188894221E-02  0.10211125740E+01  0.10208576070E+01 0.  0.
     999903    2    3    3    0    0 -0.86375247052E-01 -0.61022832709E-01 -0.78862441434E-01  0.13351716587E+00  0.20568896375E-01 0.  0.
         14    1    1    2    0    0  0.15954719278E-01  0.16241146436E-01 -0.15188894221E-02  0.22817426013E-01  0.00000000000E+00 0.  1.
     999901    1    3    3    0    0  0.70420527774E-01  0.44781686273E-01  0.80381330856E-01  0.88759540812E+00  0.88000000000E+00 0. -1.
        -11    1    4    4    0    0 -0.46183501589E-01 -0.40637751353E-01 -0.55003591969E-01  0.82522717506E-01  0.51100000000E-03 0. -1.
         11    1    4    4    0    0 -0.40191745463E-01 -0.20385081357E-01 -0.23858849465E-01  0.50994448365E-01  0.51100000000E-03 0.  1.
</event>
<event>
 7    1  0.1137518E+005  0.1043930E+01  0.7957747E-01            NaN
         13   -1    0    0    0    0  0.00000000000E+00  0.00000000000E+00  0.74505805969E-08  0.10566000000E+00  0.10566000000E+00 0. -1.
     999900   -1    0    0    0    0 -0.00000000000E+00 -0.00000000000E+00 -0.74505805969E-08  0.93827000000E+00  0.93827000000E+00 0. -1.
     999902    2    1    2    0    0  0.11329787956E-01 -0.98786015908E-02  0.19367584448E-01  0.10194135934E+01  0.10191187469E+01 0.  0.
         14    1    1    2    0    0 -0.11329787956E-01  0.98786015908E-02 -0.19367584448E-01  0.24516406586E-01  0.00000000000E+00 0.  1.
     999901    1    3    3    0    0  0.49131785186E-01 -0.49377225221E-01 -0.94354233129E-01  0.88778080853E+00  0.88000000000E+00 0. -1.
        -11    1    3    3    0    0 -0.12037515612E-01 -0.49735907210E-02  0.12258134660E-01  0.17893053767E-01  0.51100000000E-03 0. -1.
         11    1    3    3    0    0 -0.25764481618E-01  0.44472214351E-01  0.10146368292E+00  0.11373973112E+00  0.51100000000E-03 0.  1.
</event>
<event>
 8    1  0.1137518E+005  0.1043930E+01  0.7957747E-01            NaN
         13   -1    0    0    0    0  0.00000000000E+00  0.00000000000E+00  0.74505805969E-08  0.10566000000E+00  0.10566000000E+00 0.  1.
     999900   -1    0    0    0    0 -0.00000000000E+00 -0.00000000000E+00 -0.74505805969E-08  0.93827000000E+00  0.93827000000E+00 0. -1.
     999902    2    1    2    0    0  0.94339072259E-02  0.15998769237E-01 -0.14729614842E-01  0.10202251318E+01  0.10199497041E+01 0.  0.
     999903    2    3    3    0    0  0.32340799566E-01 -0.11671466764E+00 -0.41950292783E-01  0.12956327265E+00  0.18936039602E-01 0.  0.
         14    1    1    2    0    0 -0.94339072259E-02 -0.15998769237E-01  0.14729614842E-01  0.23704868193E-01  0.00000000000E+00 0.  1.
     999901    1    3    3    0    0 -0.22906892340E-01  0.13271343688E+00  0.27220677941E-01  0.89066185915E+00  0.88000000000E+00 0.  1.
        -11    1    4    4    0    0  0.62315249129E-02 -0.14113036862E-01  0.62962394262E-03  0.15448859490E-01  0.51100000000E-03 0. -1.
         11    1    4    4    0    0  0.26109274653E-01 -0.10260163078E+00 -0.42579916726E-01  0.11411441316E+00  0.51100000000E-03 0.  1.
</event>
<event>
 7    1  0.1137518E+005  0.1043930E+01  0.7957747E-01            NaN
         13   -1    0    0    0    0  0.00000000000E+00  0.00000000000E+00  0.74505805969E-08  0.10566000000E+00  0.10566000000E+00 0.  1.
     999900   -1    0    0    0    0 -0.00000000000E+00 -0.00000000000E+00 -0.74505805969E-08  0.93827000000E+00  0.93827000000E+00 0.  1.
     999903    2    1    2    0    0 -0.68524985533E-01 -0.17534900082E-02  0.46442745651E-01  0.83223628271E-01  0.83961484834E-02 0.  0.
         14    1    1    2    0    0 -0.39819894997E-01  0.80706724025E-02  0.54864469815E-01  0.68270563486E-01  0.00000000000E+00 0. -1.
     999901    1    1    2    0    0  0.10834488053E+00 -0.63171823943E-02 -0.10130721547E+00  0.89243580824E+00  0.88000000000E+00 0.  1.
        -11    1    3    3    0    0 -0.14826605447E-01  0.25038534045E-02  0.12424504039E-01  0.19512225208E-01  0.51100000000E-03 0. -1.
         11    1    3    3    0    0 -0.53698380086E-01 -0.42573434128E-02  0.34018241612E-01  0.63711403063E-01  0.51100000000E-03 0.  1.
</event>
<event>
 8    1  0.1137518E+005  0.1043930E+01  0.7957747E-01            NaN
         13   -1    0    0    0    0  0.00000000000E+00  0.00000000000E+00  0.74505805969E-08  0.10566000000E+00  0.10566000000E+00 0. -1.
     999900   -1    0    0    0    0 -0.00000000000E+00 -0.00000000000E+00 -0.74505805969E-08  0.93827000000E+00  0.93827000000E+00 0.  1.
     999902    2    1    2    0    0 -0.92064671273E-02  0.16427071525E-01 -0.14483750947E-01  0.10201731745E+01  0.10198965238E+01 0.  0.
     999903    2    3    3    0    0 -0.91512492860E-01 -0.53511378142E-01  0.71491217070E-01  0.12941093702E+00  0.19954762896E-01 0.  0.
         14    1    1    2    0    0  0.92064671273E-02 -0.16427071525E-01  0.14483750947E-01  0.23756825490E-01  0.00000000000E+00 0.  1.
     999901    1    3    3    0    0  0.82306025732E-01  0.69938449667E-01 -0.85974968017E-01  0.89076223749E+00  0.88000000000E+00 0.  1.
        -11    1    4    4    0    0 -0.19127858033E-01 -0.15565131221E-01  0.80432489386E-02  0.25944233220E-01  0.51100000000E-03 0.  1.
         11    1    4    4    0    0 -0.72384634826E-01 -0.37946246921E-01  0.63447968131E-01  0.10346670380E+00  0.51100000000E-03 0. -1.
</event>
<event>
 8    1  0.1137518E+005  0.1043930E+01  0.7957747E-01            NaN
         13   -1    0    0    0    0  0.00000000000E+00  0.00000000000E+00  0.74505805969E-08  0.10566000000E+00  0.10566000000E+00 0.  1.
     999900   -1    0    0    0    0 -0.00000000000E+00 -0.00000000000E+00 -0.74505805969E-08  0.93827000000E+00  0.93827000000E+00 0.  1.
     999902    2    1    2    0    0 -0.29161037183E-02  0.20505832918E-01 -0.10035002081E-01  0.10209149156E+01  0.10206554613E+01 0.  0.
     999903    2    3    3    0    0 -0.25880443345E-01  0.38570190045E-01 -0.12298410718E+00  0.13321497627E+00  0.21533285289E-01 0.  0.
         14    1    1    2    0    0  0.29161037183E-02 -0.20505832918E-01  0.10035002081E-01  0.23015084430E-01  0.00000000000E+00 0.  1.
     999901    1    3    3    0    0  0.22964339627E-01 -0.18064357127E-01  0.11294910510E+00  0.88769993930E+00  0.88000000000E+00 0. -1.
        -11    1    4    4    0    0 -0.21556011170E-01  0.33105129377E-01 -0.75429949027E-01  0.85150158777E-01  0.51100000000E-03 0. -1.
         11    1    4    4    0    0 -0.43244321754E-02  0.54650606684E-02 -0.47554158154E-01  0.48064817491E-01  0.51100000000E-03 0.  1.
</event>
<event>
 8    1  0.1137518E+005  0.1043930E+01  0.7957747E-01            NaN
         13   -1    0    0    0    0  0.00000000000E+00  0.00000000000E+00  0.74505805969E-08  0.10566000000E+00  0.10566000000E+00 0. -1.
     999900   -1    0    0    0    0 -0.00000000000E+00 -0.00000000000E+00 -0.74505805969E-08  0.93827000000E+00  0.93827000000E+00 0. -1.
     999902    2    1    2    0    0  0.99316234889E-02 -0.14163940700E-01 -0.18381611837E-01  0.10186884070E+01  0.10183756343E+01 0.  0.
     999903    2    3    3    0    0  0.26953858215E-01 -0.10820760054E+00 -0.67549881836E-01  0.13214935815E+00  0.21565505736E-01 0.  0.
         14    1    1    2    0    0 -0.99316234889E-02  0.14163940700E-01  0.18381611837E-01  0.25241592957E-01  0.00000000000E+00 0. -1.
     999901    1    3    3    0    0 -0.17022234726E-01  0.94043659837E-01  0.49168269999E-01  0.88653904889E+00  0.88000000000E+00 0. -1.
        -11    1    4    4    0    0  0.39196901172E-02 -0.57592698805E-01 -0.38694900475E-01  0.69497045765E-01  0.51100000000E-03 0. -1.
         11    1    4    4    0    0  0.23034168097E-01 -0.50614901732E-01 -0.28854981361E-01  0.62652312389E-01  0.51100000000E-03 0.  1.
</event>
<event>
 8    1  0.1137518E+005  0.1043930E+01  0.7957747E-01            NaN
         13   -1    0    0    0    0  0.00000000000E+00  0.00000000000E+00  0.74505805969E-08  0.10566000000E+00  0.10566000000E+00 0.  1.
     999900   -1    0    0    0    0 -0.00000000000E+00 -0.00000000000E+00 -0.74505805969E-08  0.93827000000E+00  0.93827000000E+00 0. -1.
     999902    2    1    2    0    0 -0.84821422744E-02  0.74392724524E-02 -0.20811304723E-01  0.10202572326E+01  0.10199825590E+01 0.  0.
     999903    2    3    3    0    0  0.81747390691E-01 -0.66011771157E-01  0.70230360160E-01  0.12794282099E+00  0.19921649973E-01 0.  0.
         14    1    1    2    0    0  0.84821422744E-02 -0.74392724524E-02  0.20811304723E-01  0.23672767402E-01  0.00000000000E+00 0.  1.
     999901    1    3    3    0    0 -0.90229532965E-01  0.73451043609E-01 -0.91041664883E-01  0.89231441161E+00  0.88000000000E+00 0. -1.
        -11    1    4    4    0    0  0.91568595837E-02 -0.97343450698E-02  0.20023445288E-02  0.13523167380E-01  0.51100000000E-03 0.  1.
         11    1    4    4    0    0  0.72590531107E-01 -0.56277426087E-01  0.68228015631E-01  0.11441965361E+00  0.51100000000E-03 0. -1.
</event>
<event>
 8    1  0.1137518E+005  0.1043930E+01  0.7957747E-01            NaN
         13   -1    0    0    0    0  0.00000000000E+00  0.00000000000E+00  0.74505805969E-08  0.10566000000E+00  0.10566000000E+00 0.  1.
     999900   -1    0    0    0    0 -0.00000000000E+00 -0.00000000000E+00 -0.74505805969E-08  0.93827000000E+00  0.93827000000E+00 0.  1.
     999902    2    1    2    0    0 -0.40131415692E-02 -0.14646764989E-01 -0.25178900891E-01  0.10145257472E+01  0.10140995423E+01 0.  0.
     999903    2    3    3    0    0  0.10713034753E+00 -0.59585065259E-01 -0.23140956542E-01  0.12639485643E+00  0.20319067394E-01 0.  0.
         14    1    1    2    0    0  0.40131415692E-02  0.14646764989E-01  0.25178900891E-01  0.29404252753E-01  0.00000000000E+00 0.  1.
     999901    1    3    3    0    0 -0.11114348910E+00  0.44938300270E-01 -0.20379443494E-02  0.88813089081E+00  0.88000000000E+00 0. -1.
        -11    1    4    4    0    0  0.56596743909E-02 -0.15409979678E-02 -0.57104241450E-02  0.82022346872E-02  0.51100000000E-03 0.  1.
         11    1    4    4    0    0  0.10147067314E+00 -0.58044067291E-01 -0.17430532397E-01  0.11819262175E+00  0.51100000000E-03 0. -1.
</event>
<event>
 8    1  0.1137518E+005  0.1043930E+01  0.7957747E-01            NaN
         13   -1    0    0    0    0  0.00000000000E+00  0.00000000000E+00  0.74505805969E-08  0.10566000000E+00  0.10566000000E+00 0. -1.
     999900   -1    0    0    0    0 -0.00000000000E+00 -0.00000000000E+00 -0.74505805969E-08  0.93827000000E+00  0.93827000000E+00 0. -1.
     999902    2    1    2    0    0 -0.77371309113E-02  0.41008084732E-02  0.22379521508E-01  0.10198982958E+01  0.10196151288E+01 0.  0.
     999903    2    3    3    0    0  0.11026612112E+00 -0.43841337699E-01  0.52181169959E-01  0.13022905661E+00  0.12492090687E-01 0.  0.
         14    1    1    2    0    0  0.77371309113E-02 -0.41008084732E-02 -0.22379521508E-01  0.24031704222E-01  0.00000000000E+00 0.  1.
     999901    1    3    3    0    0 -0.11800325203E+00  0.47942146173E-01 -0.29801648451E-01  0.88966923917E+00  0.88000000000E+00 0.  1.
        -11    1    4    4    0    0  0.28932317369E-01 -0.58221222872E-02  0.11925437918E-01  0.31834781086E-01  0.51100000000E-03 0.  1.
         11    1    4    4    0    0  0.81333803750E-01 -0.38019215412E-01  0.40255732042E-01  0.98394275525E-01  0.51100000000E-03 0. -1.
</event>
<event>
 8    1  0.1137518E+005  0.1043930E+01  0.7957747E-01            NaN
         13   -1    0    0    0    0  0.00000000000E+00  0.00000000000E+00  0.74505805969E-08  0.10566000000E+00  0.10566000000E+00 0. -1.
     999900   -1    0    0    0    0 -0.00000000000E+00 -0.00000000000E+00 -0.74505805969E-08  0.93827000000E+00  0.93827000000E+00 0. -1.
     999902    2    1    2    0    0  0.75785969536E-02 -0.24462340637E-01 -0.14391470556E-02  0.10182801972E+01  0.10179570951E+01 0.  0.
     999903    2    3    3    0    0 -0.97158229974E-02  0.12329597353E+00  0.13436708541E-01  0.12567003173E+00  0.17779691583E-01 0.  0.
         14    1    1    2    0    0 -0.75785969536E-02  0.24462340637E-01  0.14391470556E-02  0.25649802835E-01  0.00000000000E+00 0.  1.
     999901    1    3    3    0    0  0.17294419951E-01 -0.14775831416E+00 -0.14875855597E-01  0.89261016544E+00  0.88000000000E+00 0.  1.
        -11    1    4    4    0    0 -0.98934239449E-02  0.11840403687E+00  0.91955925046E-02  0.11917304992E+00  0.51100000000E-03 0. -1.
         11    1    4    4    0    0  0.17760094753E-03  0.48919366577E-02  0.42411160365E-02  0.64969818066E-02  0.51100000000E-03 0.  1.
</event>
<event>
 8    1  0.1137518E+005  0.1043930E+01  0.7957747E-01            NaN
         13   -1    0    0    0    0  0.00000000000E+00  0.00000000000E+00  0.74505805969E-08  0.10566000000E+00  0.10566000000E+00 0. -1.
     999900   -1    0    0    0    0 -0.00000000000E+00 -0.00000000000E+00 -0.74505805969E-08  0.93827000000E+00  0.93827000000E+00 0. -1.
     999902    2    1    2    0    0 -0.19600141587E-01 -0.97813461820E-02 -0.81320684054E-02  0.10205639815E+01  0.10202964616E+01 0.  0.
     999903    2    3    3    0    0  0.94100670809E-01  0.81732821439E-01 -0.23954688698E-01  0.12840195983E+00  0.19443400716E-01 0.  0.
         14    1    1    2    0    0  0.19600141587E-01  0.97813461820E-02  0.81320684054E-02  0.23366018487E-01  0.00000000000E+00 0. -1.
     999901    1    3    3    0    0 -0.11370081240E+00 -0.91514167621E-01  0.15822620292E-01  0.89216202168E+00  0.88000000000E+00 0.  1.
        -11    1    4    4    0    0  0.72582197130E-01  0.55519699655E-01 -0.24006865762E-01  0.94483877539E-01  0.51100000000E-03 0. -1.
         11    1    4    4    0    0  0.21518473679E-01  0.26213121783E-01  0.52177063992E-04  0.33918082295E-01  0.51100000000E-03 0.  1.
</event>
<event>
 8    1  0.1137518E+005  0.1043930E+01  0.7957747E-01            NaN
         13   -1    0    0    0    0  0.00000000000E+00  0.00000000000E+00  0.74505805969E-08  0.10566000000E+00  0.10566000000E+00 0. -1.
     999900   -1    0    0    0    0 -0.00000000000E+00 -0.00000000000E+00 -0.74505805969E-08  0.93827000000E+00  0.93827000000E+00 0.  1.
     999902    2    1    2    0    0 -0.92198883665E-02 -0.20406583560E-01 -0.85136444239E-02  0.10199734323E+01  0.10196920542E+01 0.  0.
     999903    2    3    3    0    0 -0.11474711921E+00 -0.52466979011E-01  0.33702202534E-01  0.13208490150E+00  0.19771127842E-01 0.  0.
         14    1    1    2    0    0  0.92198883665E-02  0.20406583560E-01  0.85136444239E-02  0.23956567690E-01  0.00000000000E+00 0. -1.
     999901    1    3    3    0    0  0.10552723084E+00  0.32060395451E-01 -0.42215846957E-01  0.88788853081E+00  0.88000000000E+00 0. -1.
        -11    1    4    4    0    0 -0.46749344225E-01 -0.28470903364E-01  0.69747229003E-02  0.55181531371E-01  0.51100000000E-03 0. -1.
         11    1    4    4    0    0 -0.67997774983E-01 -0.23996075647E-01  0.26727479633E-01  0.76903370132E-01  0.51100000000E-03 0.  1.
</event>
<event>
 8    1  0.1137518E+005  0.1043930E+01  0.7957747E-01            NaN
         13   -1    0    0    0    0  0.00000000000E+00  0.00000000000E+00  0.74505805969E-08  0.10566000000E+00  0.10566000000E+00 0. -1.
     999900   -1    0    0    0    0 -0.00000000000E+00 -0.00000000000E+00 -0.74505805969E-08  0.93827000000E+00  0.93827000000E+00 0. -1.
     999902    2    1    2    0    0  0.85647970584E-02  0.18956088549E-01  0.14764322355E-01  0.10184216826E+01  0.10181021802E+01 0.  0.
     999903    2    3    3    0    0 -0.70616539098E-01 -0.24642936628E-01 -0.10018498327E+00  0.12635447558E+00  0.18288048182E-01 0.  0.
         14    1    1    2    0    0 -0.85647970584E-02 -0.18956088549E-01 -0.14764322355E-01  0.25508317395E-01  0.00000000000E+00 0.  1.
     999901    1    3    3    0    0  0.79181336157E-01  0.43599025177E-01  0.11494930562E+00  0.89206720703E+00  0.88000000000E+00 0.  1.
        -11    1    4    4    0    0 -0.43349667630E-01 -0.12489166861E-01 -0.73860761800E-01  0.86549674911E-01  0.51100000000E-03 0. -1.
         11    1    4    4    0    0 -0.27266871469E-01 -0.12153769767E-01 -0.26324221466E-01  0.39804800666E-01  0.51100000000E-03 0.  1.
</event>
<event>
 8    1  0.1137518E+005  0.1043930E+01  0.7957747E-01            NaN
         13   -1    0    0    0    0  0.00000000000E+00  0.00000000000E+00  0.74505805969E-08  0.10566000000E+00  0.10566000000E+00 0.  1.
     999900   -1    0    0    0    0 -0.00000000000E+00 -0.00000000000E+00 -0.74505805969E-08  0.93827000000E+00  0.93827000000E+00 0.  1.
     999902    2    1    2    0    0  0.73464145716E-02 -0.21323912327E-01  0.10621977668E-01  0.10189999889E+01  0.10186949847E+01 0.  0.
     999903    2    3    3    0    0  0.80196589205E-01  0.65655758464E-01  0.74952022349E-01  0.12938717102E+00  0.19520830718E-01 0.  0.
         14    1    1    2    0    0 -0.73464145716E-02  0.21323912327E-01 -0.10621977668E-01  0.24930011102E-01  0.00000000000E+00 0. -1.
     999901    1    3    3    0    0 -0.72850174634E-01 -0.86979670791E-01 -0.64330044681E-01  0.88961281787E+00  0.88000000000E+00 0.  1.
        -11    1    4    4    0    0  0.67314250223E-01  0.53080970118E-01  0.52195467913E-01  0.10036645686E+00  0.51100000000E-03 0.  1.
         11    1    4    4    0    0  0.12882338982E-01  0.12574788346E-01  0.22756554436E-01  0.29020714161E-01  0.51100000000E-03 0. -1.
</event>
<event>
 8    1  0.1137518E+005  0.1043930E+01  0.7957747E-01            NaN
         13   -1    0    0    0    0  0.00000000000E+00  0.00000000000E+00  0.74505805969E-08  0.10566000000E+00  0.10566000000E+00 0.  1.
     999900   -1    0    0    0    0 -0.00000000000E+00 -0.00000000000E+00 -0.74505805969E-08  0.93827000000E+00  0.93827000000E+00 0.  1.
     999902    2    1    2    0    0  0.96166531846E-02  0.20570466735E-01  0.10392722424E-01  0.10189573590E+01  0.10186512979E+01 0.  0.
     999903    2    3    3    0    0  0.70331783223E-01  0.26738407351E-01  0.10548712059E+00  0.13173285804E+00  0.23759442715E-01 0.  0.
         14    1    1    2    0    0 -0.96166531846E-02 -0.20570466735E-01 -0.10392722424E-01  0.24972641021E-01  0.00000000000E+00 0. -1.
     999901    1    3    3    0    0 -0.60715130039E-01 -0.61679406151E-02 -0.95094398164E-01  0.88722450094E+00  0.88000000000E+00 0.  1.
        -11    1    4    4    0    0  0.31942978489E-01  0.21598900542E-01  0.65857243545E-01  0.76317128010E-01  0.51100000000E-03 0.  1.
         11    1    4    4    0    0  0.38388804734E-01  0.51395068086E-02  0.39629877042E-01  0.55415730028E-01  0.51100000000E-03 0. -1.
</event>
<event>
 8    1  0.1137518E+005  0.1043930E+01  0.7957747E-01            NaN
         13   -1    0    0    0    0  0.00000000000E+00  0.00000000000E+00  0.74505805969E-08  0.10566000000E+00  0.10566000000E+00 0. -1.
     999900   -1    0    0    0    0 -0.00000000000E+00 -0.00000000000E+00 -0.74505805969E-08  0.93827000000E+00  0.93827000000E+00 0. -1.
     999902    2    1    2    0    0  0.47997896529E-02 -0.19460144310E-01  0.12829425223E-01  0.10201323247E+01  0.10198547105E+01 0.  0.
     999903    2    3    3    0    0 -0.41464254782E-01  0.75810594263E-02 -0.11716451994E+00  0.12897015413E+00  0.33600878513E-01 0.  0.
         14    1    1    2    0    0 -0.47997896529E-02  0.19460144310E-01 -0.12829425223E-01  0.23797675282E-01  0.00000000000E+00 0.  1.
     999901    1    3    3    0    0  0.46264044435E-01 -0.27041203737E-01  0.12999394516E+00  0.89116217059E+00  0.88000000000E+00 0.  1.
        -11    1    4    4    0    0 -0.34009976276E-01 -0.89989167273E-02 -0.68268691452E-01  0.76801916266E-01  0.51100000000E-03 0.  1.
         11    1    4    4    0    0 -0.74542785061E-02  0.16579976154E-01 -0.48895828488E-01  0.52168237864E-01  0.51100000000E-03 0. -1.
</event>
<event>
 8    1  0.1137518E+005  0.1043930E+01  0.7957747E-01            NaN
         13   -1    0    0    0    0  0.00000000000E+00  0.00000000000E+00  0.74505805969E-08  0.10566000000E+00  0.10566000000E+00 0.  1.
     999900   -1    0    0    0    0 -0.00000000000E+00 -0.00000000000E+00 -0.74505805969E-08  0.93827000000E+00  0.93827000000E+00 0.  1.
     999902    2    1    2    0    0  0.17813423363E-02  0.15273318899E-01 -0.17875985359E-01  0.10203503837E+01  0.10200778928E+01 0.  0.
     999903    2    3    3    0    0 -0.52199846123E-01 -0.75094957665E-01  0.87047885110E-01  0.12788782838E+00  0.20344182046E-01 0.  0.
         14    1    1    2    0    0 -0.17813423363E-02 -0.15273318899E-01  0.17875985359E-01  0.23579616267E-01  0.00000000000E+00 0.  1.
     999901    1    3    3    0    0  0.53981188459E-01  0.90368276565E-01 -0.10492387047E+00  0.89246255536E+00  0.88000000000E+00 0.  1.
        -11    1    4    4    0    0 -0.49461625211E-01 -0.67619377640E-01  0.70416711115E-01  0.10944225384E+00  0.51100000000E-03 0. -1.
         11    1    4    4    0    0 -0.27382209116E-02 -0.74755800253E-02  0.16631173995E-01  0.18445574535E-01  0.51100000000E-03 0.  1.
</event>
<event>
 8    1  0.1137518E+005  0.1043930E+01  0.7957747E-01            NaN
         13   -1    0    0    0    0  0.00000000000E+00  0.00000000000E+00  0.74505805969E-08  0.10566000000E+00  0.10566000000E+00 0. -1.
     999900   -1    0    0    0    0 -0.00000000000E+00 -0.00000000000E+00 -0.74505805969E-08  0.93827000000E+00  0.93827000000E+00 0.  1.
     999902    2    1    2    0    0 -0.17951957941E-01 -0.10281873900E-01  0.10710834916E-01  0.10206338263E+01  0.10203679217E+01 0.  0.
     999903    2    3    3    0    0 -0.54231048789E-01  0.11405121537E+00 -0.22193454075E-01  0.13054530162E+00  0.24512037705E-01 0.  0.
         14    1    1    2    0    0  0.17951957941E-01  0.10281873900E-01 -0.10710834916E-01  0.23296173707E-01  0.00000000000E+00 0. -1.
     999901    1    3    3    0    0  0.36279090848E-01 -0.12433308926E+00  0.32904288991E-01  0.89008852467E+00  0.88000000000E+00 0. -1.
        -11    1    4    4    0    0 -0.16157712842E-01  0.33333736410E-01 -0.18027923547E-01  0.41200446790E-01  0.51100000000E-03 0. -1.
         11    1    4    4    0    0 -0.38073335947E-01  0.80717478956E-01 -0.41655305277E-02  0.89344854830E-01  0.51100000000E-03 0.  1.
</event>
<event>
 8    1  0.1137518E+005  0.1043930E+01  0.7957747E-01            NaN
         13   -1    0    0    0    0  0.00000000000E+00  0.00000000000E+00  0.74505805969E-08  0.10566000000E+00  0.10566000000E+00 0.  1.
     999900   -1    0    0    0    0 -0.00000000000E+00 -0.00000000000E+00 -0.74505805969E-08  0.93827000000E+00  0.93827000000E+00 0.  1.
     999902    2    1    2    0    0  0.19630389735E-01 -0.12207197701E-01  0.72013721416E-02  0.10197178618E+01  0.10194303752E+01 0.  0.
     999903    2    3    3    0    0 -0.49717122733E-02 -0.12999724113E+00  0.12894471768E-01  0.13151058352E+00  0.14309631458E-01 0.  0.
         14    1    1    2    0    0 -0.19630389735E-01  0.12207197701E-01 -0.72013721416E-02  0.24212138228E-01  0.00000000000E+00 0. -1.
     999901    1    3    3    0    0  0.24602102009E-01  0.11779004343E+00 -0.56930996267E-02  0.88820727825E+00  0.88000000000E+00 0. -1.
        -11    1    4    4    0    0 -0.92045949289E-02 -0.72323571610E-01  0.42000710927E-02  0.73029619309E-01  0.51100000000E-03 0. -1.
         11    1    4    4    0    0  0.42328826556E-02 -0.57673669516E-01  0.86944006756E-02  0.58480964212E-01  0.51100000000E-03 0.  1.
</event>
<event>
 8    1  0.1137518E+005  0.1043930E+01  0.7957747E-01            NaN
         13   -1    0    0    0    0  0.00000000000E+00  0.00000000000E+00  0.74505805969E-08  0.10566000000E+00  0.10566000000E+00 0. -1.
     999900   -1    0    0    0    0 -0.00000000000E+00 -0.00000000000E+00 -0.74505805969E-08  0.93827000000E+00  0.93827000000E+00 0.  1.
     999902    2    1    2    0    0  0.27166459479E-02  0.19331049130E-01  0.14749209107E-01  0.10194635169E+01  0.10191698845E+01 0.  0.
     999903    2    3    3    0    0  0.11356417957E+00 -0.53811834782E-01 -0.19721511065E-01  0.12883155716E+00  0.20398423407E-01 0.  0.
         14    1    1    2    0    0 -0.27166459479E-02 -0.19331049130E-01 -0.14749209107E-01  0.24466483093E-01  0.00000000000E+00 0.  1.
     999901    1    3    3    0    0 -0.11084753362E+00  0.73142883911E-01  0.34470720171E-01  0.89063195975E+00  0.88000000000E+00 0. -1.
        -11    1    4    4    0    0  0.89691689167E-01 -0.33238989160E-01 -0.17439784837E-01  0.97230842443E-01  0.51100000000E-03 0.  1.
         11    1    4    4    0    0  0.23872490402E-01 -0.20572845622E-01 -0.22817262278E-02  0.31600714716E-01  0.51100000000E-03 0. -1.
</event>
<event>
 8    1  0.1137518E+005  0.1043930E+01  0.7957747E-01            NaN
         13   -1    0    0    0    0  0.00000000000E+00  0.00000000000E+00  0.74505805969E-08  0.10566000000E+00  0.10566000000E+00 0. -1.
     999900   -1    0    0    0    0 -0.00000000000E+00 -0.00000000000E+00 -0.74505805969E-08  0.93827000000E+00  0.93827000000E+00 0.  1.
     999902    2    1    2    0    0  0.14889628479E-01 -0.19280371471E-01 -0.40662259458E-03  0.10195661107E+01  0.10192749653E+01 0.  0.
     999903    2    3    3    0    0 -0.35820796389E-01  0.57705874243E-01  0.10730949159E+00  0.12821814807E+00  0.17648488075E-01 0.  0.
         14    1    1    2    0    0 -0.14889628479E-01  0.19280371471E-01  0.40662259458E-03  0.24363889308E-01  0.00000000000E+00 0. -1.
     999901    1    3    3    0    0  0.50710424869E-01 -0.76986245714E-01 -0.10771611419E+00  0.89134796262E+00  0.88000000000E+00 0.  1.
        -11    1    4    4    0    0 -0.23309328410E-01  0.45866699238E-01  0.67789227108E-01  0.85104167482E-01  0.51100000000E-03 0. -1.
         11    1    4    4    0    0 -0.12511467980E-01  0.11839175005E-01  0.39520264486E-01  0.43113980584E-01  0.51100000000E-03 0.  1.
</event>
<event>
 8    1  0.1137518E+005  0.1043930E+01  0.7957747E-01            NaN
         13   -1    0    0    0    0  0.00000000000E+00  0.00000000000E+00  0.74505805969E-08  0.10566000000E+00  0.10566000000E+00 0.  1.
     999900   -1    0    0    0    0 -0.00000000000E+00 -0.00000000000E+00 -0.74505805969E-08  0.93827000000E+00  0.93827000000E+00 0. -1.
     999902    2    1    2    0    0 -0.14143672737E-01  0.11638636066E-01  0.13414284888E-01  0.10212266001E+01  0.10209742036E+01 0.  0.
     999903    2    3    3    0    0 -0.12822675885E+00  0.24560829171E-01  0.20248419266E-01  0.13374215573E+00  0.20775700253E-01 0.  0.
         14    1    1    2    0    0  0.14143672737E-01 -0.11638636066E-01 -0.13414284888E-01  0.22703399900E-01  0.00000000000E+00 0.  1.
     999901    1    3    3    0    0  0.11408308611E+00 -0.12922193105E-01 -0.68341343775E-02  0.88748444437E+00  0.88000000000E+00 0. -1.
        -11    1    4    4    0    0 -0.64173062188E-01  0.13892686849E-01  0.20553843465E-01  0.68803417507E-01  0.51100000000E-03 0.  1.
         11    1    4    4    0    0 -0.64053696662E-01  0.10668142322E-01 -0.30542419915E-03  0.64938738220E-01  0.51100000000E-03 0. -1.
</event>
<event>
 8    1  0.1137518E+005  0.1043930E+01  0.7957747E-01            NaN
         13   -1    0    0    0    0  0.00000000000E+00  0.00000000000E+00  0.74505805969E-08  0.10566000000E+00  0.10566000000E+00 0.  1.
     999900   -1    0    0    0    0 -0.00000000000E+00 -0.00000000000E+00 -0.74505805969E-08  0.93827000000E+00  0.93827000000E+00 0.  1.
     999902    2    1    2    0    0  0.19131409404E-01  0.13154562321E-01  0.86454976787E-03  0.10206963868E+01  0.10204319249E+01 0.  0.
     999903    2    3    3    0    0 -0.31084202460E-01 -0.11155284315E+00 -0.52956107901E-01  0.12886108371E+00  0.19762719287E-01 0.  0.
         14    1    1    2    0    0 -0.19131409404E-01 -0.13154562321E-01 -0.86454976787E-03  0.23233613192E-01  0.00000000000E+00 0.  1.
     999901    1    3    3    0    0  0.50215611865E-01  0.12470740547E+00  0.53820657668E-01  0.89183530310E+00  0.88000000000E+00 0.  1.
        -11    1    4    4    0    0 -0.14371343349E-01 -0.83674601596E-01 -0.40234686896E-01  0.93952464643E-01  0.51100000000E-03 0.  1.
         11    1    4    4    0    0 -0.16712859111E-01 -0.27878241556E-01 -0.12721421005E-01  0.34908619069E-01  0.51100000000E-03 0. -1.
</event>
<event>
 8    1  0.1137518E+005  0.1043930E+01  0.7957747E-01            NaN
         13   -1    0    0    0    0  0.00000000000E+00  0.00000000000E+00  0.74505805969E-08  0.10566000000E+00  0.10566000000E+00 0. -1.
     999900   -1    0    0    0    0 -0.00000000000E+00 -0.00000000000E+00 -0.74505805969E-08  0.93827000000E+00  0.93827000000E+00 0.  1.
     999902    2    1    2    0    0  0.82460996803E-02 -0.14706706981E-01  0.16469746484E-01  0.10203601477E+01  0.10200878849E+01 0.  0.
     999903    2    3    3    0    0 -0.54863392226E-01  0.69436647858E-01  0.93991684566E-01  0.13071271018E+00  0.20492339111E-01 0.  0.
         14    1    1    2    0    0 -0.82460996803E-02  0.14706706981E-01 -0.16469746484E-01  0.23569852341E-01  0.00000000000E+00 0.  1.
     999901    1    3    3    0    0  0.63109491906E-01 -0.84143354839E-01 -0.77521938082E-01  0.88964743748E+00  0.88000000000E+00 0.  1.
        -11    1    4    4    0    0 -0.30891601658E-01  0.33794187697E-01  0.34489743255E-01  0.57324878420E-01  0.51100000000E-03 0.  1.
         11    1    4    4    0    0 -0.23971790568E-01  0.35642460161E-01  0.59501941310E-01  0.73387831758E-01  0.51100000000E-03 0. -1.
</event>
<event>
 8    1  0.1137518E+005  0.1043930E+01  0.7957747E-01            NaN
         13   -1    0    0    0    0  0.00000000000E+00  0.00000000000E+00  0.74505805969E-08  0.10566000000E+00  0.10566000000E+00 0. -1.
     999900   -1    0    0    0    0 -0.00000000000E+00 -0.00000000000E+00 -0.74505805969E-08  0.93827000000E+00  0.93827000000E+00 0.  1.
     999902    2    1    2    0    0 -0.28553369375E-02 -0.18665338069E-01 -0.14996126496E-01  0.10198171071E+01  0.10195320006E+01 0.  0.
     999903    2    3    3    0    0 -0.72793621036E-02 -0.63031576358E-01 -0.11502413282E+00  0.13302877996E+00  0.20979428850E-01 0.  0.
         14    1    1    2    0    0  0.28553369375E-02  0.18665338069E-01  0.14996126496E-01  0.24112892903E-01  0.00000000000E+00 0. -1.
     999901    1    3    3    0    0  0.44240251661E-02  0.44366238290E-01  0.10002800633E+00  0.88678832714E+00  0.88000000000E+00 0. -1.
        -11    1    4    4    0    0 -0.82873007342E-02 -0.20099407899E-01 -0.24033529010E-01  0.32411991438E-01  0.51100000000E-03 0. -1.
         11    1    4    4    0    0  0.10079386306E-02 -0.42932168459E-01 -0.90990603814E-01  0.10061678852E+00  0.51100000000E-03 0.  1.
</event>
<event>
 8    1  0.1137518E+005  0.1043930E+01  0.7957747E-01            NaN
         13   -1    0    0    0    0  0.00000000000E+00  0.00000000000E+00  0.74505805969E-08  0.10566000000E+00  0.10566000000E+00 0. -1.
     999900   -1    0    0    0    0 -0.00000000000E+00 -0.00000000000E+00 -0.74505805969E-08  0.93827000000E+00  0.93827000000E+00 0. -1.
     999902    2    1    2    0    0 -0.18223343094E-01 -0.14626971995E-01  0.33085666100E-03  0.10205601902E+01  0.10202925825E+01 0.  0.
     999903    2    3    3    0    0  0.12374824674E+00 -0.24739137327E-01  0.17546695023E-01  0.12895793960E+00  0.19915074507E-01 0.  0.
         14    1    1    2    0    0  0.18223343094E-01  0.14626971995E-01 -0.33085666100E-03  0.23369809785E-01  0.00000000000E+00 0.  1.
     999901    1    3    3    0    0 -0.14197158984E+00  0.10112165332E-01 -0.17215838362E-01  0.89160225061E+00  0.88000000000E+00 0. -1.
        -11    1    4    4    0    0  0.53663449135E-01 -0.15962688224E-01 -0.74251979951E-03  0.55994514420E-01  0.51100000000E-03 0. -1.
         11    1    4    4    0    0  0.70084797608E-01 -0.87764491027E-02  0.18289214823E-01  0.72963425183E-01  0.51100000000E-03 0.  1.
</event>
<event>
 8    1  0.1137518E+005  0.1043930E+01  0.7957747E-01            NaN
         13   -1    0    0    0    0  0.00000000000E+00  0.00000000000E+00  0.74505805969E-08  0.10566000000E+00  0.10566000000E+00 0.  1.
     999900   -1    0    0    0    0 -0.00000000000E+00 -0.00000000000E+00 -0.74505805969E-08  0.93827000000E+00  0.93827000000E+00 0. -1.
     999902    2    1    2    0    0 -0.22626955629E-01 -0.72637257824E-02 -0.27791152398E-02  0.10200037735E+01  0.10197231162E+01 0.  0.
     999903    2    3    3    0    0  0.12475631564E+00  0.86678691568E-02  0.14340977577E-01  0.12744075502E+00  0.19905078650E-01 0.  0.
         14    1    1    2    0    0  0.22626955629E-01  0.72637257824E-02  0.27791152398E-02  0.23926226505E-01  0.00000000000E+00 0. -1.
     999901    1    3    3    0    0 -0.14738327126E+00 -0.15931594939E-01 -0.17120092817E-01  0.89256301847E+00  0.88000000000E+00 0.  1.
        -11    1    4    4    0    0  0.61265308104E-01  0.14143934555E-01  0.58906570690E-02  0.63154175028E-01  0.51100000000E-03 0.  1.
         11    1    4    4    0    0  0.63491007533E-01 -0.54760653986E-02  0.84503205080E-02  0.64286579995E-01  0.51100000000E-03 0. -1.
</event>
<event>
 8    1  0.1137518E+005  0.1043930E+01  0.7957747E-01            NaN
         13   -1    0    0    0    0  0.00000000000E+00  0.00000000000E+00  0.74505805969E-08  0.10566000000E+00  0.10566000000E+00 0. -1.
     999900   -1    0    0    0    0 -0.00000000000E+00 -0.00000000000E+00 -0.74505805969E-08  0.93827000000E+00  0.93827000000E+00 0. -1.
     999902    2    1    2    0    0 -0.10096519845E-01  0.20894947895E-01 -0.59142891546E-02  0.10199817772E+01  0.10197005974E+01 0.  0.
     999903    2    3    3    0    0 -0.27492447109E-01 -0.94804987979E-01 -0.80850520509E-01  0.12908081061E+00  0.19525076374E-01 0.  0.
         14    1    1    2    0    0  0.10096519845E-01 -0.20894947895E-01  0.59142891546E-02  0.23948222830E-01  0.00000000000E+00 0. -1.
     999901    1    3    3    0    0  0.17395927264E-01  0.11569993587E+00  0.74936231355E-01  0.89090096656E+00  0.88000000000E+00 0.  1.
        -11    1    4    4    0    0 -0.24769871452E-03 -0.30743093087E-01 -0.20586380320E-01  0.37003503928E-01  0.51100000000E-03 0.  1.
         11    1    4    4    0    0 -0.27244748394E-01 -0.64061894892E-01 -0.60264140189E-01  0.92077306683E-01  0.51100000000E-03 0. -1.
</event>
<event>
 8    1  0.1137518E+005  0.1043930E+01  0.7957747E-01            NaN
         13   -1    0    0    0    0  0.00000000000E+00  0.00000000000E+00  0.74505805969E-08  0.10566000000E+00  0.10566000000E+00 0. -1.
     999900   -1    0    0    0    0 -0.00000000000E+00 -0.00000000000E+00 -0.74505805969E-08  0.93827000000E+00  0.93827000000E+00 0. -1.
     999902    2    1    2    0    0  0.10894963273E-01 -0.13045188868E-01 -0.16316911297E-01  0.10203690414E+01  0.10200969865E+01 0.  0.
     999903    2    3    3    0    0 -0.12325297674E+00  0.12425398182E-01  0.28659857639E-01  0.12870356017E+00  0.19938208685E-01 0.  0.
         14    1    1    2    0    0 -0.10894963273E-01  0.13045188868E-01  0.16316911297E-01  0.23560958631E-01  0.00000000000E+00 0. -1.
     999901    1    3    3    0    0  0.13414794001E+00 -0.25470587050E-01 -0.44976768936E-01  0.89166548120E+00  0.88000000000E+00 0. -1.
        -11    1    4    4    0    0 -0.97501723714E-01  0.16311579591E-01  0.27580645753E-01  0.10263336152E+00  0.51100000000E-03 0.  1.
         11    1    4    4    0    0 -0.25751253026E-01 -0.38861814094E-02  0.10792118861E-02  0.26070198650E-01  0.51100000000E-03 0. -1.
</event>
<event>
 8    1  0.1137518E+005  0.1043930E+01  0.7957747E-01            NaN
         13   -1    0    0    0    0  0.00000000000E+00  0.00000000000E+00  0.74505805969E-08  0.10566000000E+00  0.10566000000E+00 0. -1.
     999900   -1    0    0    0    0 -0.00000000000E+00 -0.00000000000E+00 -0.74505805969E-08  0.93827000000E+00  0.93827000000E+00 0.  1.
     999902    2    1    2    0    0  0.89367690990E-02 -0.18975438591E-01  0.93961783167E-02  0.10209469350E+01  0.10206882103E+01 0.  0.
     999903    2    3    3    0    0  0.94938204521E-01 -0.48868335059E-01  0.77706535912E-01  0.13361602875E+00  0.20336188616E-01 0.  0.
         14    1    1    2    0    0 -0.89367690990E-02  0.18975438591E-01 -0.93961783167E-02  0.22983065040E-01  0.00000000000E+00 0.  1.
     999901    1    3    3    0    0 -0.86001435422E-01  0.29892896467E-01 -0.68310357595E-01  0.88733090621E+00  0.88000000000E+00 0.  1.
        -11    1    4    4    0    0  0.58569053505E-01 -0.19146937107E-01  0.41197462100E-01  0.74124430747E-01  0.51100000000E-03 0.  1.
         11    1    4    4    0    0  0.36369151016E-01 -0.29721397951E-01  0.36509073811E-01  0.59491598007E-01  0.51100000000E-03 0. -1.
</event>
<event>
 8    1  0.1137518E+005  0.1043930E+01  0.7957747E-01            NaN
         13   -1    0    0    0    0  0.00000000000E+00  0.00000000000E+00  0.74505805969E-08  0.10566000000E+00  0.10566000000E+00 0.  1.
     999900   -1    0    0    0    0 -0.00000000000E+00 -0.00000000000E+00 -0.74505805969E-08  0.93827000000E+00  0.93827000000E+00 0.  1.
     999902    2    1    2    0    0  0.56249911571E-02  0.14124151970E-01 -0.17496532219E-01  0.10207511123E+01  0.10204879090E+01 0.  0.
     999903    2    3    3    0    0  0.88191340758E-01  0.95377444155E-01 -0.22047532851E-01  0.13314759093E+00  0.19173362444E-01 0.  0.
         14    1    1    2    0    0 -0.56249911571E-02 -0.14124151970E-01  0.17496532219E-01  0.23178887680E-01  0.00000000000E+00 0.  1.
     999901    1    3    3    0    0 -0.82566349601E-01 -0.81253292185E-01  0.45510006320E-02  0.88760352139E+00  0.88000000000E+00 0. -1.
        -11    1    4    4    0    0  0.42539847297E-01  0.32591285509E-01 -0.11397048907E-01  0.54790367255E-01  0.51100000000E-03 0. -1.
         11    1    4    4    0    0  0.45651493461E-01  0.62786158647E-01 -0.10650483944E-01  0.78357223675E-01  0.51100000000E-03 0.  1.
</event>
<event>
 8    1  0.1137518E+005  0.1043930E+01  0.7957747E-01            NaN
         13   -1    0    0    0    0  0.00000000000E+00  0.00000000000E+00  0.74505805969E-08  0.10566000000E+00  0.10566000000E+00 0.  1.
     999900   -1    0    0    0    0 -0.00000000000E+00 -0.00000000000E+00 -0.74505805969E-08  0.93827000000E+00  0.93827000000E+00 0. -1.
     999902    2    1    2    0    0  0.97863076548E-02 -0.57377470997E-02  0.20471203472E-01  0.10205256472E+01  0.10202572386E+01 0.  0.
     999903    2    3    3    0    0  0.12359840081E+00 -0.42211838463E-01  0.11342210998E-01  0.13240015470E+00  0.18513541688E-01 0.  0.
         14    1    1    2    0    0 -0.97863076548E-02  0.57377470997E-02 -0.20471203472E-01  0.23404352820E-01  0.00000000000E+00 0. -1.
     999901    1    3    3    0    0 -0.11381209315E+00  0.36474091364E-01  0.91289924739E-02  0.88812549248E+00  0.88000000000E+00 0.  1.
        -11    1    4    4    0    0  0.88873366478E-01 -0.36725990935E-01  0.13826901791E-01  0.97153064869E-01  0.51100000000E-03 0.  1.
         11    1    4    4    0    0  0.34725034329E-01 -0.54858475288E-02 -0.24846907924E-02  0.35247089832E-01  0.51100000000E-03 0. -1.
</event>
<event>
 8    1  0.1137518E+005  0.1043930E+01  0.7957747E-01            NaN
         13   -1    0    0    0    0  0.00000000000E+00  0.00000000000E+00  0.74505805969E-08  0.10566000000E+00  0.10566000000E+00 0.  1.
     999900   -1    0    0    0    0 -0.00000000000E+00 -0.00000000000E+00 -0.74505805969E-08  0.93827000000E+00  0.93827000000E+00 0.  1.
     999902    2    1    2    0    0  0.69441622272E-02  0.81736278183E-02  0.20851538543E-01  0.10204818393E+01  0.10202124132E+01 0.  0.
     999903    2    3    3    0    0  0.78146167024E-01  0.70711225537E-01 -0.74074804048E-01  0.13031798520E+00  0.19718007901E-01 0.  0.
         14    1    1    2    0    0 -0.69441622272E-02 -0.81736278183E-02 -0.20851538543E-01  0.23448160703E-01  0.00000000000E+00 0. -1.
     999901    1    3    3    0    0 -0.71202004797E-01 -0.62537597719E-01  0.94926342590E-01  0.89016385409E+00  0.88000000000E+00 0. -1.
        -11    1    4    4    0    0  0.15385429233E-01  0.16528273474E-01 -0.69324946073E-02  0.23626592205E-01  0.51100000000E-03 0. -1.
         11    1    4    4    0    0  0.62760737791E-01  0.54182952063E-01 -0.67142309440E-01  0.10669139300E+00  0.51100000000E-03 0.  1.
</event>
<event>
 8    1  0.1137518E+005  0.1043930E+01  0.7957747E-01            NaN
         13   -1    0    0    0    0  0.00000000000E+00  0.00000000000E+00  0.74505805969E-08  0.10566000000E+00  0.10566000000E+00 0.  1.
     999900   -1    0    0    0    0 -0.00000000000E+00 -0.00000000000E+00 -0.74505805969E-08  0.93827000000E+00  0.93827000000E+00 0.  1.
     999902    2    1    2    0    0  0.90310013945E-02 -0.18106162891E-01 -0.13301193815E-01  0.10197160809E+01  0.10194285516E+01 0.  0.
     999903    2    3    3    0    0  0.63625496048E-01 -0.44081536626E-01 -0.10610610838E+00  0.13277299871E+00  0.19462202707E-01 0.  0.
         14    1    1    2    0    0 -0.90310013945E-02  0.18106162891E-01  0.13301193815E-01  0.24213919091E-01  0.00000000000E+00 0.  1.
     999901    1    3    3    0    0 -0.54594494654E-01  0.25975373735E-01  0.92804914560E-01  0.88694308220E+00  0.88000000000E+00 0. -1.
        -11    1    4    4    0    0  0.16644006162E-01 -0.16644032959E-01 -0.46156649334E-01  0.51814517010E-01  0.51100000000E-03 0.  1.
         11    1    4    4    0    0  0.46981489886E-01 -0.27437503667E-01 -0.59949459041E-01  0.80958481704E-01  0.51100000000E-03 0. -1.
</event>
<event>
 8    1  0.1137518E+005  0.1043930E+01  0.7957747E-01            NaN
         13   -1    0    0    0    0  0.00000000000E+00  0.00000000000E+00  0.74505805969E-08  0.10566000000E+00  0.10566000000E+00 0. -1.
     999900   -1    0    0    0    0 -0.00000000000E+00 -0.00000000000E+00 -0.74505805969E-08  0.93827000000E+00  0.93827000000E+00 0. -1.
     999902    2    1    2    0    0  0.28451126705E-02 -0.46255052055E-02  0.25109365064E-01  0.10182401153E+01  0.10179159897E+01 0.  0.
     999903    2    3    3    0    0  0.31621427486E-01 -0.57500189610E-01  0.11278047013E+00  0.13183725469E+00  0.18853137708E-01 0.  0.
         14    1    1    2    0    0 -0.28451126705E-02  0.46255052055E-02 -0.25109365064E-01  0.25689884749E-01  0.00000000000E+00 0.  1.
     999901    1    3    3    0    0 -0.28776314816E-01  0.52874684404E-01 -0.87671105062E-01  0.88640286056E+00  0.88000000000E+00 0. -1.
        -11    1    4    4    0    0  0.24757932681E-01 -0.55939348397E-01  0.99624760956E-01  0.11690816929E+00  0.51100000000E-03 0. -1.
         11    1    4    4    0    0  0.68634948059E-02 -0.15608412131E-02  0.13155709169E-01  0.14929085403E-01  0.51100000000E-03 0.  1.
</event>
<event>
 8    1  0.1137518E+005  0.1043930E+01  0.7957747E-01            NaN
         13   -1    0    0    0    0  0.00000000000E+00  0.00000000000E+00  0.74505805969E-08  0.10566000000E+00  0.10566000000E+00 0. -1.
     999900   -1    0    0    0    0 -0.00000000000E+00 -0.00000000000E+00 -0.74505805969E-08  0.93827000000E+00  0.93827000000E+00 0.  1.
     999902    2    1    2    0    0  0.63903143829E-02  0.41748522086E-02  0.21979208278E-01  0.10206630469E+01  0.10203978167E+01 0.  0.
     999903    2    3    3    0    0 -0.16986920470E-01 -0.12753932017E+00  0.73845775510E-02  0.13043379467E+00  0.20090026148E-01 0.  0.
         14    1    1    2    0    0 -0.63903143829E-02 -0.41748522086E-02 -0.21979208278E-01  0.23266953076E-01  0.00000000000E+00 0.  1.
     999901    1    3    3    0    0  0.23377234853E-01  0.13171417238E+00  0.14594630727E-01  0.89022925225E+00  0.88000000000E+00 0.  1.
        -11    1    4    4    0    0 -0.12990703428E-01 -0.55098024538E-01  0.11486790802E-01  0.57764679238E-01  0.51100000000E-03 0.  1.
         11    1    4    4    0    0 -0.39962170422E-02 -0.72441295634E-01 -0.41022132511E-02  0.72669115437E-01  0.51100000000E-03 0. -1.
</event>
<event>
 8    1  0.1137518E+005  0.1043930E+01  0.7957747E-01            NaN
         13   -1    0    0    0    0  0.00000000000E+00  0.00000000000E+00  0.74505805969E-08  0.10566000000E+00  0.10566000000E+00 0.  1.
     999900   -1    0    0    0    0 -0.00000000000E+00 -0.00000000000E+00 -0.74505805969E-08  0.93827000000E+00  0.93827000000E+00 0.  1.
     999902    2    1    2    0    0  0.91340127400E-02  0.49698725417E-02  0.17587625214E-01  0.10234982996E+01  0.10232943442E+01 0.  0.
     999903    2    3    3    0    0  0.52448520403E-01 -0.11930125249E+00 -0.17522465119E-01  0.13301967684E+00  0.20088840300E-01 0.  0.
         14    1    1    2    0    0 -0.91340127400E-02 -0.49698725417E-02 -0.17587625214E-01  0.20431700430E-01  0.00000000000E+00 0. -1.
     999901    1    3    3    0    0 -0.43314507663E-01  0.12427112503E+00  0.35110090333E-01  0.89047862273E+00  0.88000000000E+00 0.  1.
        -11    1    4    4    0    0  0.35088650808E-01 -0.63357622509E-01 -0.17200366615E-01  0.74441355967E-01  0.51100000000E-03 0.  1.
         11    1    4    4    0    0  0.17359869595E-01 -0.55943629984E-01 -0.32209850359E-03  0.58578320876E-01  0.51100000000E-03 0. -1.
</event>
<event>
 8    1  0.1137518E+005  0.1043930E+01  0.7957747E-01            NaN
         13   -1    0    0    0    0  0.00000000000E+00  0.00000000000E+00  0.74505805969E-08  0.10566000000E+00  0.10566000000E+00 0.  1.
     999900   -1    0    0    0    0 -0.00000000000E+00 -0.00000000000E+00 -0.74505805969E-08  0.93827000000E+00  0.93827000000E+00 0.  1.
     999902    2    1    2    0    0 -0.13097400775E-01  0.19548392573E-01 -0.42874135281E-02  0.10200121516E+01  0.10197316931E+01 0.  0.
     999903    2    3    3    0    0  0.60258049501E-01  0.49491381315E-01  0.10219741620E+00  0.13005899345E+00  0.19763616726E-01 0.  0.
         14    1    1    2    0    0  0.13097400775E-01 -0.19548392573E-01  0.42874135281E-02  0.23917848440E-01  0.00000000000E+00 0.  1.
     999901    1    3    3    0    0 -0.73355450276E-01 -0.29942988742E-01 -0.10648482973E+00  0.88995315811E+00  0.88000000000E+00 0.  1.
        -11    1    4    4    0    0  0.83222171941E-02  0.63612478445E-04  0.15074053994E-01  0.17226478757E-01  0.51100000000E-03 0.  1.
         11    1    4    4    0    0  0.51935832307E-01  0.49427768837E-01  0.87123362207E-01  0.11283251470E+00  0.51100000000E-03 0. -1.
</event>
<event>
 8    1  0.1137518E+005  0.1043930E+01  0.7957747E-01            NaN
         13   -1    0    0    0    0  0.00000000000E+00  0.00000000000E+00  0.74505805969E-08  0.10566000000E+00  0.10566000000E+00 0.  1.
     999900   -1    0    0    0    0 -0.00000000000E+00 -0.00000000000E+00 -0.74505805969E-08  0.93827000000E+00  0.93827000000E+00 0. -1.
     999902    2    1    2    0    0 -0.99875715952E-02  0.21749015363E-01 -0.49861179749E-02  0.10194834741E+01  0.10191903264E+01 0.  0.
     999903    2    3    3    0    0 -0.65439953194E-01  0.67961273644E-01 -0.90638098145E-01  0.13238325365E+00  0.20222235814E-01 0.  0.
         14    1    1    2    0    0  0.99875715952E-02 -0.21749015363E-01  0.49861179749E-02  0.24446525890E-01  0.00000000000E+00 0.  1.
     999901    1    3    3    0    0  0.55452381599E-01 -0.46212258281E-01  0.85651980170E-01  0.88710022046E+00  0.88000000000E+00 0.  1.
        -11    1    4    4    0    0 -0.56240398754E-01  0.66499211367E-01 -0.80375574904E-01  0.11851422584E+00  0.51100000000E-03 0. -1.
         11    1    4    4    0    0 -0.91995544402E-02  0.14620622763E-02 -0.10262523241E-01  0.13869027806E-01  0.51100000000E-03 0.  1.
</event>
<event>
 8    1  0.1137518E+005  0.1043930E+01  0.7957747E-01            NaN
         13   -1    0    0    0    0  0.00000000000E+00  0.00000000000E+00  0.74505805969E-08  0.10566000000E+00  0.10566000000E+00 0.  1.
     999900   -1    0    0    0    0 -0.00000000000E+00 -0.00000000000E+00 -0.74505805969E-08  0.93827000000E+00  0.93827000000E+00 0. -1.
     999902    2    1    2    0    0  0.19061808751E-01  0.14877797979E-01  0.62174924042E-02  0.10189628488E+01  0.10186569239E+01 0.  0.
     999903    2    3    3    0    0  0.74429648286E-01  0.42891895285E-01  0.97986541504E-01  0.13201755984E+00  0.21160967940E-01 0.  0.
         14    1    1    2    0    0 -0.19061808751E-01 -0.14877797979E-01 -0.62174924042E-02  0.24967151166E-01  0.00000000000E+00 0. -1.
     999901    1    3    3    0    0 -0.55367839535E-01 -0.28014097306E-01 -0.91769049099E-01  0.88694528900E+00  0.88000000000E+00 0. -1.
        -11    1    4    4    0    0  0.47817774891E-01  0.37848691843E-01  0.61922892048E-01  0.86912420000E-01  0.51100000000E-03 0. -1.
         11    1    4    4    0    0  0.26611873395E-01  0.50432034424E-02  0.36063649456E-01  0.45105139836E-01  0.51100000000E-03 0.  1.
</event>
<event>
 8    1  0.1137518E+005  0.1043930E+01  0.7957747E-01            NaN
         13   -1    0    0    0    0  0.00000000000E+00  0.00000000000E+00  0.74505805969E-08  0.10566000000E+00  0.10566000000E+00 0. -1.
     999900   -1    0    0    0    0 -0.00000000000E+00 -0.00000000000E+00 -0.74505805969E-08  0.93827000000E+00  0.93827000000E+00 0. -1.
     999902    2    1    2    0    0 -0.98832426424E-02 -0.13901630124E-01 -0.17437940750E-01  0.10195370587E+01  0.10192452102E+01 0.  0.
     999903    2    3    3    0    0 -0.24284288598E-01 -0.37745342658E-02 -0.12837894033E+00  0.13239679161E+00  0.21066189156E-01 0.  0.
         14    1    1    2    0    0  0.98832426424E-02  0.13901630124E-01  0.17437940750E-01  0.24392941250E-01  0.00000000000E+00 0. -1.
     999901    1    3    3    0    0  0.14401045956E-01 -0.10127095858E-01  0.11094099958E+00  0.88714026714E+00  0.88000000000E+00 0.  1.
        -11    1    4    4    0    0 -0.62121148786E-02 -0.66345025712E-02 -0.14972509818E-01  0.17522675791E-01  0.51100000000E-03 0. -1.
         11    1    4    4    0    0 -0.18072173720E-01  0.28599683054E-02 -0.11340643051E+00  0.11487411582E+00  0.51100000000E-03 0.  1.
</event>
<event>
 8    1  0.1137518E+005  0.1043930E+01  0.7957747E-01            NaN
         13   -1    0    0    0    0  0.00000000000E+00  0.00000000000E+00  0.74505805969E-08  0.10566000000E+00  0.10566000000E+00 0.  1.
     999900   -1    0    0    0    0 -0.00000000000E+00 -0.00000000000E+00 -0.74505805969E-08  0.93827000000E+00  0.93827000000E+00 0.  1.
     999902    2    1    2    0    0  0.15800289794E-01 -0.16540878662E-01 -0.20232594716E-03  0.10210544506E+01  0.10207981683E+01 0.  0.
     999903    2    3    3    0    0  0.18585296654E-01  0.12611637508E+00  0.58875987081E-02  0.12954116663E+00  0.22259755625E-01 0.  0.
         14    1    1    2    0    0 -0.15800289794E-01  0.16540878662E-01  0.20232594716E-03  0.22875549398E-01  0.00000000000E+00 0.  1.
     999901    1    3    3    0    0 -0.27850068596E-02 -0.14265725374E+00 -0.60899246552E-02  0.89151328397E+00  0.88000000000E+00 0.  1.
        -11    1    4    4    0    0 -0.44110356542E-02  0.37730439721E-01 -0.42574444886E-03  0.37993232245E-01  0.51100000000E-03 0.  1.
         11    1    4    4    0    0  0.22996332308E-01  0.88385935355E-01  0.63133431569E-02  0.91547934390E-01  0.51100000000E-03 0. -1.
</event>
<event>
 8    1  0.1137518E+005  0.1043930E+01  0.7957747E-01            NaN
         13   -1    0    0    0    0  0.00000000000E+00  0.00000000000E+00  0.74505805969E-08  0.10566000000E+00  0.10566000000E+00 0.  1.
     999900   -1    0    0    0    0 -0.00000000000E+00 -0.00000000000E+00 -0.74505805969E-08  0.93827000000E+00  0.93827000000E+00 0. -1.
     999902    2    1    2    0    0  0.76382701065E-02  0.21685958089E-01 -0.48615327951E-02  0.10204298202E+01  0.10201591834E+01 0.  0.
     999903    2    3    3    0    0  0.31139557963E-02  0.13066779518E+00  0.17269115665E-01  0.13341951823E+00  0.20464018934E-01 0.  0.
         14    1    1    2    0    0 -0.76382701065E-02 -0.21685958089E-01  0.48615327951E-02  0.23500179778E-01  0.00000000000E+00 0.  1.
     999901    1    3    3    0    0  0.45243143102E-02 -0.10898183709E+00 -0.22130648460E-01  0.88701030199E+00  0.88000000000E+00 0. -1.
        -11    1    4    4    0    0 -0.74911784294E-02  0.29661798941E-01  0.65718873147E-02  0.31295221593E-01  0.51100000000E-03 0.  1.
         11    1    4    4    0    0  0.10605134226E-01  0.10100599624E+00  0.10697228350E-01  0.10212429664E+00  0.51100000000E-03 0. -1.
</event>
<event>
 8    1  0.1137518E+005  0.1043930E+01  0.7957747E-01            NaN
         13   -1    0    0    0    0  0.00000000000E+00  0.00000000000E+00  0.74505805969E-08  0.10566000000E+00  0.10566000000E+00 0. -1.
     999900   -1    0    0    0    0 -0.00000000000E+00 -0.00000000000E+00 -0.74505805969E-08  0.93827000000E+00  0.93827000000E+00 0.  1.
     999902    2    1    2    0    0 -0.17538486884E-01 -0.16517089662E-01  0.19100960603E-02  0.10197626410E+01  0.10194762296E+01 0.  0.
     999903    2    3    3    0    0 -0.20466019620E-01  0.23987479651E-01  0.12469873451E+00  0.13030986526E+00  0.20895680299E-01 0.  0.
         14    1    1    2    0    0  0.17538486884E-01  0.16517089662E-01 -0.19100960603E-02  0.24167358980E-01  0.00000000000E+00 0.  1.
     999901    1    3    3    0    0  0.29275327358E-02 -0.40504569313E-01 -0.12278863845E+00  0.88945277576E+00  0.88000000000E+00 0.  1.
        -11    1    4    4    0    0  0.31677265199E-02  0.38285480129E-02  0.71313078951E-02  0.87068332065E-02  0.51100000000E-03 0. -1.
         11    1    4    4    0    0 -0.23633746140E-01  0.20158931638E-01  0.11756742662E+00  0.12160303205E+00  0.51100000000E-03 0.  1.
</event>
<event>
 8    1  0.1137518E+005  0.1043930E+01  0.7957747E-01            NaN
         13   -1    0    0    0    0  0.00000000000E+00  0.00000000000E+00  0.74505805969E-08  0.10566000000E+00  0.10566000000E+00 0. -1.
     999900   -1    0    0    0    0 -0.00000000000E+00 -0.00000000000E+00 -0.74505805969E-08  0.93827000000E+00  0.93827000000E+00 0.  1.
     999902    2    1    2    0    0  0.13338757610E-01  0.16678548803E-01 -0.99562134205E-02  0.10203668374E+01  0.10200947310E+01 0.  0.
     999903    2    3    3    0    0  0.12450679843E+00 -0.30856935115E-02 -0.40267437576E-01  0.13263504861E+00  0.21427207687E-01 0.  0.
         14    1    1    2    0    0 -0.13338757610E-01 -0.16678548803E-01  0.99562134205E-02  0.23563162573E-01  0.00000000000E+00 0.  1.
     999901    1    3    3    0    0 -0.11116804082E+00  0.19764242314E-01  0.30311224155E-01  0.88773178882E+00  0.88000000000E+00 0. -1.
        -11    1    4    4    0    0  0.61471817926E-01 -0.11605839481E-01 -0.23739209837E-01  0.66912563199E-01  0.51100000000E-03 0.  1.
         11    1    4    4    0    0  0.63034980507E-01  0.85201459693E-02 -0.16528227738E-01  0.65722485407E-01  0.51100000000E-03 0. -1.
</event>
<event>
 8    1  0.1137518E+005  0.1043930E+01  0.7957747E-01            NaN
         13   -1    0    0    0    0  0.00000000000E+00  0.00000000000E+00  0.74505805969E-08  0.10566000000E+00  0.10566000000E+00 0. -1.
     999900   -1    0    0    0    0 -0.00000000000E+00 -0.00000000000E+00 -0.74505805969E-08  0.93827000000E+00  0.93827000000E+00 0.  1.
     999902    2    1    2    0    0 -0.89847612507E-02  0.19360733834E-01 -0.10643226513E-01  0.10200795866E+01  0.10198007260E+01 0.  0.
     999903    2    3    3    0    0  0.67728584754E-01  0.36614634922E-01 -0.10489593006E+00  0.13156047780E+00  0.19421907558E-01 0.  0.
         14    1    1    2    0    0  0.89847612507E-02 -0.19360733834E-01  0.10643226513E-01  0.23850413412E-01  0.00000000000E+00 0. -1.
     999901    1    3    3    0    0 -0.76713346005E-01 -0.17253901089E-01  0.94252703543E-01  0.88851910879E+00  0.88000000000E+00 0.  1.
        -11    1    4    4    0    0  0.42865004914E-01  0.31820233148E-01 -0.62726404280E-01  0.82369890123E-01  0.51100000000E-03 0.  1.
         11    1    4    4    0    0  0.24863579840E-01  0.47944017741E-02 -0.42169525775E-01  0.49190587676E-01  0.51100000000E-03 0. -1.
</event>
<event>
 7    1  0.1137518E+005  0.1043930E+01  0.7957747E-01            NaN
         13   -1    0    0    0    0  0.00000000000E+00  0.00000000000E+00  0.74505805969E-08  0.10566000000E+00  0.10566000000E+00 0. -1.
     999900   -1    0    0    0    0 -0.00000000000E+00 -0.00000000000E+00 -0.74505805969E-08  0.93827000000E+00  0.93827000000E+00 0.  1.
     999902    2    1    2    0    0 -0.19414619641E-04 -0.23945054179E-01  0.71399345113E-02  0.10189431102E+01  0.10186366954E+01 0.  0.
         14    1    1    2    0    0  0.19414619641E-04  0.23945054179E-01 -0.71399345113E-02  0.24986889790E-01  0.00000000000E+00 0.  1.
     999901    1    3    3    0    0  0.84698117854E-01  0.51375601505E-01 -0.35098366404E-01  0.88625341687E+00  0.88000000000E+00 0. -1.
        -11    1    3    3    0    0 -0.58192200493E-01 -0.20805152272E-01  0.36536363994E-01  0.71793826853E-01  0.51100000000E-03 0. -1.
         11    1    3    3    0    0 -0.26525331980E-01 -0.54515503412E-01  0.57019369205E-02  0.60895866482E-01  0.51100000000E-03 0.  1.
</event>
<event>
 8    1  0.1137518E+005  0.1043930E+01  0.7957747E-01            NaN
         13   -1    0    0    0    0  0.00000000000E+00  0.00000000000E+00  0.74505805969E-08  0.10566000000E+00  0.10566000000E+00 0.  1.
     999900   -1    0    0    0    0 -0.00000000000E+00 -0.00000000000E+00 -0.74505805969E-08  0.93827000000E+00  0.93827000000E+00 0. -1.
     999902    2    1    2    0    0 -0.17783273722E-01  0.19965275346E-03 -0.16810170239E-01  0.10194582508E+01  0.10191644905E+01 0.  0.
     999903    2    3    3    0    0 -0.78781468846E-01  0.48588853958E-01  0.88818655670E-01  0.12972809875E+00  0.19319147184E-01 0.  0.
         14    1    1    2    0    0  0.17783273722E-01 -0.19965275346E-03  0.16810170239E-01  0.24471749201E-01  0.00000000000E+00 0.  1.
     999901    1    3    3    0    0  0.60998195124E-01 -0.48389201204E-01 -0.10562882591E+00  0.88973015205E+00  0.88000000000E+00 0. -1.
        -11    1    4    4    0    0 -0.51149365894E-01  0.35866668707E-01  0.70572054558E-01  0.94251533468E-01  0.51100000000E-03 0.  1.
         11    1    4    4    0    0 -0.27632102952E-01  0.12722185250E-01  0.18246601112E-01  0.35476565282E-01  0.51100000000E-03 0. -1.
</event>
<event>
 8    1  0.1137518E+005  0.1043930E+01  0.7957747E-01            NaN
         13   -1    0    0    0    0  0.00000000000E+00  0.00000000000E+00  0.74505805969E-08  0.10566000000E+00  0.10566000000E+00 0.  1.
     999900   -1    0    0    0    0 -0.00000000000E+00 -0.00000000000E+00 -0.74505805969E-08  0.93827000000E+00  0.93827000000E+00 0.  1.
     999902    2    1    2    0    0 -0.42618999404E-02  0.14467862496E-01  0.19037379848E-01  0.10196420469E+01  0.10193527353E+01 0.  0.
     999903    2    3    3    0    0  0.43463533951E-01 -0.11439913416E+00 -0.30068196369E-01  0.12762423455E+00  0.20189307309E-01 0.  0.
         14    1    1    2    0    0  0.42618999404E-02 -0.14467862496E-01 -0.19037379848E-01  0.24287953141E-01  0.00000000000E+00 0. -1.
     999901    1    3    3    0    0 -0.47725433891E-01  0.12886699666E+00  0.49105576217E-01  0.89201781231E+00  0.88000000000E+00 0. -1.
        -11    1    4    4    0    0  0.85235577430E-02 -0.16349191231E-01 -0.11925916045E-01  0.21964418613E-01  0.51100000000E-03 0. -1.
         11    1    4    4    0    0  0.34939976208E-01 -0.98049942933E-01 -0.18142280324E-01  0.10565981593E+00  0.51100000000E-03 0.  1.
</event>
<event>
 8    1  0.1137518E+005  0.1043930E+01  0.7957747E-01            NaN
         13   -1    0    0    0    0  0.00000000000E+00  0.00000000000E+00  0.74505805969E-08  0.10566000000E+00  0.10566000000E+00 0. -1.
     999900   -1    0    0    0    0 -0.00000000000E+00 -0.00000000000E+00 -0.74505805969E-08  0.93827000000E+00  0.93827000000E+00 0.  1.
     999902    2    1    2    0    0 -0.88719673303E-02 -0.39088724101E-02 -0.22607094260E-01  0.10193317928E+01  0.10190349513E+01 0.  0.
     999903    2    3    3    0    0 -0.62005523770E-01  0.10134722992E+00  0.46431165283E-01  0.12878796837E+00  0.17735323420E-01 0.  0.
         14    1    1    2    0    0  0.88719673303E-02  0.39088724101E-02  0.22607094260E-01  0.24598207225E-01  0.00000000000E+00 0. -1.
     999901    1    3    3    0    0  0.53133556440E-01 -0.10525610233E+00 -0.69038259543E-01  0.89054382440E+00  0.88000000000E+00 0.  1.
        -11    1    4    4    0    0 -0.48122482745E-01  0.62932309594E-01  0.32436480060E-01  0.85607448835E-01  0.51100000000E-03 0.  1.
         11    1    4    4    0    0 -0.13883041025E-01  0.38414920330E-01  0.13994685223E-01  0.43180519538E-01  0.51100000000E-03 0. -1.
</event>
<event>
 8    1  0.1137518E+005  0.1043930E+01  0.7957747E-01            NaN
         13   -1    0    0    0    0  0.00000000000E+00  0.00000000000E+00  0.74505805969E-08  0.10566000000E+00  0.10566000000E+00 0.  1.
     999900   -1    0    0    0    0 -0.00000000000E+00 -0.00000000000E+00 -0.74505805969E-08  0.93827000000E+00  0.93827000000E+00 0. -1.
     999902    2    1    2    0    0 -0.14696281857E-01 -0.17788479789E-01 -0.75021946897E-02  0.10196669903E+01  0.10193782799E+01 0.  0.
     999903    2    3    3    0    0 -0.95676605320E-01 -0.71936872700E-01  0.51890160791E-01  0.13230161285E+00  0.21959087326E-01 0.  0.
         14    1    1    2    0    0  0.14696281857E-01  0.17788479789E-01  0.75021946897E-02  0.24263009681E-01  0.00000000000E+00 0.  1.
     999901    1    3    3    0    0  0.80980323463E-01  0.54148392911E-01 -0.59392355480E-01  0.88736537747E+00  0.88000000000E+00 0. -1.
        -11    1    4    4    0    0 -0.32443129801E-01 -0.35933461830E-01  0.14795530899E-01  0.50625479809E-01  0.51100000000E-03 0. -1.
         11    1    4    4    0    0 -0.63233475519E-01 -0.36003410871E-01  0.37094629892E-01  0.81676133040E-01  0.51100000000E-03 0.  1.
</event>
<event>
 8    1  0.1137518E+005  0.1043930E+01  0.7957747E-01            NaN
         13   -1    0    0    0    0  0.00000000000E+00  0.00000000000E+00  0.74505805969E-08  0.10566000000E+00  0.10566000000E+00 0. -1.
     999900   -1    0    0    0    0 -0.00000000000E+00 -0.00000000000E+00 -0.74505805969E-08  0.93827000000E+00  0.93827000000E+00 0.  1.
     999902    2    1    2    0    0 -0.99428704008E-02  0.15221083124E-01 -0.15420078647E-01  0.10200905187E+01  0.10198119167E+01 0.  0.
     999903    2    3    3    0    0 -0.32005404325E-01 -0.11013817280E+00 -0.57682586708E-01  0.12992883786E+00  0.19986472547E-01 0.  0.
         14    1    1    2    0    0  0.99428704008E-02 -0.15221083124E-01  0.15420078647E-01  0.23839481302E-01  0.00000000000E+00 0. -1.
     999901    1    3    3    0    0  0.22062533924E-01  0.12535925592E+00  0.42262508060E-01  0.89016168084E+00  0.88000000000E+00 0. -1.
        -11    1    4    4    0    0 -0.92207690768E-02 -0.31608481377E-01 -0.68137335433E-02  0.33627470364E-01  0.51100000000E-03 0. -1.
         11    1    4    4    0    0 -0.22784635248E-01 -0.78529691420E-01 -0.50868853164E-01  0.96301367493E-01  0.51100000000E-03 0.  1.
</event>
<event>
 8    1  0.1137518E+005  0.1043930E+01  0.7957747E-01            NaN
         13   -1    0    0    0    0  0.00000000000E+00  0.00000000000E+00  0.74505805969E-08  0.10566000000E+00  0.10566000000E+00 0.  1.
     999900   -1    0    0    0    0 -0.00000000000E+00 -0.00000000000E+00 -0.74505805969E-08  0.93827000000E+00  0.93827000000E+00 0.  1.
     999902    2    1    2    0    0 -0.48082478795E-02  0.74541492143E-02  0.21991155817E-01  0.10202172498E+01  0.10199416367E+01 0.  0.
     999903    2    3    3    0    0  0.64758313725E-01 -0.62675875157E-01  0.94133024603E-01  0.13175668452E+00  0.19413734108E-01 0.  0.
         14    1    1    2    0    0  0.48082478795E-02 -0.74541492143E-02 -0.21991155817E-01  0.23712750207E-01  0.00000000000E+00 0. -1.
     999901    1    3    3    0    0 -0.69566561604E-01  0.70130024371E-01 -0.72141868786E-01  0.88846056527E+00  0.88000000000E+00 0.  1.
        -11    1    4    4    0    0  0.41429696978E-01 -0.38838972296E-01  0.72100150346E-01  0.91780054268E-01  0.51100000000E-03 0. -1.
         11    1    4    4    0    0  0.23328616747E-01 -0.23836902861E-01  0.22032874257E-01  0.39976630253E-01  0.51100000000E-03 0.  1.
</event>
<event>
 8    1  0.1137518E+005  0.1043930E+01  0.7957747E-01            NaN
         13   -1    0    0    0    0  0.00000000000E+00  0.00000000000E+00  0.74505805969E-08  0.10566000000E+00  0.10566000000E+00 0.  1.
     999900   -1    0    0    0    0 -0.00000000000E+00 -0.00000000000E+00 -0.74505805969E-08  0.93827000000E+00  0.93827000000E+00 0. -1.
     999902    2    1    2    0    0 -0.10954085923E-01 -0.19495161868E-01  0.64899503275E-02  0.10206453959E+01  0.10203797584E+01 0.  0.
     999903    2    3    3    0    0 -0.12931477823E+00  0.14601720615E-01  0.10001322210E-01  0.13205990160E+00  0.20106443060E-01 0.  0.
         14    1    1    2    0    0  0.10954085923E-01  0.19495161868E-01 -0.64899503275E-02  0.23284604139E-01  0.00000000000E+00 0. -1.
     999901    1    3    3    0    0  0.11836069230E+00 -0.34096882483E-01 -0.35113718822E-02  0.88858549426E+00  0.88000000000E+00 0. -1.
        -11    1    4    4    0    0 -0.84219895457E-01  0.34452219706E-03  0.32704849881E-02  0.84285625580E-01  0.51100000000E-03 0. -1.
         11    1    4    4    0    0 -0.45094882768E-01  0.14257198418E-01  0.67308372217E-02  0.47774276021E-01  0.51100000000E-03 0.  1.
</event>
<event>
 8    1  0.1137518E+005  0.1043930E+01  0.7957747E-01            NaN
         13   -1    0    0    0    0  0.00000000000E+00  0.00000000000E+00  0.74505805969E-08  0.10566000000E+00  0.10566000000E+00 0. -1.
     999900   -1    0    0    0    0 -0.00000000000E+00 -0.00000000000E+00 -0.74505805969E-08  0.93827000000E+00  0.93827000000E+00 0.  1.
     999902    2    1    2    0    0  0.11631783366E-01 -0.19242929181E-01  0.13460584353E-01  0.10177235878E+01  0.10173861239E+01 0.  0.
     999903    2    3    3    0    0  0.92353094898E-01  0.20103293072E-01  0.87078484953E-01  0.13009548404E+00  0.20222163512E-01 0.  0.
         14    1    1    2    0    0 -0.11631783366E-01  0.19242929181E-01 -0.13460584353E-01  0.26206412171E-01  0.00000000000E+00 0.  1.
     999901    1    3    3    0    0 -0.80721311532E-01 -0.39346222253E-01 -0.73617900600E-01  0.88762810379E+00  0.88000000000E+00 0.  1.
        -11    1    4    4    0    0  0.53354743136E-01  0.21515008672E-01  0.49020580484E-01  0.75583745907E-01  0.51100000000E-03 0.  1.
         11    1    4    4    0    0  0.38998351762E-01 -0.14117156002E-02  0.38057904469E-01  0.54511738136E-01  0.51100000000E-03 0. -1.
</event>
<event>
 8    1  0.1137518E+005  0.1043930E+01  0.7957747E-01            NaN
         13   -1    0    0    0    0  0.00000000000E+00  0.00000000000E+00  0.74505805969E-08  0.10566000000E+00  0.10566000000E+00 0.  1.
     999900   -1    0    0    0    0 -0.00000000000E+00 -0.00000000000E+00 -0.74505805969E-08  0.93827000000E+00  0.93827000000E+00 0. -1.
     999902    2    1    2    0    0  0.40264899664E-02  0.19129894843E-01 -0.13123102466E-01  0.10203846965E+01  0.10201130072E+01 0.  0.
     999903    2    3    3    0    0 -0.34243009661E-01 -0.11021361234E+00  0.51291288041E-01  0.12777979446E+00  0.19423068482E-01 0.  0.
         14    1    1    2    0    0 -0.40264899664E-02 -0.19129894843E-01  0.13123102466E-01  0.23545303491E-01  0.00000000000E+00 0.  1.
     999901    1    3    3    0    0  0.38269499627E-01  0.12934350718E+00 -0.64414390507E-01  0.89260490205E+00  0.88000000000E+00 0.  1.
        -11    1    4    4    0    0 -0.97996148938E-02 -0.10806727671E-01  0.49915787396E-02  0.15427079903E-01  0.51100000000E-03 0.  1.
         11    1    4    4    0    0 -0.24443394767E-01 -0.99406884665E-01  0.46299709301E-01  0.11235271456E+00  0.51100000000E-03 0. -1.
</event>
<event>
 8    1  0.1137518E+005  0.1043930E+01  0.7957747E-01            NaN
         13   -1    0    0    0    0  0.00000000000E+00  0.00000000000E+00  0.74505805969E-08  0.10566000000E+00  0.10566000000E+00 0. -1.
     999900   -1    0    0    0    0 -0.00000000000E+00 -0.00000000000E+00 -0.74505805969E-08  0.93827000000E+00  0.93827000000E+00 0. -1.
     999902    2    1    2    0    0 -0.10228903298E-01  0.20285821619E-01 -0.36218660587E-02  0.10209242847E+01  0.10206650441E+01 0.  0.
     999903    2    3    3    0    0  0.10213147217E+00  0.59536963551E-01  0.53137912228E-01  0.13110004447E+00  0.19700160100E-01 0.  0.
         14    1    1    2    0    0  0.10228903298E-01 -0.20285821619E-01  0.36218660587E-02  0.23005715272E-01  0.00000000000E+00 0. -1.
     999901    1    3    3    0    0 -0.11236037547E+00 -0.39251141932E-01 -0.56759778287E-01  0.88982424026E+00  0.88000000000E+00 0. -1.
        -11    1    4    4    0    0  0.69877383001E-01  0.50741353056E-01  0.40059465477E-01  0.95197455115E-01  0.51100000000E-03 0. -1.
         11    1    4    4    0    0  0.32254089168E-01  0.87956104950E-02  0.13078446751E-01  0.35902589356E-01  0.51100000000E-03 0.  1.
</event>
<event>
 8    1  0.1137518E+005  0.1043930E+01  0.7957747E-01            NaN
         13   -1    0    0    0    0  0.00000000000E+00  0.00000000000E+00  0.74505805969E-08  0.10566000000E+00  0.10566000000E+00 0. -1.
     999900   -1    0    0    0    0 -0.00000000000E+00 -0.00000000000E+00 -0.74505805969E-08  0.93827000000E+00  0.93827000000E+00 0.  1.
     999902    2    1    2    0    0 -0.95680629720E-02 -0.20737976336E-02 -0.27128855986E-01  0.10150886531E+01  0.10146788410E+01 0.  0.
     999903    2    3    3    0    0  0.38788306553E-01 -0.11795011902E+00  0.37488585218E-02  0.12563989480E+00  0.18829920952E-01 0.  0.
         14    1    1    2    0    0  0.95680629720E-02  0.20737976336E-02  0.27128855986E-01  0.28841346931E-01  0.00000000000E+00 0. -1.
     999901    1    3    3    0    0 -0.48356369525E-01  0.11587632139E+00 -0.30877714508E-01  0.88944875827E+00  0.88000000000E+00 0.  1.
        -11    1    4    4    0    0  0.14914679689E-01 -0.55430353005E-01 -0.70996855183E-02  0.57841493410E-01  0.51100000000E-03 0. -1.
         11    1    4    4    0    0  0.23873626863E-01 -0.62519766016E-01  0.10848544040E-01  0.67798401390E-01  0.51100000000E-03 0.  1.
</event>
<event>
 8    1  0.1137518E+005  0.1043930E+01  0.7957747E-01            NaN
         13   -1    0    0    0    0  0.00000000000E+00  0.00000000000E+00  0.74505805969E-08  0.10566000000E+00  0.10566000000E+00 0. -1.
     999900   -1    0    0    0    0 -0.00000000000E+00 -0.00000000000E+00 -0.74505805969E-08  0.93827000000E+00  0.93827000000E+00 0. -1.
     999902    2    1    2    0    0  0.11583400389E-01  0.94688588676E-02 -0.18979359135E-01  0.10197628627E+01  0.10194764566E+01 0.  0.
     999903    2    3    3    0    0  0.12720550133E+00  0.27877082371E-01  0.24724135876E-02  0.13174962434E+00  0.19836315079E-01 0.  0.
         14    1    1    2    0    0 -0.11583400389E-01 -0.94688588676E-02  0.18979359135E-01  0.24167137315E-01  0.00000000000E+00 0. -1.
     999901    1    3    3    0    0 -0.11562210094E+00 -0.18408223504E-01 -0.21451772723E-01  0.88801323834E+00  0.88000000000E+00 0. -1.
        -11    1    4    4    0    0  0.73260755853E-01  0.87402184815E-02  0.81359181881E-02  0.74229266823E-01  0.51100000000E-03 0. -1.
         11    1    4    4    0    0  0.53944745475E-01  0.19136863890E-01 -0.56635046005E-02  0.57520357520E-01  0.51100000000E-03 0.  1.
</event>
<event>
 8    1  0.1137518E+005  0.1043930E+01  0.7957747E-01            NaN
         13   -1    0    0    0    0  0.00000000000E+00  0.00000000000E+00  0.74505805969E-08  0.10566000000E+00  0.10566000000E+00 0.  1.
     999900   -1    0    0    0    0 -0.00000000000E+00 -0.00000000000E+00 -0.74505805969E-08  0.93827000000E+00  0.93827000000E+00 0.  1.
     999902    2    1    2    0    0  0.22397662778E-01  0.93288435676E-02  0.21305800808E-02  0.10195738510E+01  0.10192828929E+01 0.  0.
     999903    2    3    3    0    0 -0.10060469992E+00  0.76244052330E-01 -0.17554520139E-01  0.12828560948E+00  0.14648387606E-01 0.  0.
         14    1    1    2    0    0 -0.22397662778E-01 -0.93288435676E-02 -0.21305800808E-02  0.24356148951E-01  0.00000000000E+00 0. -1.
     999901    1    3    3    0    0  0.12300236270E+00 -0.66915208762E-01  0.19685100220E-01  0.89128824157E+00  0.88000000000E+00 0.  1.
        -11    1    4    4    0    0 -0.71044445944E-01  0.50892249293E-01 -0.18492419125E-01  0.89328411066E-01  0.51100000000E-03 0. -1.
         11    1    4    4    0    0 -0.29560253979E-01  0.25351803037E-01  0.93789898630E-03  0.38957198411E-01  0.51100000000E-03 0.  1.
</event>
<event>
 8    1  0.1137518E+005  0.1043930E+01  0.7957747E-01            NaN
         13   -1    0    0    0    0  0.00000000000E+00  0.00000000000E+00  0.74505805969E-08  0.10566000000E+00  0.10566000000E+00 0. -1.
     999900   -1    0    0    0    0 -0.00000000000E+00 -0.00000000000E+00 -0.74505805969E-08  0.93827000000E+00  0.93827000000E+00 0.  1.
     999902    2    1    2    0    0 -0.85592233340E-02  0.24906509407E-02  0.21290920764E-01  0.10208482550E+01  0.10205872784E+01 0.  0.
     999903    2    3    3    0    0 -0.42495820363E-01  0.87285825774E-01  0.89486927679E-01  0.13349679718E+00  0.19717365535E-01 0.  0.
         14    1    1    2    0    0  0.85592233340E-02 -0.24906509407E-02 -0.21290920764E-01  0.23081745020E-01  0.00000000000E+00 0.  1.
     999901    1    3    3    0    0  0.33936597029E-01 -0.84795174833E-01 -0.68196006914E-01  0.88735145780E+00  0.88000000000E+00 0.  1.
        -11    1    4    4    0    0 -0.59561252416E-02  0.11832596219E-01  0.22791338628E-01  0.26366493863E-01  0.51100000000E-03 0.  1.
         11    1    4    4    0    0 -0.36539695121E-01  0.75453229555E-01  0.66695589051E-01  0.10713030332E+00  0.51100000000E-03 0. -1.
</event>
<event>
 8    1  0.1137518E+005  0.1043930E+01  0.7957747E-01            NaN
         13   -1    0    0    0    0  0.00000000000E+00  0.00000000000E+00  0.74505805969E-08  0.10566000000E+00  0.10566000000E+00 0. -1.
     999900   -1    0    0    0    0 -0.00000000000E+00 -0.00000000000E+00 -0.74505805969E-08  0.93827000000E+00  0.93827000000E+00 0.  1.
     999902    2    1    2    0    0  0.30011322945E-02  0.22444440144E-01 -0.11034543188E-01  0.10187403031E+01  0.10184288312E+01 0.  0.
     999903    2    3    3    0    0 -0.11463407366E+00  0.57962753574E-01 -0.70807270864E-02  0.13019361046E+00  0.19989693957E-01 0.  0.
         14    1    1    2    0    0 -0.30011322945E-02 -0.22444440144E-01  0.11034543188E-01  0.25189696937E-01  0.00000000000E+00 0. -1.
     999901    1    3    3    0    0  0.11763520595E+00 -0.35518313430E-01 -0.39538161013E-02  0.88854669260E+00  0.88000000000E+00 0. -1.
        -11    1    4    4    0    0 -0.33863186043E-01  0.13880992806E-01 -0.10607917649E-01  0.38107563135E-01  0.51100000000E-03 0.  1.
         11    1    4    4    0    0 -0.80770887613E-01  0.44081760768E-01  0.35271905624E-02  0.92086047328E-01  0.51100000000E-03 0. -1.
</event>
<event>
 8    1  0.1137518E+005  0.1043930E+01  0.7957747E-01            NaN
         13   -1    0    0    0    0  0.00000000000E+00  0.00000000000E+00  0.74505805969E-08  0.10566000000E+00  0.10566000000E+00 0.  1.
     999900   -1    0    0    0    0 -0.00000000000E+00 -0.00000000000E+00 -0.74505805969E-08  0.93827000000E+00  0.93827000000E+00 0. -1.
     999902    2    1    2    0    0 -0.14847517844E-02 -0.23887492835E-01  0.13115462062E-02  0.10199604995E+01  0.10196788139E+01 0.  0.
     999903    2    3    3    0    0  0.89727181016E-01 -0.67905491456E-01 -0.65758419746E-01  0.13161620743E+00  0.18344849604E-01 0.  0.
         14    1    1    2    0    0  0.14847517844E-02  0.23887492835E-01 -0.13115462062E-02  0.23969500522E-01  0.00000000000E+00 0. -1.
     999901    1    3    3    0    0 -0.91211932800E-01  0.44017998620E-01  0.67069965952E-01  0.88834429205E+00  0.88000000000E+00 0.  1.
        -11    1    4    4    0    0  0.78201087070E-01 -0.56074498450E-01 -0.48641844630E-01  0.10782416040E+00  0.51100000000E-03 0. -1.
         11    1    4    4    0    0  0.11526093946E-01 -0.11830993005E-01 -0.17116575116E-01  0.23792047029E-01  0.51100000000E-03 0.  1.
</event>
<event>
 8    1  0.1137518E+005  0.1043930E+01  0.7957747E-01            NaN
         13   -1    0    0    0    0  0.00000000000E+00  0.00000000000E+00  0.74505805969E-08  0.10566000000E+00  0.10566000000E+00 0.  1.
     999900   -1    0    0    0    0 -0.00000000000E+00 -0.00000000000E+00 -0.74505805969E-08  0.93827000000E+00  0.93827000000E+00 0. -1.
     999902    2    1    2    0    0  0.22086275985E-01  0.10121133099E-01  0.12944860647E-02  0.10196006635E+01  0.10193103533E+01 0.  0.
     999903    2    3    3    0    0  0.34841012436E-01  0.71744463295E-01 -0.10227969143E+00  0.13129456286E+00  0.20395166042E-01 0.  0.
         14    1    1    2    0    0 -0.22086275985E-01 -0.10121133099E-01 -0.12944860647E-02  0.24329336535E-01  0.00000000000E+00 0. -1.
     999901    1    3    3    0    0 -0.12754736451E-01 -0.61623330196E-01  0.10357417749E+00  0.88830610060E+00  0.88000000000E+00 0.  1.
        -11    1    4    4    0    0  0.70819802171E-02  0.29578926177E-01 -0.50659160521E-01  0.59090430556E-01  0.51100000000E-03 0. -1.
         11    1    4    4    0    0  0.27759032218E-01  0.42165537118E-01 -0.51620530904E-01  0.72204132305E-01  0.51100000000E-03 0.  1.
</event>
<event>
 8    1  0.1137518E+005  0.1043930E+01  0.7957747E-01            NaN
         13   -1    0    0    0    0  0.00000000000E+00  0.00000000000E+00  0.74505805969E-08  0.10566000000E+00  0.10566000000E+00 0. -1.
     999900   -1    0    0    0    0 -0.00000000000E+00 -0.00000000000E+00 -0.74505805969E-08  0.93827000000E+00  0.93827000000E+00 0. -1.
     999902    2    1    2    0    0 -0.11740311922E-02  0.22891841661E-02  0.22830614539E-01  0.10209548901E+01  0.10206963466E+01 0.  0.
     999903    2    3    3    0    0 -0.82695288654E-01 -0.78174120119E-01  0.64823608146E-01  0.13253861930E+00  0.20363732760E-01 0.  0.
         14    1    1    2    0    0  0.11740311922E-02 -0.22891841661E-02 -0.22830614539E-01  0.22975109871E-01  0.00000000000E+00 0.  1.
     999901    1    3    3    0    0  0.81521257462E-01  0.80463304285E-01 -0.41992993607E-01  0.88841627083E+00  0.88000000000E+00 0. -1.
        -11    1    4    4    0    0 -0.51990403994E-01 -0.55299193551E-01  0.33074348907E-01  0.82795993813E-01  0.51100000000E-03 0.  1.
         11    1    4    4    0    0 -0.30704884660E-01 -0.22874926568E-01  0.31749259239E-01  0.49742625491E-01  0.51100000000E-03 0. -1.
</event>
<event>
 8    1  0.1137518E+005  0.1043930E+01  0.7957747E-01            NaN
         13   -1    0    0    0    0  0.00000000000E+00  0.00000000000E+00  0.74505805969E-08  0.10566000000E+00  0.10566000000E+00 0. -1.
     999900   -1    0    0    0    0 -0.00000000000E+00 -0.00000000000E+00 -0.74505805969E-08  0.93827000000E+00  0.93827000000E+00 0. -1.
     999902    2    1    2    0    0 -0.65210670976E-02  0.20281264968E-01 -0.69091158216E-02  0.10215337971E+01  0.10212882593E+01 0.  0.
     999903    2    3    3    0    0  0.51384444843E-01 -0.30850040593E-01  0.11366636533E+00  0.12995883926E+00  0.19420893822E-01 0.  0.
         14    1    1    2    0    0  0.65210670976E-02 -0.20281264968E-01  0.69091158216E-02  0.22396202942E-01  0.00000000000E+00 0. -1.
     999901    1    3    3    0    0 -0.57905511940E-01  0.51131305561E-01 -0.12057548115E+00  0.89157495780E+00  0.88000000000E+00 0. -1.
        -11    1    4    4    0    0  0.13383946567E-01 -0.13375830694E-01  0.52924949421E-01  0.56208133439E-01  0.51100000000E-03 0. -1.
         11    1    4    4    0    0  0.38000498276E-01 -0.17474209899E-01  0.60741415911E-01  0.73750705819E-01  0.51100000000E-03 0.  1.
</event>
<event>
 8    1  0.1137518E+005  0.1043930E+01  0.7957747E-01            NaN
         13   -1    0    0    0    0  0.00000000000E+00  0.00000000000E+00  0.74505805969E-08  0.10566000000E+00  0.10566000000E+00 0.  1.
     999900   -1    0    0    0    0 -0.00000000000E+00 -0.00000000000E+00 -0.74505805969E-08  0.93827000000E+00  0.93827000000E+00 0. -1.
     999902    2    1    2    0    0 -0.73064031435E-03 -0.33194403474E-02 -0.22970101445E-01  0.10207097916E+01  0.10204456382E+01 0.  0.
     999903    2    3    3    0    0 -0.12257563624E+00  0.17428711646E-01 -0.40871392338E-01  0.13189195586E+00  0.19911572527E-01 0.  0.
         14    1    1    2    0    0  0.73064031435E-03  0.33194403474E-02  0.22970101445E-01  0.23220208437E-01  0.00000000000E+00 0.  1.
     999901    1    3    3    0    0  0.12184499592E+00 -0.20748151993E-01  0.17901290893E-01  0.88881783570E+00  0.88000000000E+00 0.  1.
        -11    1    4    4    0    0 -0.72663423190E-01  0.20089263078E-01 -0.23346927091E-01  0.78923327897E-01  0.51100000000E-03 0. -1.
         11    1    4    4    0    0 -0.49912213049E-01 -0.26605514318E-02 -0.17524465247E-01  0.52968627966E-01  0.51100000000E-03 0.  1.
</event>
<event>
 8    1  0.1137518E+005  0.1043930E+01  0.7957747E-01            NaN
         13   -1    0    0    0    0  0.00000000000E+00  0.00000000000E+00  0.74505805969E-08  0.10566000000E+00  0.10566000000E+00 0.  1.
     999900   -1    0    0    0    0 -0.00000000000E+00 -0.00000000000E+00 -0.74505805969E-08  0.93827000000E+00  0.93827000000E+00 0. -1.
     999902    2    1    2    0    0 -0.15888499604E-01 -0.15566908000E-01  0.66314704172E-02  0.10207190232E+01  0.10204550822E+01 0.  0.
     999903    2    3    3    0    0  0.30449534390E-01 -0.12315335932E+00 -0.30202760958E-01  0.13219281733E+00  0.21652023639E-01 0.  0.
         14    1    1    2    0    0  0.15888499604E-01  0.15566908000E-01 -0.66314704172E-02  0.23210976805E-01  0.00000000000E+00 0. -1.
     999901    1    3    3    0    0 -0.46338033995E-01  0.10758645132E+00  0.36834231375E-01  0.88852620586E+00  0.88000000000E+00 0. -1.
        -11    1    4    4    0    0  0.94074777984E-03 -0.38437028761E-01 -0.14630662900E-01  0.41141312622E-01  0.51100000000E-03 0.  1.
         11    1    4    4    0    0  0.29508786611E-01 -0.84716330563E-01 -0.15572098058E-01  0.91051504711E-01  0.51100000000E-03 0. -1.
</event>
<event>
 8    1  0.1137518E+005  0.1043930E+01  0.7957747E-01            NaN
         13   -1    0    0    0    0  0.00000000000E+00  0.00000000000E+00  0.74505805969E-08  0.10566000000E+00  0.10566000000E+00 0. -1.
     999900   -1    0    0    0    0 -0.00000000000E+00 -0.00000000000E+00 -0.74505805969E-08  0.93827000000E+00  0.93827000000E+00 0.  1.
     999902    2    1    2    0    0 -0.19280859798E-01 -0.48847131070E-02 -0.12522397754E-01  0.10204263317E+01  0.10201556137E+01 0.  0.
     999903    2    3    3    0    0 -0.12456614676E+00  0.23431998671E-01  0.32609101659E-01  0.13255039442E+00  0.20987378778E-01 0.  0.
         14    1    1    2    0    0  0.19280859798E-01  0.48847131070E-02  0.12522397754E-01  0.23503668271E-01  0.00000000000E+00 0. -1.
     999901    1    3    3    0    0  0.10528528697E+00 -0.28316711778E-01 -0.45131499413E-01  0.88787593731E+00  0.88000000000E+00 0. -1.
        -11    1    4    4    0    0 -0.54741551369E-01  0.19619801584E-01  0.96586950516E-02  0.58950195687E-01  0.51100000000E-03 0. -1.
         11    1    4    4    0    0 -0.69824595395E-01  0.38121970868E-02  0.22950406607E-01  0.73600198731E-01  0.51100000000E-03 0.  1.
</event>
<event>
 8    1  0.1137518E+005  0.1043930E+01  0.7957747E-01            NaN
         13   -1    0    0    0    0  0.00000000000E+00  0.00000000000E+00  0.74505805969E-08  0.10566000000E+00  0.10566000000E+00 0. -1.
     999900   -1    0    0    0    0 -0.00000000000E+00 -0.00000000000E+00 -0.74505805969E-08  0.93827000000E+00  0.93827000000E+00 0.  1.
     999902    2    1    2    0    0 -0.16334391403E-01 -0.12007983180E-01 -0.10978621672E-01  0.10208749759E+01  0.10206146101E+01 0.  0.
     999903    2    3    3    0    0  0.35505541550E-01 -0.52269570598E-01  0.11221202997E+00  0.12987311803E+00  0.16814744297E-01 0.  0.
         14    1    1    2    0    0  0.16334391403E-01  0.12007983180E-01  0.10978621672E-01  0.23055024103E-01  0.00000000000E+00 0. -1.
     999901    1    3    3    0    0 -0.51839932953E-01  0.40261587418E-01 -0.12319065164E+00  0.89100185787E+00  0.88000000000E+00 0.  1.
        -11    1    4    4    0    0  0.59824903149E-02 -0.73799451503E-02  0.31555996124E-01  0.32959001701E-01  0.51100000000E-03 0.  1.
         11    1    4    4    0    0  0.29523051235E-01 -0.44889625448E-01  0.80656033845E-01  0.96914116329E-01  0.51100000000E-03 0. -1.
</event>
<event>
 8    1  0.1137518E+005  0.1043930E+01  0.7957747E-01            NaN
         13   -1    0    0    0    0  0.00000000000E+00  0.00000000000E+00  0.74505805969E-08  0.10566000000E+00  0.10566000000E+00 0.  1.
     999900   -1    0    0    0    0 -0.00000000000E+00 -0.00000000000E+00 -0.74505805969E-08  0.93827000000E+00  0.93827000000E+00 0. -1.
     999902    2    1    2    0    0 -0.16906527810E-01  0.11873750471E-02  0.18002526540E-01  0.10192048811E+01  0.10189049309E+01 0.  0.
     999903    2    3    3    0    0  0.46880941657E-01  0.94567108197E-01  0.73639994111E-01  0.13022561048E+00  0.19877128776E-01 0.  0.
         14    1    1    2    0    0  0.16906527810E-01 -0.11873750471E-02 -0.18002526540E-01  0.24725118886E-01  0.00000000000E+00 0. -1.
     999901    1    3    3    0    0 -0.63787469466E-01 -0.93379733150E-01 -0.55637467570E-01  0.88897927064E+00  0.88000000000E+00 0. -1.
        -11    1    4    4    0    0  0.16757934324E-01  0.16235559635E-01  0.18833055238E-01  0.29989445645E-01  0.51100000000E-03 0.  1.
         11    1    4    4    0    0  0.30123007332E-01  0.78331548562E-01  0.54806938873E-01  0.10023616483E+00  0.51100000000E-03 0. -1.
</event>
<event>
 8    1  0.1137518E+005  0.1043930E+01  0.7957747E-01            NaN
         13   -1    0    0    0    0  0.00000000000E+00  0.00000000000E+00  0.74505805969E-08  0.10566000000E+00  0.10566000000E+00 0.  1.
     999900   -1    0    0    0    0 -0.00000000000E+00 -0.00000000000E+00 -0.74505805969E-08  0.93827000000E+00  0.93827000000E+00 0.  1.
     999902    2    1    2    0    0 -0.19733471139E-01 -0.57687255161E-02  0.13130461499E-01  0.10195353880E+01  0.10192434990E+01 0.  0.
     999903    2    3    3    0    0 -0.71583382512E-01  0.10355242977E+00  0.30293234741E-01  0.13109062936E+00  0.20488696202E-01 0.  0.
         14    1    1    2    0    0  0.19733471139E-01  0.57687255161E-02 -0.13130461499E-01  0.24394612037E-01  0.00000000000E+00 0.  1.
     999901    1    3    3    0    0  0.51849911373E-01 -0.10932115529E+00 -0.17162773242E-01  0.88844475860E+00  0.88000000000E+00 0. -1.
        -11    1    4    4    0    0 -0.60944764276E-02  0.20051149595E-01  0.92059578497E-02  0.22895458588E-01  0.51100000000E-03 0.  1.
         11    1    4    4    0    0 -0.65488906084E-01  0.83501280175E-01  0.21087276891E-01  0.10819517077E+00  0.51100000000E-03 0. -1.
</event>
<event>
 8    1  0.1137518E+005  0.1043930E+01  0.7957747E-01            NaN
         13   -1    0    0    0    0  0.00000000000E+00  0.00000000000E+00  0.74505805969E-08  0.10566000000E+00  0.10566000000E+00 0.  1.
     999900   -1    0    0    0    0 -0.00000000000E+00 -0.00000000000E+00 -0.74505805969E-08  0.93827000000E+00  0.93827000000E+00 0.  1.
     999902    2    1    2    0    0 -0.19485186862E-01 -0.96341754051E-02  0.84403515267E-02  0.10206119946E+01  0.10203455856E+01 0.  0.
     999903    2    3    3    0    0  0.65449537427E-01 -0.10501579223E+00  0.37281996188E-01  0.13092474578E+00  0.20961470598E-01 0.  0.
         14    1    1    2    0    0  0.19485186862E-01  0.96341754051E-02 -0.84403515267E-02  0.23318005418E-01  0.00000000000E+00 0. -1.
     999901    1    3    3    0    0 -0.84934724289E-01  0.95381616827E-01 -0.28841644661E-01  0.88968724880E+00  0.88000000000E+00 0.  1.
        -11    1    4    4    0    0  0.21349743427E-01 -0.47470117078E-01  0.23556465171E-01  0.57134855667E-01  0.51100000000E-03 0. -1.
         11    1    4    4    0    0  0.44099793999E-01 -0.57545675154E-01  0.13725531017E-01  0.73789890110E-01  0.51100000000E-03 0.  1.
</event>
<event>
 8    1  0.1137518E+005  0.1043930E+01  0.7957747E-01            NaN
         13   -1    0    0    0    0  0.00000000000E+00  0.00000000000E+00  0.74505805969E-08  0.10566000000E+00  0.10566000000E+00 0.  1.
     999900   -1    0    0    0    0 -0.00000000000E+00 -0.00000000000E+00 -0.74505805969E-08  0.93827000000E+00  0.93827000000E+00 0. -1.
     999902    2    1    2    0    0  0.16558504712E-01 -0.12688705902E-01  0.99477302656E-02  0.10208184299E+01  0.10205567706E+01 0.  0.
     999903    2    3    3    0    0 -0.12538794161E+00 -0.16756430036E-01  0.18701262935E-01  0.12939150392E+00  0.19736012852E-01 0.  0.
         14    1    1    2    0    0 -0.16558504712E-01  0.12688705902E-01 -0.99477302656E-02  0.23111570115E-01  0.00000000000E+00 0. -1.
     999901    1    3    3    0    0  0.14194644632E+00  0.40677241343E-02 -0.87535326691E-02  0.89142692597E+00  0.88000000000E+00 0. -1.
        -11    1    4    4    0    0 -0.39484640461E-01  0.37980882998E-02  0.44377366385E-02  0.39917626865E-01  0.51100000000E-03 0. -1.
         11    1    4    4    0    0 -0.85903301146E-01 -0.20554518336E-01  0.14263526296E-01  0.89473877054E-01  0.51100000000E-03 0.  1.
</event>
<event>
 8    1  0.1137518E+005  0.1043930E+01  0.7957747E-01            NaN
         13   -1    0    0    0    0  0.00000000000E+00  0.00000000000E+00  0.74505805969E-08  0.10566000000E+00  0.10566000000E+00 0.  1.
     999900   -1    0    0    0    0 -0.00000000000E+00 -0.00000000000E+00 -0.74505805969E-08  0.93827000000E+00  0.93827000000E+00 0. -1.
     999902    2    1    2    0    0 -0.84683244756E-02 -0.20142239983E-01  0.70689509979E-02  0.10209649740E+01  0.10207066600E+01 0.  0.
     999903    2    3    3    0    0 -0.12192136144E+00  0.83651245643E-03 -0.45878878862E-01  0.13185577242E+00  0.20385167796E-01 0.  0.
         14    1    1    2    0    0  0.84683244756E-02  0.20142239983E-01 -0.70689509979E-02  0.22965026000E-01  0.00000000000E+00 0. -1.
     999901    1    3    3    0    0  0.11345303696E+00 -0.20978752440E-01  0.52947829860E-01  0.88910920158E+00  0.88000000000E+00 0. -1.
        -11    1    4    4    0    0 -0.71959250857E-01  0.10507115990E-01 -0.27185202537E-01  0.77639098580E-01  0.51100000000E-03 0. -1.
         11    1    4    4    0    0 -0.49962110583E-01 -0.96706035339E-02 -0.18693676325E-01  0.54216673838E-01  0.51100000000E-03 0.  1.
</event>
<event>
 8    1  0.1137518E+005  0.1043930E+01  0.7957747E-01            NaN
         13   -1    0    0    0    0  0.00000000000E+00  0.00000000000E+00  0.74505805969E-08  0.10566000000E+00  0.10566000000E+00 0.  1.
     999900   -1    0    0    0    0 -0.00000000000E+00 -0.00000000000E+00 -0.74505805969E-08  0.93827000000E+00  0.93827000000E+00 0.  1.
     999902    2    1    2    0    0  0.80779825701E-02  0.22234228290E-01 -0.36621305014E-02  0.10199920404E+01  0.10197111045E+01 0.  0.
     999903    2    3    3    0    0  0.26664486065E-01  0.32930680116E-01 -0.12321827174E+00  0.13164889549E+00  0.18795336766E-01 0.  0.
         14    1    1    2    0    0 -0.80779825701E-02 -0.22234228290E-01  0.36621305014E-02  0.23937959601E-01  0.00000000000E+00 0.  1.
     999901    1    3    3    0    0 -0.18586503495E-01 -0.10696451826E-01  0.11955614124E+00  0.88834314491E+00  0.88000000000E+00 0. -1.
        -11    1    4    4    0    0  0.21080847401E-02  0.11195159020E-01 -0.52081848663E-01  0.53315623300E-01  0.51100000000E-03 0.  1.
         11    1    4    4    0    0  0.24556401325E-01  0.21735521096E-01 -0.71136423076E-01  0.78333272193E-01  0.51100000000E-03 0. -1.
</event>
<event>
 8    1  0.1137518E+005  0.1043930E+01  0.7957747E-01            NaN
         13   -1    0    0    0    0  0.00000000000E+00  0.00000000000E+00  0.74505805969E-08  0.10566000000E+00  0.10566000000E+00 0. -1.
     999900   -1    0    0    0    0 -0.00000000000E+00 -0.00000000000E+00 -0.74505805969E-08  0.93827000000E+00  0.93827000000E+00 0.  1.
     999902    2    1    2    0    0  0.12695699269E-01 -0.19898235416E-01 -0.28899257884E-02  0.10201503401E+01  0.10198731511E+01 0.  0.
     999903    2    3    3    0    0  0.10045712704E+00  0.56407573460E-01  0.57878527605E-01  0.13042147716E+00  0.19656780765E-01 0.  0.
         14    1    1    2    0    0 -0.12695699269E-01  0.19898235416E-01  0.28899257884E-02  0.23779659873E-01  0.00000000000E+00 0.  1.
     999901    1    3    3    0    0 -0.87761427768E-01 -0.76305808876E-01 -0.60768453393E-01  0.88972886297E+00  0.88000000000E+00 0.  1.
        -11    1    4    4    0    0  0.38528995220E-01  0.32686637640E-01  0.26464968936E-01  0.57039946131E-01  0.51100000000E-03 0. -1.
         11    1    4    4    0    0  0.61928131817E-01  0.23720935820E-01  0.31413558669E-01  0.73381531027E-01  0.51100000000E-03 0.  1.
</event>
<event>
 8    1  0.1137518E+005  0.1043930E+01  0.7957747E-01            NaN
         13   -1    0    0    0    0  0.00000000000E+00  0.00000000000E+00  0.74505805969E-08  0.10566000000E+00  0.10566000000E+00 0. -1.
     999900   -1    0    0    0    0 -0.00000000000E+00 -0.00000000000E+00 -0.74505805969E-08  0.93827000000E+00  0.93827000000E+00 0.  1.
     999902    2    1    2    0    0 -0.14730031175E-01 -0.76496226560E-02  0.17068851135E-01  0.10201216774E+01  0.10198438118E+01 0.  0.
     999903    2    3    3    0    0  0.80258162084E-01 -0.83264014561E-01  0.58012803358E-01  0.13084292452E+00  0.19496585409E-01 0.  0.
         14    1    1    2    0    0  0.14730031175E-01  0.76496226560E-02 -0.17068851135E-01  0.23808322584E-01  0.00000000000E+00 0.  1.
     999901    1    3    3    0    0 -0.94988193259E-01  0.75614391904E-01 -0.40943952223E-01  0.88927875289E+00  0.88000000000E+00 0.  1.
        -11    1    4    4    0    0  0.67693719720E-01 -0.72249778468E-01  0.41527275872E-01  0.10736501265E+00  0.51100000000E-03 0. -1.
         11    1    4    4    0    0  0.12564442365E-01 -0.11014236092E-01  0.16485527486E-01  0.23477911878E-01  0.51100000000E-03 0.  1.
</event>
<event>
 8    1  0.1576963E+005  0.1043930E+01  0.7957747E-01            NaN
         13   -1    0    0    0    0  0.00000000000E+00  0.00000000000E+00  0.74505805969E-08  0.10566000000E+00  0.10566000000E+00 0.  1.
     999900   -1    0    0    0    0 -0.00000000000E+00 -0.00000000000E+00 -0.74505805969E-08  0.93827000000E+00  0.93827000000E+00 0. -1.
     999902    2    1    2    0    0 -0.11150156275E-01 -0.20696364840E-01 -0.60791112916E-02  0.10196478853E+01  0.10193587145E+01 0.  0.
     999903    2    3    3    0    0  0.58538048661E-02  0.31511953406E-02 -0.12896495379E+00  0.13062664191E+00  0.19676463307E-01 0.  0.
         14    1    1    2    0    0  0.11150156275E-01  0.20696364840E-01  0.60791112916E-02  0.24282114748E-01  0.00000000000E+00 0. -1.
     999901    1    3    3    0    0 -0.17003961141E-01 -0.23847560180E-01  0.12288584250E+00  0.88902124334E+00  0.88000000000E+00 0.  1.
        -11    1    4    4    0    0  0.92396262503E-02 -0.57166774119E-02 -0.56153031039E-01  0.57196810311E-01  0.51100000000E-03 0. -1.
         11    1    4    4    0    0 -0.33858213842E-02  0.88678727525E-02 -0.72811922750E-01  0.73429831602E-01  0.51100000000E-03 0.  1.
</event>
<event>
 8    1  0.1137518E+005  0.1043930E+01  0.7957747E-01            NaN
         13   -1    0    0    0    0  0.00000000000E+00  0.00000000000E+00  0.74505805969E-08  0.10566000000E+00  0.10566000000E+00 0.  1.
     999900   -1    0    0    0    0 -0.00000000000E+00 -0.00000000000E+00 -0.74505805969E-08  0.93827000000E+00  0.93827000000E+00 0. -1.
     999902    2    1    2    0    0 -0.17895441706E-01 -0.13637514172E-01  0.84520218199E-02  0.10198953313E+01  0.10196120936E+01 0.  0.
     999903    2    3    3    0    0  0.80362738475E-02  0.36422495623E-01  0.12354231212E+00  0.13061234295E+00  0.20142029734E-01 0.  0.
         14    1    1    2    0    0  0.17895441706E-01  0.13637514172E-01 -0.84520218199E-02  0.24034668699E-01  0.00000000000E+00 0. -1.
     999901    1    3    3    0    0 -0.25931715553E-01 -0.50060009795E-01 -0.11509029030E+00  0.88928298835E+00  0.88000000000E+00 0. -1.
        -11    1    4    4    0    0  0.20393750775E-02  0.36209839600E-01  0.10883380747E+00  0.11471865717E+00  0.51100000000E-03 0.  1.
         11    1    4    4    0    0  0.59968987699E-02  0.21265602306E-03  0.14708504652E-01  0.15893685776E-01  0.51100000000E-03 0. -1.
</event>
<event>
 8    1  0.1137518E+005  0.1043930E+01  0.7957747E-01            NaN
         13   -1    0    0    0    0  0.00000000000E+00  0.00000000000E+00  0.74505805969E-08  0.10566000000E+00  0.10566000000E+00 0. -1.
     999900   -1    0    0    0    0 -0.00000000000E+00 -0.00000000000E+00 -0.74505805969E-08  0.93827000000E+00  0.93827000000E+00 0.  1.
     999902    2    1    2    0    0  0.17950308515E-02 -0.12413988570E-02  0.25570623740E-01  0.10182664070E+01  0.10179429530E+01 0.  0.
     999903    2    3    3    0    0  0.75922609339E-01 -0.55040840344E-01  0.89468642305E-01  0.13120821581E+00  0.20425993850E-01 0.  0.
         14    1    1    2    0    0 -0.17950308515E-02  0.12413988570E-02 -0.25570623740E-01  0.25663592994E-01  0.00000000000E+00 0.  1.
     999901    1    3    3    0    0 -0.74127578487E-01  0.53799441487E-01 -0.63898018565E-01  0.88705819120E+00  0.88000000000E+00 0.  1.
        -11    1    4    4    0    0  0.58218281609E-01 -0.42650630690E-01  0.55925190765E-01  0.91303519619E-01  0.51100000000E-03 0.  1.
         11    1    4    4    0    0  0.17704327730E-01 -0.12390209654E-01  0.33543451540E-01  0.39904696188E-01  0.51100000000E-03 0. -1.
</event>
<event>
 8    1  0.1137518E+005  0.1043930E+01  0.7957747E-01            NaN
         13   -1    0    0    0    0  0.00000000000E+00  0.00000000000E+00  0.74505805969E-08  0.10566000000E+00  0.10566000000E+00 0. -1.
     999900   -1    0    0    0    0 -0.00000000000E+00 -0.00000000000E+00 -0.74505805969E-08  0.93827000000E+00  0.93827000000E+00 0. -1.
     999902    2    1    2    0    0  0.21066684786E-01  0.78980214438E-02  0.72938108272E-02  0.10202787077E+01  0.10200045381E+01 0.  0.
     999903    2    3    3    0    0 -0.49441549680E-01  0.52002999217E-01 -0.10579112675E+00  0.12915309182E+00  0.18438542934E-01 0.  0.
         14    1    1    2    0    0 -0.21066684786E-01 -0.78980214438E-02 -0.72938108272E-02  0.23651292290E-01  0.00000000000E+00 0.  1.
     999901    1    3    3    0    0  0.70508234466E-01 -0.44104977773E-01  0.11308493757E+00  0.89112561589E+00  0.88000000000E+00 0.  1.
        -11    1    4    4    0    0 -0.25321663545E-01  0.39394657858E-01 -0.68700206864E-01  0.83145085583E-01  0.51100000000E-03 0.  1.
         11    1    4    4    0    0 -0.24119886135E-01  0.12608341359E-01 -0.37090919883E-01  0.46008006236E-01  0.51100000000E-03 0. -1.
</event>
<event>
 8    1  0.1137518E+005  0.1043930E+01  0.7957747E-01            NaN
         13   -1    0    0    0    0  0.00000000000E+00  0.00000000000E+00  0.74505805969E-08  0.10566000000E+00  0.10566000000E+00 0.  1.
     999900   -1    0    0    0    0 -0.00000000000E+00 -0.00000000000E+00 -0.74505805969E-08  0.93827000000E+00  0.93827000000E+00 0. -1.
     999902    2    1    2    0    0 -0.15545212009E-01  0.52761452882E-02  0.17418278650E-01  0.10199949262E+01  0.10197140588E+01 0.  0.
     999903    2    3    3    0    0 -0.28039429789E-01 -0.30405261486E-01 -0.12106885092E+00  0.12836274123E+00  0.10422913366E-01 0.  0.
         14    1    1    2    0    0  0.15545212009E-01 -0.52761452882E-02 -0.17418278650E-01  0.23935073775E-01  0.00000000000E+00 0. -1.
     999901    1    3    3    0    0  0.12494217781E-01  0.35681406774E-01  0.13848712957E+00  0.89163218500E+00  0.88000000000E+00 0.  1.
        -11    1    4    4    0    0 -0.11411773446E-01 -0.19671919589E-01 -0.69262833535E-01  0.72902772401E-01  0.51100000000E-03 0.  1.
         11    1    4    4    0    0 -0.16627656343E-01 -0.10733341897E-01 -0.51806017386E-01  0.55459968826E-01  0.51100000000E-03 0. -1.
</event>
<event>
 8    1  0.1137518E+005  0.1043930E+01  0.7957747E-01            NaN
         13   -1    0    0    0    0  0.00000000000E+00  0.00000000000E+00  0.74505805969E-08  0.10566000000E+00  0.10566000000E+00 0.  1.
     999900   -1    0    0    0    0 -0.00000000000E+00 -0.00000000000E+00 -0.74505805969E-08  0.93827000000E+00  0.93827000000E+00 0.  1.
     999902    2    1    2    0    0  0.17724697637E-01  0.63266719260E-02  0.14438680973E-01  0.10202093931E+01  0.10199335952E+01 0.  0.
     999903    2    3    3    0    0  0.22913691595E-01  0.16269450873E-01  0.12802517810E+00  0.13283817604E+00  0.21582457995E-01 0.  0.
         14    1    1    2    0    0 -0.17724697637E-01 -0.63266719260E-02 -0.14438680973E-01  0.23720606911E-01  0.00000000000E+00 0.  1.
     999901    1    3    3    0    0 -0.51889939577E-02 -0.99427789468E-02 -0.11358649713E+00  0.88737121705E+00  0.88000000000E+00 0.  1.
        -11    1    4    4    0    0  0.18543723141E-02  0.13775232616E-01  0.42328477247E-01  0.44555098893E-01  0.51100000000E-03 0.  1.
         11    1    4    4    0    0  0.21059319281E-01  0.24942182567E-02  0.85696700852E-01  0.88283077151E-01  0.51100000000E-03 0. -1.
</event>
<event>
 8    1  0.1137518E+005  0.1043930E+01  0.7957747E-01            NaN
         13   -1    0    0    0    0  0.00000000000E+00  0.00000000000E+00  0.74505805969E-08  0.10566000000E+00  0.10566000000E+00 0.  1.
     999900   -1    0    0    0    0 -0.00000000000E+00 -0.00000000000E+00 -0.74505805969E-08  0.93827000000E+00  0.93827000000E+00 0. -1.
     999902    2    1    2    0    0 -0.15051373616E-02  0.12975609831E-01 -0.19473967407E-01  0.10204807506E+01  0.10202112993E+01 0.  0.
     999903    2    3    3    0    0 -0.20734441166E-01 -0.10730104867E+00  0.63971979469E-01  0.12818065160E+00  0.19860342173E-01 0.  0.
         14    1    1    2    0    0  0.15051373616E-02 -0.12975609831E-01  0.19473967407E-01  0.23449249360E-01  0.00000000000E+00 0.  1.
     999901    1    3    3    0    0  0.19229303804E-01  0.12027665850E+00 -0.83445946876E-01  0.89230009904E+00  0.88000000000E+00 0. -1.
        -11    1    4    4    0    0 -0.14686415552E-01 -0.46956441196E-01  0.19285835087E-01  0.52846974630E-01  0.51100000000E-03 0. -1.
         11    1    4    4    0    0 -0.60480256141E-02 -0.60344607470E-01  0.44686144382E-01  0.75333676966E-01  0.51100000000E-03 0.  1.
</event>
<event>
 8    1  0.1137518E+005  0.1043930E+01  0.7957747E-01            NaN
         13   -1    0    0    0    0  0.00000000000E+00  0.00000000000E+00  0.74505805969E-08  0.10566000000E+00  0.10566000000E+00 0.  1.
     999900   -1    0    0    0    0 -0.00000000000E+00 -0.00000000000E+00 -0.74505805969E-08  0.93827000000E+00  0.93827000000E+00 0.  1.
     999902    2    1    2    0    0 -0.16488123545E-01  0.19997002467E-01  0.78379122921E-02  0.10168528658E+01  0.10164922919E+01 0.  0.
     999903    2    3    3    0    0 -0.65675482205E-01 -0.51944468550E-01  0.95272752476E-01  0.12823606271E+00  0.18870443564E-01 0.  0.
         14    1    1    2    0    0  0.16488123545E-01 -0.19997002467E-01 -0.78379122921E-02  0.27077134169E-01  0.00000000000E+00 0. -1.
     999901    1    3    3    0    0  0.49187358659E-01  0.71941471017E-01 -0.87434840184E-01  0.88861680312E+00  0.88000000000E+00 0.  1.
        -11    1    4    4    0    0 -0.14323167219E-01 -0.22013461293E-01  0.32457336274E-01  0.41755064319E-01  0.51100000000E-03 0.  1.
         11    1    4    4    0    0 -0.51352314985E-01 -0.29931007258E-01  0.62815416202E-01  0.86480998395E-01  0.51100000000E-03 0. -1.
</event>
<event>
 8    1  0.1137518E+005  0.1043930E+01  0.7957747E-01            NaN
         13   -1    0    0    0    0  0.00000000000E+00  0.00000000000E+00  0.74505805969E-08  0.10566000000E+00  0.10566000000E+00 0. -1.
     999900   -1    0    0    0    0 -0.00000000000E+00 -0.00000000000E+00 -0.74505805969E-08  0.93827000000E+00  0.93827000000E+00 0.  1.
     999902    2    1    2    0    0 -0.16212399360E-01  0.15160463471E-01 -0.77501699981E-02  0.10204194347E+01  0.10201485559E+01 0.  0.
     999903    2    3    3    0    0  0.57284599796E-01  0.98748484664E-01  0.60510558542E-01  0.13078563744E+00  0.20262444761E-01 0.  0.
         14    1    1    2    0    0  0.16212399360E-01 -0.15160463471E-01  0.77501699981E-02  0.23510565299E-01  0.00000000000E+00 0.  1.
     999901    1    3    3    0    0 -0.73496999157E-01 -0.83588021193E-01 -0.68260728540E-01  0.88963379726E+00  0.88000000000E+00 0.  1.
        -11    1    4    4    0    0  0.23858271776E-01  0.23251282385E-01  0.15510748636E-01  0.36751649064E-01  0.51100000000E-03 0.  1.
         11    1    4    4    0    0  0.33426328020E-01  0.75497202280E-01  0.44999809906E-01  0.94033988374E-01  0.51100000000E-03 0. -1.
</event>
<event>
 8    1  0.1137518E+005  0.1043930E+01  0.7957747E-01            NaN
         13   -1    0    0    0    0  0.00000000000E+00  0.00000000000E+00  0.74505805969E-08  0.10566000000E+00  0.10566000000E+00 0. -1.
     999900   -1    0    0    0    0 -0.00000000000E+00 -0.00000000000E+00 -0.74505805969E-08  0.93827000000E+00  0.93827000000E+00 0.  1.
     999902    2    1    2    0    0 -0.94404122402E-02  0.12031277229E-01 -0.18031821414E-01  0.10202864047E+01  0.10200124156E+01 0.  0.
     999903    2    3    3    0    0 -0.11064885183E+00 -0.60004811482E-01  0.22760314957E-01  0.13062560153E+00  0.26481503469E-01 0.  0.
         14    1    1    2    0    0  0.94404122402E-02 -0.12031277229E-01  0.18031821414E-01  0.23643595296E-01  0.00000000000E+00 0. -1.
     999901    1    3    3    0    0  0.10120843958E+00  0.72036088712E-01 -0.40792136371E-01  0.88966080318E+00  0.88000000000E+00 0.  1.
        -11    1    4    4    0    0 -0.75414882372E-01 -0.28937936451E-01  0.21677674454E-01  0.83636064828E-01  0.51100000000E-03 0. -1.
         11    1    4    4    0    0 -0.35233969453E-01 -0.31066875032E-01  0.10826405026E-02  0.46989536698E-01  0.51100000000E-03 0.  1.
</event>
<event>
 8    1  0.1137518E+005  0.1043930E+01  0.7957747E-01            NaN
         13   -1    0    0    0    0  0.00000000000E+00  0.00000000000E+00  0.74505805969E-08  0.10566000000E+00  0.10566000000E+00 0. -1.
     999900   -1    0    0    0    0 -0.00000000000E+00 -0.00000000000E+00 -0.74505805969E-08  0.93827000000E+00  0.93827000000E+00 0.  1.
     999902    2    1    2    0    0 -0.22467882392E-01 -0.28665156517E-02  0.22606436271E-02  0.10211674615E+01  0.10209137335E+01 0.  0.
     999903    2    3    3    0    0 -0.40586666422E-01  0.12334291694E+00  0.11360428795E-01  0.13193188114E+00  0.20401207572E-01 0.  0.
         14    1    1    2    0    0  0.22467882392E-01  0.28665156517E-02 -0.22606436271E-02  0.22762538540E-01  0.00000000000E+00 0. -1.
     999901    1    3    3    0    0  0.18118784030E-01 -0.12620943259E+00 -0.90997851676E-02  0.88923558032E+00  0.88000000000E+00 0.  1.
        -11    1    4    4    0    0 -0.42949806792E-02  0.34592334741E-01  0.90562112082E-02  0.36018780717E-01  0.51100000000E-03 0. -1.
         11    1    4    4    0    0 -0.36291685743E-01  0.88750582195E-01  0.23042175865E-02  0.95913100428E-01  0.51100000000E-03 0.  1.
</event>
<event>
 8    1  0.1137518E+005  0.1043930E+01  0.7957747E-01            NaN
         13   -1    0    0    0    0  0.00000000000E+00  0.00000000000E+00  0.74505805969E-08  0.10566000000E+00  0.10566000000E+00 0. -1.
     999900   -1    0    0    0    0 -0.00000000000E+00 -0.00000000000E+00 -0.74505805969E-08  0.93827000000E+00  0.93827000000E+00 0. -1.
     999902    2    1    2    0    0 -0.14946635720E-01  0.17356117819E-01  0.56509825111E-02  0.10203382568E+01  0.10200654822E+01 0.  0.
     999903    2    3    3    0    0 -0.44294380936E-01 -0.80426703952E-02 -0.12084311818E+00  0.13044660826E+00  0.19661680136E-01 0.  0.
         14    1    1    2    0    0  0.14946635720E-01 -0.17356117819E-01 -0.56509825111E-02  0.23591743226E-01  0.00000000000E+00 0.  1.
     999901    1    3    3    0    0  0.29347745216E-01  0.25398788214E-01  0.12649410069E+00  0.88989164852E+00  0.88000000000E+00 0.  1.
        -11    1    4    4    0    0 -0.16507958490E-01 -0.95752764204E-02 -0.69145569059E-01  0.71732624750E-01  0.51100000000E-03 0.  1.
         11    1    4    4    0    0 -0.27786422447E-01  0.15326060252E-02 -0.51697549116E-01  0.58713983506E-01  0.51100000000E-03 0. -1.
</event>
<event>
 8    1  0.1137518E+005  0.1043930E+01  0.7957747E-01            NaN
         13   -1    0    0    0    0  0.00000000000E+00  0.00000000000E+00  0.74505805969E-08  0.10566000000E+00  0.10566000000E+00 0. -1.
     999900   -1    0    0    0    0 -0.00000000000E+00 -0.00000000000E+00 -0.74505805969E-08  0.93827000000E+00  0.93827000000E+00 0.  1.
     999902    2    1    2    0    0  0.13938641016E-02 -0.21537260133E-01  0.10769849011E-01  0.10198097579E+01  0.10195244755E+01 0.  0.
     999903    2    3    3    0    0  0.46210144937E-01  0.10684835648E+00 -0.47660081264E-01  0.12745028867E+00  0.20497413408E-01 0.  0.
         14    1    1    2    0    0 -0.13938641016E-02  0.21537260133E-01 -0.10769849011E-01  0.24120242098E-01  0.00000000000E+00 0.  1.
     999901    1    3    3    0    0 -0.44816280835E-01 -0.12838561662E+00  0.58429930276E-01  0.89235946924E+00  0.88000000000E+00 0.  1.
        -11    1    4    4    0    0  0.17537954763E-01  0.40969357971E-01 -0.29149546621E-01  0.53254345729E-01  0.51100000000E-03 0. -1.
         11    1    4    4    0    0  0.28672190174E-01  0.65878998514E-01 -0.18510534643E-01  0.74195942937E-01  0.51100000000E-03 0.  1.
</event>
<event>
 8    1  0.1137518E+005  0.1043930E+01  0.7957747E-01            NaN
         13   -1    0    0    0    0  0.00000000000E+00  0.00000000000E+00  0.74505805969E-08  0.10566000000E+00  0.10566000000E+00 0.  1.
     999900   -1    0    0    0    0 -0.00000000000E+00 -0.00000000000E+00 -0.74505805969E-08  0.93827000000E+00  0.93827000000E+00 0.  1.
     999902    2    1    2    0    0 -0.11297357630E-01 -0.31083009841E-02  0.20233987637E-01  0.10205482533E+01  0.10202803689E+01 0.  0.
     999903    2    3    3    0    0 -0.12186967949E+00  0.44457985039E-01 -0.10407009853E-01  0.13182576528E+00  0.20999888693E-01 0.  0.
         14    1    1    2    0    0  0.11297357630E-01  0.31083009841E-02 -0.20233987637E-01  0.23381746730E-01  0.00000000000E+00 0. -1.
     999901    1    3    3    0    0  0.11057232186E+00 -0.47566286023E-01  0.30640997490E-01  0.88872248799E+00  0.88000000000E+00 0. -1.
        -11    1    4    4    0    0 -0.40008352610E-01  0.10061600122E-01 -0.12163079282E-01  0.43012854988E-01  0.51100000000E-03 0.  1.
         11    1    4    4    0    0 -0.81861326882E-01  0.34396384918E-01  0.17560694290E-02  0.88812910295E-01  0.51100000000E-03 0. -1.
</event>
<event>
 8    1  0.1137518E+005  0.1043930E+01  0.7957747E-01            NaN
         13   -1    0    0    0    0  0.00000000000E+00  0.00000000000E+00  0.74505805969E-08  0.10566000000E+00  0.10566000000E+00 0. -1.
     999900   -1    0    0    0    0 -0.00000000000E+00 -0.00000000000E+00 -0.74505805969E-08  0.93827000000E+00  0.93827000000E+00 0.  1.
     999902    2    1    2    0    0  0.20478345521E-01  0.62579726850E-02 -0.96424870996E-02  0.10204459115E+01  0.10201756495E+01 0.  0.
     999903    2    3    3    0    0 -0.12564825185E+00 -0.12692180315E-01 -0.94852770517E-02  0.12819476101E+00  0.19883451268E-01 0.  0.
         14    1    1    2    0    0 -0.20478345521E-01 -0.62579726850E-02  0.96424870996E-02  0.23484088547E-01  0.00000000000E+00 0. -1.
     999901    1    3    3    0    0  0.14612659737E+00  0.18950153000E-01 -0.15721004790E-03  0.89225115045E+00  0.88000000000E+00 0.  1.
        -11    1    4    4    0    0 -0.86444917128E-01 -0.23397408289E-02 -0.13178708167E-01  0.87476497154E-01  0.51100000000E-03 0.  1.
         11    1    4    4    0    0 -0.39203334723E-01 -0.10352439486E-01  0.36934311149E-02  0.40718263852E-01  0.51100000000E-03 0. -1.
</event>
<event>
 8    1  0.1137518E+005  0.1043930E+01  0.7957747E-01            NaN
         13   -1    0    0    0    0  0.00000000000E+00  0.00000000000E+00  0.74505805969E-08  0.10566000000E+00  0.10566000000E+00 0.  1.
     999900   -1    0    0    0    0 -0.00000000000E+00 -0.00000000000E+00 -0.74505805969E-08  0.93827000000E+00  0.93827000000E+00 0.  1.
     999902    2    1    2    0    0  0.26920308671E-02 -0.72261206794E-03 -0.25970428632E-01  0.10178104219E+01  0.10174752196E+01 0.  0.
     999903    2    3    3    0    0  0.11425795372E+00 -0.45250126409E-01 -0.34508959658E-01  0.12960855225E+00  0.22473419660E-01 0.  0.
         14    1    1    2    0    0 -0.26920308671E-02  0.72261206794E-03  0.25970428632E-01  0.26119578131E-01  0.00000000000E+00 0.  1.
     999901    1    3    3    0    0 -0.11156592286E+00  0.44527514341E-01  0.85385310256E-02  0.88820186962E+00  0.88000000000E+00 0.  1.
        -11    1    4    4    0    0  0.34294438312E-01 -0.52281056964E-02 -0.31051381265E-02  0.34833096218E-01  0.51100000000E-03 0.  1.
         11    1    4    4    0    0  0.79963515412E-01 -0.40022020713E-01 -0.31403821532E-01  0.94775456036E-01  0.51100000000E-03 0. -1.
</event>
<event>
 8    1  0.1137518E+005  0.1043930E+01  0.7957747E-01            NaN
         13   -1    0    0    0    0  0.00000000000E+00  0.00000000000E+00  0.74505805969E-08  0.10566000000E+00  0.10566000000E+00 0.  1.
     999900   -1    0    0    0    0 -0.00000000000E+00 -0.00000000000E+00 -0.74505805969E-08  0.93827000000E+00  0.93827000000E+00 0. -1.
     999902    2    1    2    0    0  0.20311679341E-01 -0.10916554621E-02 -0.63372716238E-02  0.10226246711E+01  0.10224027097E+01 0.  0.
     999903    2    3    3    0    0 -0.46841668135E-01  0.57273512865E-01 -0.10782191323E+00  0.13233528136E+00  0.20314147032E-01 0.  0.
         14    1    1    2    0    0 -0.20311679341E-01  0.10916554621E-02  0.63372716238E-02  0.21305328933E-01  0.00000000000E+00 0.  1.
     999901    1    3    3    0    0  0.67153347475E-01 -0.58365168327E-01  0.10148464161E+00  0.89028938971E+00  0.88000000000E+00 0.  1.
        -11    1    4    4    0    0 -0.33205249114E-01  0.41405161855E-01 -0.91555638034E-01  0.10582850265E+00  0.51100000000E-03 0. -1.
         11    1    4    4    0    0 -0.13636419021E-01  0.15868351010E-01 -0.16266275195E-01  0.26506778703E-01  0.51100000000E-03 0.  1.
</event>
<event>
 8    1  0.1137518E+005  0.1043930E+01  0.7957747E-01            NaN
         13   -1    0    0    0    0  0.00000000000E+00  0.00000000000E+00  0.74505805969E-08  0.10566000000E+00  0.10566000000E+00 0.  1.
     999900   -1    0    0    0    0 -0.00000000000E+00 -0.00000000000E+00 -0.74505805969E-08  0.93827000000E+00  0.93827000000E+00 0.  1.
     999902    2    1    2    0    0  0.20204835760E-01  0.11981729218E-01 -0.13995835151E-02  0.10203979780E+01  0.10201265988E+01 0.  0.
     999903    2    3    3    0    0 -0.24657168577E-02 -0.76219224293E-01  0.10251059755E+00  0.12961703534E+00  0.21833536826E-01 0.  0.
         14    1    1    2    0    0 -0.20204835760E-01 -0.11981729218E-01  0.13995835151E-02  0.23532021952E-01  0.00000000000E+00 0.  1.
     999901    1    3    3    0    0  0.22670552617E-01  0.88200953510E-01 -0.10391018106E+00  0.89078094270E+00  0.88000000000E+00 0.  1.
        -11    1    4    4    0    0  0.85872856501E-02 -0.16812530205E-01  0.23574252957E-01  0.30206111471E-01  0.51100000000E-03 0.  1.
         11    1    4    4    0    0 -0.11053002508E-01 -0.59406694088E-01  0.78936344592E-01  0.99410923873E-01  0.51100000000E-03 0. -1.
</event>
<event>
 8    1  0.1137518E+005  0.1043930E+01  0.7957747E-01            NaN
         13   -1    0    0    0    0  0.00000000000E+00  0.00000000000E+00  0.74505805969E-08  0.10566000000E+00  0.10566000000E+00 0. -1.
     999900   -1    0    0    0    0 -0.00000000000E+00 -0.00000000000E+00 -0.74505805969E-08  0.93827000000E+00  0.93827000000E+00 0. -1.
     999902    2    1    2    0    0  0.63645541311E-02 -0.66523751508E-02  0.27061724879E-02  0.10343339063E+01  0.10342893912E+01 0.  0.
     999903    2    3    3    0    0  0.65770633404E-01 -0.11784447437E+00  0.47199948103E-01  0.14423702325E+00  0.19062723193E-01 0.  0.
         14    1    1    2    0    0 -0.63645541311E-02  0.66523751508E-02 -0.27061724879E-02  0.95960936828E-02  0.00000000000E+00 0. -1.
     999901    1    3    3    0    0 -0.59406079273E-01  0.11119209922E+00 -0.44493775615E-01  0.89009688307E+00  0.88000000000E+00 0. -1.
        -11    1    4    4    0    0  0.43132751887E-01 -0.71993484988E-01  0.38612945110E-01  0.92383531093E-01  0.51100000000E-03 0.  1.
         11    1    4    4    0    0  0.22637881517E-01 -0.45850989385E-01  0.85870029923E-02  0.51853492154E-01  0.51100000000E-03 0. -1.
</event>
<event>
 8    1  0.1137518E+005  0.1043930E+01  0.7957747E-01            NaN
         13   -1    0    0    0    0  0.00000000000E+00  0.00000000000E+00  0.74505805969E-08  0.10566000000E+00  0.10566000000E+00 0.  1.
     999900   -1    0    0    0    0 -0.00000000000E+00 -0.00000000000E+00 -0.74505805969E-08  0.93827000000E+00  0.93827000000E+00 0.  1.
     999902    2    1    2    0    0 -0.97124870655E-02 -0.23206127679E-01  0.87717617881E-02  0.10172879173E+01  0.10169389884E+01 0.  0.
     999903    2    3    3    0    0  0.14598103804E-01  0.10758313019E+00 -0.58387923051E-01  0.12475934179E+00  0.19196595207E-01 0.  0.
         14    1    1    2    0    0  0.97124870655E-02  0.23206127679E-01 -0.87717617881E-02  0.26642082721E-01  0.00000000000E+00 0. -1.
     999901    1    3    3    0    0 -0.24310590869E-01 -0.13078925787E+00  0.67159684839E-01  0.89252857549E+00  0.88000000000E+00 0.  1.
        -11    1    4    4    0    0  0.11670709539E-01  0.41442626193E-01 -0.31266719197E-01  0.53212456974E-01  0.51100000000E-03 0. -1.
         11    1    4    4    0    0  0.29273942650E-02  0.66140504001E-01 -0.27121203854E-01  0.71546884812E-01  0.51100000000E-03 0.  1.
</event>
<event>
 8    1  0.1137518E+005  0.1043930E+01  0.7957747E-01            NaN
         13   -1    0    0    0    0  0.00000000000E+00  0.00000000000E+00  0.74505805969E-08  0.10566000000E+00  0.10566000000E+00 0.  1.
     999900   -1    0    0    0    0 -0.00000000000E+00 -0.00000000000E+00 -0.74505805969E-08  0.93827000000E+00  0.93827000000E+00 0. -1.
     999902    2    1    2    0    0 -0.30121064585E-02  0.16158665470E-01 -0.16781979479E-01  0.10204393616E+01  0.10201689471E+01 0.  0.
     999903    2    3    3    0    0  0.71598751940E-01  0.70951965907E-01  0.80381900686E-01  0.13026527442E+00  0.18634082101E-01 0.  0.
         14    1    1    2    0    0  0.30121064585E-02 -0.16158665470E-01  0.16781979479E-01  0.23490638355E-01  0.00000000000E+00 0.  1.
     999901    1    3    3    0    0 -0.74610858398E-01 -0.54793300437E-01 -0.97163880164E-01  0.89017408723E+00  0.88000000000E+00 0. -1.
        -11    1    4    4    0    0  0.48408989421E-01  0.35065438420E-01  0.46685672599E-01  0.75847401902E-01  0.51100000000E-03 0. -1.
         11    1    4    4    0    0  0.23189762519E-01  0.35886527487E-01  0.33696228087E-01  0.54417872515E-01  0.51100000000E-03 0.  1.
</event>
<event>
 8    1  0.1137518E+005  0.1043930E+01  0.7957747E-01            NaN
         13   -1    0    0    0    0  0.00000000000E+00  0.00000000000E+00  0.74505805969E-08  0.10566000000E+00  0.10566000000E+00 0.  1.
     999900   -1    0    0    0    0 -0.00000000000E+00 -0.00000000000E+00 -0.74505805969E-08  0.93827000000E+00  0.93827000000E+00 0.  1.
     999902    2    1    2    0    0 -0.13106470332E-01 -0.33610781505E-02  0.19343885663E-01  0.10203235957E+01  0.10200504780E+01 0.  0.
     999903    2    3    3    0    0 -0.62923478828E-02  0.10877984006E+00  0.70111839172E-01  0.13172953603E+00  0.23756123921E-01 0.  0.
         14    1    1    2    0    0  0.13106470332E-01  0.33610781505E-02 -0.19343885663E-01  0.23606404289E-01  0.00000000000E+00 0. -1.
     999901    1    3    3    0    0 -0.68141224492E-02 -0.11214091821E+00 -0.50767953508E-01  0.88859405968E+00  0.88000000000E+00 0.  1.
        -11    1    4    4    0    0 -0.11617660423E-01  0.66317754243E-01  0.52797879310E-01  0.85562209778E-01  0.51100000000E-03 0.  1.
         11    1    4    4    0    0  0.53253125399E-02  0.42462085820E-01  0.17313959862E-01  0.46167326248E-01  0.51100000000E-03 0. -1.
</event>
<event>
 8    1  0.1137518E+005  0.1043930E+01  0.7957747E-01            NaN
         13   -1    0    0    0    0  0.00000000000E+00  0.00000000000E+00  0.74505805969E-08  0.10566000000E+00  0.10566000000E+00 0. -1.
     999900   -1    0    0    0    0 -0.00000000000E+00 -0.00000000000E+00 -0.74505805969E-08  0.93827000000E+00  0.93827000000E+00 0. -1.
     999902    2    1    2    0    0 -0.17417901469E-01 -0.15176705653E-01  0.44284143296E-02  0.10204071061E+01  0.10201359397E+01 0.  0.
     999903    2    3    3    0    0 -0.28891945853E-01 -0.10142087480E+00 -0.77447997285E-01  0.13233421649E+00  0.19829629073E-01 0.  0.
         14    1    1    2    0    0  0.17417901469E-01  0.15176705653E-01 -0.44284143296E-02  0.23522893945E-01  0.00000000000E+00 0. -1.
     999901    1    3    3    0    0  0.11474044384E-01  0.86244169147E-01  0.81876411615E-01  0.88807288957E+00  0.88000000000E+00 0.  1.
        -11    1    4    4    0    0 -0.23306350904E-01 -0.46003513834E-01 -0.35656646130E-01  0.62699017630E-01  0.51100000000E-03 0. -1.
         11    1    4    4    0    0 -0.55855949495E-02 -0.55417360967E-01 -0.41791351155E-01  0.69635198857E-01  0.51100000000E-03 0.  1.
</event>
<event>
 8    1  0.1137518E+005  0.1043930E+01  0.7957747E-01            NaN
         13   -1    0    0    0    0  0.00000000000E+00  0.00000000000E+00  0.74505805969E-08  0.10566000000E+00  0.10566000000E+00 0.  1.
     999900   -1    0    0    0    0 -0.00000000000E+00 -0.00000000000E+00 -0.74505805969E-08  0.93827000000E+00  0.93827000000E+00 0. -1.
     999902    2    1    2    0    0 -0.15952626690E-01  0.15687167589E-01  0.76905716044E-02  0.10202716311E+01  0.10199972955E+01 0.  0.
     999903    2    3    3    0    0 -0.83719823975E-01 -0.61214017551E-01 -0.76812213696E-01  0.13030145972E+00  0.17949634012E-01 0.  0.
         14    1    1    2    0    0  0.15952626690E-01 -0.15687167589E-01 -0.76905716044E-02  0.23658368855E-01  0.00000000000E+00 0. -1.
     999901    1    3    3    0    0  0.67767197285E-01  0.76901185139E-01  0.84502785300E-01  0.88997017143E+00  0.88000000000E+00 0.  1.
        -11    1    4    4    0    0 -0.63728276235E-01 -0.36820316744E-01 -0.51028890061E-01  0.89561362533E-01  0.51100000000E-03 0. -1.
         11    1    4    4    0    0 -0.19991547740E-01 -0.24393700807E-01 -0.25783323635E-01  0.40740097187E-01  0.51100000000E-03 0.  1.
</event>
<event>
 8    1  0.1137518E+005  0.1043930E+01  0.7957747E-01            NaN
         13   -1    0    0    0    0  0.00000000000E+00  0.00000000000E+00  0.74505805969E-08  0.10566000000E+00  0.10566000000E+00 0.  1.
     999900   -1    0    0    0    0 -0.00000000000E+00 -0.00000000000E+00 -0.74505805969E-08  0.93827000000E+00  0.93827000000E+00 0. -1.
     999902    2    1    2    0    0 -0.13608863771E-01  0.11691762702E-01 -0.14583432807E-01  0.10208091220E+01  0.10205472495E+01 0.  0.
     999903    2    3    3    0    0  0.18613431044E-01  0.11175104441E+00  0.63226875715E-01  0.13114369034E+00  0.19138285215E-01 0.  0.
         14    1    1    2    0    0  0.13608863771E-01 -0.11691762702E-01  0.14583432807E-01  0.23120878025E-01  0.00000000000E+00 0. -1.
     999901    1    3    3    0    0 -0.32222294815E-01 -0.10005928171E+00 -0.77810308522E-01  0.88966543164E+00  0.88000000000E+00 0.  1.
        -11    1    4    4    0    0  0.94299634330E-02  0.67551557429E-01  0.27388644255E-01  0.73501946073E-01  0.51100000000E-03 0. -1.
         11    1    4    4    0    0  0.91834676113E-02  0.44199486980E-01  0.35838231460E-01  0.57641744264E-01  0.51100000000E-03 0.  1.
</event>
<event>
 8    1  0.1137518E+005  0.1043930E+01  0.7957747E-01            NaN
         13   -1    0    0    0    0  0.00000000000E+00  0.00000000000E+00  0.74505805969E-08  0.10566000000E+00  0.10566000000E+00 0.  1.
     999900   -1    0    0    0    0 -0.00000000000E+00 -0.00000000000E+00 -0.74505805969E-08  0.93827000000E+00  0.93827000000E+00 0.  1.
     999902    2    1    2    0    0  0.15003418537E-01 -0.14066337638E-01  0.10851881885E-01  0.10206764462E+01  0.10204115249E+01 0.  0.
     999903    2    3    3    0    0  0.11410330090E+00  0.58983120174E-01  0.21534511898E-01  0.13204202840E+00  0.21743742070E-01 0.  0.
         14    1    1    2    0    0 -0.15003418537E-01  0.14066337638E-01 -0.10851881885E-01  0.23253553767E-01  0.00000000000E+00 0. -1.
     999901    1    3    3    0    0 -0.99099882365E-01 -0.73049457812E-01 -0.10682630013E-01  0.88863441783E+00  0.88000000000E+00 0. -1.
        -11    1    4    4    0    0  0.97579762853E-01  0.41031242599E-01  0.16758339082E-01  0.10717497860E+00  0.51100000000E-03 0. -1.
         11    1    4    4    0    0  0.16523538049E-01  0.17951877575E-01  0.47761728158E-02  0.24867049803E-01  0.51100000000E-03 0.  1.
</event>
<event>
 8    1  0.1137518E+005  0.1043930E+01  0.7957747E-01            NaN
         13   -1    0    0    0    0  0.00000000000E+00  0.00000000000E+00  0.74505805969E-08  0.10566000000E+00  0.10566000000E+00 0. -1.
     999900   -1    0    0    0    0 -0.00000000000E+00 -0.00000000000E+00 -0.74505805969E-08  0.93827000000E+00  0.93827000000E+00 0.  1.
     999902    2    1    2    0    0  0.10257121276E-01 -0.10263913625E-01 -0.18818232155E-01  0.10201669547E+01  0.10198901574E+01 0.  0.
     999903    2    3    3    0    0  0.29152596879E-01 -0.34502721152E-01 -0.12396262327E+00  0.13337503900E+00  0.19541171676E-01 0.  0.
         14    1    1    2    0    0 -0.10257121276E-01  0.10263913625E-01  0.18818232155E-01  0.23763045285E-01  0.00000000000E+00 0. -1.
     999901    1    3    3    0    0 -0.18895475603E-01  0.24238807527E-01  0.10514439111E+00  0.88679191571E+00  0.88000000000E+00 0. -1.
        -11    1    4    4    0    0 -0.71963304686E-03 -0.38960968501E-02 -0.28372046939E-01  0.28651904140E-01  0.51100000000E-03 0.  1.
         11    1    4    4    0    0  0.29872229926E-01 -0.30606624302E-01 -0.95590576328E-01  0.10472313486E+00  0.51100000000E-03 0. -1.
</event>
<event>
 8    1  0.1137518E+005  0.1043930E+01  0.7957747E-01            NaN
         13   -1    0    0    0    0  0.00000000000E+00  0.00000000000E+00  0.74505805969E-08  0.10566000000E+00  0.10566000000E+00 0. -1.
     999900   -1    0    0    0    0 -0.00000000000E+00 -0.00000000000E+00 -0.74505805969E-08  0.93827000000E+00  0.93827000000E+00 0.  1.
     999902    2    1    2    0    0  0.16370181238E-01  0.97348589335E-02 -0.13968535578E-01  0.10203107219E+01  0.10200373027E+01 0.  0.
     999903    2    3    3    0    0 -0.10933393392E+00  0.56066589463E-01  0.33413650342E-01  0.12891113396E+00  0.20105642725E-01 0.  0.
         14    1    1    2    0    0 -0.16370181238E-01 -0.97348589335E-02  0.13968535578E-01  0.23619278109E-01  0.00000000000E+00 0. -1.
     999901    1    3    3    0    0  0.12570411516E+00 -0.46331730529E-01 -0.47382185920E-01  0.89139958793E+00  0.88000000000E+00 0. -1.
        -11    1    4    4    0    0 -0.37384546592E-01  0.29384212464E-01  0.91333057851E-02  0.48422253785E-01  0.51100000000E-03 0.  1.
         11    1    4    4    0    0 -0.71949387327E-01  0.26682376999E-01  0.24280344557E-01  0.80488880175E-01  0.51100000000E-03 0. -1.
</event>
<event>
 8    1  0.1137518E+005  0.1043930E+01  0.7957747E-01            NaN
         13   -1    0    0    0    0  0.00000000000E+00  0.00000000000E+00  0.74505805969E-08  0.10566000000E+00  0.10566000000E+00 0. -1.
     999900   -1    0    0    0    0 -0.00000000000E+00 -0.00000000000E+00 -0.74505805969E-08  0.93827000000E+00  0.93827000000E+00 0. -1.
     999902    2    1    2    0    0 -0.88162523581E-03  0.16210746853E-01 -0.15670390526E-01  0.10213661635E+01  0.10211168950E+01 0.  0.
     999903    2    3    3    0    0 -0.10219056146E+00 -0.63481869995E-01 -0.48966492834E-01  0.13135321747E+00  0.19572727230E-01 0.  0.
         14    1    1    2    0    0  0.88162523581E-03 -0.16210746853E-01  0.15670390526E-01  0.22563836461E-01  0.00000000000E+00 0. -1.
     999901    1    3    3    0    0  0.10130893622E+00  0.79692616848E-01  0.33296102308E-01  0.89001294607E+00  0.88000000000E+00 0. -1.
        -11    1    4    4    0    0 -0.91291055653E-01 -0.55727793432E-01 -0.49713541652E-01  0.11794634860E+00  0.51100000000E-03 0. -1.
         11    1    4    4    0    0 -0.10899505802E-01 -0.77540765625E-02  0.74704881751E-03  0.13406868874E-01  0.51100000000E-03 0.  1.
</event>
<event>
 8    1  0.1137518E+005  0.1043930E+01  0.7957747E-01            NaN
         13   -1    0    0    0    0  0.00000000000E+00  0.00000000000E+00  0.74505805969E-08  0.10566000000E+00  0.10566000000E+00 0.  1.
     999900   -1    0    0    0    0 -0.00000000000E+00 -0.00000000000E+00 -0.74505805969E-08  0.93827000000E+00  0.93827000000E+00 0.  1.
     999902    2    1    2    0    0 -0.27332326181E-02 -0.22078446588E-01  0.10170931162E-01  0.10194682706E+01  0.10191747537E+01 0.  0.
     999903    2    3    3    0    0  0.11578289849E+00 -0.83603607779E-02 -0.52977967513E-01  0.12917503654E+00  0.20098502667E-01 0.  0.
         14    1    1    2    0    0  0.27332326181E-02  0.22078446588E-01 -0.10170931162E-01  0.24461729394E-01  0.00000000000E+00 0.  1.
     999901    1    3    3    0    0 -0.11851613111E+00 -0.13718085810E-01  0.63148898675E-01  0.89029323406E+00  0.88000000000E+00 0. -1.
        -11    1    4    4    0    0  0.78159155494E-01  0.35979037842E-02 -0.32866928300E-01  0.84866333702E-01  0.51100000000E-03 0.  1.
         11    1    4    4    0    0  0.37623742996E-01 -0.11958264562E-01 -0.20111039213E-01  0.44308702842E-01  0.51100000000E-03 0. -1.
</event>
<event>
 8    1  0.1137518E+005  0.1043930E+01  0.7957747E-01            NaN
         13   -1    0    0    0    0  0.00000000000E+00  0.00000000000E+00  0.74505805969E-08  0.10566000000E+00  0.10566000000E+00 0.  1.
     999900   -1    0    0    0    0 -0.00000000000E+00 -0.00000000000E+00 -0.74505805969E-08  0.93827000000E+00  0.93827000000E+00 0.  1.
     999902    2    1    2    0    0  0.11785438074E-01 -0.16534241604E-01  0.77001767790E-02  0.10222143278E+01  0.10219836406E+01 0.  0.
     999903    2    3    3    0    0 -0.32039068691E-01 -0.66729964819E-01 -0.10776303460E+00  0.13217390671E+00  0.19433987235E-01 0.  0.
         14    1    1    2    0    0 -0.11785438074E-01  0.16534241604E-01 -0.77001767790E-02  0.21715672185E-01  0.00000000000E+00 0. -1.
     999901    1    3    3    0    0  0.43824506765E-01  0.50195723215E-01  0.11546321138E+00  0.89004042111E+00  0.88000000000E+00 0. -1.
        -11    1    4    4    0    0 -0.22099141197E-01 -0.24112378950E-01 -0.43612278385E-01  0.54516702094E-01  0.51100000000E-03 0.  1.
         11    1    4    4    0    0 -0.99399274944E-02 -0.42617585869E-01 -0.64150756219E-01  0.77657204614E-01  0.51100000000E-03 0. -1.
</event>
<event>
 8    1  0.1137518E+005  0.1043930E+01  0.7957747E-01            NaN
         13   -1    0    0    0    0  0.00000000000E+00  0.00000000000E+00  0.74505805969E-08  0.10566000000E+00  0.10566000000E+00 0.  1.
     999900   -1    0    0    0    0 -0.00000000000E+00 -0.00000000000E+00 -0.74505805969E-08  0.93827000000E+00  0.93827000000E+00 0.  1.
     999902    2    1    2    0    0  0.11568158625E-01  0.66615777524E-02 -0.18857567025E-01  0.10208257418E+01  0.10205642500E+01 0.  0.
     999903    2    3    3    0    0 -0.80689578705E-01  0.83107934480E-01 -0.59089454199E-01  0.13179585464E+00  0.21467343024E-01 0.  0.
         14    1    1    2    0    0 -0.11568158625E-01 -0.66615777524E-02  0.18857567025E-01  0.23104258184E-01  0.00000000000E+00 0.  1.
     999901    1    3    3    0    0  0.92257737330E-01 -0.76446356727E-01  0.40231887175E-01  0.88902988718E+00  0.88000000000E+00 0. -1.
        -11    1    4    4    0    0 -0.65181013878E-01  0.62021370779E-01 -0.54564448215E-01  0.10522715968E+00  0.51100000000E-03 0.  1.
         11    1    4    4    0    0 -0.15508564827E-01  0.21086563701E-01 -0.45250059841E-02  0.26568694960E-01  0.51100000000E-03 0. -1.
</event>
<event>
 8    1  0.1137518E+005  0.1043930E+01  0.7957747E-01            NaN
         13   -1    0    0    0    0  0.00000000000E+00  0.00000000000E+00  0.74505805969E-08  0.10566000000E+00  0.10566000000E+00 0. -1.
     999900   -1    0    0    0    0 -0.00000000000E+00 -0.00000000000E+00 -0.74505805969E-08  0.93827000000E+00  0.93827000000E+00 0.  1.
     999902    2    1    2    0    0 -0.18304192971E-01  0.89363569990E-02 -0.57052129633E-02  0.10227769527E+01  0.10225581859E+01 0.  0.
     999903    2    3    3    0    0 -0.47843945178E-01  0.85972559366E-01 -0.90224976584E-01  0.13488576345E+00  0.19320940144E-01 0.  0.
         14    1    1    2    0    0  0.18304192971E-01 -0.89363569990E-02  0.57052129633E-02  0.21153047338E-01  0.00000000000E+00 0.  1.
     999901    1    3    3    0    0  0.29539752207E-01 -0.77036202367E-01  0.84519763621E-01  0.88789118921E+00  0.88000000000E+00 0. -1.
        -11    1    4    4    0    0 -0.38466798693E-01  0.74777343998E-01 -0.84436623752E-01  0.11916857945E+00  0.51100000000E-03 0. -1.
         11    1    4    4    0    0 -0.93771464848E-02  0.11195215369E-01 -0.57883528322E-02  0.15717183999E-01  0.51100000000E-03 0.  1.
</event>
<event>
 8    1  0.1137518E+005  0.1043930E+01  0.7957747E-01            NaN
         13   -1    0    0    0    0  0.00000000000E+00  0.00000000000E+00  0.74505805969E-08  0.10566000000E+00  0.10566000000E+00 0.  1.
     999900   -1    0    0    0    0 -0.00000000000E+00 -0.00000000000E+00 -0.74505805969E-08  0.93827000000E+00  0.93827000000E+00 0.  1.
     999902    2    1    2    0    0  0.70977647162E-02 -0.24286115047E-02  0.21849418741E-01  0.10208286252E+01  0.10205671994E+01 0.  0.
     999903    2    3    3    0    0  0.81384161161E-01  0.67645052891E-01  0.77358748076E-01  0.13318563798E+00  0.23554264831E-01 0.  0.
         14    1    1    2    0    0 -0.70977647162E-02  0.24286115047E-02 -0.21849418741E-01  0.23101374788E-01  0.00000000000E+00 0. -1.
     999901    1    3    3    0    0 -0.74286396445E-01 -0.70073664395E-01 -0.55509329335E-01  0.88764298723E+00  0.88000000000E+00 0.  1.
        -11    1    4    4    0    0  0.52827947312E-01  0.34272559052E-01  0.56308864264E-01  0.84476917776E-01  0.51100000000E-03 0. -1.
         11    1    4    4    0    0  0.28556213849E-01  0.33372493839E-01  0.21049883812E-01  0.48708720204E-01  0.51100000000E-03 0.  1.
</event>
<event>
 8    1  0.1137518E+005  0.1043930E+01  0.7957747E-01            NaN
         13   -1    0    0    0    0  0.00000000000E+00  0.00000000000E+00  0.74505805969E-08  0.10566000000E+00  0.10566000000E+00 0.  1.
     999900   -1    0    0    0    0 -0.00000000000E+00 -0.00000000000E+00 -0.74505805969E-08  0.93827000000E+00  0.93827000000E+00 0.  1.
     999902    2    1    2    0    0 -0.13244852880E-01  0.48117280157E-02  0.18184389880E-01  0.10209245465E+01  0.10206653118E+01 0.  0.
     999903    2    3    3    0    0  0.81703156492E-01  0.66051605315E-02 -0.96641420507E-01  0.12839818410E+00  0.20675966661E-01 0.  0.
         14    1    1    2    0    0  0.13244852880E-01 -0.48117280157E-02 -0.18184389880E-01  0.23005453475E-01  0.00000000000E+00 0. -1.
     999901    1    3    3    0    0 -0.94948009372E-01 -0.17934325158E-02  0.11482581039E+00  0.89252636242E+00  0.88000000000E+00 0. -1.
        -11    1    4    4    0    0  0.28849733683E-01  0.69447829013E-02 -0.22029383786E-01  0.36960682003E-01  0.51100000000E-03 0. -1.
         11    1    4    4    0    0  0.52853422809E-01 -0.33962236982E-03 -0.74612036720E-01  0.91437502101E-01  0.51100000000E-03 0.  1.
</event>
<event>
 8    1  0.1137518E+005  0.1043930E+01  0.7957747E-01            NaN
         13   -1    0    0    0    0  0.00000000000E+00  0.00000000000E+00  0.74505805969E-08  0.10566000000E+00  0.10566000000E+00 0.  1.
     999900   -1    0    0    0    0 -0.00000000000E+00 -0.00000000000E+00 -0.74505805969E-08  0.93827000000E+00  0.93827000000E+00 0.  1.
     999902    2    1    2    0    0  0.18293185920E-01 -0.99745278167E-02 -0.10942783665E-01  0.10203954218E+01  0.10201239829E+01 0.  0.
     999903    2    3    3    0    0  0.63522152997E-01 -0.10953868105E+00 -0.37124076238E-01  0.13324033945E+00  0.18466305913E-01 0.  0.
         14    1    1    2    0    0 -0.18293185920E-01  0.99745278167E-02  0.10942783665E-01  0.23534578191E-01  0.00000000000E+00 0.  1.
     999901    1    3    3    0    0 -0.45228967078E-01  0.99564153230E-01  0.26181292572E-01  0.88715508236E+00  0.88000000000E+00 0.  1.
        -11    1    4    4    0    0  0.51189866218E-02 -0.21775955807E-01 -0.91289301873E-02  0.24165983587E-01  0.51100000000E-03 0. -1.
         11    1    4    4    0    0  0.58403166376E-01 -0.87762725239E-01 -0.27995146050E-01  0.10907435587E+00  0.51100000000E-03 0.  1.
</event>
<event>
 8    1  0.1137518E+005  0.1043930E+01  0.7957747E-01            NaN
         13   -1    0    0    0    0  0.00000000000E+00  0.00000000000E+00  0.74505805969E-08  0.10566000000E+00  0.10566000000E+00 0.  1.
     999900   -1    0    0    0    0 -0.00000000000E+00 -0.00000000000E+00 -0.74505805969E-08  0.93827000000E+00  0.93827000000E+00 0.  1.
     999902    2    1    2    0    0  0.15113882354E-01  0.29217779722E-03  0.19118207312E-01  0.10195574610E+01  0.10192661064E+01 0.  0.
     999903    2    3    3    0    0 -0.24561150053E-01 -0.12559348320E+00  0.16718615565E-02  0.12954303254E+00  0.20040684733E-01 0.  0.
         14    1    1    2    0    0 -0.15113882354E-01 -0.29217779722E-03 -0.19118207312E-01  0.24372539025E-01  0.00000000000E+00 0. -1.
     999901    1    3    3    0    0  0.39675032406E-01  0.12588566100E+00  0.17446345756E-01  0.89001442843E+00  0.88000000000E+00 0.  1.
        -11    1    4    4    0    0 -0.23219502458E-01 -0.83415388880E-01 -0.53805448810E-02  0.86755309812E-01  0.51100000000E-03 0.  1.
         11    1    4    4    0    0 -0.13416475950E-02 -0.42178094320E-01  0.70524064375E-02  0.42787722729E-01  0.51100000000E-03 0. -1.
</event>
<event>
 8    1  0.1137518E+005  0.1043930E+01  0.7957747E-01            NaN
         13   -1    0    0    0    0  0.00000000000E+00  0.00000000000E+00  0.74505805969E-08  0.10566000000E+00  0.10566000000E+00 0.  1.
     999900   -1    0    0    0    0 -0.00000000000E+00 -0.00000000000E+00 -0.74505805969E-08  0.93827000000E+00  0.93827000000E+00 0. -1.
     999902    2    1    2    0    0  0.12004409587E-01 -0.19083715904E-01 -0.61058246523E-02  0.10205724497E+01  0.10203051259E+01 0.  0.
     999903    2    3    3    0    0  0.73352877581E-02  0.86169290174E-01 -0.94800342097E-01  0.12986109721E+00  0.19946094668E-01 0.  0.
         14    1    1    2    0    0 -0.12004409587E-01  0.19083715904E-01  0.61058246523E-02  0.23357550320E-01  0.00000000000E+00 0.  1.
     999901    1    3    3    0    0  0.46691218294E-02 -0.10525300608E+00  0.88694517444E-01  0.89071135247E+00  0.88000000000E+00 0.  1.
        -11    1    4    4    0    0  0.91438913152E-02  0.35555172524E-01 -0.51366080332E-01  0.63138865774E-01  0.51100000000E-03 0.  1.
         11    1    4    4    0    0 -0.18086035571E-02  0.50614117650E-01 -0.43434261765E-01  0.66722231440E-01  0.51100000000E-03 0. -1.
</event>
<event>
 8    1  0.1137518E+005  0.1043930E+01  0.7957747E-01            NaN
         13   -1    0    0    0    0  0.00000000000E+00  0.00000000000E+00  0.74505805969E-08  0.10566000000E+00  0.10566000000E+00 0. -1.
     999900   -1    0    0    0    0 -0.00000000000E+00 -0.00000000000E+00 -0.74505805969E-08  0.93827000000E+00  0.93827000000E+00 0.  1.
     999902    2    1    2    0    0 -0.82044638650E-04  0.19016320227E-01  0.14337249069E-01  0.10201143775E+01  0.10198363394E+01 0.  0.
     999903    2    3    3    0    0 -0.13428597138E-01 -0.66375784388E-01  0.10995872937E+00  0.13072503106E+00  0.20298758702E-01 0.  0.
         14    1    1    2    0    0  0.82044638650E-04 -0.19016320227E-01 -0.14337249069E-01  0.23815622545E-01  0.00000000000E+00 0.  1.
     999901    1    3    3    0    0  0.13346552500E-01  0.85392104615E-01 -0.95621480304E-01  0.88938934640E+00  0.88000000000E+00 0.  1.
        -11    1    4    4    0    0 -0.14405327681E-01 -0.27322115101E-01  0.39337080596E-01  0.50016781884E-01  0.51100000000E-03 0.  1.
         11    1    4    4    0    0  0.97673054274E-03 -0.39053669286E-01  0.70621648777E-01  0.80708249171E-01  0.51100000000E-03 0. -1.
</event>
<event>
 8    1  0.1137518E+005  0.1043930E+01  0.7957747E-01            NaN
         13   -1    0    0    0    0  0.00000000000E+00  0.00000000000E+00  0.74505805969E-08  0.10566000000E+00  0.10566000000E+00 0.  1.
     999900   -1    0    0    0    0 -0.00000000000E+00 -0.00000000000E+00 -0.74505805969E-08  0.93827000000E+00  0.93827000000E+00 0.  1.
     999902    2    1    2    0    0  0.17165654533E-01  0.12045227895E-01 -0.10978807996E-01  0.10202597352E+01  0.10199851204E+01 0.  0.
     999903    2    3    3    0    0 -0.97395066401E-04  0.96290066847E-01  0.82077554572E-01  0.13118454581E+00  0.34653623718E-01 0.  0.
         14    1    1    2    0    0 -0.17165654533E-01 -0.12045227895E-01  0.10978807996E-01  0.23670264797E-01  0.00000000000E+00 0.  1.
     999901    1    3    3    0    0  0.17263049599E-01 -0.84244838952E-01 -0.93056362567E-01  0.88907518939E+00  0.88000000000E+00 0.  1.
        -11    1    4    4    0    0  0.14047457398E-01  0.76911142661E-01  0.59691423479E-01  0.98366569945E-01  0.51100000000E-03 0.  1.
         11    1    4    4    0    0 -0.14144852465E-01  0.19378924186E-01  0.22386131093E-01  0.32817975869E-01  0.51100000000E-03 0. -1.
</event>
<event>
 8    1  0.1137518E+005  0.1043930E+01  0.7957747E-01            NaN
         13   -1    0    0    0    0  0.00000000000E+00  0.00000000000E+00  0.74505805969E-08  0.10566000000E+00  0.10566000000E+00 0. -1.
     999900   -1    0    0    0    0 -0.00000000000E+00 -0.00000000000E+00 -0.74505805969E-08  0.93827000000E+00  0.93827000000E+00 0. -1.
     999902    2    1    2    0    0  0.17948349521E-01  0.12611878469E-01  0.90653699015E-02  0.10201942957E+01  0.10199181424E+01 0.  0.
     999903    2    3    3    0    0 -0.83230805526E-01 -0.68372836896E-01 -0.65226668917E-01  0.12760533507E+00  0.20649246627E-01 0.  0.
         14    1    1    2    0    0 -0.17948349521E-01 -0.12611878469E-01 -0.90653699015E-02  0.23735704339E-01  0.00000000000E+00 0.  1.
     999901    1    3    3    0    0  0.10117915505E+00  0.80984715365E-01  0.74292038819E-01  0.89258896059E+00  0.88000000000E+00 0.  1.
        -11    1    4    4    0    0 -0.65467145264E-01 -0.50083180121E-01 -0.39583782771E-01  0.91440740480E-01  0.51100000000E-03 0. -1.
         11    1    4    4    0    0 -0.17763660262E-01 -0.18289656775E-01 -0.25642886147E-01  0.36164594589E-01  0.51100000000E-03 0.  1.
</event>
<event>
 8    1  0.1137518E+005  0.1043930E+01  0.7957747E-01            NaN
         13   -1    0    0    0    0  0.00000000000E+00  0.00000000000E+00  0.74505805969E-08  0.10566000000E+00  0.10566000000E+00 0.  1.
     999900   -1    0    0    0    0 -0.00000000000E+00 -0.00000000000E+00 -0.74505805969E-08  0.93827000000E+00  0.93827000000E+00 0. -1.
     999902    2    1    2    0    0  0.22788971555E-01 -0.62227532267E-02  0.10109934774E-03  0.10203064926E+01  0.10200329743E+01 0.  0.
     999903    2    3    3    0    0 -0.94244420755E-01 -0.75689037615E-01 -0.40481789045E-01  0.12892029657E+00  0.19256852434E-01 0.  0.
         14    1    1    2    0    0 -0.22788971555E-01  0.62227532267E-02 -0.10109934774E-03  0.23623507431E-01  0.00000000000E+00 0. -1.
     999901    1    3    3    0    0  0.11703339231E+00  0.69466284389E-01  0.40582888393E-01  0.89138619600E+00  0.88000000000E+00 0. -1.
        -11    1    4    4    0    0 -0.73558321516E-01 -0.54314398969E-01 -0.22530660435E-01  0.94174159833E-01  0.51100000000E-03 0.  1.
         11    1    4    4    0    0 -0.20686099238E-01 -0.21374638646E-01 -0.17951128610E-01  0.34746136740E-01  0.51100000000E-03 0. -1.
</event>
<event>
 8    1  0.1137518E+005  0.1043930E+01  0.7957747E-01            NaN
         13   -1    0    0    0    0  0.00000000000E+00  0.00000000000E+00  0.74505805969E-08  0.10566000000E+00  0.10566000000E+00 0.  1.
     999900   -1    0    0    0    0 -0.00000000000E+00 -0.00000000000E+00 -0.74505805969E-08  0.93827000000E+00  0.93827000000E+00 0.  1.
     999902    2    1    2    0    0  0.38572308969E-02 -0.97448029946E-02  0.26931028567E-01  0.10150315621E+01  0.10146201024E+01 0.  0.
     999903    2    3    3    0    0  0.12152918688E+00  0.82372372998E-02  0.29853343974E-01  0.12701208991E+00  0.20091129767E-01 0.  0.
         14    1    1    2    0    0 -0.38572308969E-02  0.97448029946E-02 -0.26931028567E-01  0.28898437938E-01  0.00000000000E+00 0. -1.
     999901    1    3    3    0    0 -0.11767195598E+00 -0.17982040294E-01 -0.29223154076E-02  0.88801947215E+00  0.88000000000E+00 0.  1.
        -11    1    4    4    0    0  0.30090413126E-01 -0.65526842763E-02  0.85674338505E-02  0.31969245801E-01  0.51100000000E-03 0.  1.
         11    1    4    4    0    0  0.91438773750E-01  0.14789921576E-01  0.21285910124E-01  0.95042844107E-01  0.51100000000E-03 0. -1.
</event>
<event>
 8    1  0.1137518E+005  0.1043930E+01  0.7957747E-01            NaN
         13   -1    0    0    0    0  0.00000000000E+00  0.00000000000E+00  0.74505805969E-08  0.10566000000E+00  0.10566000000E+00 0.  1.
     999900   -1    0    0    0    0 -0.00000000000E+00 -0.00000000000E+00 -0.74505805969E-08  0.93827000000E+00  0.93827000000E+00 0.  1.
     999902    2    1    2    0    0  0.18144250676E-01 -0.10171122671E-01 -0.10495734085E-01  0.10206313734E+01  0.10203654121E+01 0.  0.
     999903    2    3    3    0    0  0.85568325159E-01 -0.72803997941E-01 -0.70226104625E-01  0.13381876630E+00  0.18798831273E-01 0.  0.
         14    1    1    2    0    0 -0.18144250676E-01  0.10171122671E-01  0.10495734085E-01  0.23298626632E-01  0.00000000000E+00 0.  1.
     999901    1    3    3    0    0 -0.67424074483E-01  0.62632875271E-01  0.59730370540E-01  0.88681260707E+00  0.88000000000E+00 0.  1.
        -11    1    4    4    0    0  0.24863832657E-01 -0.11900950611E-01 -0.12660517725E-01  0.30337973398E-01  0.51100000000E-03 0. -1.
         11    1    4    4    0    0  0.60704492502E-01 -0.60903047330E-01 -0.57565586899E-01  0.10348079290E+00  0.51100000000E-03 0.  1.
</event>
<event>
 8    1  0.1137518E+005  0.1043930E+01  0.7957747E-01            NaN
         13   -1    0    0    0    0  0.00000000000E+00  0.00000000000E+00  0.74505805969E-08  0.10566000000E+00  0.10566000000E+00 0. -1.
     999900   -1    0    0    0    0 -0.00000000000E+00 -0.00000000000E+00 -0.74505805969E-08  0.93827000000E+00  0.93827000000E+00 0.  1.
     999902    2    1    2    0    0 -0.11722527368E-01  0.21113361665E-01  0.39233976998E-02  0.10194640085E+01  0.10191703881E+01 0.  0.
     999903    2    3    3    0    0  0.20884925792E-01 -0.80620245546E-01  0.95570705920E-01  0.12827816824E+00  0.19639870178E-01 0.  0.
         14    1    1    2    0    0  0.11722527368E-01 -0.21113361665E-01 -0.39233976998E-02  0.24465991462E-01  0.00000000000E+00 0.  1.
     999901    1    3    3    0    0 -0.32607453160E-01  0.10173360721E+00 -0.91647308220E-01  0.89118584029E+00  0.88000000000E+00 0.  1.
        -11    1    4    4    0    0  0.24682437184E-01 -0.67215014421E-01  0.80962878515E-01  0.10808482635E+00  0.51100000000E-03 0. -1.
         11    1    4    4    0    0 -0.37975113913E-02 -0.13405231125E-01  0.14607827405E-01  0.20193341892E-01  0.51100000000E-03 0.  1.
</event>
<event>
 8    1  0.1137518E+005  0.1043930E+01  0.7957747E-01            NaN
         13   -1    0    0    0    0  0.00000000000E+00  0.00000000000E+00  0.74505805969E-08  0.10566000000E+00  0.10566000000E+00 0. -1.
     999900   -1    0    0    0    0 -0.00000000000E+00 -0.00000000000E+00 -0.74505805969E-08  0.93827000000E+00  0.93827000000E+00 0.  1.
     999902    2    1    2    0    0  0.20025880541E-01  0.13012308935E-01  0.21600646455E-02  0.10199503846E+01  0.10196684584E+01 0.  0.
     999903    2    3    3    0    0 -0.11413544902E+00 -0.36226029996E-01  0.39213166609E-01  0.12765188705E+00  0.20447637028E-01 0.  0.
         14    1    1    2    0    0 -0.20025880541E-01 -0.13012308935E-01 -0.21600646455E-02  0.23979615396E-01  0.00000000000E+00 0.  1.
     999901    1    3    3    0    0  0.13416132956E+00  0.49238338931E-01 -0.37053101963E-01  0.89229849755E+00  0.88000000000E+00 0.  1.
        -11    1    4    4    0    0 -0.44679160115E-01 -0.20779069050E-01  0.78797623956E-02  0.49903395031E-01  0.51100000000E-03 0.  1.
         11    1    4    4    0    0 -0.69456288904E-01 -0.15446960946E-01  0.31333404213E-01  0.77748492020E-01  0.51100000000E-03 0. -1.
</event>
<event>
 8    1  0.1137518E+005  0.1043930E+01  0.7957747E-01            NaN
         13   -1    0    0    0    0  0.00000000000E+00  0.00000000000E+00  0.74505805969E-08  0.10566000000E+00  0.10566000000E+00 0.  1.
     999900   -1    0    0    0    0 -0.00000000000E+00 -0.00000000000E+00 -0.74505805969E-08  0.93827000000E+00  0.93827000000E+00 0.  1.
     999902    2    1    2    0    0  0.57922524744E-02 -0.22069070779E-01 -0.10828860733E-02  0.10210877865E+01  0.10208322590E+01 0.  0.
     999903    2    3    3    0    0 -0.99853727955E-01 -0.46991536364E-01  0.68627652894E-01  0.13168250112E+00  0.21249820808E-01 0.  0.
         14    1    1    2    0    0 -0.57922524744E-02  0.22069070779E-01  0.10828860733E-02  0.22842213466E-01  0.00000000000E+00 0. -1.
     999901    1    3    3    0    0  0.10564598043E+00  0.24922465585E-01 -0.69710538967E-01  0.88940528541E+00  0.88000000000E+00 0. -1.
        -11    1    4    4    0    0 -0.35198721894E-01 -0.13455064391E-01  0.12421367448E-01  0.39680477203E-01  0.51100000000E-03 0. -1.
         11    1    4    4    0    0 -0.64655006061E-01 -0.33536471973E-01  0.56206285446E-01  0.92002023922E-01  0.51100000000E-03 0.  1.
</event>
<event>
 8    1  0.1137518E+005  0.1043930E+01  0.7957747E-01            NaN
         13   -1    0    0    0    0  0.00000000000E+00  0.00000000000E+00  0.74505805969E-08  0.10566000000E+00  0.10566000000E+00 0. -1.
     999900   -1    0    0    0    0 -0.00000000000E+00 -0.00000000000E+00 -0.74505805969E-08  0.93827000000E+00  0.93827000000E+00 0.  1.
     999902    2    1    2    0    0  0.78858279917E-02 -0.10603104753E-01 -0.19686919814E-01  0.10202195187E+01  0.10199439589E+01 0.  0.
     999903    2    3    3    0    0 -0.80243418557E-01 -0.96687910761E-01  0.28598338385E-01  0.13032692734E+00  0.19485500344E-01 0.  0.
         14    1    1    2    0    0 -0.78858279917E-02  0.10603104753E-01  0.19686919814E-01  0.23710481338E-01  0.00000000000E+00 0. -1.
     999901    1    3    3    0    0  0.88129246548E-01  0.86084806008E-01 -0.48285258199E-01  0.88989259132E+00  0.88000000000E+00 0.  1.
        -11    1    4    4    0    0 -0.57041246244E-01 -0.55688844040E-01  0.22416061806E-01  0.82811183251E-01  0.51100000000E-03 0.  1.
         11    1    4    4    0    0 -0.23202172312E-01 -0.40999066721E-01  0.61822765791E-02  0.47515744093E-01  0.51100000000E-03 0. -1.
</event>
<event>
 8    1  0.1137518E+005  0.1043930E+01  0.7957747E-01            NaN
         13   -1    0    0    0    0  0.00000000000E+00  0.00000000000E+00  0.74505805969E-08  0.10566000000E+00  0.10566000000E+00 0. -1.
     999900   -1    0    0    0    0 -0.00000000000E+00 -0.00000000000E+00 -0.74505805969E-08  0.93827000000E+00  0.93827000000E+00 0.  1.
     999902    2    1    2    0    0  0.33883420808E-03  0.20311024628E-01 -0.12757055017E-01  0.10199426078E+01  0.10196604966E+01 0.  0.
     999903    2    3    3    0    0  0.60472824068E-01 -0.49269417870E-01  0.99788402919E-01  0.12802107832E+00  0.18634192999E-01 0.  0.
         14    1    1    2    0    0 -0.33883420808E-03 -0.20311024628E-01  0.12757055017E-01  0.23987392163E-01  0.00000000000E+00 0. -1.
     999901    1    3    3    0    0 -0.60133989860E-01  0.69580442499E-01 -0.11254545794E+00  0.89192152952E+00  0.88000000000E+00 0.  1.
        -11    1    4    4    0    0  0.22027165671E-01 -0.11775524214E-01  0.20814343083E-01  0.32517026263E-01  0.51100000000E-03 0.  1.
         11    1    4    4    0    0  0.38445658398E-01 -0.37493893657E-01  0.78974059836E-01  0.95504052057E-01  0.51100000000E-03 0. -1.
</event>
<event>
 8    1  0.1137518E+005  0.1043930E+01  0.7957747E-01            NaN
         13   -1    0    0    0    0  0.00000000000E+00  0.00000000000E+00  0.74505805969E-08  0.10566000000E+00  0.10566000000E+00 0. -1.
     999900   -1    0    0    0    0 -0.00000000000E+00 -0.00000000000E+00 -0.74505805969E-08  0.93827000000E+00  0.93827000000E+00 0. -1.
     999902    2    1    2    0    0 -0.23212775994E-01  0.74977338583E-02 -0.78791518333E-03  0.10195236526E+01  0.10192314793E+01 0.  0.
     999903    2    3    3    0    0 -0.32499415233E-01  0.94142581463E-01 -0.82753738879E-01  0.13142908133E+00  0.22502988397E-01 0.  0.
         14    1    1    2    0    0  0.23212775994E-01 -0.74977338583E-02  0.78791518333E-03  0.24406347385E-01  0.00000000000E+00 0. -1.
     999901    1    3    3    0    0  0.92866392391E-02 -0.86644847605E-01  0.81965823696E-01  0.88809457128E+00  0.88000000000E+00 0.  1.
        -11    1    4    4    0    0 -0.19172557714E-01  0.76556958030E-01 -0.56133182670E-01  0.96849110010E-01  0.51100000000E-03 0.  1.
         11    1    4    4    0    0 -0.13326857519E-01  0.17585623433E-01 -0.26620556209E-01  0.34579971323E-01  0.51100000000E-03 0. -1.
</event>
<event>
 8    1  0.1137518E+005  0.1043930E+01  0.7957747E-01            NaN
         13   -1    0    0    0    0  0.00000000000E+00  0.00000000000E+00  0.74505805969E-08  0.10566000000E+00  0.10566000000E+00 0.  1.
     999900   -1    0    0    0    0 -0.00000000000E+00 -0.00000000000E+00 -0.74505805969E-08  0.93827000000E+00  0.93827000000E+00 0.  1.
     999902    2    1    2    0    0  0.12630517045E-01  0.18509795808E-01 -0.14361945535E-01  0.10173140653E+01  0.10169658300E+01 0.  0.
     999903    2    3    3    0    0  0.12821107164E-01 -0.55509158120E-01  0.11069717879E+00  0.12539555642E+00  0.14984417030E-01 0.  0.
         14    1    1    2    0    0 -0.12630517045E-01 -0.18509795808E-01  0.14361945535E-01  0.26615934724E-01  0.00000000000E+00 0. -1.
     999901    1    3    3    0    0 -0.19059011876E-03  0.74018953928E-01 -0.12505912432E+00  0.89191850886E+00  0.88000000000E+00 0.  1.
        -11    1    4    4    0    0  0.64034853792E-02 -0.57310798465E-02  0.19021108274E-01  0.20878543583E-01  0.51100000000E-03 0.  1.
         11    1    4    4    0    0  0.64176217848E-02 -0.49778078273E-01  0.91676070515E-01  0.10451701284E+00  0.51100000000E-03 0. -1.
</event>
<event>
 8    1  0.1137518E+005  0.1043930E+01  0.7957747E-01            NaN
         13   -1    0    0    0    0  0.00000000000E+00  0.00000000000E+00  0.74505805969E-08  0.10566000000E+00  0.10566000000E+00 0. -1.
     999900   -1    0    0    0    0 -0.00000000000E+00 -0.00000000000E+00 -0.74505805969E-08  0.93827000000E+00  0.93827000000E+00 0.  1.
     999902    2    1    2    0    0 -0.18692739624E-01 -0.11573882328E-01  0.10808165742E-01  0.10194312304E+01  0.10191368131E+01 0.  0.
     999903    2    3    3    0    0  0.18915001160E-01 -0.81007001127E-01  0.10012872477E+00  0.13139211951E+00  0.17838611030E-01 0.  0.
         14    1    1    2    0    0  0.18692739624E-01  0.11573882328E-01 -0.10808165742E-01  0.24498769632E-01  0.00000000000E+00 0.  1.
     999901    1    3    3    0    0 -0.37607740784E-01  0.69433118798E-01 -0.89320559031E-01  0.88803911086E+00  0.88000000000E+00 0.  1.
        -11    1    4    4    0    0  0.71691804603E-02 -0.10556844641E-01  0.90744091710E-02  0.15666848440E-01  0.51100000000E-03 0. -1.
         11    1    4    4    0    0  0.11745820700E-01 -0.70450156486E-01  0.91054315602E-01  0.11572527107E+00  0.51100000000E-03 0.  1.
</event>
<event>
 8    1  0.1137518E+005  0.1043930E+01  0.7957747E-01            NaN
         13   -1    0    0    0    0  0.00000000000E+00  0.00000000000E+00  0.74505805969E-08  0.10566000000E+00  0.10566000000E+00 0.  1.
     999900   -1    0    0    0    0 -0.00000000000E+00 -0.00000000000E+00 -0.74505805969E-08  0.93827000000E+00  0.93827000000E+00 0.  1.
     999902    2    1    2    0    0 -0.21016364793E-01 -0.45637690390E-03  0.12998741663E-01  0.10192143541E+01  0.10189146365E+01 0.  0.
     999903    2    3    3    0    0  0.75203933295E-02 -0.10312082627E+00 -0.73894603692E-01  0.12853776338E+00  0.19263515619E-01 0.  0.
         14    1    1    2    0    0  0.21016364793E-01  0.45637690390E-03 -0.12998741663E-01  0.24715645931E-01  0.00000000000E+00 0. -1.
     999901    1    3    3    0    0 -0.28536758122E-01  0.10266444937E+00  0.86893345355E-01  0.89067659069E+00  0.88000000000E+00 0. -1.
        -11    1    4    4    0    0  0.78240757581E-02 -0.41330381596E-01 -0.40048272572E-01  0.58082199178E-01  0.51100000000E-03 0.  1.
         11    1    4    4    0    0 -0.30368242861E-03 -0.61790444675E-01 -0.33846331120E-01  0.70455564205E-01  0.51100000000E-03 0. -1.
</event>
<event>
 8    1  0.1137518E+005  0.1043930E+01  0.7957747E-01            NaN
         13   -1    0    0    0    0  0.00000000000E+00  0.00000000000E+00  0.74505805969E-08  0.10566000000E+00  0.10566000000E+00 0.  1.
     999900   -1    0    0    0    0 -0.00000000000E+00 -0.00000000000E+00 -0.74505805969E-08  0.93827000000E+00  0.93827000000E+00 0. -1.
     999902    2    1    2    0    0 -0.43232048724E-02 -0.15777695619E-01 -0.17126568007E-01  0.10202457202E+01  0.10199707763E+01 0.  0.
     999903    2    3    3    0    0 -0.12143581056E+00  0.36859085450E-01 -0.24196056983E-01  0.13089990958E+00  0.21073416619E-01 0.  0.
         14    1    1    2    0    0  0.43232048724E-02  0.15777695619E-01  0.17126568007E-01  0.23684279831E-01  0.00000000000E+00 0. -1.
     999901    1    3    3    0    0  0.11711260569E+00 -0.52636781070E-01  0.70694889762E-02  0.88934581059E+00  0.88000000000E+00 0. -1.
        -11    1    4    4    0    0 -0.39210277270E-01  0.21963628291E-01 -0.56293158837E-02  0.45296767319E-01  0.51100000000E-03 0.  1.
         11    1    4    4    0    0 -0.82225533293E-01  0.14895457160E-01 -0.18566741099E-01  0.85603142263E-01  0.51100000000E-03 0. -1.
</event>
<event>
 8    1  0.1137518E+005  0.1043930E+01  0.7957747E-01            NaN
         13   -1    0    0    0    0  0.00000000000E+00  0.00000000000E+00  0.74505805969E-08  0.10566000000E+00  0.10566000000E+00 0. -1.
     999900   -1    0    0    0    0 -0.00000000000E+00 -0.00000000000E+00 -0.74505805969E-08  0.93827000000E+00  0.93827000000E+00 0. -1.
     999902    2    1    2    0    0  0.23079551258E-02  0.11429092278E-01 -0.20176003563E-01  0.10206271691E+01  0.10203611108E+01 0.  0.
     999903    2    3    3    0    0  0.21233044109E-01  0.12840623889E+00 -0.17227195674E-01  0.13267981297E+00  0.19187291398E-01 0.  0.
         14    1    1    2    0    0 -0.23079551258E-02 -0.11429092278E-01  0.20176003563E-01  0.23302830879E-01  0.00000000000E+00 0. -1.
     999901    1    3    3    0    0 -0.18925088983E-01 -0.11697714661E+00 -0.29488078894E-02  0.88794735615E+00  0.88000000000E+00 0. -1.
        -11    1    4    4    0    0  0.12451439006E-01  0.10452892152E+00 -0.78520098318E-02  0.10556158841E+00  0.51100000000E-03 0. -1.
         11    1    4    4    0    0  0.87816051029E-02  0.23877317372E-01 -0.93751858421E-02  0.27118224566E-01  0.51100000000E-03 0.  1.
</event>
<event>
 8    1  0.1137518E+005  0.1043930E+01  0.7957747E-01            NaN
         13   -1    0    0    0    0  0.00000000000E+00  0.00000000000E+00  0.74505805969E-08  0.10566000000E+00  0.10566000000E+00 0. -1.
     999900   -1    0    0    0    0 -0.00000000000E+00 -0.00000000000E+00 -0.74505805969E-08  0.93827000000E+00  0.93827000000E+00 0. -1.
     999902    2    1    2    0    0  0.23247255882E-01 -0.19231096563E-02  0.48040013280E-02  0.10201137936E+01  0.10198357418E+01 0.  0.
     999903    2    3    3    0    0 -0.47060439934E-01  0.11023125234E+00 -0.43079003293E-01  0.12892663308E+00  0.20016547999E-01 0.  0.
         14    1    1    2    0    0 -0.23247255882E-01  0.19231096563E-02 -0.48040013280E-02  0.23816206363E-01  0.00000000000E+00 0. -1.
     999901    1    3    3    0    0  0.70307695815E-01 -0.11215436200E+00  0.47883004621E-01  0.89118716055E+00  0.88000000000E+00 0.  1.
        -11    1    4    4    0    0 -0.21007225801E-01  0.34346855796E-01 -0.66519277144E-02  0.40810774340E-01  0.51100000000E-03 0.  1.
         11    1    4    4    0    0 -0.26053214132E-01  0.75884396545E-01 -0.36427075578E-01  0.88115858742E-01  0.51100000000E-03 0. -1.
</event>
<event>
 8    1  0.1137518E+005  0.1043930E+01  0.7957747E-01            NaN
         13   -1    0    0    0    0  0.00000000000E+00  0.00000000000E+00  0.74505805969E-08  0.10566000000E+00  0.10566000000E+00 0. -1.
     999900   -1    0    0    0    0 -0.00000000000E+00 -0.00000000000E+00 -0.74505805969E-08  0.93827000000E+00  0.93827000000E+00 0. -1.
     999902    2    1    2    0    0 -0.27668835447E-01 -0.36134247858E-02  0.21924270521E-01  0.10084434542E+01  0.10078188852E+01 0.  0.
     999903    2    3    3    0    0  0.52983171242E-01 -0.97810765920E-01  0.38752086658E-01  0.11958966385E+00  0.20634948853E-01 0.  0.
         14    1    1    2    0    0  0.27668835447E-01  0.36134247858E-02 -0.21924270521E-01  0.35486545782E-01  0.00000000000E+00 0.  1.
     999901    1    3    3    0    0 -0.80652006689E-01  0.94197341134E-01 -0.16827816137E-01  0.88885379037E+00  0.88000000000E+00 0.  1.
        -11    1    4    4    0    0  0.16919545892E-01 -0.35939625395E-01  0.24178044696E-01  0.46505555292E-01  0.51100000000E-03 0.  1.
         11    1    4    4    0    0  0.36063625349E-01 -0.61871140525E-01  0.14574041962E-01  0.73084108555E-01  0.51100000000E-03 0. -1.
</event>
<event>
 8    1  0.1137518E+005  0.1043930E+01  0.7957747E-01            NaN
         13   -1    0    0    0    0  0.00000000000E+00  0.00000000000E+00  0.74505805969E-08  0.10566000000E+00  0.10566000000E+00 0.  1.
     999900   -1    0    0    0    0 -0.00000000000E+00 -0.00000000000E+00 -0.74505805969E-08  0.93827000000E+00  0.93827000000E+00 0.  1.
     999902    2    1    2    0    0  0.23406153865E-02 -0.22812162375E-01 -0.47757537729E-02  0.10205060580E+01  0.10202371947E+01 0.  0.
     999903    2    3    3    0    0  0.92746638501E-01 -0.83562131189E-01 -0.41211434133E-01  0.13304261287E+00  0.20430022338E-01 0.  0.
         14    1    1    2    0    0 -0.23406153865E-02  0.22812162375E-01  0.47757537729E-02  0.23423941955E-01  0.00000000000E+00 0. -1.
     999901    1    3    3    0    0 -0.90406023114E-01  0.60749968814E-01  0.36435680360E-01  0.88746344518E+00  0.88000000000E+00 0. -1.
        -11    1    4    4    0    0  0.83527126488E-01 -0.81924757492E-01 -0.36582092591E-01  0.12258449074E+00  0.51100000000E-03 0. -1.
         11    1    4    4    0    0  0.92195120128E-02 -0.16373736967E-02 -0.46293415414E-02  0.10458122130E-01  0.51100000000E-03 0.  1.
</event>
<event>
 8    1  0.1137518E+005  0.1043930E+01  0.7957747E-01            NaN
         13   -1    0    0    0    0  0.00000000000E+00  0.00000000000E+00  0.74505805969E-08  0.10566000000E+00  0.10566000000E+00 0. -1.
     999900   -1    0    0    0    0 -0.00000000000E+00 -0.00000000000E+00 -0.74505805969E-08  0.93827000000E+00  0.93827000000E+00 0.  1.
     999902    2    1    2    0    0 -0.77533763960E-02 -0.18588567487E-01  0.12280648481E-01  0.10203405105E+01  0.10200677886E+01 0.  0.
     999903    2    3    3    0    0  0.10349114179E+00  0.51296544689E-01 -0.51978774916E-01  0.12827070091E+00  0.20244202733E-01 0.  0.
         14    1    1    2    0    0  0.77533763960E-02  0.18588567487E-01 -0.12280648481E-01  0.23589489479E-01  0.00000000000E+00 0.  1.
     999901    1    3    3    0    0 -0.11124451818E+00 -0.69885112176E-01  0.64259423397E-01  0.89206980961E+00  0.88000000000E+00 0. -1.
        -11    1    4    4    0    0  0.35770541649E-01  0.28661069996E-01 -0.19097841531E-01  0.49658607062E-01  0.51100000000E-03 0.  1.
         11    1    4    4    0    0  0.67720600137E-01  0.22635474693E-01 -0.32880933385E-01  0.78612093846E-01  0.51100000000E-03 0. -1.
</event>
<event>
 8    1  0.1137518E+005  0.1043930E+01  0.7957747E-01            NaN
         13   -1    0    0    0    0  0.00000000000E+00  0.00000000000E+00  0.74505805969E-08  0.10566000000E+00  0.10566000000E+00 0.  1.
     999900   -1    0    0    0    0 -0.00000000000E+00 -0.00000000000E+00 -0.74505805969E-08  0.93827000000E+00  0.93827000000E+00 0.  1.
     999902    2    1    2    0    0 -0.22972610264E-01 -0.36395580896E-02  0.26033802628E-02  0.10205256245E+01  0.10202572153E+01 0.  0.
     999903    2    3    3    0    0  0.74735256668E-01 -0.99665490591E-01 -0.27210427932E-01  0.12942704960E+00  0.22189753831E-01 0.  0.
         14    1    1    2    0    0  0.22972610264E-01  0.36395580896E-02 -0.26033802628E-02  0.23404375535E-01  0.00000000000E+00 0. -1.
     999901    1    3    3    0    0 -0.97707866931E-01  0.96025932501E-01  0.29813808195E-01  0.89109857487E+00  0.88000000000E+00 0.  1.
        -11    1    4    4    0    0  0.70072666067E-01 -0.90020241291E-01 -0.18413939479E-01  0.11555585948E+00  0.51100000000E-03 0. -1.
         11    1    4    4    0    0  0.46625906001E-02 -0.96452492999E-02 -0.87964884526E-02  0.13871190117E-01  0.51100000000E-03 0.  1.
</event>
<event>
 8    1  0.1137518E+005  0.1043930E+01  0.7957747E-01            NaN
         13   -1    0    0    0    0  0.00000000000E+00  0.00000000000E+00  0.74505805969E-08  0.10566000000E+00  0.10566000000E+00 0. -1.
     999900   -1    0    0    0    0 -0.00000000000E+00 -0.00000000000E+00 -0.74505805969E-08  0.93827000000E+00  0.93827000000E+00 0. -1.
     999902    2    1    2    0    0 -0.84667684807E-02 -0.23773140849E-01  0.11427568445E-02  0.10186682842E+01  0.10183550063E+01 0.  0.
     999903    2    3    3    0    0  0.98835790930E-01 -0.13394811492E-01 -0.78783848623E-01  0.12849424991E+00  0.18866449400E-01 0.  0.
         14    1    1    2    0    0  0.84667684807E-02  0.23773140849E-01 -0.11427568445E-02  0.25261715847E-01  0.00000000000E+00 0.  1.
     999901    1    3    3    0    0 -0.10730255941E+00 -0.10378329356E-01  0.79926605467E-01  0.89017403424E+00  0.88000000000E+00 0.  1.
        -11    1    4    4    0    0  0.51632206026E-01 -0.17405007274E-02 -0.50485183732E-01  0.72235233365E-01  0.51100000000E-03 0.  1.
         11    1    4    4    0    0  0.47203584904E-01 -0.11654310765E-01 -0.28298664891E-01  0.56259016547E-01  0.51100000000E-03 0. -1.
</event>
<event>
 8    1  0.1137518E+005  0.1043930E+01  0.7957747E-01            NaN
         13   -1    0    0    0    0  0.00000000000E+00  0.00000000000E+00  0.74505805969E-08  0.10566000000E+00  0.10566000000E+00 0. -1.
     999900   -1    0    0    0    0 -0.00000000000E+00 -0.00000000000E+00 -0.74505805969E-08  0.93827000000E+00  0.93827000000E+00 0.  1.
     999902    2    1    2    0    0 -0.99672651379E-03 -0.11137290542E-01  0.20887363094E-01  0.10202379203E+01  0.10199627931E+01 0.  0.
     999903    2    3    3    0    0  0.43205342106E-01  0.40899306132E-01 -0.11125996230E+00  0.12775568187E+00  0.20081837829E-01 0.  0.
         14    1    1    2    0    0  0.99672651379E-03  0.11137290542E-01 -0.20887363094E-01  0.23692079718E-01  0.00000000000E+00 0.  1.
     999901    1    3    3    0    0 -0.44202068620E-01 -0.52036596674E-01  0.13214732540E+00  0.89248223841E+00  0.88000000000E+00 0. -1.
        -11    1    4    4    0    0  0.15698065788E-01  0.23222968045E-01 -0.67793174223E-01  0.73361509707E-01  0.51100000000E-03 0.  1.
         11    1    4    4    0    0  0.27507276318E-01  0.17676338087E-01 -0.43466788081E-01  0.54394172167E-01  0.51100000000E-03 0. -1.
</event>
<event>
 8    1  0.1137518E+005  0.1043930E+01  0.7957747E-01            NaN
         13   -1    0    0    0    0  0.00000000000E+00  0.00000000000E+00  0.74505805969E-08  0.10566000000E+00  0.10566000000E+00 0. -1.
     999900   -1    0    0    0    0 -0.00000000000E+00 -0.00000000000E+00 -0.74505805969E-08  0.93827000000E+00  0.93827000000E+00 0.  1.
     999902    2    1    2    0    0  0.89793186241E-02 -0.21185435088E-01 -0.86801096367E-02  0.10193374173E+01  0.10190407132E+01 0.  0.
     999903    2    3    3    0    0  0.55203879966E-01 -0.10168140714E+00  0.61219927449E-01  0.13169879328E+00  0.14495368656E-01 0.  0.
         14    1    1    2    0    0 -0.89793186241E-02  0.21185435088E-01  0.86801096367E-02  0.24592582746E-01  0.00000000000E+00 0.  1.
     999901    1    3    3    0    0 -0.46224561342E-01  0.80495972054E-01 -0.69900037086E-01  0.88763862398E+00  0.88000000000E+00 0.  1.
        -11    1    4    4    0    0  0.18762942446E-01 -0.21703808483E-01  0.14003947224E-01  0.31929218136E-01  0.51100000000E-03 0.  1.
         11    1    4    4    0    0  0.36440937520E-01 -0.79977598659E-01  0.47215980224E-01  0.99769575143E-01  0.51100000000E-03 0. -1.
</event>
<event>
 8    1  0.1137518E+005  0.1043930E+01  0.7957747E-01            NaN
         13   -1    0    0    0    0  0.00000000000E+00  0.00000000000E+00  0.74505805969E-08  0.10566000000E+00  0.10566000000E+00 0.  1.
     999900   -1    0    0    0    0 -0.00000000000E+00 -0.00000000000E+00 -0.74505805969E-08  0.93827000000E+00  0.93827000000E+00 0. -1.
     999902    2    1    2    0    0 -0.10156794089E-01  0.10691124452E-01 -0.18252241554E-01  0.10204650276E+01  0.10201952105E+01 0.  0.
     999903    2    3    3    0    0  0.10096412907E+00  0.81617294735E-03  0.76786798400E-01  0.12834519632E+00  0.19541123657E-01 0.  0.
         14    1    1    2    0    0  0.10156794089E-01 -0.10691124452E-01  0.18252241554E-01  0.23464972405E-01  0.00000000000E+00 0.  1.
     999901    1    3    3    0    0 -0.11112092316E+00  0.98749515047E-02 -0.95039039954E-01  0.89211983127E+00  0.88000000000E+00 0. -1.
        -11    1    4    4    0    0  0.42182977200E-01 -0.38104359402E-02  0.21443702387E-01  0.47476483448E-01  0.51100000000E-03 0.  1.
         11    1    4    4    0    0  0.58781151871E-01  0.46266088876E-02  0.55343096013E-01  0.80868712877E-01  0.51100000000E-03 0. -1.
</event>
<event>
 8    1  0.1137518E+005  0.1043930E+01  0.7957747E-01            NaN
         13   -1    0    0    0    0  0.00000000000E+00  0.00000000000E+00  0.74505805969E-08  0.10566000000E+00  0.10566000000E+00 0.  1.
     999900   -1    0    0    0    0 -0.00000000000E+00 -0.00000000000E+00 -0.74505805969E-08  0.93827000000E+00  0.93827000000E+00 0. -1.
     999902    2    1    2    0    0  0.19316848518E-01 -0.95431730151E-02  0.59257671012E-02  0.10215843628E+01  0.10213399447E+01 0.  0.
     999903    2    3    3    0    0  0.12424091767E+00 -0.34571178066E-01  0.33028936778E-01  0.13458377475E+00  0.19771438617E-01 0.  0.
         14    1    1    2    0    0 -0.19316848518E-01  0.95431730151E-02 -0.59257671012E-02  0.22345637239E-01  0.00000000000E+00 0.  1.
     999901    1    3    3    0    0 -0.10492406915E+00  0.25028005051E-01 -0.27103169677E-01  0.88700058801E+00  0.88000000000E+00 0. -1.
        -11    1    4    4    0    0  0.89124819207E-02 -0.81495376643E-02  0.18607919819E-02  0.12229920929E-01  0.51100000000E-03 0.  1.
         11    1    4    4    0    0  0.11532843575E+00 -0.26421640402E-01  0.31168144797E-01  0.12235385382E+00  0.51100000000E-03 0. -1.
</event>
<event>
 8    1  0.1137518E+005  0.1043930E+01  0.7957747E-01            NaN
         13   -1    0    0    0    0  0.00000000000E+00  0.00000000000E+00  0.74505805969E-08  0.10566000000E+00  0.10566000000E+00 0. -1.
     999900   -1    0    0    0    0 -0.00000000000E+00 -0.00000000000E+00 -0.74505805969E-08  0.93827000000E+00  0.93827000000E+00 0.  1.
     999902    2    1    2    0    0  0.15956310933E-02  0.21008863279E-01 -0.48459617378E-02  0.10223105245E+01  0.10220818983E+01 0.  0.
     999903    2    3    3    0    0  0.49452347602E-01  0.10781672962E+00  0.59771927956E-01  0.13439085324E+00  0.20450823784E-01 0.  0.
         14    1    1    2    0    0 -0.15956310933E-02 -0.21008863279E-01  0.48459617378E-02  0.21619475479E-01  0.00000000000E+00 0. -1.
     999901    1    3    3    0    0 -0.47856716509E-01 -0.86807866345E-01 -0.64617889694E-01  0.88791967128E+00  0.88000000000E+00 0. -1.
        -11    1    4    4    0    0  0.29512071756E-01  0.83776455897E-01  0.39950138526E-01  0.97394720757E-01  0.51100000000E-03 0. -1.
         11    1    4    4    0    0  0.19940275847E-01  0.24040273727E-01  0.19821789430E-01  0.36996132486E-01  0.51100000000E-03 0.  1.
</event>
<event>
 8    1  0.1137518E+005  0.1043930E+01  0.7957747E-01            NaN
         13   -1    0    0    0    0  0.00000000000E+00  0.00000000000E+00  0.74505805969E-08  0.10566000000E+00  0.10566000000E+00 0.  1.
     999900   -1    0    0    0    0 -0.00000000000E+00 -0.00000000000E+00 -0.74505805969E-08  0.93827000000E+00  0.93827000000E+00 0.  1.
     999902    2    1    2    0    0  0.24448035677E-01 -0.37572542465E-02  0.14299941170E-02  0.10191536344E+01  0.10188524242E+01 0.  0.
     999903    2    3    3    0    0  0.10176905275E+00  0.11881082204E-01  0.80743133472E-01  0.13207208726E+00  0.20627225180E-01 0.  0.
         14    1    1    2    0    0 -0.24448035677E-01  0.37572542465E-02 -0.14299941170E-02  0.24776365575E-01  0.00000000000E+00 0.  1.
     999901    1    3    3    0    0 -0.77321017071E-01 -0.15638336451E-01 -0.79313139355E-01  0.88708154717E+00  0.88000000000E+00 0.  1.
        -11    1    4    4    0    0  0.91685180327E-01  0.80380973033E-02  0.78654799700E-01  0.12106866620E+00  0.51100000000E-03 0. -1.
         11    1    4    4    0    0  0.10083872421E-01  0.38429849008E-02  0.20883337718E-02  0.11003421054E-01  0.51100000000E-03 0.  1.
</event>
<event>
 8    1  0.1137518E+005  0.1043930E+01  0.7957747E-01            NaN
         13   -1    0    0    0    0  0.00000000000E+00  0.00000000000E+00  0.74505805969E-08  0.10566000000E+00  0.10566000000E+00 0.  1.
     999900   -1    0    0    0    0 -0.00000000000E+00 -0.00000000000E+00 -0.74505805969E-08  0.93827000000E+00  0.93827000000E+00 0. -1.
     999902    2    1    2    0    0 -0.29604416283E-05  0.11347678475E-01 -0.20862931784E-01  0.10201806476E+01  0.10199041730E+01 0.  0.
     999903    2    3    3    0    0  0.58247402479E-01 -0.85959793510E-01 -0.77378119631E-01  0.13110482671E+00  0.20475746452E-01 0.  0.
         14    1    1    2    0    0  0.29604416283E-05 -0.11347678475E-01  0.20862931784E-01  0.23749352374E-01  0.00000000000E+00 0.  1.
     999901    1    3    3    0    0 -0.58250362921E-01  0.97307471984E-01  0.56515187847E-01  0.88907582092E+00  0.88000000000E+00 0.  1.
        -11    1    4    4    0    0  0.40698924588E-01 -0.68851101415E-01 -0.49855219825E-01  0.94247974479E-01  0.51100000000E-03 0. -1.
         11    1    4    4    0    0  0.17548477891E-01 -0.17108692095E-01 -0.27522899806E-01  0.36856852228E-01  0.51100000000E-03 0.  1.
</event>
<event>
 8    1  0.1137518E+005  0.1043930E+01  0.7957747E-01            NaN
         13   -1    0    0    0    0  0.00000000000E+00  0.00000000000E+00  0.74505805969E-08  0.10566000000E+00  0.10566000000E+00 0.  1.
     999900   -1    0    0    0    0 -0.00000000000E+00 -0.00000000000E+00 -0.74505805969E-08  0.93827000000E+00  0.93827000000E+00 0.  1.
     999902    2    1    2    0    0  0.16197145138E-01 -0.55203339816E-02  0.16951621311E-01  0.10198430935E+01  0.10195586086E+01 0.  0.
     999903    2    3    3    0    0 -0.22436343527E-01 -0.10320086485E+00  0.75947222025E-01  0.13163449559E+00  0.20145765834E-01 0.  0.
         14    1    1    2    0    0 -0.16197145138E-01  0.55203339816E-02 -0.16951621311E-01  0.24086906463E-01  0.00000000000E+00 0. -1.
     999901    1    3    3    0    0  0.38633488665E-01  0.97680530865E-01 -0.58995600715E-01  0.88820859794E+00  0.88000000000E+00 0. -1.
        -11    1    4    4    0    0 -0.23725342953E-01 -0.65002287300E-01  0.46276303922E-01  0.83246301288E-01  0.51100000000E-03 0.  1.
         11    1    4    4    0    0  0.12889994262E-02 -0.38198577546E-01  0.29670918103E-01  0.48388194306E-01  0.51100000000E-03 0. -1.
</event>
<event>
 8    1  0.1137518E+005  0.1043930E+01  0.7957747E-01            NaN
         13   -1    0    0    0    0  0.00000000000E+00  0.00000000000E+00  0.74505805969E-08  0.10566000000E+00  0.10566000000E+00 0. -1.
     999900   -1    0    0    0    0 -0.00000000000E+00 -0.00000000000E+00 -0.74505805969E-08  0.93827000000E+00  0.93827000000E+00 0.  1.
     999902    2    1    2    0    0  0.10387738759E-01  0.13256907288E-01  0.16304570460E-01  0.10204888028E+01  0.10202195386E+01 0.  0.
     999903    2    3    3    0    0  0.12337444172E+00  0.21682813296E-01  0.40778803153E-01  0.13288755282E+00  0.17458340262E-01 0.  0.
         14    1    1    2    0    0 -0.10387738759E-01 -0.13256907288E-01 -0.16304570460E-01  0.23441197180E-01  0.00000000000E+00 0.  1.
     999901    1    3    3    0    0 -0.11298670296E+00 -0.84259060084E-02 -0.24474232693E-01  0.88760125000E+00  0.88000000000E+00 0. -1.
        -11    1    4    4    0    0  0.17168420143E-01 -0.32054425672E-03  0.49630829301E-03  0.17186181710E-01  0.51100000000E-03 0.  1.
         11    1    4    4    0    0  0.10620602158E+00  0.22003357553E-01  0.40282494860E-01  0.11570137111E+00  0.51100000000E-03 0. -1.
</event>
<event>
 8    1  0.1137518E+005  0.1043930E+01  0.7957747E-01            NaN
         13   -1    0    0    0    0  0.00000000000E+00  0.00000000000E+00  0.74505805969E-08  0.10566000000E+00  0.10566000000E+00 0. -1.
     999900   -1    0    0    0    0 -0.00000000000E+00 -0.00000000000E+00 -0.74505805969E-08  0.93827000000E+00  0.93827000000E+00 0. -1.
     999902    2    1    2    0    0 -0.96251466510E-02 -0.21839205528E-01 -0.15583924134E-01  0.10154264382E+01  0.10150263042E+01 0.  0.
     999903    2    3    3    0    0  0.86531427689E-01 -0.90693059609E-01 -0.11907300767E-01  0.12750726528E+00  0.20084816358E-01 0.  0.
         14    1    1    2    0    0  0.96251466510E-02  0.21839205528E-01  0.15583924134E-01  0.28503561840E-01  0.00000000000E+00 0. -1.
     999901    1    3    3    0    0 -0.96156574340E-01  0.68853854081E-01 -0.36766233671E-02  0.88791917288E+00  0.88000000000E+00 0. -1.
        -11    1    4    4    0    0  0.31487259960E-01 -0.45647500125E-01 -0.10018300076E-01  0.56353964056E-01  0.51100000000E-03 0. -1.
         11    1    4    4    0    0  0.55044167729E-01 -0.45045559484E-01 -0.18890006904E-02  0.71153301223E-01  0.51100000000E-03 0.  1.
</event>
<event>
 8    1  0.1137518E+005  0.1043930E+01  0.7957747E-01            NaN
         13   -1    0    0    0    0  0.00000000000E+00  0.00000000000E+00  0.74505805969E-08  0.10566000000E+00  0.10566000000E+00 0.  1.
     999900   -1    0    0    0    0 -0.00000000000E+00 -0.00000000000E+00 -0.74505805969E-08  0.93827000000E+00  0.93827000000E+00 0. -1.
     999902    2    1    2    0    0  0.17212238230E-01  0.76594783768E-02 -0.14434299412E-01  0.10201965267E+01  0.10199204260E+01 0.  0.
     999903    2    3    3    0    0  0.48911721031E-01 -0.72573764886E-01 -0.96699932739E-01  0.13215944138E+00  0.21352591173E-01 0.  0.
         14    1    1    2    0    0 -0.17212238230E-01 -0.76594783768E-02  0.14434299412E-01  0.23733473269E-01  0.00000000000E+00 0.  1.
     999901    1    3    3    0    0 -0.31699482802E-01  0.80233243263E-01  0.82265633327E-01  0.88803708535E+00  0.88000000000E+00 0. -1.
        -11    1    4    4    0    0  0.36587251530E-01 -0.66799128531E-01 -0.77926052244E-01  0.10896550503E+00  0.51100000000E-03 0.  1.
         11    1    4    4    0    0  0.12324469502E-01 -0.57746363551E-02 -0.18773880495E-01  0.23193936349E-01  0.51100000000E-03 0. -1.
</event>
<event>
 8    1  0.1137518E+005  0.1043930E+01  0.7957747E-01            NaN
         13   -1    0    0    0    0  0.00000000000E+00  0.00000000000E+00  0.74505805969E-08  0.10566000000E+00  0.10566000000E+00 0. -1.
     999900   -1    0    0    0    0 -0.00000000000E+00 -0.00000000000E+00 -0.74505805969E-08  0.93827000000E+00  0.93827000000E+00 0.  1.
     999902    2    1    2    0    0  0.18985621752E-01  0.89396628603E-02 -0.73513973089E-02  0.10216945677E+01  0.10214525810E+01 0.  0.
     999903    2    3    3    0    0 -0.72892877094E-01  0.73382010148E-01  0.76931113533E-01  0.13057279362E+00  0.20798251383E-01 0.  0.
         14    1    1    2    0    0 -0.18985621752E-01 -0.89396628603E-02  0.73513973089E-02  0.22235432259E-01  0.00000000000E+00 0. -1.
     999901    1    3    3    0    0  0.91878498846E-01 -0.64442347288E-01 -0.84282510842E-01  0.89112177412E+00  0.88000000000E+00 0. -1.
        -11    1    4    4    0    0 -0.52537875259E-01  0.40154655205E-01  0.53853544908E-01  0.85282413730E-01  0.51100000000E-03 0. -1.
         11    1    4    4    0    0 -0.20355001834E-01  0.33227354943E-01  0.23077568624E-01  0.45290379893E-01  0.51100000000E-03 0.  1.
</event>
<event>
 8    1  0.1137518E+005  0.1043930E+01  0.7957747E-01            NaN
         13   -1    0    0    0    0  0.00000000000E+00  0.00000000000E+00  0.74505805969E-08  0.10566000000E+00  0.10566000000E+00 0.  1.
     999900   -1    0    0    0    0 -0.00000000000E+00 -0.00000000000E+00 -0.74505805969E-08  0.93827000000E+00  0.93827000000E+00 0.  1.
     999902    2    1    2    0    0 -0.54084781300E-02  0.11863674667E-01 -0.20174804206E-01  0.10199087357E+01  0.10196258177E+01 0.  0.
     999903    2    3    3    0    0 -0.99169575250E-01  0.76245900630E-02 -0.85245233164E-01  0.13252873038E+00  0.20109091732E-01 0.  0.
         14    1    1    2    0    0  0.54084781300E-02 -0.11863674667E-01  0.20174804206E-01  0.24021264268E-01  0.00000000000E+00 0.  1.
     999901    1    3    3    0    0  0.93761097120E-01  0.42390846037E-02  0.65070428958E-01  0.88738000535E+00  0.88000000000E+00 0. -1.
        -11    1    4    4    0    0 -0.73938298058E-01 -0.32079042701E-02 -0.61804619804E-01  0.96422169233E-01  0.51100000000E-03 0.  1.
         11    1    4    4    0    0 -0.25231277192E-01  0.10832494333E-01 -0.23440613360E-01  0.36106561148E-01  0.51100000000E-03 0. -1.
</event>
<event>
 8    1  0.1137518E+005  0.1043930E+01  0.7957747E-01            NaN
         13   -1    0    0    0    0  0.00000000000E+00  0.00000000000E+00  0.74505805969E-08  0.10566000000E+00  0.10566000000E+00 0.  1.
     999900   -1    0    0    0    0 -0.00000000000E+00 -0.00000000000E+00 -0.74505805969E-08  0.93827000000E+00  0.93827000000E+00 0.  1.
     999902    2    1    2    0    0 -0.56302589094E-03  0.20087994958E-01 -0.12094062832E-01  0.10204755570E+01  0.10202059849E+01 0.  0.
     999903    2    3    3    0    0 -0.74733627236E-01 -0.10076817686E+00 -0.22355189054E-01  0.12906499893E+00  0.20461646143E-01 0.  0.
         14    1    1    2    0    0  0.56302589094E-03 -0.20087994958E-01  0.12094062832E-01  0.23454442977E-01  0.00000000000E+00 0.  1.
     999901    1    3    3    0    0  0.74170601345E-01  0.12085617182E+00  0.10261126221E-01  0.89141055809E+00  0.88000000000E+00 0. -1.
        -11    1    4    4    0    0 -0.13209113541E-01 -0.22213732585E-01 -0.12748700415E-01  0.28822232376E-01  0.51100000000E-03 0.  1.
         11    1    4    4    0    0 -0.61524513695E-01 -0.78554444277E-01 -0.96064886392E-02  0.10024276655E+00  0.51100000000E-03 0. -1.
</event>
<event>
 8    1  0.1137518E+005  0.1043930E+01  0.7957747E-01            NaN
         13   -1    0    0    0    0  0.00000000000E+00  0.00000000000E+00  0.74505805969E-08  0.10566000000E+00  0.10566000000E+00 0.  1.
     999900   -1    0    0    0    0 -0.00000000000E+00 -0.00000000000E+00 -0.74505805969E-08  0.93827000000E+00  0.93827000000E+00 0. -1.
     999902    2    1    2    0    0 -0.23099935708E-01 -0.47474955846E-02 -0.50061849965E-02  0.10198217518E+01  0.10195367565E+01 0.  0.
     999903    2    3    3    0    0  0.11562066756E+00 -0.29715275018E-01  0.39921720039E-01  0.12747355044E+00  0.20115317434E-01 0.  0.
         14    1    1    2    0    0  0.23099935708E-01  0.47474955846E-02  0.50061849965E-02  0.24108248221E-01  0.00000000000E+00 0.  1.
     999901    1    3    3    0    0 -0.13872060327E+00  0.24967779434E-01 -0.44927905036E-01  0.89234820134E+00  0.88000000000E+00 0. -1.
        -11    1    4    4    0    0  0.69592121851E-01 -0.26894551910E-01  0.20052039080E-01  0.77257528685E-01  0.51100000000E-03 0. -1.
         11    1    4    4    0    0  0.46028545706E-01 -0.28207231087E-02  0.19869680960E-01  0.50216021757E-01  0.51100000000E-03 0.  1.
</event>
<event>
 8    1  0.1137518E+005  0.1043930E+01  0.7957747E-01            NaN
         13   -1    0    0    0    0  0.00000000000E+00  0.00000000000E+00  0.74505805969E-08  0.10566000000E+00  0.10566000000E+00 0. -1.
     999900   -1    0    0    0    0 -0.00000000000E+00 -0.00000000000E+00 -0.74505805969E-08  0.93827000000E+00  0.93827000000E+00 0.  1.
     999902    2    1    2    0    0 -0.23526975934E-01  0.81412680774E-02  0.75860192749E-04  0.10190341249E+01  0.10187299657E+01 0.  0.
     999903    2    3    3    0    0  0.77643053075E-01  0.33513573428E-01  0.93495376154E-01  0.12796379399E+00  0.21948665478E-01 0.  0.
         14    1    1    2    0    0  0.23526975934E-01 -0.81412680774E-02 -0.75860192749E-04  0.24895875106E-01  0.00000000000E+00 0.  1.
     999901    1    3    3    0    0 -0.10117002901E+00 -0.25372305350E-01 -0.93419515962E-01  0.89107033090E+00  0.88000000000E+00 0.  1.
        -11    1    4    4    0    0  0.76217106731E-02 -0.30703010938E-02  0.11001987105E-01  0.13741254079E-01  0.51100000000E-03 0. -1.
         11    1    4    4    0    0  0.70021342402E-01  0.36583874522E-01  0.82493389049E-01  0.11422253992E+00  0.51100000000E-03 0.  1.
</event>
<event>
 8    1  0.1137518E+005  0.1043930E+01  0.7957747E-01            NaN
         13   -1    0    0    0    0  0.00000000000E+00  0.00000000000E+00  0.74505805969E-08  0.10566000000E+00  0.10566000000E+00 0.  1.
     999900   -1    0    0    0    0 -0.00000000000E+00 -0.00000000000E+00 -0.74505805969E-08  0.93827000000E+00  0.93827000000E+00 0.  1.
     999902    2    1    2    0    0 -0.46302464370E-02  0.19378518262E-02  0.22687597596E-01  0.10206937883E+01  0.10204292665E+01 0.  0.
     999903    2    3    3    0    0 -0.11933918244E+00 -0.48851931599E-01 -0.91331643188E-02  0.13122748592E+00  0.22558516863E-01 0.  0.
         14    1    1    2    0    0  0.46302464370E-02 -0.19378518262E-02 -0.22687597596E-01  0.23236211749E-01  0.00000000000E+00 0. -1.
     999901    1    3    3    0    0  0.11470893600E+00  0.50789783425E-01  0.31820761915E-01  0.88946630233E+00  0.88000000000E+00 0.  1.
        -11    1    4    4    0    0 -0.10442768883E+00 -0.35459699838E-01 -0.12151492734E-01  0.11095247813E+00  0.51100000000E-03 0.  1.
         11    1    4    4    0    0 -0.14911493608E-01 -0.13392231761E-01  0.30183284150E-02  0.20275007783E-01  0.51100000000E-03 0. -1.
</event>
<event>
 8    1  0.1137518E+005  0.1043930E+01  0.7957747E-01            NaN
         13   -1    0    0    0    0  0.00000000000E+00  0.00000000000E+00  0.74505805969E-08  0.10566000000E+00  0.10566000000E+00 0. -1.
     999900   -1    0    0    0    0 -0.00000000000E+00 -0.00000000000E+00 -0.74505805969E-08  0.93827000000E+00  0.93827000000E+00 0.  1.
     999902    2    1    2    0    0 -0.38849719217E-02 -0.22657166836E-01  0.68266993094E-02  0.10199499241E+01  0.10196679870E+01 0.  0.
     999903    2    3    3    0    0  0.12292544746E+00 -0.15438230088E-01  0.35444667544E-01  0.13037025730E+00  0.19775615032E-01 0.  0.
         14    1    1    2    0    0  0.38849719217E-02  0.22657166836E-01 -0.68266993094E-02  0.23980075882E-01  0.00000000000E+00 0.  1.
     999901    1    3    3    0    0 -0.12681041938E+00 -0.72189367472E-02 -0.28617968235E-01  0.88957966682E+00  0.88000000000E+00 0. -1.
        -11    1    4    4    0    0  0.99106709095E-01 -0.18883542676E-01  0.33111038376E-01  0.10618535659E+00  0.51100000000E-03 0. -1.
         11    1    4    4    0    0  0.23818738363E-01  0.34453125872E-02  0.23336291681E-02  0.24184900706E-01  0.51100000000E-03 0.  1.
</event>
<event>
 8    1  0.1137518E+005  0.1043930E+01  0.7957747E-01            NaN
         13   -1    0    0    0    0  0.00000000000E+00  0.00000000000E+00  0.74505805969E-08  0.10566000000E+00  0.10566000000E+00 0. -1.
     999900   -1    0    0    0    0 -0.00000000000E+00 -0.00000000000E+00 -0.74505805969E-08  0.93827000000E+00  0.93827000000E+00 0. -1.
     999902    2    1    2    0    0 -0.15235856662E-01  0.17339301071E-01  0.28215160360E-02  0.10206761048E+01  0.10204111756E+01 0.  0.
     999903    2    3    3    0    0 -0.10065238504E+00  0.65804918748E-01 -0.53992915205E-01  0.13339217108E+00  0.20421715577E-01 0.  0.
         14    1    1    2    0    0  0.15235856662E-01 -0.17339301071E-01 -0.28215160360E-02  0.23253895213E-01  0.00000000000E+00 0.  1.
     999901    1    3    3    0    0  0.85416528379E-01 -0.48465617677E-01  0.56814431241E-01  0.88728393371E+00  0.88000000000E+00 0.  1.
        -11    1    4    4    0    0 -0.16651516324E-01  0.10554935496E-01 -0.10209179169E-02  0.19747988596E-01  0.51100000000E-03 0.  1.
         11    1    4    4    0    0 -0.84000868718E-01  0.55249983251E-01 -0.52971997288E-01  0.11364418248E+00  0.51100000000E-03 0. -1.
</event>
<event>
 8    1  0.1137518E+005  0.1043930E+01  0.7957747E-01            NaN
         13   -1    0    0    0    0  0.00000000000E+00  0.00000000000E+00  0.74505805969E-08  0.10566000000E+00  0.10566000000E+00 0. -1.
     999900   -1    0    0    0    0 -0.00000000000E+00 -0.00000000000E+00 -0.74505805969E-08  0.93827000000E+00  0.93827000000E+00 0. -1.
     999902    2    1    2    0    0  0.18763637873E-02  0.22425910449E-01 -0.32025138067E-02  0.10211990014E+01  0.10209459840E+01 0.  0.
     999903    2    3    3    0    0  0.12261265618E+00  0.34444873344E-01 -0.30709653539E-01  0.13244799554E+00  0.19469872800E-01 0.  0.
         14    1    1    2    0    0 -0.18763637873E-02 -0.22425910449E-01  0.32025138067E-02  0.22730998553E-01  0.00000000000E+00 0. -1.
     999901    1    3    3    0    0 -0.12073629239E+00 -0.12018962895E-01  0.27507139732E-01  0.88875100591E+00  0.88000000000E+00 0.  1.
        -11    1    4    4    0    0  0.21037857798E-01 -0.55384847393E-04 -0.95325650965E-02  0.23102498708E-01  0.51100000000E-03 0. -1.
         11    1    4    4    0    0  0.10157479838E+00  0.34500258191E-01 -0.21177088442E-01  0.10934549683E+00  0.51100000000E-03 0.  1.
</event>
<event>
 8    1  0.1137518E+005  0.1043930E+01  0.7957747E-01            NaN
         13   -1    0    0    0    0  0.00000000000E+00  0.00000000000E+00  0.74505805969E-08  0.10566000000E+00  0.10566000000E+00 0. -1.
     999900   -1    0    0    0    0 -0.00000000000E+00 -0.00000000000E+00 -0.74505805969E-08  0.93827000000E+00  0.93827000000E+00 0.  1.
     999902    2    1    2    0    0  0.19518382183E-01 -0.15734546483E-01 -0.10252140465E-01  0.10168440335E+01  0.10164832212E+01 0.  0.
     999903    2    3    3    0    0 -0.37190533258E-01  0.11303151266E+00  0.31173201008E-01  0.12470466212E+00  0.20499406746E-01 0.  0.
         14    1    1    2    0    0 -0.19518382183E-01  0.15734546483E-01  0.10252140465E-01  0.27085966481E-01  0.00000000000E+00 0. -1.
     999901    1    3    3    0    0  0.56708915441E-01 -0.12876605914E+00 -0.41425341473E-01  0.89213937139E+00  0.88000000000E+00 0.  1.
        -11    1    4    4    0    0 -0.16853062344E-01  0.77503952908E-01  0.25834589263E-01  0.83418076879E-01  0.51100000000E-03 0. -1.
         11    1    4    4    0    0 -0.20337470914E-01  0.35527559748E-01  0.53386117450E-02  0.41286585245E-01  0.51100000000E-03 0.  1.
</event>
<event>
 8    1  0.1137518E+005  0.1043930E+01  0.7957747E-01            NaN
         13   -1    0    0    0    0  0.00000000000E+00  0.00000000000E+00  0.74505805969E-08  0.10566000000E+00  0.10566000000E+00 0. -1.
     999900   -1    0    0    0    0 -0.00000000000E+00 -0.00000000000E+00 -0.74505805969E-08  0.93827000000E+00  0.93827000000E+00 0. -1.
     999902    2    1    2    0    0 -0.11151742609E-01 -0.31336642761E-02 -0.20862048098E-01  0.10200677649E+01  0.10197886245E+01 0.  0.
     999903    2    3    3    0    0 -0.12211116725E+00 -0.43165452953E-01  0.10637435323E-01  0.13163838923E+00  0.21002785401E-01 0.  0.
         14    1    1    2    0    0  0.11151742609E-01  0.31336642761E-02  0.20862048098E-01  0.23862235140E-01  0.00000000000E+00 0. -1.
     999901    1    3    3    0    0  0.11095942464E+00  0.40031788677E-01 -0.31499483421E-01  0.88842937563E+00  0.88000000000E+00 0.  1.
        -11    1    4    4    0    0 -0.15002222974E-01 -0.10932358038E-01  0.66083255315E-02  0.19710764414E-01  0.51100000000E-03 0. -1.
         11    1    4    4    0    0 -0.10710894427E+00 -0.32233094915E-01  0.40291097916E-02  0.11192762482E+00  0.51100000000E-03 0.  1.
</event>
<event>
 8    1  0.1137518E+005  0.1043930E+01  0.7957747E-01            NaN
         13   -1    0    0    0    0  0.00000000000E+00  0.00000000000E+00  0.74505805969E-08  0.10566000000E+00  0.10566000000E+00 0. -1.
     999900   -1    0    0    0    0 -0.00000000000E+00 -0.00000000000E+00 -0.74505805969E-08  0.93827000000E+00  0.93827000000E+00 0. -1.
     999902    2    1    2    0    0 -0.64500973192E-03 -0.19870017407E-01 -0.11372050362E-01  0.10210267872E+01  0.10207698776E+01 0.  0.
     999903    2    3    3    0    0  0.12918760397E+00  0.75968288064E-02 -0.36892115440E-02  0.13104366302E+00  0.20289960793E-01 0.  0.
         14    1    1    2    0    0  0.64500973192E-03  0.19870017407E-01  0.11372050362E-01  0.22903212848E-01  0.00000000000E+00 0. -1.
     999901    1    3    3    0    0 -0.12983261370E+00 -0.27466846214E-01 -0.76828388185E-02  0.88998312413E+00  0.88000000000E+00 0. -1.
        -11    1    4    4    0    0  0.16617950197E-01 -0.58366391668E-02 -0.72153754729E-03  0.17635315788E-01  0.51100000000E-03 0.  1.
         11    1    4    4    0    0  0.11256965377E+00  0.13433467973E-01 -0.29676739967E-02  0.11340834723E+00  0.51100000000E-03 0. -1.
</event>
<event>
 8    1  0.1137518E+005  0.1043930E+01  0.7957747E-01            NaN
         13   -1    0    0    0    0  0.00000000000E+00  0.00000000000E+00  0.74505805969E-08  0.10566000000E+00  0.10566000000E+00 0. -1.
     999900   -1    0    0    0    0 -0.00000000000E+00 -0.00000000000E+00 -0.74505805969E-08  0.93827000000E+00  0.93827000000E+00 0. -1.
     999902    2    1    2    0    0 -0.16648404414E-01  0.12140267633E-01  0.11473996742E-01  0.10203459361E+01  0.10200733411E+01 0.  0.
     999903    2    3    3    0    0 -0.27934222656E-01  0.12245045354E+00  0.38723637847E-01  0.13296876167E+00  0.20167723825E-01 0.  0.
         14    1    1    2    0    0  0.16648404414E-01 -0.12140267633E-01 -0.11473996742E-01  0.23584063878E-01  0.00000000000E+00 0.  1.
     999901    1    3    3    0    0  0.11285818242E-01 -0.11031018590E+00 -0.27249641104E-01  0.88737717446E+00  0.88000000000E+00 0. -1.
        -11    1    4    4    0    0 -0.19413319351E-01  0.77824309851E-01  0.34572642405E-01  0.87344312326E-01  0.51100000000E-03 0.  1.
         11    1    4    4    0    0 -0.85209033056E-02  0.44626143685E-01  0.41509954420E-02  0.45624449339E-01  0.51100000000E-03 0. -1.
</event>
<event>
 8    1  0.1137518E+005  0.1043930E+01  0.7957747E-01            NaN
         13   -1    0    0    0    0  0.00000000000E+00  0.00000000000E+00  0.74505805969E-08  0.10566000000E+00  0.10566000000E+00 0. -1.
     999900   -1    0    0    0    0 -0.00000000000E+00 -0.00000000000E+00 -0.74505805969E-08  0.93827000000E+00  0.93827000000E+00 0.  1.
     999902    2    1    2    0    0  0.17524889600E-01 -0.11992869466E-01 -0.72671506701E-02  0.10214853536E+01  0.10212387407E+01 0.  0.
     999903    2    3    3    0    0 -0.62445816615E-01 -0.21214178464E-01  0.11031851057E+00  0.13002209909E+00  0.19648183068E-01 0.  0.
         14    1    1    2    0    0 -0.17524889600E-01  0.11992869466E-01  0.72671506701E-02  0.22444646408E-01  0.00000000000E+00 0.  1.
     999901    1    3    3    0    0  0.79970706214E-01  0.92213089977E-02 -0.11758566124E+00  0.89146325450E+00  0.88000000000E+00 0.  1.
        -11    1    4    4    0    0 -0.23854465657E-01 -0.17455726471E-01  0.40270477101E-01  0.49957085237E-01  0.51100000000E-03 0.  1.
         11    1    4    4    0    0 -0.38591350958E-01 -0.37584519931E-02  0.70048033468E-01  0.80065013857E-01  0.51100000000E-03 0. -1.
</event>
<event>
 8    1  0.1137518E+005  0.1043930E+01  0.7957747E-01            NaN
         13   -1    0    0    0    0  0.00000000000E+00  0.00000000000E+00  0.74505805969E-08  0.10566000000E+00  0.10566000000E+00 0. -1.
     999900   -1    0    0    0    0 -0.00000000000E+00 -0.00000000000E+00 -0.74505805969E-08  0.93827000000E+00  0.93827000000E+00 0.  1.
     999902    2    1    2    0    0 -0.14270653130E-01 -0.20538302899E-03 -0.18888992048E-01  0.10202553776E+01  0.10199806605E+01 0.  0.
     999903    2    3    3    0    0 -0.69020731133E-02 -0.12902625180E+00  0.74133340569E-03  0.13062935404E+00  0.19185053955E-01 0.  0.
         14    1    1    2    0    0  0.14270653130E-01  0.20538302899E-03  0.18888992048E-01  0.23674622352E-01  0.00000000000E+00 0. -1.
     999901    1    3    3    0    0 -0.73685800169E-02  0.12882086877E+00 -0.19630325453E-01  0.88962602361E+00  0.88000000000E+00 0. -1.
        -11    1    4    4    0    0  0.34652014253E-02 -0.53385999197E-01  0.73114149443E-02  0.53998059601E-01  0.51100000000E-03 0. -1.
         11    1    4    4    0    0 -0.10367274539E-01 -0.75640252602E-01 -0.65700815386E-02  0.76631294440E-01  0.51100000000E-03 0.  1.
</event>
<event>
 8    1  0.1137518E+005  0.1043930E+01  0.7957747E-01            NaN
         13   -1    0    0    0    0  0.00000000000E+00  0.00000000000E+00  0.74505805969E-08  0.10566000000E+00  0.10566000000E+00 0. -1.
     999900   -1    0    0    0    0 -0.00000000000E+00 -0.00000000000E+00 -0.74505805969E-08  0.93827000000E+00  0.93827000000E+00 0.  1.
     999902    2    1    2    0    0  0.59436470364E-03  0.11817148158E-01  0.23051678790E-01  0.10180190341E+01  0.10176892333E+01 0.  0.
     999903    2    3    3    0    0  0.93693391744E-01 -0.78217138862E-01  0.34306338642E-01  0.12846843459E+00  0.20756718125E-01 0.  0.
         14    1    1    2    0    0 -0.59436470364E-03 -0.11817148158E-01 -0.23051678790E-01  0.25910965923E-01  0.00000000000E+00 0.  1.
     999901    1    3    3    0    0 -0.93099027041E-01  0.90034287021E-01 -0.11254659852E-01  0.88955059948E+00  0.88000000000E+00 0. -1.
        -11    1    4    4    0    0  0.31073000955E-01 -0.14276524876E-01  0.71307074665E-02  0.34935063488E-01  0.51100000000E-03 0.  1.
         11    1    4    4    0    0  0.62620390789E-01 -0.63940613986E-01  0.27175631176E-01  0.93533371105E-01  0.51100000000E-03 0. -1.
</event>
<event>
 8    1  0.1137518E+005  0.1043930E+01  0.7957747E-01            NaN
         13   -1    0    0    0    0  0.00000000000E+00  0.00000000000E+00  0.74505805969E-08  0.10566000000E+00  0.10566000000E+00 0.  1.
     999900   -1    0    0    0    0 -0.00000000000E+00 -0.00000000000E+00 -0.74505805969E-08  0.93827000000E+00  0.93827000000E+00 0. -1.
     999902    2    1    2    0    0 -0.38941615596E-04 -0.92619364146E-02  0.24047418296E-01  0.10181605741E+01  0.10178344126E+01 0.  0.
     999903    2    3    3    0    0 -0.15821677723E-01 -0.54046913259E-01  0.11815059467E+00  0.13187044291E+00  0.16089014037E-01 0.  0.
         14    1    1    2    0    0  0.38941615596E-04  0.92619364146E-02 -0.24047418296E-01  0.25769425862E-01  0.00000000000E+00 0. -1.
     999901    1    3    3    0    0  0.15782736107E-01  0.44784976845E-01 -0.94103176376E-01  0.88629013123E+00  0.88000000000E+00 0. -1.
        -11    1    4    4    0    0 -0.90839873890E-02 -0.26514760850E-01  0.40918932214E-01  0.49600115971E-01  0.51100000000E-03 0. -1.
         11    1    4    4    0    0 -0.67376903336E-02 -0.27532152409E-01  0.77231662458E-01  0.82270326937E-01  0.51100000000E-03 0.  1.
</event>
<event>
 8    1  0.1137518E+005  0.1043930E+01  0.7957747E-01            NaN
         13   -1    0    0    0    0  0.00000000000E+00  0.00000000000E+00  0.74505805969E-08  0.10566000000E+00  0.10566000000E+00 0.  1.
     999900   -1    0    0    0    0 -0.00000000000E+00 -0.00000000000E+00 -0.74505805969E-08  0.93827000000E+00  0.93827000000E+00 0. -1.
     999902    2    1    2    0    0  0.11676206362E-01 -0.13121248616E-01 -0.11634946544E-01  0.10228617077E+01  0.10226447086E+01 0.  0.
     999903    2    3    3    0    0 -0.85091608447E-02  0.12918560166E+00 -0.62404427918E-02  0.13118475421E+00  0.20227978517E-01 0.  0.
         14    1    1    2    0    0 -0.11676206362E-01  0.13121248616E-01  0.11634946544E-01  0.21068292322E-01  0.00000000000E+00 0. -1.
     999901    1    3    3    0    0  0.20185367207E-01 -0.14230685028E+00 -0.53945037522E-02  0.89167695347E+00  0.88000000000E+00 0. -1.
        -11    1    4    4    0    0  0.54000032916E-02  0.35301607174E-01 -0.63419798057E-02  0.36274582472E-01  0.51100000000E-03 0. -1.
         11    1    4    4    0    0 -0.13909164136E-01  0.93883994486E-01  0.10153701385E-03  0.94910171733E-01  0.51100000000E-03 0.  1.
</event>
<event>
 8    1  0.1137518E+005  0.1043930E+01  0.7957747E-01            NaN
         13   -1    0    0    0    0  0.00000000000E+00  0.00000000000E+00  0.74505805969E-08  0.10566000000E+00  0.10566000000E+00 0.  1.
     999900   -1    0    0    0    0 -0.00000000000E+00 -0.00000000000E+00 -0.74505805969E-08  0.93827000000E+00  0.93827000000E+00 0.  1.
     999902    2    1    2    0    0 -0.16319532941E-01  0.87380633777E-02  0.21504700265E-01  0.10155551336E+01  0.10151586558E+01 0.  0.
     999903    2    3    3    0    0  0.33002189865E-01 -0.62791456370E-01 -0.98514283676E-01  0.12316863608E+00  0.20821558456E-01 0.  0.
         14    1    1    2    0    0  0.16319532941E-01 -0.87380633777E-02 -0.21504700265E-01  0.28374866352E-01  0.00000000000E+00 0. -1.
     999901    1    3    3    0    0 -0.49321722806E-01  0.71529519747E-01  0.12001898394E+00  0.89238649757E+00  0.88000000000E+00 0.  1.
        -11    1    4    4    0    0  0.17482429279E-01 -0.24358843410E-01 -0.26219195644E-01  0.39833351943E-01  0.51100000000E-03 0.  1.
         11    1    4    4    0    0  0.15519760586E-01 -0.38432612959E-01 -0.72295088032E-01  0.83335284137E-01  0.51100000000E-03 0. -1.
</event>
<event>
 8    1  0.1137518E+005  0.1043930E+01  0.7957747E-01            NaN
         13   -1    0    0    0    0  0.00000000000E+00  0.00000000000E+00  0.74505805969E-08  0.10566000000E+00  0.10566000000E+00 0.  1.
     999900   -1    0    0    0    0 -0.00000000000E+00 -0.00000000000E+00 -0.74505805969E-08  0.93827000000E+00  0.93827000000E+00 0.  1.
     999902    2    1    2    0    0  0.18123982766E-02  0.65159972978E-03  0.23800607744E-01  0.10200515935E+01  0.10197720701E+01 0.  0.
     999903    2    3    3    0    0  0.11217718311E+00 -0.18937206893E-01 -0.57794291419E-01  0.12919704044E+00  0.20232570836E-01 0.  0.
         14    1    1    2    0    0 -0.18123982766E-02 -0.65159972978E-03 -0.23800607744E-01  0.23878406536E-01  0.00000000000E+00 0. -1.
     999901    1    3    3    0    0 -0.11036478483E+00  0.19588806623E-01  0.81594899163E-01  0.89085455302E+00  0.88000000000E+00 0. -1.
        -11    1    4    4    0    0  0.80143488214E-01 -0.14579167341E-01 -0.51152048733E-01  0.96189001627E-01  0.51100000000E-03 0. -1.
         11    1    4    4    0    0  0.32033694894E-01 -0.43580395522E-02 -0.66422426858E-02  0.33008038812E-01  0.51100000000E-03 0.  1.
</event>
<event>
 8    1  0.1137518E+005  0.1043930E+01  0.7957747E-01            NaN
         13   -1    0    0    0    0  0.00000000000E+00  0.00000000000E+00  0.74505805969E-08  0.10566000000E+00  0.10566000000E+00 0. -1.
     999900   -1    0    0    0    0 -0.00000000000E+00 -0.00000000000E+00 -0.74505805969E-08  0.93827000000E+00  0.93827000000E+00 0. -1.
     999902    2    1    2    0    0 -0.73529449241E-02  0.22814232427E-01 -0.51814040727E-02  0.10194065021E+01  0.10191114829E+01 0.  0.
     999903    2    3    3    0    0 -0.11636380068E+00 -0.27091345769E-01  0.45131153187E-01  0.12985308223E+00  0.23463308681E-01 0.  0.
         14    1    1    2    0    0  0.73529449241E-02 -0.22814232427E-01  0.51814040727E-02  0.24523497884E-01  0.00000000000E+00 0.  1.
     999901    1    3    3    0    0  0.10901085575E+00  0.49905578197E-01 -0.50312557260E-01  0.88955341988E+00  0.88000000000E+00 0. -1.
        -11    1    4    4    0    0 -0.76508065223E-01 -0.13983966525E-01  0.17831940615E-01  0.79795204061E-01  0.51100000000E-03 0.  1.
         11    1    4    4    0    0 -0.39855735452E-01 -0.13107379244E-01  0.27299212572E-01  0.50057878173E-01  0.51100000000E-03 0. -1.
</event>
<event>
 8    1  0.1137518E+005  0.1043930E+01  0.7957747E-01            NaN
         13   -1    0    0    0    0  0.00000000000E+00  0.00000000000E+00  0.74505805969E-08  0.10566000000E+00  0.10566000000E+00 0.  1.
     999900   -1    0    0    0    0 -0.00000000000E+00 -0.00000000000E+00 -0.74505805969E-08  0.93827000000E+00  0.93827000000E+00 0.  1.
     999902    2    1    2    0    0  0.34309115444E-02  0.25544499611E-01  0.31049480406E-03  0.10181542552E+01  0.10178279316E+01 0.  0.
     999903    2    3    3    0    0  0.28606838665E-01 -0.13868800332E-01  0.12096500390E+00  0.12869107657E+00  0.30301257080E-01 0.  0.
         14    1    1    2    0    0 -0.34309115444E-02 -0.25544499611E-01 -0.31049480406E-03  0.25775744828E-01  0.00000000000E+00 0.  1.
     999901    1    3    3    0    0 -0.25175927121E-01  0.39413299943E-01 -0.12065450909E+00  0.88946317860E+00  0.88000000000E+00 0.  1.
        -11    1    4    4    0    0 -0.15272790722E-02  0.33984387886E-02  0.45054797169E-01  0.45211479034E-01  0.51100000000E-03 0. -1.
         11    1    4    4    0    0  0.30134117737E-01 -0.17267239120E-01  0.75910206729E-01  0.83479597539E-01  0.51100000000E-03 0.  1.
</event>
<event>
 8    1  0.1137518E+005  0.1043930E+01  0.7957747E-01            NaN
         13   -1    0    0    0    0  0.00000000000E+00  0.00000000000E+00  0.74505805969E-08  0.10566000000E+00  0.10566000000E+00 0. -1.
     999900   -1    0    0    0    0 -0.00000000000E+00 -0.00000000000E+00 -0.74505805969E-08  0.93827000000E+00  0.93827000000E+00 0.  1.
     999902    2    1    2    0    0  0.18058857447E-01 -0.13664167095E-01 -0.51434181748E-02  0.10207074561E+01  0.10204432490E+01 0.  0.
     999903    2    3    3    0    0  0.98320933030E-01  0.53860847260E-01  0.66055196333E-01  0.13162316817E+00  0.19833625388E-01 0.  0.
         14    1    1    2    0    0 -0.18058857447E-01  0.13664167095E-01  0.51434181748E-02  0.23222543901E-01  0.00000000000E+00 0.  1.
     999901    1    3    3    0    0 -0.80262075583E-01 -0.67525014355E-01 -0.71198614508E-01  0.88908428793E+00  0.88000000000E+00 0.  1.
        -11    1    4    4    0    0  0.89052197499E-01  0.44701818262E-01  0.63987478120E-01  0.11841961372E+00  0.51100000000E-03 0.  1.
         11    1    4    4    0    0  0.92687355314E-02  0.91590289980E-02  0.20677182133E-02  0.13203554451E-01  0.51100000000E-03 0. -1.
</event>
<event>
 8    1  0.1137518E+005  0.1043930E+01  0.7957747E-01            NaN
         13   -1    0    0    0    0  0.00000000000E+00  0.00000000000E+00  0.74505805969E-08  0.10566000000E+00  0.10566000000E+00 0. -1.
     999900   -1    0    0    0    0 -0.00000000000E+00 -0.00000000000E+00 -0.74505805969E-08  0.93827000000E+00  0.93827000000E+00 0. -1.
     999902    2    1    2    0    0  0.59547882100E-02  0.51375037401E-02 -0.22439404358E-01  0.10201522727E+01  0.10198751292E+01 0.  0.
     999903    2    3    3    0    0  0.29780968736E-03 -0.49304294539E-01 -0.12184838564E+00  0.13286536513E+00  0.19369409291E-01 0.  0.
         14    1    1    2    0    0 -0.59547882100E-02 -0.51375037401E-02  0.22439404358E-01  0.23777727294E-01  0.00000000000E+00 0. -1.
     999901    1    3    3    0    0  0.56569785226E-02  0.54441798279E-01  0.99408981282E-01  0.88728690758E+00  0.88000000000E+00 0.  1.
        -11    1    4    4    0    0  0.23726204090E-02 -0.48804650763E-01 -0.10428860551E+00  0.11516899593E+00  0.51100000000E-03 0. -1.
         11    1    4    4    0    0 -0.20748107216E-02 -0.49964377580E-03 -0.17559780128E-01  0.17696369192E-01  0.51100000000E-03 0.  1.
</event>
<event>
 8    1  0.1137518E+005  0.1043930E+01  0.7957747E-01            NaN
         13   -1    0    0    0    0  0.00000000000E+00  0.00000000000E+00  0.74505805969E-08  0.10566000000E+00  0.10566000000E+00 0. -1.
     999900   -1    0    0    0    0 -0.00000000000E+00 -0.00000000000E+00 -0.74505805969E-08  0.93827000000E+00  0.93827000000E+00 0.  1.
     999902    2    1    2    0    0 -0.16045300065E-01 -0.13847994883E-01 -0.62161927281E-02  0.10218424544E+01  0.10216037109E+01 0.  0.
     999903    2    3    3    0    0 -0.46100527992E-01  0.51003093781E-02 -0.12347908701E+00  0.13335332039E+00  0.19615078211E-01 0.  0.
         14    1    1    2    0    0  0.16045300065E-01  0.13847994883E-01  0.62161927281E-02  0.22087545551E-01  0.00000000000E+00 0. -1.
     999901    1    3    3    0    0  0.30055227928E-01 -0.18948304261E-01  0.11726289428E+00  0.88848913406E+00  0.88000000000E+00 0. -1.
        -11    1    4    4    0    0 -0.22166631517E-01 -0.54679703809E-02 -0.73087811606E-01  0.76572498844E-01  0.51100000000E-03 0.  1.
         11    1    4    4    0    0 -0.23933896476E-01  0.10568279759E-01 -0.50391275407E-01  0.56780821548E-01  0.51100000000E-03 0. -1.
</event>
<event>
 8    1  0.1137518E+005  0.1043930E+01  0.7957747E-01            NaN
         13   -1    0    0    0    0  0.00000000000E+00  0.00000000000E+00  0.74505805969E-08  0.10566000000E+00  0.10566000000E+00 0. -1.
     999900   -1    0    0    0    0 -0.00000000000E+00 -0.00000000000E+00 -0.74505805969E-08  0.93827000000E+00  0.93827000000E+00 0. -1.
     999902    2    1    2    0    0 -0.31455966047E-02  0.23071131081E-01  0.34832893900E-02  0.10203863135E+01  0.10201146620E+01 0.  0.
     999903    2    3    3    0    0  0.24840106373E-02  0.12931038120E+00 -0.27116598474E-01  0.13345067670E+00  0.18612581935E-01 0.  0.
         14    1    1    2    0    0  0.31455966047E-02 -0.23071131081E-01 -0.34832893900E-02  0.23543686464E-01  0.00000000000E+00 0. -1.
     999901    1    3    3    0    0 -0.56296072421E-02 -0.10623925011E+00  0.30599887864E-01  0.88693563683E+00  0.88000000000E+00 0.  1.
        -11    1    4    4    0    0 -0.81269279586E-02  0.57146935632E-01 -0.12274143764E-01  0.59014701018E-01  0.51100000000E-03 0.  1.
         11    1    4    4    0    0  0.10610938596E-01  0.72163445565E-01 -0.14842454710E-01  0.74435975687E-01  0.51100000000E-03 0. -1.
</event>
<event>
 8    1  0.1137518E+005  0.1043930E+01  0.7957747E-01            NaN
         13   -1    0    0    0    0  0.00000000000E+00  0.00000000000E+00  0.74505805969E-08  0.10566000000E+00  0.10566000000E+00 0. -1.
     999900   -1    0    0    0    0 -0.00000000000E+00 -0.00000000000E+00 -0.74505805969E-08  0.93827000000E+00  0.93827000000E+00 0. -1.
     999902    2    1    2    0    0  0.21601141084E-01  0.11807672579E-01  0.28540416319E-02  0.10191474258E+01  0.10188460628E+01 0.  0.
     999903    2    3    3    0    0 -0.10737309442E+00 -0.38172129797E-02 -0.64960832174E-01  0.12702784441E+00  0.19303134938E-01 0.  0.
         14    1    1    2    0    0 -0.21601141084E-01 -0.11807672579E-01 -0.28540416319E-02  0.24782574150E-01  0.00000000000E+00 0.  1.
     999901    1    3    3    0    0  0.12897423551E+00  0.15624885559E-01  0.67814873806E-01  0.89211958144E+00  0.88000000000E+00 0.  1.
        -11    1    4    4    0    0 -0.77209473806E-01 -0.73735552100E-02 -0.54908546663E-01  0.95030951692E-01  0.51100000000E-03 0.  1.
         11    1    4    4    0    0 -0.30163620618E-01  0.35563422303E-02 -0.10052285512E-01  0.31996892722E-01  0.51100000000E-03 0. -1.
</event>
<event>
 8    1  0.1684523E+005  0.1043930E+01  0.7957747E-01            NaN
         13   -1    0    0    0    0  0.00000000000E+00  0.00000000000E+00  0.74505805969E-08  0.10566000000E+00  0.10566000000E+00 0. -1.
     999900   -1    0    0    0    0 -0.00000000000E+00 -0.00000000000E+00 -0.74505805969E-08  0.93827000000E+00  0.93827000000E+00 0. -1.
     999902    2    1    2    0    0  0.65817205875E-02  0.21679953311E-01 -0.57955867362E-02  0.10205435029E+01  0.10202755084E+01 0.  0.
     999903    2    3    3    0    0  0.57968455086E-01  0.92553164395E-01 -0.74211508639E-01  0.13355739990E+00  0.20094801028E-01 0.  0.
         14    1    1    2    0    0 -0.65817205875E-02 -0.21679953311E-01  0.57955867362E-02  0.23386497110E-01  0.00000000000E+00 0.  1.
     999901    1    3    3    0    0 -0.51386734499E-01 -0.70873211085E-01  0.68415921903E-01  0.88698610299E+00  0.88000000000E+00 0.  1.
        -11    1    4    4    0    0  0.31110216171E-01  0.60253157307E-01 -0.36039152778E-01  0.76794336833E-01  0.51100000000E-03 0.  1.
         11    1    4    4    0    0  0.26858238916E-01  0.32300007089E-01 -0.38172355861E-01  0.56763063065E-01  0.51100000000E-03 0. -1.
</event>
<event>
 8    1  0.1137518E+005  0.1043930E+01  0.7957747E-01            NaN
         13   -1    0    0    0    0  0.00000000000E+00  0.00000000000E+00  0.74505805969E-08  0.10566000000E+00  0.10566000000E+00 0.  1.
     999900   -1    0    0    0    0 -0.00000000000E+00 -0.00000000000E+00 -0.74505805969E-08  0.93827000000E+00  0.93827000000E+00 0. -1.
     999902    2    1    2    0    0  0.14733421458E-01 -0.12166733765E-01 -0.15731550960E-01  0.10191795492E+01  0.10188789765E+01 0.  0.
     999903    2    3    3    0    0 -0.11177594686E+00  0.43449871445E-01 -0.40290091966E-01  0.12805612960E+00  0.19832478240E-01 0.  0.
         14    1    1    2    0    0 -0.14733421458E-01  0.12166733765E-01  0.15731550960E-01  0.24750450783E-01  0.00000000000E+00 0.  1.
     999901    1    3    3    0    0  0.12650936832E+00 -0.55616605209E-01  0.24558541006E-01  0.89112341961E+00  0.88000000000E+00 0.  1.
        -11    1    4    4    0    0 -0.79228898282E-01  0.36983275974E-01 -0.36135916750E-01  0.94609971066E-01  0.51100000000E-03 0.  1.
         11    1    4    4    0    0 -0.32547048579E-01  0.64665954709E-02 -0.41541752157E-02  0.33446158538E-01  0.51100000000E-03 0. -1.
</event>
<event>
 8    1  0.1137518E+005  0.1043930E+01  0.7957747E-01            NaN
         13   -1    0    0    0    0  0.00000000000E+00  0.00000000000E+00  0.74505805969E-08  0.10566000000E+00  0.10566000000E+00 0.  1.
     999900   -1    0    0    0    0 -0.00000000000E+00 -0.00000000000E+00 -0.74505805969E-08  0.93827000000E+00  0.93827000000E+00 0. -1.
     999902    2    1    2    0    0  0.22742301633E-01 -0.27487725726E-02 -0.45248965975E-02  0.10205795670E+01  0.10203124079E+01 0.  0.
     999903    2    3    3    0    0  0.48717570089E-01  0.10734711541E+00 -0.55457586594E-01  0.13187829092E+00  0.20482550665E-01 0.  0.
         14    1    1    2    0    0 -0.22742301633E-01  0.27487725726E-02  0.45248965975E-02  0.23350433047E-01  0.00000000000E+00 0.  1.
     999901    1    3    3    0    0 -0.25975268456E-01 -0.11009588798E+00  0.50932689996E-01  0.88870127604E+00  0.88000000000E+00 0.  1.
        -11    1    4    4    0    0  0.34897209131E-01  0.82592327229E-01 -0.51061467686E-01  0.10318353709E+00  0.51100000000E-03 0.  1.
         11    1    4    4    0    0  0.13820360959E-01  0.24754788181E-01 -0.43961189075E-02  0.28694753830E-01  0.51100000000E-03 0. -1.
</event>
<event>
 8    1  0.1137518E+005  0.1043930E+01  0.7957747E-01            NaN
         13   -1    0    0    0    0  0.00000000000E+00  0.00000000000E+00  0.74505805969E-08  0.10566000000E+00  0.10566000000E+00 0. -1.
     999900   -1    0    0    0    0 -0.00000000000E+00 -0.00000000000E+00 -0.74505805969E-08  0.93827000000E+00  0.93827000000E+00 0. -1.
     999902    2    1    2    0    0  0.77224196824E-02 -0.21252767375E-01  0.64041265008E-02  0.10204283251E+01  0.10201576535E+01 0.  0.
     999903    2    3    3    0    0  0.63142898981E-01  0.46765293519E-01 -0.10054747907E+00  0.12962165019E+00  0.22758696831E-01 0.  0.
         14    1    1    2    0    0 -0.77224196824E-02  0.21252767375E-01 -0.64041265008E-02  0.23501674899E-01  0.00000000000E+00 0. -1.
     999901    1    3    3    0    0 -0.55420479298E-01 -0.68018060894E-01  0.10695160557E+00  0.89080667491E+00  0.88000000000E+00 0.  1.
        -11    1    4    4    0    0  0.26896144422E-01  0.26371724240E-01 -0.31931914019E-01  0.49383992124E-01  0.51100000000E-03 0.  1.
         11    1    4    4    0    0  0.36246754559E-01  0.20393569279E-01 -0.68615565048E-01  0.80237658065E-01  0.51100000000E-03 0. -1.
</event>
<event>
 8    1  0.1137518E+005  0.1043930E+01  0.7957747E-01            NaN
         13   -1    0    0    0    0  0.00000000000E+00  0.00000000000E+00  0.74505805969E-08  0.10566000000E+00  0.10566000000E+00 0. -1.
     999900   -1    0    0    0    0 -0.00000000000E+00 -0.00000000000E+00 -0.74505805969E-08  0.93827000000E+00  0.93827000000E+00 0.  1.
     999902    2    1    2    0    0  0.34934825874E-02 -0.12357992200E-01 -0.20861520144E-01  0.10194325019E+01  0.10191381155E+01 0.  0.
     999903    2    3    3    0    0  0.11336933805E+00 -0.41416178394E-01  0.43614388704E-01  0.12978413054E+00  0.19333882020E-01 0.  0.
         14    1    1    2    0    0 -0.34934825874E-02  0.12357992200E-01  0.20861520144E-01  0.24497498128E-01  0.00000000000E+00 0. -1.
     999901    1    3    3    0    0 -0.10987585546E+00  0.29058186194E-01 -0.64475908848E-01  0.88964837134E+00  0.88000000000E+00 0. -1.
        -11    1    4    4    0    0  0.27967024388E-01 -0.13640084514E-01  0.19757403813E-01  0.36862209444E-01  0.51100000000E-03 0.  1.
         11    1    4    4    0    0  0.85402313664E-01 -0.27776093880E-01  0.23856984891E-01  0.92921921093E-01  0.51100000000E-03 0. -1.
</event>
<event>
 8    1  0.1137518E+005  0.1043930E+01  0.7957747E-01            NaN
         13   -1    0    0    0    0  0.00000000000E+00  0.00000000000E+00  0.74505805969E-08  0.10566000000E+00  0.10566000000E+00 0.  1.
     999900   -1    0    0    0    0 -0.00000000000E+00 -0.00000000000E+00 -0.74505805969E-08  0.93827000000E+00  0.93827000000E+00 0. -1.
     999902    2    1    2    0    0 -0.29282959974E-02 -0.22442804692E-01 -0.65430658844E-02  0.10203701589E+01  0.10200981301E+01 0.  0.
     999903    2    3    3    0    0  0.52201234852E-01  0.97355867981E-01  0.61544168616E-01  0.12794265003E+00  0.19455154991E-01 0.  0.
         14    1    1    2    0    0  0.29282959974E-02  0.22442804692E-01  0.65430658844E-02  0.23559841066E-01  0.00000000000E+00 0.  1.
     999901    1    3    3    0    0 -0.55129530849E-01 -0.11979867267E+00 -0.68087234501E-01  0.89242750890E+00  0.88000000000E+00 0. -1.
        -11    1    4    4    0    0  0.10343846276E-01  0.38308489284E-01  0.19176231564E-01  0.44074079514E-01  0.51100000000E-03 0.  1.
         11    1    4    4    0    0  0.41857388576E-01  0.59047378697E-01  0.42367937053E-01  0.83868570516E-01  0.51100000000E-03 0. -1.
</event>
<event>
 8    1  0.1137518E+005  0.1043930E+01  0.7957747E-01            NaN
         13   -1    0    0    0    0  0.00000000000E+00  0.00000000000E+00  0.74505805969E-08  0.10566000000E+00  0.10566000000E+00 0.  1.
     999900   -1    0    0    0    0 -0.00000000000E+00 -0.00000000000E+00 -0.74505805969E-08  0.93827000000E+00  0.93827000000E+00 0. -1.
     999902    2    1    2    0    0  0.13816893696E-01 -0.13958975304E-01  0.14962415109E-01  0.10192392445E+01  0.10189401376E+01 0.  0.
     999903    2    3    3    0    0 -0.40753871543E-01 -0.12146788696E+00 -0.14305641289E-01  0.13053639557E+00  0.20488376906E-01 0.  0.
         14    1    1    2    0    0 -0.13816893696E-01  0.13958975304E-01 -0.14962415109E-01  0.24690755533E-01  0.00000000000E+00 0. -1.
     999901    1    3    3    0    0  0.54570765239E-01  0.10750891166E+00  0.29268056397E-01  0.88870284889E+00  0.88000000000E+00 0. -1.
        -11    1    4    4    0    0 -0.40272508903E-01 -0.10150764642E+00 -0.16493113919E-01  0.11044438049E+00  0.51100000000E-03 0.  1.
         11    1    4    4    0    0 -0.48136264040E-03 -0.19960240541E-01  0.21874726306E-02  0.20092015079E-01  0.51100000000E-03 0. -1.
</event>
<event>
 8    1  0.1137518E+005  0.1043930E+01  0.7957747E-01            NaN
         13   -1    0    0    0    0  0.00000000000E+00  0.00000000000E+00  0.74505805969E-08  0.10566000000E+00  0.10566000000E+00 0. -1.
     999900   -1    0    0    0    0 -0.00000000000E+00 -0.00000000000E+00 -0.74505805969E-08  0.93827000000E+00  0.93827000000E+00 0.  1.
     999902    2    1    2    0    0 -0.18409477826E-01  0.14338275994E-01 -0.57630839170E-05  0.10205955820E+01  0.10203287935E+01 0.  0.
     999903    2    3    3    0    0  0.80660915384E-01 -0.35679195332E-01  0.91857513707E-01  0.12888063206E+00  0.19829933052E-01 0.  0.
         14    1    1    2    0    0  0.18409477826E-01 -0.14338275994E-01  0.57630839170E-05  0.23334418045E-01  0.00000000000E+00 0.  1.
     999901    1    3    3    0    0 -0.99070393209E-01  0.50017471326E-01 -0.91863276791E-01  0.89171494990E+00  0.88000000000E+00 0.  1.
        -11    1    4    4    0    0  0.58260180544E-01 -0.30607915230E-01  0.56626339905E-01  0.86821060831E-01  0.51100000000E-03 0.  1.
         11    1    4    4    0    0  0.22400734840E-01 -0.50712801021E-02  0.35231173803E-01  0.42059571227E-01  0.51100000000E-03 0. -1.
</event>
<event>
 8    1  0.1137518E+005  0.1043930E+01  0.7957747E-01            NaN
         13   -1    0    0    0    0  0.00000000000E+00  0.00000000000E+00  0.74505805969E-08  0.10566000000E+00  0.10566000000E+00 0. -1.
     999900   -1    0    0    0    0 -0.00000000000E+00 -0.00000000000E+00 -0.74505805969E-08  0.93827000000E+00  0.93827000000E+00 0.  1.
     999902    2    1    2    0    0  0.14585923253E-01  0.19457591561E-01 -0.25784596239E-02  0.10194760539E+01  0.10191827260E+01 0.  0.
     999903    2    3    3    0    0 -0.94820398392E-01 -0.72935206113E-01 -0.38334982120E-01  0.12718422876E+00  0.19894847332E-01 0.  0.
         14    1    1    2    0    0 -0.14585923253E-01 -0.19457591561E-01  0.25784596239E-02  0.24453946114E-01  0.00000000000E+00 0. -1.
     999901    1    3    3    0    0  0.10940632165E+00  0.92392797674E-01  0.35756522496E-01  0.89229182512E+00  0.88000000000E+00 0. -1.
        -11    1    4    4    0    0 -0.94868327920E-01 -0.69202568216E-01 -0.36347198947E-01  0.12292426564E+00  0.51100000000E-03 0.  1.
         11    1    4    4    0    0  0.47929527684E-04 -0.37326378973E-02 -0.19877831734E-02  0.42599631285E-02  0.51100000000E-03 0. -1.
</event>
<event>
 8    1  0.1137518E+005  0.1043930E+01  0.7957747E-01            NaN
         13   -1    0    0    0    0  0.00000000000E+00  0.00000000000E+00  0.74505805969E-08  0.10566000000E+00  0.10566000000E+00 0. -1.
     999900   -1    0    0    0    0 -0.00000000000E+00 -0.00000000000E+00 -0.74505805969E-08  0.93827000000E+00  0.93827000000E+00 0.  1.
     999902    2    1    2    0    0  0.15240221408E-02  0.22125508542E-01 -0.70584630197E-02  0.10206559227E+01  0.10203905282E+01 0.  0.
     999903    2    3    3    0    0 -0.86416023418E-01 -0.61313023137E-01  0.70913044818E-01  0.12893007014E+00  0.19164737159E-01 0.  0.
         14    1    1    2    0    0 -0.15240221408E-02 -0.22125508542E-01  0.70584630197E-02  0.23274077252E-01  0.00000000000E+00 0. -1.
     999901    1    3    3    0    0  0.87940045559E-01  0.83438531679E-01 -0.77971507837E-01  0.89172585261E+00  0.88000000000E+00 0.  1.
        -11    1    4    4    0    0 -0.55589098820E-01 -0.33452950569E-01  0.33517889849E-01  0.73027103669E-01  0.51100000000E-03 0.  1.
         11    1    4    4    0    0 -0.30826924599E-01 -0.27860072568E-01  0.37395154969E-01  0.55902966467E-01  0.51100000000E-03 0. -1.
</event>
<event>
 8    1  0.1137518E+005  0.1043930E+01  0.7957747E-01            NaN
         13   -1    0    0    0    0  0.00000000000E+00  0.00000000000E+00  0.74505805969E-08  0.10566000000E+00  0.10566000000E+00 0.  1.
     999900   -1    0    0    0    0 -0.00000000000E+00 -0.00000000000E+00 -0.74505805969E-08  0.93827000000E+00  0.93827000000E+00 0. -1.
     999902    2    1    2    0    0 -0.58994355561E-02 -0.21436197380E-01  0.60764339254E-02  0.10208814220E+01  0.10206212034E+01 0.  0.
     999903    2    3    3    0    0  0.13496006481E-02 -0.12116105048E+00 -0.51837354182E-01  0.13332770437E+00  0.20182762178E-01 0.  0.
         14    1    1    2    0    0  0.58994355561E-02  0.21436197380E-01 -0.60764339254E-02  0.23048577988E-01  0.00000000000E+00 0. -1.
     999901    1    3    3    0    0 -0.72490362042E-02  0.99724853095E-01  0.57913788108E-01  0.88755371764E+00  0.88000000000E+00 0. -1.
        -11    1    4    4    0    0  0.39419459523E-02 -0.10847629555E+00 -0.39721449483E-01  0.11558849555E+00  0.51100000000E-03 0.  1.
         11    1    4    4    0    0 -0.25923453042E-02 -0.12684754925E-01 -0.12115904699E-01  0.17739208815E-01  0.51100000000E-03 0. -1.
</event>
<event>
 8    1  0.1137518E+005  0.1043930E+01  0.7957747E-01            NaN
         13   -1    0    0    0    0  0.00000000000E+00  0.00000000000E+00  0.74505805969E-08  0.10566000000E+00  0.10566000000E+00 0. -1.
     999900   -1    0    0    0    0 -0.00000000000E+00 -0.00000000000E+00 -0.74505805969E-08  0.93827000000E+00  0.93827000000E+00 0. -1.
     999902    2    1    2    0    0 -0.29175877034E-02  0.15038735440E-01 -0.16593148101E-01  0.10213466334E+01  0.10210969284E+01 0.  0.
     999903    2    3    3    0    0 -0.45362946779E-01  0.76279041322E-01 -0.98634943147E-01  0.13439520314E+00  0.21375910056E-01 0.  0.
         14    1    1    2    0    0  0.29175877034E-02 -0.15038735440E-01  0.16593148101E-01  0.22583366568E-01  0.00000000000E+00 0. -1.
     999901    1    3    3    0    0  0.42445359076E-01 -0.61240305881E-01  0.82041795046E-01  0.88695143030E+00  0.88000000000E+00 0.  1.
        -11    1    4    4    0    0 -0.55281234538E-02  0.24203355975E-01 -0.19156484220E-01  0.31362311746E-01  0.51100000000E-03 0.  1.
         11    1    4    4    0    0 -0.39834823325E-01  0.52075685347E-01 -0.79478458927E-01  0.10303289139E+00  0.51100000000E-03 0. -1.
</event>
<event>
 8    1  0.1137518E+005  0.1043930E+01  0.7957747E-01            NaN
         13   -1    0    0    0    0  0.00000000000E+00  0.00000000000E+00  0.74505805969E-08  0.10566000000E+00  0.10566000000E+00 0. -1.
     999900   -1    0    0    0    0 -0.00000000000E+00 -0.00000000000E+00 -0.74505805969E-08  0.93827000000E+00  0.93827000000E+00 0.  1.
     999902    2    1    2    0    0 -0.23883865501E-01 -0.44522974317E-02  0.49322235302E-03  0.10196296862E+01  0.10193400766E+01 0.  0.
     999903    2    3    3    0    0  0.84012073081E-02  0.10738800457E+00  0.68847692665E-01  0.12933596347E+00  0.19621999153E-01 0.  0.
         14    1    1    2    0    0  0.23883865501E-01  0.44522974317E-02 -0.49322235302E-03  0.24300313824E-01  0.00000000000E+00 0.  1.
     999901    1    3    3    0    0 -0.32285072809E-01 -0.11184030200E+00 -0.68354470312E-01  0.89029372271E+00  0.88000000000E+00 0. -1.
        -11    1    4    4    0    0 -0.58891846677E-02  0.49864525214E-01  0.31835651324E-01  0.59455220016E-01  0.51100000000E-03 0. -1.
         11    1    4    4    0    0  0.14290391976E-01  0.57523479359E-01  0.37012041341E-01  0.69880743453E-01  0.51100000000E-03 0.  1.
</event>
<event>
 8    1  0.1137518E+005  0.1043930E+01  0.7957747E-01            NaN
         13   -1    0    0    0    0  0.00000000000E+00  0.00000000000E+00  0.74505805969E-08  0.10566000000E+00  0.10566000000E+00 0. -1.
     999900   -1    0    0    0    0 -0.00000000000E+00 -0.00000000000E+00 -0.74505805969E-08  0.93827000000E+00  0.93827000000E+00 0. -1.
     999902    2    1    2    0    0  0.20047086812E-01 -0.12999087487E-01  0.27579436251E-02  0.10198786338E+01  0.10195949977E+01 0.  0.
     999903    2    3    3    0    0 -0.11963154217E+00 -0.26098552930E-01 -0.31595214900E-01  0.12810407991E+00  0.20483098798E-01 0.  0.
         14    1    1    2    0    0 -0.20047086812E-01  0.12999087487E-01 -0.27579436251E-02  0.24051366244E-01  0.00000000000E+00 0. -1.
     999901    1    3    3    0    0  0.13967862899E+00  0.13099465443E-01  0.34353158525E-01  0.89177455385E+00  0.88000000000E+00 0.  1.
        -11    1    4    4    0    0 -0.46174195365E-01 -0.13500393199E-01 -0.22191809225E-01  0.52981642593E-01  0.51100000000E-03 0. -1.
         11    1    4    4    0    0 -0.73457346809E-01 -0.12598159731E-01 -0.94034056752E-02  0.75122437315E-01  0.51100000000E-03 0.  1.
</event>
<event>
 8    1  0.1137518E+005  0.1043930E+01  0.7957747E-01            NaN
         13   -1    0    0    0    0  0.00000000000E+00  0.00000000000E+00  0.74505805969E-08  0.10566000000E+00  0.10566000000E+00 0. -1.
     999900   -1    0    0    0    0 -0.00000000000E+00 -0.00000000000E+00 -0.74505805969E-08  0.93827000000E+00  0.93827000000E+00 0. -1.
     999902    2    1    2    0    0  0.64500579079E-02  0.18994505083E-02 -0.23112730386E-01  0.10198590743E+01  0.10195749712E+01 0.  0.
     999903    2    3    3    0    0  0.85676105961E-01  0.67052095865E-01  0.67171341552E-01  0.12931269843E+00  0.19323720063E-01 0.  0.
         14    1    1    2    0    0 -0.64500579079E-02 -0.18994505083E-02  0.23112730386E-01  0.24070925722E-01  0.00000000000E+00 0. -1.
     999901    1    3    3    0    0 -0.79226048053E-01 -0.65152645357E-01 -0.90284071938E-01  0.89054637585E+00  0.88000000000E+00 0. -1.
        -11    1    4    4    0    0  0.71738817327E-01  0.62907139137E-01  0.53722120138E-01  0.10949928483E+00  0.51100000000E-03 0. -1.
         11    1    4    4    0    0  0.13937288635E-01  0.41449567281E-02  0.13449221415E-01  0.19813413599E-01  0.51100000000E-03 0.  1.
</event>
<event>
 8    1  0.1137518E+005  0.1043930E+01  0.7957747E-01            NaN
         13   -1    0    0    0    0  0.00000000000E+00  0.00000000000E+00  0.74505805969E-08  0.10566000000E+00  0.10566000000E+00 0. -1.
     999900   -1    0    0    0    0 -0.00000000000E+00 -0.00000000000E+00 -0.74505805969E-08  0.93827000000E+00  0.93827000000E+00 0. -1.
     999902    2    1    2    0    0  0.76149983675E-02 -0.17642014135E-01 -0.14572810006E-01  0.10198137056E+01  0.10195285178E+01 0.  0.
     999903    2    3    3    0    0 -0.57147071876E-01 -0.34070967683E-01 -0.11224734202E+00  0.13189234060E+00  0.19222514299E-01 0.  0.
         14    1    1    2    0    0 -0.76149983675E-02  0.17642014135E-01  0.14572810006E-01  0.24116294374E-01  0.00000000000E+00 0. -1.
     999901    1    3    3    0    0  0.64762070243E-01  0.16428953548E-01  0.97674532017E-01  0.88792136502E+00  0.88000000000E+00 0.  1.
        -11    1    4    4    0    0 -0.32173528416E-01 -0.18247918611E-01 -0.43796822508E-01  0.57328398261E-01  0.51100000000E-03 0.  1.
         11    1    4    4    0    0 -0.24973543460E-01 -0.15823049072E-01 -0.68450519515E-01  0.74563942343E-01  0.51100000000E-03 0. -1.
</event>
<event>
 8    1  0.1137518E+005  0.1043930E+01  0.7957747E-01            NaN
         13   -1    0    0    0    0  0.00000000000E+00  0.00000000000E+00  0.74505805969E-08  0.10566000000E+00  0.10566000000E+00 0.  1.
     999900   -1    0    0    0    0 -0.00000000000E+00 -0.00000000000E+00 -0.74505805969E-08  0.93827000000E+00  0.93827000000E+00 0.  1.
     999902    2    1    2    0    0  0.12633513763E-01 -0.19766047018E-01  0.41027219567E-02  0.10201154118E+01  0.10198373982E+01 0.  0.
     999903    2    3    3    0    0  0.96620865134E-01  0.84841404500E-01 -0.98465363469E-04  0.12993888767E+00  0.18720292093E-01 0.  0.
         14    1    1    2    0    0 -0.12633513763E-01  0.19766047018E-01 -0.41027219567E-02  0.23814588222E-01  0.00000000000E+00 0. -1.
     999901    1    3    3    0    0 -0.83987351371E-01 -0.10460745152E+00  0.42011873201E-02  0.89017652411E+00  0.88000000000E+00 0.  1.
        -11    1    4    4    0    0  0.37309118792E-01  0.43849073365E-01  0.40565949857E-02  0.57718529641E-01  0.51100000000E-03 0.  1.
         11    1    4    4    0    0  0.59311746342E-01  0.40992331135E-01 -0.41550603491E-02  0.72220358026E-01  0.51100000000E-03 0. -1.
</event>
<event>
 8    1  0.1137518E+005  0.1043930E+01  0.7957747E-01            NaN
         13   -1    0    0    0    0  0.00000000000E+00  0.00000000000E+00  0.74505805969E-08  0.10566000000E+00  0.10566000000E+00 0. -1.
     999900   -1    0    0    0    0 -0.00000000000E+00 -0.00000000000E+00 -0.74505805969E-08  0.93827000000E+00  0.93827000000E+00 0. -1.
     999902    2    1    2    0    0  0.13534012270E-01  0.14298429127E-01  0.13603524052E-01  0.10199994666E+01  0.10197187070E+01 0.  0.
     999903    2    3    3    0    0 -0.23544857725E-01  0.12081575589E+00  0.44328069989E-01  0.13226933797E+00  0.19478007633E-01 0.  0.
         14    1    1    2    0    0 -0.13534012270E-01 -0.14298429127E-01 -0.13603524052E-01  0.23930533430E-01  0.00000000000E+00 0.  1.
     999901    1    3    3    0    0  0.37078869995E-01 -0.10651732676E+00 -0.30724545937E-01  0.88773012860E+00  0.88000000000E+00 0.  1.
        -11    1    4    4    0    0 -0.15991812322E-01  0.53100793642E-01  0.11509048802E-01  0.56640547950E-01  0.51100000000E-03 0. -1.
         11    1    4    4    0    0 -0.75530454023E-02  0.67714962248E-01  0.32819021187E-01  0.75628790019E-01  0.51100000000E-03 0.  1.
</event>
<event>
 8    1  0.1137518E+005  0.1043930E+01  0.7957747E-01            NaN
         13   -1    0    0    0    0  0.00000000000E+00  0.00000000000E+00  0.74505805969E-08  0.10566000000E+00  0.10566000000E+00 0.  1.
     999900   -1    0    0    0    0 -0.00000000000E+00 -0.00000000000E+00 -0.74505805969E-08  0.93827000000E+00  0.93827000000E+00 0. -1.
     999902    2    1    2    0    0  0.13986915198E-01 -0.36022091786E-02  0.18981142467E-01  0.10200785121E+01  0.10197996260E+01 0.  0.
     999903    2    3    3    0    0 -0.12121783757E-01  0.11052994612E+00 -0.61129181642E-01  0.12871692602E+00  0.21620905728E-01 0.  0.
         14    1    1    2    0    0 -0.13986915198E-01  0.36022091786E-02 -0.18981142467E-01  0.23851487943E-01  0.00000000000E+00 0. -1.
     999901    1    3    3    0    0  0.26108698955E-01 -0.11413215530E+00  0.80110324109E-01  0.89136158604E+00  0.88000000000E+00 0.  1.
        -11    1    4    4    0    0  0.13737239801E-02  0.77101325758E-01 -0.44232045476E-01  0.88900149151E-01  0.51100000000E-03 0. -1.
         11    1    4    4    0    0 -0.13495507737E-01  0.33428620364E-01 -0.16897136166E-01  0.39816776868E-01  0.51100000000E-03 0.  1.
</event>
<event>
 8    1  0.1137518E+005  0.1043930E+01  0.7957747E-01            NaN
         13   -1    0    0    0    0  0.00000000000E+00  0.00000000000E+00  0.74505805969E-08  0.10566000000E+00  0.10566000000E+00 0. -1.
     999900   -1    0    0    0    0 -0.00000000000E+00 -0.00000000000E+00 -0.74505805969E-08  0.93827000000E+00  0.93827000000E+00 0.  1.
     999902    2    1    2    0    0 -0.19313484472E-01  0.97889099323E-02 -0.22798479851E-02  0.10221577436E+01  0.10219258396E+01 0.  0.
     999903    2    3    3    0    0 -0.86704108616E-01 -0.33089024645E-01 -0.94230923782E-01  0.13376874448E+00  0.20053029674E-01 0.  0.
         14    1    1    2    0    0  0.19313484472E-01 -0.97889099323E-02  0.22798479851E-02  0.21772256359E-01  0.00000000000E+00 0. -1.
     999901    1    3    3    0    0  0.67390624144E-01  0.42877934578E-01  0.91951075797E-01  0.88838899916E+00  0.88000000000E+00 0. -1.
        -11    1    4    4    0    0 -0.44487537104E-01 -0.65397389371E-02 -0.47798564362E-01  0.65626770597E-01  0.51100000000E-03 0.  1.
         11    1    4    4    0    0 -0.42216571513E-01 -0.26549285708E-01 -0.46432359419E-01  0.68141973879E-01  0.51100000000E-03 0. -1.
</event>
<event>
 8    1  0.1137518E+005  0.1043930E+01  0.7957747E-01            NaN
         13   -1    0    0    0    0  0.00000000000E+00  0.00000000000E+00  0.74505805969E-08  0.10566000000E+00  0.10566000000E+00 0.  1.
     999900   -1    0    0    0    0 -0.00000000000E+00 -0.00000000000E+00 -0.74505805969E-08  0.93827000000E+00  0.93827000000E+00 0.  1.
     999902    2    1    2    0    0  0.20513887175E-01  0.13731760696E-01  0.36151890424E-02  0.10189810439E+01  0.10186755702E+01 0.  0.
     999903    2    3    3    0    0  0.39587508114E-01  0.83553130964E-01  0.90897415873E-01  0.13170599416E+00  0.23148049445E-01 0.  0.
         14    1    1    2    0    0 -0.20513887175E-01 -0.13731760696E-01 -0.36151890424E-02  0.24948956103E-01  0.00000000000E+00 0.  1.
     999901    1    3    3    0    0 -0.19073620938E-01 -0.69821370268E-01 -0.87282226831E-01  0.88727504974E+00  0.88000000000E+00 0.  1.
        -11    1    4    4    0    0  0.14001601908E-01  0.26213199985E-01  0.15291131552E-01  0.33425387576E-01  0.51100000000E-03 0.  1.
         11    1    4    4    0    0  0.25585906206E-01  0.57339930979E-01  0.75606284321E-01  0.98280606586E-01  0.51100000000E-03 0. -1.
</event>
<event>
 8    1  0.1137518E+005  0.1043930E+01  0.7957747E-01            NaN
         13   -1    0    0    0    0  0.00000000000E+00  0.00000000000E+00  0.74505805969E-08  0.10566000000E+00  0.10566000000E+00 0.  1.
     999900   -1    0    0    0    0 -0.00000000000E+00 -0.00000000000E+00 -0.74505805969E-08  0.93827000000E+00  0.93827000000E+00 0.  1.
     999902    2    1    2    0    0 -0.15157672409E-01 -0.16439279705E-01 -0.40236878268E-02  0.10212100745E+01  0.10209573063E+01 0.  0.
     999903    2    3    3    0    0 -0.12951071767E+00  0.21744915618E-01 -0.92004724558E-02  0.13297505448E+00  0.18757640419E-01 0.  0.
         14    1    1    2    0    0  0.15157672409E-01  0.16439279705E-01  0.40236878268E-02  0.22719925480E-01  0.00000000000E+00 0.  1.
     999901    1    3    3    0    0  0.11435304526E+00 -0.38184195323E-01  0.51767846290E-02  0.88823502004E+00  0.88000000000E+00 0.  1.
        -11    1    4    4    0    0 -0.90471048524E-01  0.88361868241E-02 -0.31096297942E-03  0.90903501790E-01  0.51100000000E-03 0.  1.
         11    1    4    4    0    0 -0.39039669142E-01  0.12908728794E-01 -0.88895094764E-02  0.42071552688E-01  0.51100000000E-03 0. -1.
</event>
<event>
 8    1  0.1137518E+005  0.1043930E+01  0.7957747E-01            NaN
         13   -1    0    0    0    0  0.00000000000E+00  0.00000000000E+00  0.74505805969E-08  0.10566000000E+00  0.10566000000E+00 0.  1.
     999900   -1    0    0    0    0 -0.00000000000E+00 -0.00000000000E+00 -0.74505805969E-08  0.93827000000E+00  0.93827000000E+00 0. -1.
     999902    2    1    2    0    0 -0.91129089102E-02  0.19802273783E-01 -0.75962070790E-02  0.10208458600E+01  0.10205848286E+01 0.  0.
     999903    2    3    3    0    0  0.89079110311E-01  0.24781102994E-01 -0.91286259649E-01  0.13142442659E+00  0.19748613729E-01 0.  0.
         14    1    1    2    0    0  0.91129089102E-02 -0.19802273783E-01  0.75962070790E-02  0.23084139961E-01  0.00000000000E+00 0.  1.
     999901    1    3    3    0    0 -0.98192019221E-01 -0.49788292114E-02  0.83690052570E-01  0.88942143345E+00  0.88000000000E+00 0.  1.
        -11    1    4    4    0    0  0.33645497768E-01  0.23250229159E-02 -0.42376200815E-01  0.54161137064E-01  0.51100000000E-03 0. -1.
         11    1    4    4    0    0  0.55433612543E-01  0.22456080078E-01 -0.48910058835E-01  0.77263289525E-01  0.51100000000E-03 0.  1.
</event>
<event>
 8    1  0.1137518E+005  0.1043930E+01  0.7957747E-01            NaN
         13   -1    0    0    0    0  0.00000000000E+00  0.00000000000E+00  0.74505805969E-08  0.10566000000E+00  0.10566000000E+00 0.  1.
     999900   -1    0    0    0    0 -0.00000000000E+00 -0.00000000000E+00 -0.74505805969E-08  0.93827000000E+00  0.93827000000E+00 0.  1.
     999902    2    1    2    0    0  0.23165135805E-01  0.23847476214E-02 -0.86401896290E-02  0.10190912517E+01  0.10187885040E+01 0.  0.
     999903    2    3    3    0    0 -0.10027856916E-01 -0.51090237701E-01 -0.11758183756E+00  0.13014264160E+00  0.20021197150E-01 0.  0.
         14    1    1    2    0    0 -0.23165135805E-01 -0.23847476214E-02  0.86401896290E-02  0.24838748256E-01  0.00000000000E+00 0. -1.
     999901    1    3    3    0    0  0.33192992721E-01  0.53474985323E-01  0.10894164793E+00  0.88894861014E+00  0.88000000000E+00 0. -1.
        -11    1    4    4    0    0 -0.10004784221E-01 -0.38524069221E-01 -0.10526371133E+00  0.11253848080E+00  0.51100000000E-03 0. -1.
         11    1    4    4    0    0 -0.23072694642E-04 -0.12566168480E-01 -0.12318126234E-01  0.17604160802E-01  0.51100000000E-03 0.  1.
</event>
<event>
 8    1  0.1137518E+005  0.1043930E+01  0.7957747E-01            NaN
         13   -1    0    0    0    0  0.00000000000E+00  0.00000000000E+00  0.74505805969E-08  0.10566000000E+00  0.10566000000E+00 0.  1.
     999900   -1    0    0    0    0 -0.00000000000E+00 -0.00000000000E+00 -0.74505805969E-08  0.93827000000E+00  0.93827000000E+00 0. -1.
     999902    2    1    2    0    0 -0.25839413004E-03  0.58872257472E-02 -0.22836781208E-01  0.10203451580E+01  0.10200725448E+01 0.  0.
     999903    2    3    3    0    0  0.11841362215E+00 -0.15828472403E-01  0.45740122686E-01  0.12947063784E+00  0.19953966768E-01 0.  0.
         14    1    1    2    0    0  0.25839413004E-03 -0.58872257472E-02  0.22836781208E-01  0.23584841964E-01  0.00000000000E+00 0.  1.
     999901    1    3    3    0    0 -0.11867201628E+00  0.21715698150E-01 -0.68576903895E-01  0.89087452020E+00  0.88000000000E+00 0.  1.
        -11    1    4    4    0    0  0.70692312743E-01 -0.11453354724E-01  0.37511183555E-01  0.80845113817E-01  0.51100000000E-03 0. -1.
         11    1    4    4    0    0  0.47721309403E-01 -0.43751176785E-02  0.82289391317E-02  0.48625524019E-01  0.51100000000E-03 0.  1.
</event>
<event>
 8    1  0.1137518E+005  0.1043930E+01  0.7957747E-01            NaN
         13   -1    0    0    0    0  0.00000000000E+00  0.00000000000E+00  0.74505805969E-08  0.10566000000E+00  0.10566000000E+00 0. -1.
     999900   -1    0    0    0    0 -0.00000000000E+00 -0.00000000000E+00 -0.74505805969E-08  0.93827000000E+00  0.93827000000E+00 0. -1.
     999902    2    1    2    0    0  0.12824577193E-01 -0.10894933158E-01  0.17682433809E-01  0.10195202107E+01  0.10192279540E+01 0.  0.
     999903    2    3    3    0    0  0.11159867973E+00  0.35258833638E-01  0.57151749605E-01  0.13191426185E+00  0.20918874953E-01 0.  0.
         14    1    1    2    0    0 -0.12824577193E-01  0.10894933158E-01 -0.17682433809E-01  0.24409789309E-01  0.00000000000E+00 0.  1.
     999901    1    3    3    0    0 -0.98774102542E-01 -0.46153766797E-01 -0.39469315796E-01  0.88760594884E+00  0.88000000000E+00 0. -1.
        -11    1    4    4    0    0  0.59208733232E-01  0.24927347221E-01  0.21672564592E-01  0.67801238244E-01  0.51100000000E-03 0.  1.
         11    1    4    4    0    0  0.52389946502E-01  0.10331486417E-01  0.35479185013E-01  0.64113023609E-01  0.51100000000E-03 0. -1.
</event>
<event>
 8    1  0.1137518E+005  0.1043930E+01  0.7957747E-01            NaN
         13   -1    0    0    0    0  0.00000000000E+00  0.00000000000E+00  0.74505805969E-08  0.10566000000E+00  0.10566000000E+00 0. -1.
     999900   -1    0    0    0    0 -0.00000000000E+00 -0.00000000000E+00 -0.74505805969E-08  0.93827000000E+00  0.93827000000E+00 0.  1.
     999902    2    1    2    0    0  0.19824464097E-02  0.18087767884E-01 -0.15758531720E-01  0.10198586734E+01  0.10195745608E+01 0.  0.
     999903    2    3    3    0    0 -0.12190250480E+00  0.34580258524E-01 -0.26787748744E-01  0.13095984510E+00  0.19413464122E-01 0.  0.
         14    1    1    2    0    0 -0.19824464097E-02 -0.18087767884E-01  0.15758531720E-01  0.24071326568E-01  0.00000000000E+00 0. -1.
     999901    1    3    3    0    0  0.12388495121E+00 -0.16492490641E-01  0.11029217024E-01  0.88889882833E+00  0.88000000000E+00 0.  1.
        -11    1    4    4    0    0 -0.10987727278E+00  0.25371339414E-01 -0.26306479254E-01  0.11579728801E+00  0.51100000000E-03 0. -1.
         11    1    4    4    0    0 -0.12025232018E-01  0.92089191103E-02 -0.48126949023E-03  0.15162557093E-01  0.51100000000E-03 0.  1.
</event>
<event>
 8    1  0.1137518E+005  0.1043930E+01  0.7957747E-01            NaN
         13   -1    0    0    0    0  0.00000000000E+00  0.00000000000E+00  0.74505805969E-08  0.10566000000E+00  0.10566000000E+00 0. -1.
     999900   -1    0    0    0    0 -0.00000000000E+00 -0.00000000000E+00 -0.74505805969E-08  0.93827000000E+00  0.93827000000E+00 0.  1.
     999902    2    1    2    0    0 -0.58852184103E-02 -0.22706130585E-01 -0.19339739901E-02  0.10203939762E+01  0.10201225035E+01 0.  0.
     999903    2    3    3    0    0  0.24315170244E-02 -0.10932950044E+00 -0.73314487347E-01  0.13322547247E+00  0.20375488132E-01 0.  0.
         14    1    1    2    0    0  0.58852184103E-02  0.22706130585E-01  0.19339739901E-02  0.23536023820E-01  0.00000000000E+00 0.  1.
     999901    1    3    3    0    0 -0.83167354348E-02  0.86623369859E-01  0.71380513357E-01  0.88716850371E+00  0.88000000000E+00 0. -1.
        -11    1    4    4    0    0  0.11121546678E-02 -0.38176357779E-01 -0.37607875433E-01  0.53603027870E-01  0.51100000000E-03 0. -1.
         11    1    4    4    0    0  0.13193623566E-02 -0.71153142664E-01 -0.35706611914E-01  0.79622444596E-01  0.51100000000E-03 0.  1.
</event>
<event>
 8    1  0.1137518E+005  0.1043930E+01  0.7957747E-01            NaN
         13   -1    0    0    0    0  0.00000000000E+00  0.00000000000E+00  0.74505805969E-08  0.10566000000E+00  0.10566000000E+00 0. -1.
     999900   -1    0    0    0    0 -0.00000000000E+00 -0.00000000000E+00 -0.74505805969E-08  0.93827000000E+00  0.93827000000E+00 0. -1.
     999902    2    1    2    0    0 -0.15707096161E-01 -0.42521094164E-02 -0.17381242804E-01  0.10201203191E+01  0.10198424214E+01 0.  0.
     999903    2    3    3    0    0 -0.14140257643E-01 -0.10646144153E+00 -0.74675878100E-01  0.13235240020E+00  0.20166448606E-01 0.  0.
         14    1    1    2    0    0  0.15707096161E-01  0.42521094164E-02  0.17381242804E-01  0.23809680924E-01  0.00000000000E+00 0. -1.
     999901    1    3    3    0    0 -0.15668385180E-02  0.10220933211E+00  0.57294635295E-01  0.88776791888E+00  0.88000000000E+00 0. -1.
        -11    1    4    4    0    0 -0.41359578690E-02 -0.13690755431E-01 -0.28315255371E-02  0.14588406001E-01  0.51100000000E-03 0. -1.
         11    1    4    4    0    0 -0.10004299774E-01 -0.92770686099E-01 -0.71844352563E-01  0.11776399420E+00  0.51100000000E-03 0.  1.
</event>
<event>
 8    1  0.1137518E+005  0.1043930E+01  0.7957747E-01            NaN
         13   -1    0    0    0    0  0.00000000000E+00  0.00000000000E+00  0.74505805969E-08  0.10566000000E+00  0.10566000000E+00 0.  1.
     999900   -1    0    0    0    0 -0.00000000000E+00 -0.00000000000E+00 -0.74505805969E-08  0.93827000000E+00  0.93827000000E+00 0.  1.
     999902    2    1    2    0    0  0.22126093671E-01  0.76185655648E-02 -0.32157024006E-02  0.10203090918E+01  0.10200356344E+01 0.  0.
     999903    2    3    3    0    0 -0.55091986913E-01  0.99883748934E-01  0.58898531113E-01  0.12995316632E+00  0.20171716478E-01 0.  0.
         14    1    1    2    0    0 -0.22126093671E-01 -0.76185655648E-02  0.32157024006E-02  0.23620908203E-01  0.00000000000E+00 0. -1.
     999901    1    3    3    0    0  0.77218080584E-01 -0.92265183369E-01 -0.62114233513E-01  0.89035592548E+00  0.88000000000E+00 0.  1.
        -11    1    4    4    0    0 -0.41702036954E-01  0.80642868601E-01  0.37565276828E-01  0.98253464501E-01  0.51100000000E-03 0. -1.
         11    1    4    4    0    0 -0.13389949959E-01  0.19240880334E-01  0.21333254285E-01  0.31699701817E-01  0.51100000000E-03 0.  1.
</event>
<event>
 8    1  0.1137518E+005  0.1043930E+01  0.7957747E-01            NaN
         13   -1    0    0    0    0  0.00000000000E+00  0.00000000000E+00  0.74505805969E-08  0.10566000000E+00  0.10566000000E+00 0. -1.
     999900   -1    0    0    0    0 -0.00000000000E+00 -0.00000000000E+00 -0.74505805969E-08  0.93827000000E+00  0.93827000000E+00 0. -1.
     999902    2    1    2    0    0 -0.20077358034E-01  0.21709118114E-02  0.12985081549E-01  0.10199211369E+01  0.10196385144E+01 0.  0.
     999903    2    3    3    0    0 -0.10262935355E+00  0.43371710168E-01 -0.66430828006E-01  0.13154102433E+00  0.21819640673E-01 0.  0.
         14    1    1    2    0    0  0.20077358034E-01 -0.21709118114E-02 -0.12985081549E-01  0.24008863084E-01  0.00000000000E+00 0.  1.
     999901    1    3    3    0    0  0.82551995516E-01 -0.41200798357E-01  0.79415909555E-01  0.88838011259E+00  0.88000000000E+00 0. -1.
        -11    1    4    4    0    0 -0.11452895897E-01  0.97819682996E-02 -0.26279559258E-02  0.15297810353E-01  0.51100000000E-03 0.  1.
         11    1    4    4    0    0 -0.91176457653E-01  0.33589741868E-01 -0.63802872081E-01  0.11624321398E+00  0.51100000000E-03 0. -1.
</event>
<event>
 8    1  0.1137518E+005  0.1043930E+01  0.7957747E-01            NaN
         13   -1    0    0    0    0  0.00000000000E+00  0.00000000000E+00  0.74505805969E-08  0.10566000000E+00  0.10566000000E+00 0.  1.
     999900   -1    0    0    0    0 -0.00000000000E+00 -0.00000000000E+00 -0.74505805969E-08  0.93827000000E+00  0.93827000000E+00 0. -1.
     999902    2    1    2    0    0 -0.54225289514E-03  0.16988297151E-01 -0.27757782102E-01  0.10113817167E+01  0.10108578467E+01 0.  0.
     999903    2    3    3    0    0 -0.92803735231E-01 -0.24974968522E-01 -0.76166143862E-01  0.12424223146E+00  0.19964174966E-01 0.  0.
         14    1    1    2    0    0  0.54225289514E-03 -0.16988297151E-01  0.27757782102E-01  0.32548283296E-01  0.00000000000E+00 0.  1.
     999901    1    3    3    0    0  0.92261482336E-01  0.41963265673E-01  0.48408361761E-01  0.88713948524E+00  0.88000000000E+00 0.  1.
        -11    1    4    4    0    0 -0.81908431109E-01 -0.17605050878E-01 -0.58380414641E-01  0.10211494914E+00  0.51100000000E-03 0.  1.
         11    1    4    4    0    0 -0.10895304122E-01 -0.73699176446E-02 -0.17785729221E-01  0.22127282321E-01  0.51100000000E-03 0. -1.
</event>
<event>
 8    1  0.1137518E+005  0.1043930E+01  0.7957747E-01            NaN
         13   -1    0    0    0    0  0.00000000000E+00  0.00000000000E+00  0.74505805969E-08  0.10566000000E+00  0.10566000000E+00 0.  1.
     999900   -1    0    0    0    0 -0.00000000000E+00 -0.00000000000E+00 -0.74505805969E-08  0.93827000000E+00  0.93827000000E+00 0.  1.
     999902    2    1    2    0    0  0.22526910642E-02 -0.10391602942E-01  0.21054056397E-01  0.10203432809E+01  0.10200706238E+01 0.  0.
     999903    2    3    3    0    0 -0.88339034782E-02 -0.70981565694E-01 -0.10435381484E+00  0.12932072765E+00  0.26790136437E-01 0.  0.
         14    1    1    2    0    0 -0.22526910642E-02  0.10391602942E-01 -0.21054056397E-01  0.23586719135E-01  0.00000000000E+00 0. -1.
     999901    1    3    3    0    0  0.11086594542E-01  0.60589962751E-01  0.12540787124E+00  0.89102255321E+00  0.88000000000E+00 0.  1.
        -11    1    4    4    0    0  0.24564210082E-02 -0.45362509815E-01 -0.46301893259E-01  0.64868464921E-01  0.51100000000E-03 0.  1.
         11    1    4    4    0    0 -0.11290324486E-01 -0.25619055879E-01 -0.58051921580E-01  0.64452262732E-01  0.51100000000E-03 0. -1.
</event>
<event>
 8    1  0.1137518E+005  0.1043930E+01  0.7957747E-01            NaN
         13   -1    0    0    0    0  0.00000000000E+00  0.00000000000E+00  0.74505805969E-08  0.10566000000E+00  0.10566000000E+00 0.  1.
     999900   -1    0    0    0    0 -0.00000000000E+00 -0.00000000000E+00 -0.74505805969E-08  0.93827000000E+00  0.93827000000E+00 0.  1.
     999902    2    1    2    0    0 -0.22254466715E-01  0.26510539373E-02 -0.47408969196E-02  0.10210222398E+01  0.10207652270E+01 0.  0.
     999903    2    3    3    0    0 -0.71680626942E-02  0.10215858301E+00 -0.80767059572E-01  0.13202880596E+00  0.20506839956E-01 0.  0.
         14    1    1    2    0    0  0.22254466715E-01 -0.26510539373E-02  0.47408969196E-02  0.22907760243E-01  0.00000000000E+00 0. -1.
     999901    1    3    3    0    0 -0.15086404020E-01 -0.99507529076E-01  0.76026162653E-01  0.88899343380E+00  0.88000000000E+00 0. -1.
        -11    1    4    4    0    0  0.51916150331E-02  0.13651810979E-01 -0.15934973462E-01  0.21621963599E-01  0.51100000000E-03 0. -1.
         11    1    4    4    0    0 -0.12359677727E-01  0.88506772034E-01 -0.64832086111E-01  0.11040684236E+00  0.51100000000E-03 0.  1.
</event>
<event>
 8    1  0.1137518E+005  0.1043930E+01  0.7957747E-01            NaN
         13   -1    0    0    0    0  0.00000000000E+00  0.00000000000E+00  0.74505805969E-08  0.10566000000E+00  0.10566000000E+00 0.  1.
     999900   -1    0    0    0    0 -0.00000000000E+00 -0.00000000000E+00 -0.74505805969E-08  0.93827000000E+00  0.93827000000E+00 0. -1.
     999902    2    1    2    0    0 -0.20725323022E-01 -0.11376317890E-01 -0.14011715281E-02  0.10202461890E+01  0.10199712561E+01 0.  0.
     999903    2    3    3    0    0 -0.85871910218E-01  0.82285488138E-01 -0.51644978273E-01  0.13145990879E+00  0.21670655616E-01 0.  0.
         14    1    1    2    0    0  0.20725323022E-01  0.11376317890E-01  0.14011715281E-02  0.23683811027E-01  0.00000000000E+00 0.  1.
     999901    1    3    3    0    0  0.65146587196E-01 -0.93661806028E-01  0.50243806745E-01  0.88878628019E+00  0.88000000000E+00 0.  1.
        -11    1    4    4    0    0 -0.41490001102E-01  0.25954510268E-01 -0.16966361429E-01  0.51799375825E-01  0.51100000000E-03 0. -1.
         11    1    4    4    0    0 -0.44381909116E-01  0.56330977870E-01 -0.34678616844E-01  0.79660532961E-01  0.51100000000E-03 0.  1.
</event>
<event>
 8    1  0.1137518E+005  0.1043930E+01  0.7957747E-01            NaN
         13   -1    0    0    0    0  0.00000000000E+00  0.00000000000E+00  0.74505805969E-08  0.10566000000E+00  0.10566000000E+00 0.  1.
     999900   -1    0    0    0    0 -0.00000000000E+00 -0.00000000000E+00 -0.74505805969E-08  0.93827000000E+00  0.93827000000E+00 0. -1.
     999902    2    1    2    0    0  0.11053064828E-01  0.20880342066E-01 -0.57243259157E-02  0.10196210133E+01  0.10193311944E+01 0.  0.
     999903    2    3    3    0    0 -0.11182072786E+00 -0.55127124288E-01 -0.19380196836E-01  0.12773448090E+00  0.19940676320E-01 0.  0.
         14    1    1    2    0    0 -0.11053064828E-01 -0.20880342066E-01  0.57243259157E-02  0.24308986693E-01  0.00000000000E+00 0. -1.
     999901    1    3    3    0    0  0.12287379268E+00  0.76007466354E-01  0.13655870920E-01  0.89188653240E+00  0.88000000000E+00 0.  1.
        -11    1    4    4    0    0 -0.35056275298E-01 -0.25520430160E-01 -0.12700222693E-01  0.45186187832E-01  0.51100000000E-03 0. -1.
         11    1    4    4    0    0 -0.76764452558E-01 -0.29606694128E-01 -0.66799741433E-02  0.82548293073E-01  0.51100000000E-03 0.  1.
</event>
<event>
 8    1  0.1137518E+005  0.1043930E+01  0.7957747E-01            NaN
         13   -1    0    0    0    0  0.00000000000E+00  0.00000000000E+00  0.74505805969E-08  0.10566000000E+00  0.10566000000E+00 0. -1.
     999900   -1    0    0    0    0 -0.00000000000E+00 -0.00000000000E+00 -0.74505805969E-08  0.93827000000E+00  0.93827000000E+00 0.  1.
     999902    2    1    2    0    0  0.10785588682E-01 -0.15829562493E-01  0.13365348450E-01  0.10205732770E+01  0.10203059723E+01 0.  0.
     999903    2    3    3    0    0  0.88047225745E-01 -0.91346910473E-01  0.36891327693E-01  0.13365405735E+00  0.20146090788E-01 0.  0.
         14    1    1    2    0    0 -0.10785588682E-01  0.15829562493E-01 -0.13365348450E-01  0.23356723039E-01  0.00000000000E+00 0.  1.
     999901    1    3    3    0    0 -0.77261637062E-01  0.75517347980E-01 -0.23525979243E-01  0.88691921961E+00  0.88000000000E+00 0.  1.
        -11    1    4    4    0    0  0.74260805699E-01 -0.68549565485E-01  0.34949925985E-01  0.10693675065E+00  0.51100000000E-03 0.  1.
         11    1    4    4    0    0  0.13786420045E-01 -0.22797344988E-01  0.19414017075E-02  0.26717306709E-01  0.51100000000E-03 0. -1.
</event>
<event>
 8    1  0.1137518E+005  0.1043930E+01  0.7957747E-01            NaN
         13   -1    0    0    0    0  0.00000000000E+00  0.00000000000E+00  0.74505805969E-08  0.10566000000E+00  0.10566000000E+00 0.  1.
     999900   -1    0    0    0    0 -0.00000000000E+00 -0.00000000000E+00 -0.74505805969E-08  0.93827000000E+00  0.93827000000E+00 0.  1.
     999902    2    1    2    0    0  0.37283984465E-02 -0.22322986053E-01  0.37939689176E-02  0.10209819966E+01  0.10207240697E+01 0.  0.
     999903    2    3    3    0    0 -0.87324297972E-02 -0.12779858212E+00 -0.32866096802E-01  0.13383807700E+00  0.20584402189E-01 0.  0.
         14    1    1    2    0    0 -0.37283984465E-02  0.22322986053E-01 -0.37939689176E-02  0.22948003431E-01  0.00000000000E+00 0. -1.
     999901    1    3    3    0    0  0.12460828244E-01  0.10547559607E+00  0.36660065720E-01  0.88714391957E+00  0.88000000000E+00 0.  1.
        -11    1    4    4    0    0 -0.13757306252E-01 -0.53998484364E-01 -0.12448218473E-01  0.57099203612E-01  0.51100000000E-03 0. -1.
         11    1    4    4    0    0  0.50248764546E-02 -0.73800097760E-01 -0.20417878329E-01  0.76738873390E-01  0.51100000000E-03 0.  1.
</event>
<event>
 8    1  0.1137518E+005  0.1043930E+01  0.7957747E-01            NaN
         13   -1    0    0    0    0  0.00000000000E+00  0.00000000000E+00  0.74505805969E-08  0.10566000000E+00  0.10566000000E+00 0.  1.
     999900   -1    0    0    0    0 -0.00000000000E+00 -0.00000000000E+00 -0.74505805969E-08  0.93827000000E+00  0.93827000000E+00 0.  1.
     999902    2    1    2    0    0  0.20422403813E-01 -0.12278704431E-01  0.36788038502E-03  0.10200977425E+01  0.10198193114E+01 0.  0.
     999903    2    3    3    0    0 -0.22860872898E-01  0.12229185776E+00  0.25231074138E-01  0.12846953714E+00  0.19745806798E-01 0.  0.
         14    1    1    2    0    0 -0.20422403813E-01  0.12278704431E-01 -0.36788038502E-03  0.23832257467E-01  0.00000000000E+00 0. -1.
     999901    1    3    3    0    0  0.43283276711E-01 -0.13457056219E+00 -0.24863193753E-01  0.89162820539E+00  0.88000000000E+00 0. -1.
        -11    1    4    4    0    0 -0.17155698147E-01  0.55965366424E-01  0.19277266793E-01  0.61630466118E-01  0.51100000000E-03 0. -1.
         11    1    4    4    0    0 -0.57051747511E-02  0.66326491337E-01  0.59538073455E-02  0.66839071020E-01  0.51100000000E-03 0.  1.
</event>
<event>
 8    1  0.1137518E+005  0.1043930E+01  0.7957747E-01            NaN
         13   -1    0    0    0    0  0.00000000000E+00  0.00000000000E+00  0.74505805969E-08  0.10566000000E+00  0.10566000000E+00 0. -1.
     999900   -1    0    0    0    0 -0.00000000000E+00 -0.00000000000E+00 -0.74505805969E-08  0.93827000000E+00  0.93827000000E+00 0. -1.
     999902    2    1    2    0    0  0.45184817429E-02  0.24384702047E-01  0.57182550571E-02  0.10184794831E+01  0.10181614453E+01 0.  0.
     999903    2    3    3    0    0 -0.55565217226E-02  0.11537578905E+00  0.60963459466E-01  0.13200730854E+00  0.19155638448E-01 0.  0.
         14    1    1    2    0    0 -0.45184817429E-02 -0.24384702047E-01 -0.57182550571E-02  0.25450516932E-01  0.00000000000E+00 0. -1.
     999901    1    3    3    0    0  0.10075003465E-01 -0.90991087003E-01 -0.55245204409E-01  0.88647217453E+00  0.88000000000E+00 0.  1.
        -11    1    4    4    0    0  0.44788076492E-02  0.42764938994E-01  0.30004092462E-01  0.52434782450E-01  0.51100000000E-03 0.  1.
         11    1    4    4    0    0 -0.10035329372E-01  0.72610850056E-01  0.30959367004E-01  0.79572526087E-01  0.51100000000E-03 0. -1.
</event>
<event>
 8    1  0.1137518E+005  0.1043930E+01  0.7957747E-01            NaN
         13   -1    0    0    0    0  0.00000000000E+00  0.00000000000E+00  0.74505805969E-08  0.10566000000E+00  0.10566000000E+00 0. -1.
     999900   -1    0    0    0    0 -0.00000000000E+00 -0.00000000000E+00 -0.74505805969E-08  0.93827000000E+00  0.93827000000E+00 0. -1.
     999902    2    1    2    0    0  0.67751940935E-02 -0.14516014271E-01  0.12050283247E-01  0.10238843708E+01  0.10236881251E+01 0.  0.
     999903    2    3    3    0    0  0.34238635708E-01  0.37990893353E-01  0.12320301700E+00  0.13491522270E+00  0.20187663723E-01 0.  0.
         14    1    1    2    0    0 -0.67751940935E-02  0.14516014271E-01 -0.12050283247E-01  0.20045629241E-01  0.00000000000E+00 0.  1.
     999901    1    3    3    0    0 -0.27463441614E-01 -0.52506907624E-01 -0.11115273375E+00  0.88896914806E+00  0.88000000000E+00 0. -1.
        -11    1    4    4    0    0  0.18193776086E-01  0.11496406664E-01  0.31768966018E-01  0.38375893179E-01  0.51100000000E-03 0. -1.
         11    1    4    4    0    0  0.16044859622E-01  0.26494486690E-01  0.91434050982E-01  0.96539329525E-01  0.51100000000E-03 0.  1.
</event>
<event>
 8    1  0.1137518E+005  0.1043930E+01  0.7957747E-01            NaN
         13   -1    0    0    0    0  0.00000000000E+00  0.00000000000E+00  0.74505805969E-08  0.10566000000E+00  0.10566000000E+00 0. -1.
     999900   -1    0    0    0    0 -0.00000000000E+00 -0.00000000000E+00 -0.74505805969E-08  0.93827000000E+00  0.93827000000E+00 0. -1.
     999902    2    1    2    0    0  0.12773126186E-01  0.19733646366E-01 -0.73856293974E-02  0.10192902542E+01  0.10189923970E+01 0.  0.
     999903    2    3    3    0    0 -0.26655518312E-01 -0.10247302149E+00  0.66998375130E-01  0.12686542947E+00  0.19870031054E-01 0.  0.
         14    1    1    2    0    0 -0.12773126186E-01 -0.19733646366E-01  0.73856293974E-02  0.24639745799E-01  0.00000000000E+00 0. -1.
     999901    1    3    3    0    0  0.39428644498E-01  0.12220666785E+00 -0.74384004527E-01  0.89242482474E+00  0.88000000000E+00 0. -1.
        -11    1    4    4    0    0 -0.13236921535E-01 -0.20600367094E-01  0.19152482227E-01  0.31091315710E-01  0.51100000000E-03 0.  1.
         11    1    4    4    0    0 -0.13418596777E-01 -0.81872654393E-01  0.47845892903E-01  0.95774113755E-01  0.51100000000E-03 0. -1.
</event>
<event>
 8    1  0.1137518E+005  0.1043930E+01  0.7957747E-01            NaN
         13   -1    0    0    0    0  0.00000000000E+00  0.00000000000E+00  0.74505805969E-08  0.10566000000E+00  0.10566000000E+00 0.  1.
     999900   -1    0    0    0    0 -0.00000000000E+00 -0.00000000000E+00 -0.74505805969E-08  0.93827000000E+00  0.93827000000E+00 0. -1.
     999902    2    1    2    0    0  0.17427248130E-01  0.15993283854E-01 -0.76586094230E-03  0.10202639769E+01  0.10199894617E+01 0.  0.
     999903    2    3    3    0    0  0.30960307323E-01 -0.51714839411E-01 -0.11391091302E+00  0.13033738643E+00  0.19472363779E-01 0.  0.
         14    1    1    2    0    0 -0.17427248130E-01 -0.15993283854E-01  0.76586094230E-03  0.23666023088E-01  0.00000000000E+00 0. -1.
     999901    1    3    3    0    0 -0.13533059193E-01  0.67708123265E-01  0.11314505207E+00  0.88992659049E+00  0.88000000000E+00 0. -1.
        -11    1    4    4    0    0  0.12024261945E-01 -0.38247032575E-01 -0.72720233078E-01  0.83041626887E-01  0.51100000000E-03 0. -1.
         11    1    4    4    0    0  0.18936045378E-01 -0.13467806836E-01 -0.41190679938E-01  0.47295759538E-01  0.51100000000E-03 0.  1.
</event>
<event>
 8    1  0.1137518E+005  0.1043930E+01  0.7957747E-01            NaN
         13   -1    0    0    0    0  0.00000000000E+00  0.00000000000E+00  0.74505805969E-08  0.10566000000E+00  0.10566000000E+00 0. -1.
     999900   -1    0    0    0    0 -0.00000000000E+00 -0.00000000000E+00 -0.74505805969E-08  0.93827000000E+00  0.93827000000E+00 0. -1.
     999902    2    1    2    0    0  0.26960679405E-02  0.20808069559E-01 -0.81217199397E-02  0.10214309583E+01  0.10211831353E+01 0.  0.
     999903    2    3    3    0    0  0.34041876005E-01 -0.97709020383E-01 -0.76647559135E-01  0.13029423991E+00  0.19895694149E-01 0.  0.
         14    1    1    2    0    0 -0.26960679405E-02 -0.20808069559E-01  0.81217199397E-02  0.22499041666E-01  0.00000000000E+00 0. -1.
     999901    1    3    3    0    0 -0.31345808064E-01  0.11851708994E+00  0.68525839195E-01  0.89113671843E+00  0.88000000000E+00 0. -1.
        -11    1    4    4    0    0 -0.63035027117E-03 -0.19374770037E-01 -0.18151427350E-01  0.26561522759E-01  0.51100000000E-03 0. -1.
         11    1    4    4    0    0  0.34672226276E-01 -0.78334250345E-01 -0.58496131785E-01  0.10373271715E+00  0.51100000000E-03 0.  1.
</event>
<event>
 8    1  0.1137518E+005  0.1043930E+01  0.7957747E-01            NaN
         13   -1    0    0    0    0  0.00000000000E+00  0.00000000000E+00  0.74505805969E-08  0.10566000000E+00  0.10566000000E+00 0. -1.
     999900   -1    0    0    0    0 -0.00000000000E+00 -0.00000000000E+00 -0.74505805969E-08  0.93827000000E+00  0.93827000000E+00 0. -1.
     999902    2    1    2    0    0  0.11044055025E-01  0.18406196338E-01 -0.25716292602E-02  0.10223112005E+01  0.10220825887E+01 0.  0.
     999903    2    3    3    0    0  0.11156299832E-01  0.12795246234E+00  0.35473904509E-01  0.13470325797E+00  0.19755357759E-01 0.  0.
         14    1    1    2    0    0 -0.11044055025E-01 -0.18406196338E-01  0.25716292602E-02  0.21618799506E-01  0.00000000000E+00 0.  1.
     999901    1    3    3    0    0 -0.11224480680E-03 -0.10954626601E+00 -0.38045533769E-01  0.88760794253E+00  0.88000000000E+00 0. -1.
        -11    1    4    4    0    0  0.16624795505E-01  0.84003516542E-01  0.24585940420E-01  0.89093794421E-01  0.51100000000E-03 0. -1.
         11    1    4    4    0    0 -0.54684956723E-02  0.43948945803E-01  0.10887964090E-01  0.45609463548E-01  0.51100000000E-03 0.  1.
</event>
<event>
 8    1  0.1137518E+005  0.1043930E+01  0.7957747E-01            NaN
         13   -1    0    0    0    0  0.00000000000E+00  0.00000000000E+00  0.74505805969E-08  0.10566000000E+00  0.10566000000E+00 0.  1.
     999900   -1    0    0    0    0 -0.00000000000E+00 -0.00000000000E+00 -0.74505805969E-08  0.93827000000E+00  0.93827000000E+00 0. -1.
     999902    2    1    2    0    0  0.13236583266E-01 -0.13832358262E-01  0.14053482174E-01  0.10201804393E+01  0.10199039598E+01 0.  0.
     999903    2    3    3    0    0 -0.71540676308E-01 -0.69198180343E-01 -0.80112523298E-01  0.12938315902E+00  0.20384526447E-01 0.  0.
         14    1    1    2    0    0 -0.13236583266E-01  0.13832358262E-01 -0.14053482174E-01  0.23749560688E-01  0.00000000000E+00 0.  1.
     999901    1    3    3    0    0  0.84777259574E-01  0.55365822081E-01  0.94166005472E-01  0.89079728030E+00  0.88000000000E+00 0. -1.
        -11    1    4    4    0    0 -0.54911533192E-01 -0.58531014448E-01 -0.72655536426E-01  0.10826007678E+00  0.51100000000E-03 0. -1.
         11    1    4    4    0    0 -0.16629143116E-01 -0.10667165895E-01 -0.74569868724E-02  0.21123082238E-01  0.51100000000E-03 0.  1.
</event>
<event>
 8    1  0.1137518E+005  0.1043930E+01  0.7957747E-01            NaN
         13   -1    0    0    0    0  0.00000000000E+00  0.00000000000E+00  0.74505805969E-08  0.10566000000E+00  0.10566000000E+00 0.  1.
     999900   -1    0    0    0    0 -0.00000000000E+00 -0.00000000000E+00 -0.74505805969E-08  0.93827000000E+00  0.93827000000E+00 0. -1.
     999902    2    1    2    0    0 -0.22904607401E-01  0.76133427568E-02  0.43138144694E-03  0.10197893679E+01  0.10195035972E+01 0.  0.
     999903    2    3    3    0    0 -0.12788858607E+00 -0.21097535111E-01  0.26269743071E-01  0.13270787716E+00  0.10985664490E-01 0.  0.
         14    1    1    2    0    0  0.22904607401E-01 -0.76133427568E-02 -0.43138144694E-03  0.24140632098E-01  0.00000000000E+00 0.  1.
     999901    1    3    3    0    0  0.10498397867E+00  0.28710877868E-01 -0.25838361624E-01  0.88708149074E+00  0.88000000000E+00 0. -1.
        -11    1    4    4    0    0 -0.46147876865E-01 -0.10268126286E-01  0.49354935765E-02  0.47536103904E-01  0.51100000000E-03 0.  1.
         11    1    4    4    0    0 -0.81740709207E-01 -0.10829408825E-01  0.21334249495E-01  0.85171773256E-01  0.51100000000E-03 0. -1.
</event>
<event>
 8    1  0.1137518E+005  0.1043930E+01  0.7957747E-01            NaN
         13   -1    0    0    0    0  0.00000000000E+00  0.00000000000E+00  0.74505805969E-08  0.10566000000E+00  0.10566000000E+00 0. -1.
     999900   -1    0    0    0    0 -0.00000000000E+00 -0.00000000000E+00 -0.74505805969E-08  0.93827000000E+00  0.93827000000E+00 0. -1.
     999902    2    1    2    0    0 -0.16226893212E-02 -0.22881427406E-01 -0.28055561388E-02  0.10208201756E+01  0.10205585563E+01 0.  0.
     999903    2    3    3    0    0 -0.11320281711E+00  0.60166876450E-01  0.66237643384E-02  0.12984539601E+00  0.19519779408E-01 0.  0.
         14    1    1    2    0    0  0.16226893212E-02  0.22881427406E-01  0.28055561388E-02  0.23109824448E-01  0.00000000000E+00 0.  1.
     999901    1    3    3    0    0  0.11158012779E+00 -0.83048303856E-01 -0.94293204772E-02  0.89097477954E+00  0.88000000000E+00 0. -1.
        -11    1    4    4    0    0 -0.28912929686E-01  0.22061584141E-01 -0.46030233714E-02  0.36662241380E-01  0.51100000000E-03 0.  1.
         11    1    4    4    0    0 -0.84289887425E-01  0.38105292309E-01  0.11226787710E-01  0.93183154633E-01  0.51100000000E-03 0. -1.
</event>
<event>
 8    1  0.1137518E+005  0.1043930E+01  0.7957747E-01            NaN
         13   -1    0    0    0    0  0.00000000000E+00  0.00000000000E+00  0.74505805969E-08  0.10566000000E+00  0.10566000000E+00 0. -1.
     999900   -1    0    0    0    0 -0.00000000000E+00 -0.00000000000E+00 -0.74505805969E-08  0.93827000000E+00  0.93827000000E+00 0.  1.
     999902    2    1    2    0    0 -0.12413176807E-01 -0.18716122292E-01 -0.86576137958E-03  0.10214549086E+01  0.10212076187E+01 0.  0.
     999903    2    3    3    0    0 -0.58196894228E-01  0.25240686560E-01  0.11384021350E+00  0.13174382597E+00  0.19309860560E-01 0.  0.
         14    1    1    2    0    0  0.12413176807E-01  0.18716122292E-01  0.86576137958E-03  0.22475091432E-01  0.00000000000E+00 0. -1.
     999901    1    3    3    0    0  0.45783717422E-01 -0.43956808852E-01 -0.11470597488E+00  0.88971108260E+00  0.88000000000E+00 0.  1.
        -11    1    4    4    0    0 -0.28960971744E-01  0.21319172304E-01  0.72806909496E-01  0.81205616699E-01  0.51100000000E-03 0.  1.
         11    1    4    4    0    0 -0.29235922484E-01  0.39215142561E-02  0.41033304007E-01  0.50538209271E-01  0.51100000000E-03 0. -1.
</event>
<event>
 8    1  0.1137518E+005  0.1043930E+01  0.7957747E-01            NaN
         13   -1    0    0    0    0  0.00000000000E+00  0.00000000000E+00  0.74505805969E-08  0.10566000000E+00  0.10566000000E+00 0.  1.
     999900   -1    0    0    0    0 -0.00000000000E+00 -0.00000000000E+00 -0.74505805969E-08  0.93827000000E+00  0.93827000000E+00 0. -1.
     999902    2    1    2    0    0 -0.19875670089E-01 -0.12065392855E-02 -0.13032418457E-01  0.10201320604E+01  0.10198544400E+01 0.  0.
     999903    2    3    3    0    0 -0.10638963601E+00  0.14834789337E-01  0.73248785286E-01  0.13154529669E+00  0.19998872674E-01 0.  0.
         14    1    1    2    0    0  0.19875670089E-01  0.12065392855E-02  0.13032418457E-01  0.23797939603E-01  0.00000000000E+00 0.  1.
     999901    1    3    3    0    0  0.86513965926E-01 -0.16041328622E-01 -0.86281203742E-01  0.88858676371E+00  0.88000000000E+00 0. -1.
        -11    1    4    4    0    0 -0.67312034200E-01  0.11984682342E-01  0.57416294901E-01  0.89282890859E-01  0.51100000000E-03 0. -1.
         11    1    4    4    0    0 -0.39077601814E-01  0.28501069949E-02  0.15832490384E-01  0.42262405826E-01  0.51100000000E-03 0.  1.
</event>
<event>
 8    1  0.1137518E+005  0.1043930E+01  0.7957747E-01            NaN
         13   -1    0    0    0    0  0.00000000000E+00  0.00000000000E+00  0.74505805969E-08  0.10566000000E+00  0.10566000000E+00 0. -1.
     999900   -1    0    0    0    0 -0.00000000000E+00 -0.00000000000E+00 -0.74505805969E-08  0.93827000000E+00  0.93827000000E+00 0.  1.
     999902    2    1    2    0    0  0.13547999049E-01  0.11978334953E-02  0.19497628948E-01  0.10201573136E+01  0.10198802890E+01 0.  0.
     999903    2    3    3    0    0 -0.80315694097E-01  0.13841511141E-01 -0.95452781724E-01  0.12764185023E+00  0.23216594096E-01 0.  0.
         14    1    1    2    0    0 -0.13547999049E-01 -0.11978334953E-02 -0.19497628948E-01  0.23772686384E-01  0.00000000000E+00 0.  1.
     999901    1    3    3    0    0  0.93863693147E-01 -0.12643677646E-01  0.11495041067E+00  0.89251546339E+00  0.88000000000E+00 0.  1.
        -11    1    4    4    0    0 -0.52702888717E-02 -0.50877104397E-02 -0.84679294595E-02  0.11208376004E-01  0.51100000000E-03 0. -1.
         11    1    4    4    0    0 -0.75045405226E-01  0.18929221581E-01 -0.86984852264E-01  0.11643347422E+00  0.51100000000E-03 0.  1.
</event>
<event>
 8    1  0.1137518E+005  0.1043930E+01  0.7957747E-01            NaN
         13   -1    0    0    0    0  0.00000000000E+00  0.00000000000E+00  0.74505805969E-08  0.10566000000E+00  0.10566000000E+00 0.  1.
     999900   -1    0    0    0    0 -0.00000000000E+00 -0.00000000000E+00 -0.74505805969E-08  0.93827000000E+00  0.93827000000E+00 0. -1.
     999902    2    1    2    0    0  0.22296771061E-01  0.12994916088E-01  0.51315801049E-02  0.10176175133E+01  0.10172772760E+01 0.  0.
     999903    2    3    3    0    0  0.11064878058E+00 -0.30214497074E-01 -0.57469321884E-01  0.12992837629E+00  0.20557031140E-01 0.  0.
         14    1    1    2    0    0 -0.22296771061E-01 -0.12994916088E-01 -0.51315801049E-02  0.26312486736E-01  0.00000000000E+00 0. -1.
     999901    1    3    3    0    0 -0.88352009523E-01  0.43209413162E-01  0.62600901989E-01  0.88768913697E+00  0.88000000000E+00 0.  1.
        -11    1    4    4    0    0  0.58318866815E-01 -0.21765352201E-01 -0.40513188160E-01  0.74272473494E-01  0.51100000000E-03 0. -1.
         11    1    4    4    0    0  0.52329913768E-01 -0.84491448733E-02 -0.16956133724E-01  0.55655902795E-01  0.51100000000E-03 0.  1.
</event>
<event>
 8    1  0.1137518E+005  0.1043930E+01  0.7957747E-01            NaN
         13   -1    0    0    0    0  0.00000000000E+00  0.00000000000E+00  0.74505805969E-08  0.10566000000E+00  0.10566000000E+00 0.  1.
     999900   -1    0    0    0    0 -0.00000000000E+00 -0.00000000000E+00 -0.74505805969E-08  0.93827000000E+00  0.93827000000E+00 0. -1.
     999902    2    1    2    0    0 -0.17293731233E-01 -0.57762632808E-02 -0.14548490752E-01  0.10206041144E+01  0.10203375232E+01 0.  0.
     999903    2    3    3    0    0  0.60256666733E-01 -0.48337154588E-02  0.11126377975E+00  0.12827924077E+00  0.20535438588E-01 0.  0.
         14    1    1    2    0    0  0.17293731233E-01  0.57762632808E-02  0.14548490752E-01  0.23325885634E-01  0.00000000000E+00 0.  1.
     999901    1    3    3    0    0 -0.77550397967E-01 -0.94254782192E-03 -0.12581227050E+00  0.89232487359E+00  0.88000000000E+00 0. -1.
        -11    1    4    4    0    0  0.50509265872E-01 -0.72800838395E-02  0.10407030951E+00  0.11590977527E+00  0.51100000000E-03 0. -1.
         11    1    4    4    0    0  0.97474008614E-02  0.24463683807E-02  0.71934702368E-02  0.12369465504E-01  0.51100000000E-03 0.  1.
</event>
<event>
 7    1  0.1829272E+005  0.1043930E+01  0.7957747E-01            NaN
         13   -1    0    0    0    0  0.00000000000E+00  0.00000000000E+00  0.74505805969E-08  0.10566000000E+00  0.10566000000E+00 0. -1.
     999900   -1    0    0    0    0 -0.00000000000E+00 -0.00000000000E+00 -0.74505805969E-08  0.93827000000E+00  0.93827000000E+00 0. -1.
     999903    2    1    2    0    0 -0.49681459269E-02  0.17426357569E-01 -0.11283213275E+00  0.11596478572E+00  0.19707382780E-01 0.  0.
         14    1    1    2    0    0  0.11350522251E-01  0.93593840314E-02  0.42217347178E-01  0.44707234622E-01  0.00000000000E+00 0. -1.
     999901    1    1    2    0    0 -0.63823763236E-02 -0.26785741601E-01  0.70614785568E-01  0.88325797965E+00  0.88000000000E+00 0.  1.
        -11    1    3    3    0    0  0.65225652582E-02  0.52633610254E-02 -0.58866007212E-01  0.59461876467E-01  0.51100000000E-03 0.  1.
         11    1    3    3    0    0 -0.11490711185E-01  0.12162996544E-01 -0.53966125534E-01  0.56502909258E-01  0.51100000000E-03 0. -1.
</event>
<event>
 8    1  0.1137518E+005  0.1043930E+01  0.7957747E-01            NaN
         13   -1    0    0    0    0  0.00000000000E+00  0.00000000000E+00  0.74505805969E-08  0.10566000000E+00  0.10566000000E+00 0.  1.
     999900   -1    0    0    0    0 -0.00000000000E+00 -0.00000000000E+00 -0.74505805969E-08  0.93827000000E+00  0.93827000000E+00 0. -1.
     999902    2    1    2    0    0 -0.51036627303E-02 -0.61399888566E-02 -0.22228550988E-01  0.10203110391E+01  0.10200376273E+01 0.  0.
     999903    2    3    3    0    0  0.55259687696E-01  0.10789892736E+00 -0.44733613427E-01  0.13061722302E+00  0.19077504237E-01 0.  0.
         14    1    1    2    0    0  0.51036627303E-02  0.61399888566E-02  0.22228550988E-01  0.23618960931E-01  0.00000000000E+00 0.  1.
     999901    1    3    3    0    0 -0.60363350427E-01 -0.11403891622E+00  0.22505062439E-01  0.88969381605E+00  0.88000000000E+00 0.  1.
        -11    1    4    4    0    0  0.21404768132E-01  0.42120087463E-01 -0.76609327428E-02  0.47866657269E-01  0.51100000000E-03 0. -1.
         11    1    4    4    0    0  0.33854919565E-01  0.65778839900E-01 -0.37072680685E-01  0.82750565747E-01  0.51100000000E-03 0.  1.
</event>
<event>
 8    1  0.1137518E+005  0.1043930E+01  0.7957747E-01            NaN
         13   -1    0    0    0    0  0.00000000000E+00  0.00000000000E+00  0.74505805969E-08  0.10566000000E+00  0.10566000000E+00 0.  1.
     999900   -1    0    0    0    0 -0.00000000000E+00 -0.00000000000E+00 -0.74505805969E-08  0.93827000000E+00  0.93827000000E+00 0.  1.
     999902    2    1    2    0    0 -0.21935852616E-01 -0.88463757623E-02  0.83005874057E-03  0.10202629556E+01  0.10199884164E+01 0.  0.
     999903    2    3    3    0    0  0.21922805721E-01  0.12562785341E+00  0.17451756920E-02  0.12896741668E+00  0.19146330324E-01 0.  0.
         14    1    1    2    0    0  0.21935852616E-01  0.88463757623E-02 -0.83005874057E-03  0.23667044421E-01  0.00000000000E+00 0. -1.
     999901    1    3    3    0    0 -0.43858658336E-01 -0.13447422917E+00 -0.91511695140E-03  0.89129553890E+00  0.88000000000E+00 0. -1.
        -11    1    4    4    0    0  0.21048528111E-01  0.82456612911E-01  0.73640524722E-02  0.85420278261E-01  0.51100000000E-03 0.  1.
         11    1    4    4    0    0  0.87427760986E-03  0.43171240496E-01 -0.56188767802E-02  0.43547138420E-01  0.51100000000E-03 0. -1.
</event>
<event>
 8    1  0.1137518E+005  0.1043930E+01  0.7957747E-01            NaN
         13   -1    0    0    0    0  0.00000000000E+00  0.00000000000E+00  0.74505805969E-08  0.10566000000E+00  0.10566000000E+00 0.  1.
     999900   -1    0    0    0    0 -0.00000000000E+00 -0.00000000000E+00 -0.74505805969E-08  0.93827000000E+00  0.93827000000E+00 0. -1.
     999902    2    1    2    0    0 -0.88105997465E-02 -0.21602195832E-01  0.32005780759E-02  0.10203816406E+01  0.10201098799E+01 0.  0.
     999903    2    3    3    0    0  0.68050569720E-01 -0.52047232053E-01  0.97605172681E-01  0.13147963972E+00  0.20501988270E-01 0.  0.
         14    1    1    2    0    0  0.88105997465E-02  0.21602195832E-01 -0.32005780759E-02  0.23548359448E-01  0.00000000000E+00 0.  1.
     999901    1    3    3    0    0 -0.76861169466E-01  0.30445036220E-01 -0.94404594605E-01  0.88890200083E+00  0.88000000000E+00 0. -1.
        -11    1    4    4    0    0  0.27748335117E-01 -0.32881367541E-01  0.54429994758E-01  0.69383282449E-01  0.51100000000E-03 0. -1.
         11    1    4    4    0    0  0.40302234603E-01 -0.19165864512E-01  0.43175177923E-01  0.62096357270E-01  0.51100000000E-03 0.  1.
</event>
<event>
 8    1  0.1137518E+005  0.1043930E+01  0.7957747E-01            NaN
         13   -1    0    0    0    0  0.00000000000E+00  0.00000000000E+00  0.74505805969E-08  0.10566000000E+00  0.10566000000E+00 0. -1.
     999900   -1    0    0    0    0 -0.00000000000E+00 -0.00000000000E+00 -0.74505805969E-08  0.93827000000E+00  0.93827000000E+00 0.  1.
     999902    2    1    2    0    0 -0.40193840518E-02  0.12872969768E-01 -0.18705142751E-01  0.10208702696E+01  0.10206097963E+01 0.  0.
     999903    2    3    3    0    0  0.51514244505E-01  0.51372875511E-01 -0.11017132178E+00  0.13355280191E+00  0.20143014397E-01 0.  0.
         14    1    1    2    0    0  0.40193840518E-02 -0.12872969768E-01  0.18705142751E-01  0.23059730357E-01  0.00000000000E+00 0. -1.
     999901    1    3    3    0    0 -0.55533628557E-01 -0.38499905743E-01  0.91466179030E-01  0.88731746774E+00  0.88000000000E+00 0. -1.
        -11    1    4    4    0    0  0.24664252578E-01  0.33129709610E-01 -0.47321201866E-01  0.62812899003E-01  0.51100000000E-03 0. -1.
         11    1    4    4    0    0  0.26849991927E-01  0.18243165901E-01 -0.62850119915E-01  0.70739902904E-01  0.51100000000E-03 0.  1.
</event>
<event>
 8    1  0.1137518E+005  0.1043930E+01  0.7957747E-01            NaN
         13   -1    0    0    0    0  0.00000000000E+00  0.00000000000E+00  0.74505805969E-08  0.10566000000E+00  0.10566000000E+00 0.  1.
     999900   -1    0    0    0    0 -0.00000000000E+00 -0.00000000000E+00 -0.74505805969E-08  0.93827000000E+00  0.93827000000E+00 0. -1.
     999902    2    1    2    0    0  0.19457510651E-01 -0.48095073804E-02 -0.12288851721E-01  0.10204195351E+01  0.10201486586E+01 0.  0.
     999903    2    3    3    0    0  0.11135592112E+00 -0.43572726300E-01 -0.56368374852E-01  0.13368907476E+00  0.19916108529E-01 0.  0.
         14    1    1    2    0    0 -0.19457510651E-01  0.48095073804E-02  0.12288851721E-01  0.23510464874E-01  0.00000000000E+00 0.  1.
     999901    1    3    3    0    0 -0.91898410473E-01  0.38763218920E-01  0.44079523131E-01  0.88673046037E+00  0.88000000000E+00 0.  1.
        -11    1    4    4    0    0  0.33700076405E-01 -0.15140664810E-01 -0.27638793905E-01  0.46142160007E-01  0.51100000000E-03 0. -1.
         11    1    4    4    0    0  0.77655844719E-01 -0.28432061491E-01 -0.28729580947E-01  0.87546914749E-01  0.51100000000E-03 0.  1.
</event>
<event>
 7    1  0.1137518E+005  0.1043930E+01  0.7957747E-01            NaN
         13   -1    0    0    0    0  0.00000000000E+00  0.00000000000E+00  0.74505805969E-08  0.10566000000E+00  0.10566000000E+00 0. -1.
     999900   -1    0    0    0    0 -0.00000000000E+00 -0.00000000000E+00 -0.74505805969E-08  0.93827000000E+00  0.93827000000E+00 0.  1.
     999903    2    1    2    0    0 -0.75772257106E-01 -0.46000800137E-01  0.75329163239E-01  0.11752513373E+00  0.16738149966E-01 0.  0.
         14    1    1    2    0    0 -0.67467966373E-02 -0.15514162869E-01 -0.35717205339E-01  0.39521225583E-01  0.00000000000E+00 0.  1.
     999901    1    1    2    0    0  0.82519053744E-01  0.61514963007E-01 -0.39611957901E-01  0.88688364068E+00  0.88000000000E+00 0. -1.
        -11    1    3    3    0    0 -0.17273356899E-01 -0.56769163115E-02  0.22784840500E-01  0.29154867775E-01  0.51100000000E-03 0.  1.
         11    1    3    3    0    0 -0.58498900207E-01 -0.40323883826E-01  0.52544322739E-01  0.88370265957E-01  0.51100000000E-03 0. -1.
</event>
<event>
 7    1  0.1137518E+005  0.1043930E+01  0.7957747E-01            NaN
         13   -1    0    0    0    0  0.00000000000E+00  0.00000000000E+00  0.74505805969E-08  0.10566000000E+00  0.10566000000E+00 0. -1.
     999900   -1    0    0    0    0 -0.00000000000E+00 -0.00000000000E+00 -0.74505805969E-08  0.93827000000E+00  0.93827000000E+00 0. -1.
     999902    2    1    2    0    0  0.97030129972E-02  0.16860583657E-01  0.13298125009E-01  0.10203658775E+01  0.10200937486E+01 0.  0.
         14    1    1    2    0    0 -0.97030129972E-02 -0.16860583657E-01 -0.13298125009E-01  0.23564122543E-01  0.00000000000E+00 0. -1.
     999901    1    3    3    0    0 -0.57337613363E-01 -0.44140649545E-01  0.99552417904E-01  0.88856439427E+00  0.88000000000E+00 0.  1.
        -11    1    3    3    0    0  0.34051268987E-01  0.20783473592E-01 -0.63567353548E-01  0.75050058310E-01  0.51100000000E-03 0.  1.
         11    1    3    3    0    0  0.32989357373E-01  0.40217759611E-01 -0.22686939348E-01  0.56751424880E-01  0.51100000000E-03 0. -1.
</event>
<event>
 8    1  0.1137518E+005  0.1043930E+01  0.7957747E-01            NaN
         13   -1    0    0    0    0  0.00000000000E+00  0.00000000000E+00  0.74505805969E-08  0.10566000000E+00  0.10566000000E+00 0.  1.
     999900   -1    0    0    0    0 -0.00000000000E+00 -0.00000000000E+00 -0.74505805969E-08  0.93827000000E+00  0.93827000000E+00 0.  1.
     999902    2    1    2    0    0 -0.17565669280E-01 -0.18613459333E-01 -0.80650388164E-02  0.10170960950E+01  0.10167420558E+01 0.  0.
     999903    2    3    3    0    0 -0.23188014485E-01  0.10119595077E+00 -0.70079488597E-01  0.12679743867E+00  0.19701554812E-01 0.  0.
         14    1    1    2    0    0  0.17565669280E-01  0.18613459333E-01  0.80650388164E-02  0.26833904984E-01  0.00000000000E+00 0.  1.
     999901    1    3    3    0    0  0.56223452056E-02 -0.11980941011E+00  0.62014449781E-01  0.89029865635E+00  0.88000000000E+00 0. -1.
        -11    1    4    4    0    0 -0.10771616409E-01  0.67555538333E-01 -0.55469614510E-01  0.88073365636E-01  0.51100000000E-03 0.  1.
         11    1    4    4    0    0 -0.12416398077E-01  0.33640412439E-01 -0.14609874087E-01  0.38724073031E-01  0.51100000000E-03 0. -1.
</event>
<event>
 8    1  0.1137518E+005  0.1043930E+01  0.7957747E-01            NaN
         13   -1    0    0    0    0  0.00000000000E+00  0.00000000000E+00  0.74505805969E-08  0.10566000000E+00  0.10566000000E+00 0.  1.
     999900   -1    0    0    0    0 -0.00000000000E+00 -0.00000000000E+00 -0.74505805969E-08  0.93827000000E+00  0.93827000000E+00 0.  1.
     999902    2    1    2    0    0  0.10730021131E-01 -0.21113901899E-01  0.25315459626E-02  0.10201111224E+01  0.10198330074E+01 0.  0.
     999903    2    3    3    0    0  0.71903507120E-01  0.68203787897E-01 -0.81177204660E-01  0.12953434295E+00  0.19171239596E-01 0.  0.
         14    1    1    2    0    0 -0.10730021131E-01  0.21113901899E-01 -0.25315459626E-02  0.23818877636E-01  0.00000000000E+00 0. -1.
     999901    1    3    3    0    0 -0.61173485989E-01 -0.89317689796E-01  0.83708750623E-01  0.89057677941E+00  0.88000000000E+00 0.  1.
        -11    1    4    4    0    0  0.45871178903E-01  0.54058932412E-01 -0.51784542394E-01  0.87797683223E-01  0.51100000000E-03 0.  1.
         11    1    4    4    0    0  0.26032328218E-01  0.14144855485E-01 -0.29392662267E-01  0.41736659728E-01  0.51100000000E-03 0. -1.
</event>
<event>
 8    1  0.1137518E+005  0.1043930E+01  0.7957747E-01            NaN
         13   -1    0    0    0    0  0.00000000000E+00  0.00000000000E+00  0.74505805969E-08  0.10566000000E+00  0.10566000000E+00 0. -1.
     999900   -1    0    0    0    0 -0.00000000000E+00 -0.00000000000E+00 -0.74505805969E-08  0.93827000000E+00  0.93827000000E+00 0. -1.
     999902    2    1    2    0    0 -0.13413726337E-01 -0.89225229878E-02  0.16943196298E-01  0.10205502786E+01  0.10202824412E+01 0.  0.
     999903    2    3    3    0    0 -0.92552816938E-01 -0.92579409844E-01  0.72754082040E-02  0.13299468234E+00  0.22308808011E-01 0.  0.
         14    1    1    2    0    0  0.13413726337E-01  0.89225229878E-02 -0.16943196298E-01  0.23379721373E-01  0.00000000000E+00 0.  1.
     999901    1    3    3    0    0  0.79139090601E-01  0.83656886857E-01  0.96677880936E-02  0.88755559629E+00  0.88000000000E+00 0.  1.
        -11    1    4    4    0    0 -0.78292189017E-01 -0.69819151366E-01 -0.92560130877E-03  0.10490709517E+00  0.51100000000E-03 0.  1.
         11    1    4    4    0    0 -0.14260627921E-01 -0.22760258479E-01  0.82010095127E-02  0.28087587165E-01  0.51100000000E-03 0. -1.
</event>
<event>
 8    1  0.1137518E+005  0.1043930E+01  0.7957747E-01            NaN
         13   -1    0    0    0    0  0.00000000000E+00  0.00000000000E+00  0.74505805969E-08  0.10566000000E+00  0.10566000000E+00 0. -1.
     999900   -1    0    0    0    0 -0.00000000000E+00 -0.00000000000E+00 -0.74505805969E-08  0.93827000000E+00  0.93827000000E+00 0. -1.
     999902    2    1    2    0    0 -0.16670971184E-01 -0.10981568159E-01 -0.13035032806E-01  0.10200882677E+01  0.10198096125E+01 0.  0.
     999903    2    3    3    0    0 -0.88348914001E-01 -0.96786858669E-01 -0.99818505072E-02  0.13300901684E+00  0.20458118295E-01 0.  0.
         14    1    1    2    0    0  0.16670971184E-01  0.10981568159E-01  0.13035032806E-01  0.23841732313E-01  0.00000000000E+00 0.  1.
     999901    1    3    3    0    0  0.71677942817E-01  0.85805290510E-01 -0.30531822988E-02  0.88707925085E+00  0.88000000000E+00 0. -1.
        -11    1    4    4    0    0 -0.81721360529E-02 -0.19687157484E-01 -0.32880641626E-02  0.21574069260E-01  0.51100000000E-03 0.  1.
         11    1    4    4    0    0 -0.80176777948E-01 -0.77099701184E-01 -0.66937863446E-02  0.11143494758E+00  0.51100000000E-03 0. -1.
</event>
<event>
 8    1  0.1137518E+005  0.1043930E+01  0.7957747E-01            NaN
         13   -1    0    0    0    0  0.00000000000E+00  0.00000000000E+00  0.74505805969E-08  0.10566000000E+00  0.10566000000E+00 0.  1.
     999900   -1    0    0    0    0 -0.00000000000E+00 -0.00000000000E+00 -0.74505805969E-08  0.93827000000E+00  0.93827000000E+00 0.  1.
     999902    2    1    2    0    0 -0.14909470433E-02  0.19260873967E-01 -0.14431360354E-01  0.10198163451E+01  0.10195312204E+01 0.  0.
     999903    2    3    3    0    0 -0.22368906081E-01  0.10586745199E+00  0.71428430025E-01  0.13116090452E+00  0.19821122803E-01 0.  0.
         14    1    1    2    0    0  0.14909470433E-02 -0.19260873967E-01  0.14431360354E-01  0.24113654860E-01  0.00000000000E+00 0.  1.
     999901    1    3    3    0    0  0.20877959038E-01 -0.86606578026E-01 -0.85859790379E-01  0.88865544062E+00  0.88000000000E+00 0.  1.
        -11    1    4    4    0    0 -0.64620256614E-02  0.43971459171E-01  0.18355316772E-01  0.48087688363E-01  0.51100000000E-03 0. -1.
         11    1    4    4    0    0 -0.15906880419E-01  0.61895992822E-01  0.53073113253E-01  0.83073216161E-01  0.51100000000E-03 0.  1.
</event>
<event>
 8    1  0.1137518E+005  0.1043930E+01  0.7957747E-01            NaN
         13   -1    0    0    0    0  0.00000000000E+00  0.00000000000E+00  0.74505805969E-08  0.10566000000E+00  0.10566000000E+00 0. -1.
     999900   -1    0    0    0    0 -0.00000000000E+00 -0.00000000000E+00 -0.74505805969E-08  0.93827000000E+00  0.93827000000E+00 0. -1.
     999902    2    1    2    0    0  0.11660379190E-01 -0.20945593089E-01 -0.32619449481E-02  0.10197365588E+01  0.10194495214E+01 0.  0.
     999903    2    3    3    0    0  0.15170103868E-01 -0.19733590566E-01  0.12625219175E+00  0.13024923526E+00  0.20142013739E-01 0.  0.
         14    1    1    2    0    0 -0.11660379190E-01  0.20945593089E-01  0.32619449481E-02  0.24193441209E-01  0.00000000000E+00 0. -1.
     999901    1    3    3    0    0 -0.35097246781E-02 -0.12120025223E-02 -0.12951413669E+00  0.88948732353E+00  0.88000000000E+00 0. -1.
        -11    1    4    4    0    0  0.16795891377E-01 -0.91917782208E-02  0.55878421805E-01  0.59069873018E-01  0.51100000000E-03 0.  1.
         11    1    4    4    0    0 -0.16257875092E-02 -0.10541812346E-01  0.70373769941E-01  0.71179362242E-01  0.51100000000E-03 0. -1.
</event>
<event>
 8    1  0.1137518E+005  0.1043930E+01  0.7957747E-01            NaN
         13   -1    0    0    0    0  0.00000000000E+00  0.00000000000E+00  0.74505805969E-08  0.10566000000E+00  0.10566000000E+00 0.  1.
     999900   -1    0    0    0    0 -0.00000000000E+00 -0.00000000000E+00 -0.74505805969E-08  0.93827000000E+00  0.93827000000E+00 0. -1.
     999902    2    1    2    0    0 -0.19047554449E-01  0.91545095584E-02  0.12134689348E-01  0.10195606532E+01  0.10192693759E+01 0.  0.
     999903    2    3    3    0    0 -0.12882865983E+00  0.22796251588E-01 -0.49142561296E-02  0.13247066076E+00  0.20194884735E-01 0.  0.
         14    1    1    2    0    0  0.19047554449E-01 -0.91545095584E-02 -0.12134689348E-01  0.24369346756E-01  0.00000000000E+00 0.  1.
     999901    1    3    3    0    0  0.10978110538E+00 -0.13641742029E-01  0.17048945478E-01  0.88708999248E+00  0.88000000000E+00 0. -1.
        -11    1    4    4    0    0 -0.16658315407E-01  0.50751557908E-03 -0.70086690613E-02  0.18087001058E-01  0.51100000000E-03 0. -1.
         11    1    4    4    0    0 -0.11217034442E+00  0.22288736009E-01  0.20944129317E-02  0.11438365970E+00  0.51100000000E-03 0.  1.
</event>
<event>
 8    1  0.1137518E+005  0.1043930E+01  0.7957747E-01            NaN
         13   -1    0    0    0    0  0.00000000000E+00  0.00000000000E+00  0.74505805969E-08  0.10566000000E+00  0.10566000000E+00 0. -1.
     999900   -1    0    0    0    0 -0.00000000000E+00 -0.00000000000E+00 -0.74505805969E-08  0.93827000000E+00  0.93827000000E+00 0.  1.
     999902    2    1    2    0    0 -0.12290203417E-01  0.14261586521E-01 -0.15847287778E-01  0.10193214958E+01  0.10190244027E+01 0.  0.
     999903    2    3    3    0    0 -0.59617989442E-01 -0.10148854618E+00  0.46483563875E-01  0.12829784423E+00  0.21104157240E-01 0.  0.
         14    1    1    2    0    0  0.12290203417E-01 -0.14261586521E-01  0.15847287778E-01  0.24608504222E-01  0.00000000000E+00 0. -1.
     999901    1    3    3    0    0  0.47327786025E-01  0.11575013270E+00 -0.62330851653E-01  0.89102365155E+00  0.88000000000E+00 0. -1.
        -11    1    4    4    0    0 -0.33423005130E-01 -0.51441581406E-01  0.13269411289E-01  0.62766806247E-01  0.51100000000E-03 0. -1.
         11    1    4    4    0    0 -0.26194984312E-01 -0.50046964774E-01  0.33214152586E-01  0.65531037983E-01  0.51100000000E-03 0.  1.
</event>
<event>
 8    1  0.1137518E+005  0.1043930E+01  0.7957747E-01            NaN
         13   -1    0    0    0    0  0.00000000000E+00  0.00000000000E+00  0.74505805969E-08  0.10566000000E+00  0.10566000000E+00 0.  1.
     999900   -1    0    0    0    0 -0.00000000000E+00 -0.00000000000E+00 -0.74505805969E-08  0.93827000000E+00  0.93827000000E+00 0. -1.
     999902    2    1    2    0    0  0.16890032905E-01 -0.16026715679E-01 -0.33903588685E-02  0.10204007977E+01  0.10201294842E+01 0.  0.
     999903    2    3    3    0    0 -0.10269892535E+00  0.44754533418E-01  0.58784655249E-01  0.12806587653E+00  0.19879524905E-01 0.  0.
         14    1    1    2    0    0 -0.16890032905E-01  0.16026715679E-01  0.33903588685E-02  0.23529202287E-01  0.00000000000E+00 0.  1.
     999901    1    3    3    0    0  0.11958895825E+00 -0.60781249097E-01 -0.62175014117E-01  0.89233492118E+00  0.88000000000E+00 0.  1.
        -11    1    4    4    0    0 -0.61666667936E-01  0.35438909719E-01  0.43054503186E-01  0.83142321485E-01  0.51100000000E-03 0.  1.
         11    1    4    4    0    0 -0.41032257411E-01  0.93156236987E-02  0.15730152063E-01  0.44923555047E-01  0.51100000000E-03 0. -1.
</event>
<event>
 8    1  0.1137518E+005  0.1043930E+01  0.7957747E-01            NaN
         13   -1    0    0    0    0  0.00000000000E+00  0.00000000000E+00  0.74505805969E-08  0.10566000000E+00  0.10566000000E+00 0.  1.
     999900   -1    0    0    0    0 -0.00000000000E+00 -0.00000000000E+00 -0.74505805969E-08  0.93827000000E+00  0.93827000000E+00 0.  1.
     999902    2    1    2    0    0 -0.10712202733E-01  0.78093961651E-02 -0.19536771976E-01  0.10203201839E+01  0.10200469863E+01 0.  0.
     999903    2    3    3    0    0  0.46733489119E-01  0.12039676080E+00 -0.12086158906E-01  0.13125807483E+00  0.20080038697E-01 0.  0.
         14    1    1    2    0    0  0.10712202733E-01 -0.78093961651E-02  0.19536771976E-01  0.23609816075E-01  0.00000000000E+00 0.  1.
     999901    1    3    3    0    0 -0.57445691853E-01 -0.11258736464E+00 -0.74506130698E-02  0.88906210909E+00  0.88000000000E+00 0.  1.
        -11    1    4    4    0    0  0.17891306105E-01  0.71182647777E-01 -0.10877103667E-01  0.74200004609E-01  0.51100000000E-03 0.  1.
         11    1    4    4    0    0  0.28842183014E-01  0.49214113027E-01 -0.12090552393E-02  0.57058070223E-01  0.51100000000E-03 0. -1.
</event>
<event>
 8    1  0.1137518E+005  0.1043930E+01  0.7957747E-01            NaN
         13   -1    0    0    0    0  0.00000000000E+00  0.00000000000E+00  0.74505805969E-08  0.10566000000E+00  0.10566000000E+00 0.  1.
     999900   -1    0    0    0    0 -0.00000000000E+00 -0.00000000000E+00 -0.74505805969E-08  0.93827000000E+00  0.93827000000E+00 0.  1.
     999902    2    1    2    0    0 -0.18108682951E-01  0.29513040208E-02  0.13813741501E-01  0.10209636322E+01  0.10207052877E+01 0.  0.
     999903    2    3    3    0    0 -0.70137602023E-01 -0.10740157651E+00  0.26092843609E-01  0.13246177912E+00  0.20270781532E-01 0.  0.
         14    1    1    2    0    0  0.18108682951E-01 -0.29513040208E-02 -0.13813741501E-01  0.22966367756E-01  0.00000000000E+00 0. -1.
     999901    1    3    3    0    0  0.52028919072E-01  0.11035288053E+00 -0.12279102108E-01  0.88850185313E+00  0.88000000000E+00 0.  1.
        -11    1    4    4    0    0 -0.26976023067E-01 -0.27333392541E-01  0.24903108212E-02  0.38487438695E-01  0.51100000000E-03 0.  1.
         11    1    4    4    0    0 -0.43161578957E-01 -0.80068183973E-01  0.23602532787E-01  0.93974340422E-01  0.51100000000E-03 0. -1.
</event>
<event>
 8    1  0.1137518E+005  0.1043930E+01  0.7957747E-01            NaN
         13   -1    0    0    0    0  0.00000000000E+00  0.00000000000E+00  0.74505805969E-08  0.10566000000E+00  0.10566000000E+00 0.  1.
     999900   -1    0    0    0    0 -0.00000000000E+00 -0.00000000000E+00 -0.74505805969E-08  0.93827000000E+00  0.93827000000E+00 0. -1.
     999902    2    1    2    0    0 -0.79672137883E-02  0.32265111527E-01  0.30022353130E-02  0.10105604430E+01  0.10100093473E+01 0.  0.
     999903    2    3    3    0    0  0.24382624788E-02  0.12956504594E-01 -0.11944183554E+00  0.12181208338E+00  0.19950324482E-01 0.  0.
         14    1    1    2    0    0  0.79672137883E-02 -0.32265111527E-01 -0.30022353130E-02  0.33369556998E-01  0.00000000000E+00 0.  1.
     999901    1    3    3    0    0 -0.10405476267E-01  0.19308606932E-01  0.12244407085E+00  0.88874835962E+00  0.88000000000E+00 0.  1.
        -11    1    4    4    0    0 -0.25787650533E-02  0.16561863000E-01 -0.69872609087E-01  0.71856718245E-01  0.51100000000E-03 0. -1.
         11    1    4    4    0    0  0.50170275321E-02 -0.36053584052E-02 -0.49569226448E-01  0.49955365139E-01  0.51100000000E-03 0.  1.
</event>
<event>
 8    1  0.1137518E+005  0.1043930E+01  0.7957747E-01            NaN
         13   -1    0    0    0    0  0.00000000000E+00  0.00000000000E+00  0.74505805969E-08  0.10566000000E+00  0.10566000000E+00 0. -1.
     999900   -1    0    0    0    0 -0.00000000000E+00 -0.00000000000E+00 -0.74505805969E-08  0.93827000000E+00  0.93827000000E+00 0.  1.
     999902    2    1    2    0    0  0.32347709128E-01 -0.93698142077E-02  0.89901072273E-02  0.10090732972E+01  0.10084710850E+01 0.  0.
     999903    2    3    3    0    0  0.11745165345E-01 -0.11886853781E+00 -0.11090661094E-01  0.12182041747E+00  0.21202197047E-01 0.  0.
         14    1    1    2    0    0 -0.32347709128E-01  0.93698142077E-02 -0.89901072273E-02  0.34856702828E-01  0.00000000000E+00 0.  1.
     999901    1    3    3    0    0  0.20602543783E-01  0.10949872360E+00  0.20080768322E-01  0.88725287970E+00  0.88000000000E+00 0. -1.
        -11    1    4    4    0    0 -0.60539687223E-03 -0.68902735655E-01 -0.13805948850E-01  0.70276730364E-01  0.51100000000E-03 0. -1.
         11    1    4    4    0    0  0.12350562217E-01 -0.49965802154E-01  0.27152877556E-02  0.51543687107E-01  0.51100000000E-03 0.  1.
</event>
<event>
 8    1  0.1137518E+005  0.1043930E+01  0.7957747E-01            NaN
         13   -1    0    0    0    0  0.00000000000E+00  0.00000000000E+00  0.74505805969E-08  0.10566000000E+00  0.10566000000E+00 0.  1.
     999900   -1    0    0    0    0 -0.00000000000E+00 -0.00000000000E+00 -0.74505805969E-08  0.93827000000E+00  0.93827000000E+00 0.  1.
     999902    2    1    2    0    0 -0.81515444202E-02 -0.65632673776E-02 -0.21397552616E-01  0.10201102726E+01  0.10198321376E+01 0.  0.
     999903    2    3    3    0    0  0.93854862429E-01 -0.84855326639E-01 -0.26029277236E-01  0.13075297295E+00  0.20239935797E-01 0.  0.
         14    1    1    2    0    0  0.81515444202E-02  0.65632673776E-02  0.21397552616E-01  0.23819727392E-01  0.00000000000E+00 0.  1.
     999901    1    3    3    0    0 -0.10200640685E+00  0.78292059262E-01  0.46317246202E-02  0.88935729966E+00  0.88000000000E+00 0. -1.
        -11    1    4    4    0    0  0.35522061893E-01 -0.25875996195E-01 -0.48176697835E-03  0.43953125949E-01  0.51100000000E-03 0. -1.
         11    1    4    4    0    0  0.58332800536E-01 -0.58979330445E-01 -0.25547510258E-01  0.86799847001E-01  0.51100000000E-03 0.  1.
</event>
<event>
 8    1  0.1137518E+005  0.1043930E+01  0.7957747E-01            NaN
         13   -1    0    0    0    0  0.00000000000E+00  0.00000000000E+00  0.74505805969E-08  0.10566000000E+00  0.10566000000E+00 0.  1.
     999900   -1    0    0    0    0 -0.00000000000E+00 -0.00000000000E+00 -0.74505805969E-08  0.93827000000E+00  0.93827000000E+00 0.  1.
     999902    2    1    2    0    0 -0.56526607594E-02  0.15091559720E-01 -0.16849713830E-01  0.10206143271E+01  0.10203479720E+01 0.  0.
     999903    2    3    3    0    0  0.65504925235E-01 -0.40002892675E-01 -0.10492544550E+00  0.13165080968E+00  0.20771613386E-01 0.  0.
         14    1    1    2    0    0  0.56526607594E-02 -0.15091559720E-01  0.16849713830E-01  0.23315672939E-01  0.00000000000E+00 0.  1.
     999901    1    3    3    0    0 -0.71157585994E-01  0.55094452395E-01  0.88075731671E-01  0.88896351738E+00  0.88000000000E+00 0. -1.
        -11    1    4    4    0    0  0.60186594070E-01 -0.34649632960E-01 -0.10229565264E+00  0.12364337766E+00  0.51100000000E-03 0. -1.
         11    1    4    4    0    0  0.53183311649E-02 -0.53532597152E-02 -0.26297928607E-02  0.80074320133E-02  0.51100000000E-03 0.  1.
</event>
<event>
 8    1  0.1137518E+005  0.1043930E+01  0.7957747E-01            NaN
         13   -1    0    0    0    0  0.00000000000E+00  0.00000000000E+00  0.74505805969E-08  0.10566000000E+00  0.10566000000E+00 0. -1.
     999900   -1    0    0    0    0 -0.00000000000E+00 -0.00000000000E+00 -0.74505805969E-08  0.93827000000E+00  0.93827000000E+00 0.  1.
     999902    2    1    2    0    0  0.62161630577E-02 -0.91242143306E-02  0.20421894822E-01  0.10207147947E+01  0.10204507564E+01 0.  0.
     999903    2    3    3    0    0  0.96583249925E-01 -0.64319344210E-01 -0.57356428234E-01  0.13096079480E+00  0.19891397864E-01 0.  0.
         14    1    1    2    0    0 -0.62161630577E-02  0.91242143306E-02 -0.20421894822E-01  0.23215205328E-01  0.00000000000E+00 0.  1.
     999901    1    3    3    0    0 -0.90367086867E-01  0.55195129880E-01  0.77778323056E-01  0.88975399987E+00  0.88000000000E+00 0. -1.
        -11    1    4    4    0    0  0.26190980352E-01 -0.17440222027E-01 -0.60705677034E-02  0.32050611685E-01  0.51100000000E-03 0.  1.
         11    1    4    4    0    0  0.70392269573E-01 -0.46879122183E-01 -0.51285860531E-01  0.98910183114E-01  0.51100000000E-03 0. -1.
</event>
<event>
 8    1  0.1137518E+005  0.1043930E+01  0.7957747E-01            NaN
         13   -1    0    0    0    0  0.00000000000E+00  0.00000000000E+00  0.74505805969E-08  0.10566000000E+00  0.10566000000E+00 0. -1.
     999900   -1    0    0    0    0 -0.00000000000E+00 -0.00000000000E+00 -0.74505805969E-08  0.93827000000E+00  0.93827000000E+00 0.  1.
     999902    2    1    2    0    0 -0.95696745249E-02 -0.21534551746E-01  0.25952993551E-03  0.10203634359E+01  0.10200912500E+01 0.  0.
     999903    2    3    3    0    0  0.12092600437E+00  0.34867526613E-02 -0.41615871874E-01  0.12940398832E+00  0.19448789785E-01 0.  0.
         14    1    1    2    0    0  0.95696745249E-02  0.21534551746E-01 -0.25952993551E-03  0.23566564136E-01  0.00000000000E+00 0.  1.
     999901    1    3    3    0    0 -0.13049567890E+00 -0.25021304407E-01  0.41875401810E-01  0.89095944754E+00  0.88000000000E+00 0. -1.
        -11    1    4    4    0    0  0.73071209631E-01  0.70578372716E-02 -0.16524417489E-01  0.75249798925E-01  0.51100000000E-03 0.  1.
         11    1    4    4    0    0  0.47854794742E-01 -0.35710846103E-02 -0.25091454386E-01  0.54154189398E-01  0.51100000000E-03 0. -1.
</event>
<event>
 8    1  0.1137518E+005  0.1043930E+01  0.7957747E-01            NaN
         13   -1    0    0    0    0  0.00000000000E+00  0.00000000000E+00  0.74505805969E-08  0.10566000000E+00  0.10566000000E+00 0.  1.
     999900   -1    0    0    0    0 -0.00000000000E+00 -0.00000000000E+00 -0.74505805969E-08  0.93827000000E+00  0.93827000000E+00 0.  1.
     999902    2    1    2    0    0 -0.13012462491E-01  0.19225154842E-01  0.84455113958E-02  0.10192266111E+01  0.10189271944E+01 0.  0.
     999903    2    3    3    0    0 -0.11843532361E+00 -0.49886952574E-01  0.72071100374E-02  0.13024292361E+00  0.19890771738E-01 0.  0.
         14    1    1    2    0    0  0.13012462491E-01 -0.19225154842E-01 -0.84455113958E-02  0.24703388867E-01  0.00000000000E+00 0. -1.
     999901    1    3    3    0    0  0.10542286112E+00  0.69112107415E-01  0.12384013584E-02  0.88898368752E+00  0.88000000000E+00 0.  1.
        -11    1    4    4    0    0 -0.46295677608E-01 -0.24099947856E-01 -0.58652862264E-02  0.52523898897E-01  0.51100000000E-03 0. -1.
         11    1    4    4    0    0 -0.72139646004E-01 -0.25787004718E-01  0.13072396264E-01  0.77719024717E-01  0.51100000000E-03 0.  1.
</event>
<event>
 8    1  0.1137518E+005  0.1043930E+01  0.7957747E-01            NaN
         13   -1    0    0    0    0  0.00000000000E+00  0.00000000000E+00  0.74505805969E-08  0.10566000000E+00  0.10566000000E+00 0. -1.
     999900   -1    0    0    0    0 -0.00000000000E+00 -0.00000000000E+00 -0.74505805969E-08  0.93827000000E+00  0.93827000000E+00 0. -1.
     999902    2    1    2    0    0  0.69230679526E-03  0.40143092386E-02 -0.29453952268E-01  0.10141956886E+01  0.10137597179E+01 0.  0.
     999903    2    3    3    0    0  0.11994661003E+00 -0.22450118745E-01  0.15454928942E-01  0.12462345302E+00  0.20023813914E-01 0.  0.
         14    1    1    2    0    0 -0.69230679526E-03 -0.40143092386E-02  0.29453952268E-01  0.29734311352E-01  0.00000000000E+00 0. -1.
     999901    1    3    3    0    0 -0.11925430324E+00  0.26464427984E-01 -0.44908881211E-01  0.88957223563E+00  0.88000000000E+00 0.  1.
        -11    1    4    4    0    0  0.54316216234E-01 -0.17023798114E-01 -0.23327905999E-03  0.56924305778E-01  0.51100000000E-03 0. -1.
         11    1    4    4    0    0  0.65630393800E-01 -0.54263206313E-02  0.15688208002E-01  0.67699147242E-01  0.51100000000E-03 0.  1.
</event>
<event>
 8    1  0.1137518E+005  0.1043930E+01  0.7957747E-01            NaN
         13   -1    0    0    0    0  0.00000000000E+00  0.00000000000E+00  0.74505805969E-08  0.10566000000E+00  0.10566000000E+00 0.  1.
     999900   -1    0    0    0    0 -0.00000000000E+00 -0.00000000000E+00 -0.74505805969E-08  0.93827000000E+00  0.93827000000E+00 0.  1.
     999902    2    1    2    0    0  0.21027603682E-01  0.98488697174E-02 -0.42597210298E-02  0.10203226796E+01  0.10200495405E+01 0.  0.
     999903    2    3    3    0    0  0.69711190987E-01 -0.10437397867E+00  0.31407594869E-01  0.13089077770E+00  0.19808611731E-01 0.  0.
         14    1    1    2    0    0 -0.21027603682E-01 -0.98488697174E-02  0.42597210298E-02  0.23607320360E-01  0.00000000000E+00 0. -1.
     999901    1    3    3    0    0 -0.48683587305E-01  0.11422284839E+00 -0.35667315899E-01  0.88943190194E+00  0.88000000000E+00 0.  1.
        -11    1    4    4    0    0  0.20651455303E-01 -0.19094030212E-01  0.19889694714E-02  0.28200739643E-01  0.51100000000E-03 0.  1.
         11    1    4    4    0    0  0.49059735684E-01 -0.85279948459E-01  0.29418625398E-01  0.10269003806E+00  0.51100000000E-03 0. -1.
</event>
<event>
 7    1  0.1137518E+005  0.1043930E+01  0.7957747E-01            NaN
         13   -1    0    0    0    0  0.00000000000E+00  0.00000000000E+00  0.74505805969E-08  0.10566000000E+00  0.10566000000E+00 0.  1.
     999900   -1    0    0    0    0 -0.00000000000E+00 -0.00000000000E+00 -0.74505805969E-08  0.93827000000E+00  0.93827000000E+00 0. -1.
     999902    2    1    2    0    0 -0.22392101359E-01 -0.25169960696E-02 -0.75377736879E-02  0.10201695390E+01  0.10198928026E+01 0.  0.
         14    1    1    2    0    0  0.22392101359E-01  0.25169960696E-02  0.75377736879E-02  0.23760460952E-01  0.00000000000E+00 0.  1.
     999901    1    3    3    0    0  0.45442772249E-01  0.31812183071E-01  0.44892751478E-01  0.88288867910E+00  0.88000000000E+00 0.  1.
        -11    1    3    3    0    0 -0.83265743463E-02  0.15170348309E-01 -0.57165966723E-01  0.59730060945E-01  0.51100000000E-03 0. -1.
         11    1    3    3    0    0 -0.59508299262E-01 -0.49499527450E-01  0.47354415564E-02  0.77550799006E-01  0.51100000000E-03 0.  1.
</event>
<event>
 8    1  0.1137518E+005  0.1043930E+01  0.7957747E-01            NaN
         13   -1    0    0    0    0  0.00000000000E+00  0.00000000000E+00  0.74505805969E-08  0.10566000000E+00  0.10566000000E+00 0.  1.
     999900   -1    0    0    0    0 -0.00000000000E+00 -0.00000000000E+00 -0.74505805969E-08  0.93827000000E+00  0.93827000000E+00 0. -1.
     999902    2    1    2    0    0 -0.21183471023E-02  0.13395140837E-02 -0.24118623148E-01  0.10196815016E+01  0.10193931406E+01 0.  0.
     999903    2    3    3    0    0 -0.67013336254E-01 -0.10719478094E+00 -0.26707444238E-01  0.13063833346E+00  0.19276366200E-01 0.  0.
         14    1    1    2    0    0  0.21183471023E-02 -0.13395140837E-02  0.24118623148E-01  0.24248498407E-01  0.00000000000E+00 0.  1.
     999901    1    3    3    0    0  0.64894989151E-01  0.10853429503E+00  0.25888210898E-02  0.88904316814E+00  0.88000000000E+00 0. -1.
        -11    1    4    4    0    0 -0.39451783272E-01 -0.72883565563E-01 -0.25102419725E-01  0.86595900189E-01  0.51100000000E-03 0. -1.
         11    1    4    4    0    0 -0.27561552981E-01 -0.34311215379E-01 -0.16050245128E-02  0.44042433269E-01  0.51100000000E-03 0.  1.
</event>
<event>
 8    1  0.1137518E+005  0.1043930E+01  0.7957747E-01            NaN
         13   -1    0    0    0    0  0.00000000000E+00  0.00000000000E+00  0.74505805969E-08  0.10566000000E+00  0.10566000000E+00 0. -1.
     999900   -1    0    0    0    0 -0.00000000000E+00 -0.00000000000E+00 -0.74505805969E-08  0.93827000000E+00  0.93827000000E+00 0. -1.
     999902    2    1    2    0    0 -0.32506386829E-02  0.10545523484E-01  0.23830134593E-01  0.10176688113E+01  0.10173299167E+01 0.  0.
     999903    2    3    3    0    0  0.52928043176E-01  0.11346248185E+00  0.28024022629E-01  0.12988193749E+00  0.20220269488E-01 0.  0.
         14    1    1    2    0    0  0.32506386829E-02 -0.10545523484E-01 -0.23830134593E-01  0.26261188703E-01  0.00000000000E+00 0.  1.
     999901    1    3    3    0    0 -0.56178681859E-01 -0.10291695837E+00 -0.41938880366E-02  0.88778687381E+00  0.88000000000E+00 0.  1.
        -11    1    4    4    0    0  0.40705994307E-01  0.67223492503E-01  0.12375969257E-01  0.79557536744E-01  0.51100000000E-03 0.  1.
         11    1    4    4    0    0  0.12222048870E-01  0.46238989349E-01  0.15648053373E-01  0.50324400741E-01  0.51100000000E-03 0. -1.
</event>
<event>
 8    1  0.1137518E+005  0.1043930E+01  0.7957747E-01            NaN
         13   -1    0    0    0    0  0.00000000000E+00  0.00000000000E+00  0.74505805969E-08  0.10566000000E+00  0.10566000000E+00 0.  1.
     999900   -1    0    0    0    0 -0.00000000000E+00 -0.00000000000E+00 -0.74505805969E-08  0.93827000000E+00  0.93827000000E+00 0. -1.
     999902    2    1    2    0    0 -0.80392088780E-02 -0.21537903892E-01  0.11210661081E-01  0.10183528793E+01  0.10180316290E+01 0.  0.
     999903    2    3    3    0    0 -0.53558679903E-01  0.11315382435E+00 -0.46102297468E-02  0.12680131907E+00  0.19621420421E-01 0.  0.
         14    1    1    2    0    0  0.80392088780E-02  0.21537903892E-01 -0.11210661081E-01  0.25577120739E-01  0.00000000000E+00 0.  1.
     999901    1    3    3    0    0  0.45519471025E-01 -0.13469172825E+00  0.15820890828E-01  0.89155156020E+00  0.88000000000E+00 0.  1.
        -11    1    4    4    0    0 -0.14831477368E-01  0.53254084826E-01  0.53179574643E-03  0.55285750418E-01  0.51100000000E-03 0.  1.
         11    1    4    4    0    0 -0.38727202535E-01  0.59899739529E-01 -0.51420254932E-02  0.71515568648E-01  0.51100000000E-03 0. -1.
</event>
<event>
 8    1  0.1137518E+005  0.1043930E+01  0.7957747E-01            NaN
         13   -1    0    0    0    0  0.00000000000E+00  0.00000000000E+00  0.74505805969E-08  0.10566000000E+00  0.10566000000E+00 0.  1.
     999900   -1    0    0    0    0 -0.00000000000E+00 -0.00000000000E+00 -0.74505805969E-08  0.93827000000E+00  0.93827000000E+00 0.  1.
     999902    2    1    2    0    0 -0.50268807196E-02 -0.22821147063E-01  0.29779552309E-02  0.10203727824E+01  0.10201008149E+01 0.  0.
     999903    2    3    3    0    0 -0.55810817409E-01 -0.23515252785E-01 -0.11453296983E+00  0.13110999363E+00  0.20105093808E-01 0.  0.
         14    1    1    2    0    0  0.50268807196E-02  0.22821147063E-01 -0.29779552309E-02  0.23557217586E-01  0.00000000000E+00 0.  1.
     999901    1    3    3    0    0  0.50783936690E-01  0.69410572118E-03  0.11751092506E+00  0.88926278879E+00  0.88000000000E+00 0. -1.
        -11    1    4    4    0    0 -0.45542466325E-01 -0.99320107391E-02 -0.79616886201E-01  0.92259800377E-01  0.51100000000E-03 0. -1.
         11    1    4    4    0    0 -0.10268351084E-01 -0.13583242046E-01 -0.34916083632E-01  0.38850193252E-01  0.51100000000E-03 0.  1.
</event>
<event>
 8    1  0.1137518E+005  0.1043930E+01  0.7957747E-01            NaN
         13   -1    0    0    0    0  0.00000000000E+00  0.00000000000E+00  0.74505805969E-08  0.10566000000E+00  0.10566000000E+00 0. -1.
     999900   -1    0    0    0    0 -0.00000000000E+00 -0.00000000000E+00 -0.74505805969E-08  0.93827000000E+00  0.93827000000E+00 0. -1.
     999902    2    1    2    0    0  0.22801419908E-01  0.50833084951E-02 -0.70277957357E-02  0.10195346175E+01  0.10192427098E+01 0.  0.
     999903    2    3    3    0    0  0.27783045735E-01  0.72456392855E-01 -0.10441878748E+00  0.13158813579E+00  0.19756715428E-01 0.  0.
         14    1    1    2    0    0 -0.22801419908E-01 -0.50833084951E-02  0.70277957357E-02  0.24395382513E-01  0.00000000000E+00 0. -1.
     999901    1    3    3    0    0 -0.49816258271E-02 -0.67373084360E-01  0.97390991746E-01  0.88794648170E+00  0.88000000000E+00 0.  1.
        -11    1    4    4    0    0  0.19340677336E-01  0.31446622095E-01 -0.60733564936E-01  0.71075867014E-01  0.51100000000E-03 0.  1.
         11    1    4    4    0    0  0.84423683990E-02  0.41009770761E-01 -0.43685222546E-01  0.60512268772E-01  0.51100000000E-03 0. -1.
</event>
<event>
 8    1  0.1137518E+005  0.1043930E+01  0.7957747E-01            NaN
         13   -1    0    0    0    0  0.00000000000E+00  0.00000000000E+00  0.74505805969E-08  0.10566000000E+00  0.10566000000E+00 0.  1.
     999900   -1    0    0    0    0 -0.00000000000E+00 -0.00000000000E+00 -0.74505805969E-08  0.93827000000E+00  0.93827000000E+00 0. -1.
     999902    2    1    2    0    0 -0.18602715153E-01 -0.57794633244E-03 -0.13287420410E-01  0.10210618874E+01  0.10208057736E+01 0.  0.
     999903    2    3    3    0    0  0.60968252451E-01  0.10526884546E+00  0.39993553315E-01  0.12956093710E+00  0.19695037002E-01 0.  0.
         14    1    1    2    0    0  0.18602715153E-01  0.57794633244E-03  0.13287420410E-01  0.22868112607E-01  0.00000000000E+00 0.  1.
     999901    1    3    3    0    0 -0.79570967604E-01 -0.10584679180E+00 -0.53280973725E-01  0.89150095030E+00  0.88000000000E+00 0. -1.
        -11    1    4    4    0    0  0.28817677167E-01  0.60385871005E-01  0.13243271654E-01  0.68209656937E-01  0.51100000000E-03 0. -1.
         11    1    4    4    0    0  0.32150575284E-01  0.44882974459E-01  0.26750281661E-01  0.61351280160E-01  0.51100000000E-03 0.  1.
</event>
<event>
 8    1  0.1137518E+005  0.1043930E+01  0.7957747E-01            NaN
         13   -1    0    0    0    0  0.00000000000E+00  0.00000000000E+00  0.74505805969E-08  0.10566000000E+00  0.10566000000E+00 0.  1.
     999900   -1    0    0    0    0 -0.00000000000E+00 -0.00000000000E+00 -0.74505805969E-08  0.93827000000E+00  0.93827000000E+00 0. -1.
     999902    2    1    2    0    0 -0.18024371391E-01 -0.14655539529E-01  0.35848450452E-02  0.10204243854E+01  0.10201536220E+01 0.  0.
     999903    2    3    3    0    0  0.23798334828E-01 -0.12755460044E+00 -0.12586721591E-01  0.13207937571E+00  0.21213182021E-01 0.  0.
         14    1    1    2    0    0  0.18024371391E-01  0.14655539529E-01 -0.35848450452E-02  0.23505614583E-01  0.00000000000E+00 0.  1.
     999901    1    3    3    0    0 -0.41822706219E-01  0.11289906091E+00  0.16171566637E-01  0.88834500971E+00  0.88000000000E+00 0.  1.
        -11    1    4    4    0    0 -0.23695979492E-02 -0.28827530435E-01 -0.71370948578E-02  0.29796656682E-01  0.51100000000E-03 0. -1.
         11    1    4    4    0    0  0.26167932777E-01 -0.98727070009E-01 -0.54496267337E-02  0.10228271902E+00  0.51100000000E-03 0.  1.
</event>
<event>
 8    1  0.1137518E+005  0.1043930E+01  0.7957747E-01            NaN
         13   -1    0    0    0    0  0.00000000000E+00  0.00000000000E+00  0.74505805969E-08  0.10566000000E+00  0.10566000000E+00 0.  1.
     999900   -1    0    0    0    0 -0.00000000000E+00 -0.00000000000E+00 -0.74505805969E-08  0.93827000000E+00  0.93827000000E+00 0.  1.
     999902    2    1    2    0    0 -0.38151580522E-02 -0.23014123676E-01 -0.60566785057E-02  0.10198283678E+01  0.10195435308E+01 0.  0.
     999903    2    3    3    0    0 -0.14390451375E-01 -0.10190325266E+00  0.80308199522E-01  0.13202533580E+00  0.19746503191E-01 0.  0.
         14    1    1    2    0    0  0.38151580522E-02  0.23014123676E-01  0.60566785057E-02  0.24101632186E-01  0.00000000000E+00 0.  1.
     999901    1    3    3    0    0  0.10575293323E-01  0.78889128985E-01 -0.86364878028E-01  0.88780303202E+00  0.88000000000E+00 0.  1.
        -11    1    4    4    0    0 -0.57071387859E-02 -0.73871250760E-01  0.47534554599E-01  0.88030268226E-01  0.51100000000E-03 0. -1.
         11    1    4    4    0    0 -0.86833125893E-02 -0.28032001901E-01  0.32773644923E-01  0.43995067572E-01  0.51100000000E-03 0.  1.
</event>
<event>
 8    1  0.1137518E+005  0.1043930E+01  0.7957747E-01            NaN
         13   -1    0    0    0    0  0.00000000000E+00  0.00000000000E+00  0.74505805969E-08  0.10566000000E+00  0.10566000000E+00 0. -1.
     999900   -1    0    0    0    0 -0.00000000000E+00 -0.00000000000E+00 -0.74505805969E-08  0.93827000000E+00  0.93827000000E+00 0.  1.
     999902    2    1    2    0    0  0.14288457793E-01 -0.10922770008E-01  0.17236890870E-01  0.10190186103E+01  0.10187140672E+01 0.  0.
     999903    2    3    3    0    0  0.13401912165E-01  0.33074324160E-01 -0.12086675547E+00  0.12716147633E+00  0.16963086874E-01 0.  0.
         14    1    1    2    0    0 -0.14288457793E-01  0.10922770008E-01 -0.17236890870E-01  0.24911389716E-01  0.00000000000E+00 0.  1.
     999901    1    3    3    0    0  0.88654562818E-03 -0.43997094168E-01  0.13810364634E+00  0.89185713396E+00  0.88000000000E+00 0. -1.
        -11    1    4    4    0    0  0.10192198002E-01  0.32925986921E-01 -0.94426014048E-01  0.10052131498E+00  0.51100000000E-03 0. -1.
         11    1    4    4    0    0  0.32097141629E-02  0.14833723875E-03 -0.26440741419E-01  0.26640161349E-01  0.51100000000E-03 0.  1.
</event>
<event>
 8    1  0.1137518E+005  0.1043930E+01  0.7957747E-01            NaN
         13   -1    0    0    0    0  0.00000000000E+00  0.00000000000E+00  0.74505805969E-08  0.10566000000E+00  0.10566000000E+00 0. -1.
     999900   -1    0    0    0    0 -0.00000000000E+00 -0.00000000000E+00 -0.74505805969E-08  0.93827000000E+00  0.93827000000E+00 0.  1.
     999902    2    1    2    0    0  0.68771515295E-02 -0.56290120440E-02  0.10782433498E-01  0.10299571026E+01  0.10298623167E+01 0.  0.
     999903    2    3    3    0    0  0.84358197070E-01  0.10765984684E+00 -0.92219705535E-02  0.13909355853E+00  0.23558973856E-01 0.  0.
         14    1    1    2    0    0 -0.68771515295E-02  0.56290120440E-02 -0.10782433498E-01  0.13972897405E-01  0.00000000000E+00 0.  1.
     999901    1    3    3    0    0 -0.77481045541E-01 -0.11328885888E+00  0.20004404051E-01  0.89086354407E+00  0.88000000000E+00 0. -1.
        -11    1    4    4    0    0  0.31434059293E-01  0.30062601484E-01  0.60981603662E-02  0.43923897510E-01  0.51100000000E-03 0. -1.
         11    1    4    4    0    0  0.52924137777E-01  0.77597245354E-01 -0.15320130920E-01  0.95169661019E-01  0.51100000000E-03 0.  1.
</event>
<event>
 8    1  0.1137518E+005  0.1043930E+01  0.7957747E-01            NaN
         13   -1    0    0    0    0  0.00000000000E+00  0.00000000000E+00  0.74505805969E-08  0.10566000000E+00  0.10566000000E+00 0.  1.
     999900   -1    0    0    0    0 -0.00000000000E+00 -0.00000000000E+00 -0.74505805969E-08  0.93827000000E+00  0.93827000000E+00 0. -1.
     999902    2    1    2    0    0  0.31542247509E-02  0.20969847019E-01 -0.81654580936E-02  0.10212064808E+01  0.10209536317E+01 0.  0.
     999903    2    3    3    0    0 -0.45176159973E-02 -0.42281117179E-01  0.12075017403E+00  0.12953457826E+00  0.19761090897E-01 0.  0.
         14    1    1    2    0    0 -0.31542247509E-02 -0.20969847019E-01  0.81654580936E-02  0.22723519174E-01  0.00000000000E+00 0. -1.
     999901    1    3    3    0    0  0.76718407482E-02  0.63250964197E-01 -0.12891563212E+00  0.89167190256E+00  0.88000000000E+00 0. -1.
        -11    1    4    4    0    0 -0.12280008569E-01 -0.22811526641E-01  0.65334357471E-01  0.70285160207E-01  0.51100000000E-03 0.  1.
         11    1    4    4    0    0  0.77623925721E-02 -0.19469590538E-01  0.55415816560E-01  0.59249418057E-01  0.51100000000E-03 0. -1.
</event>
<event>
 8    1  0.1137518E+005  0.1043930E+01  0.7957747E-01            NaN
         13   -1    0    0    0    0  0.00000000000E+00  0.00000000000E+00  0.74505805969E-08  0.10566000000E+00  0.10566000000E+00 0. -1.
     999900   -1    0    0    0    0 -0.00000000000E+00 -0.00000000000E+00 -0.74505805969E-08  0.93827000000E+00  0.93827000000E+00 0.  1.
     999902    2    1    2    0    0 -0.15396085805E-02 -0.72307503993E-02 -0.22650482412E-01  0.10201035756E+01  0.10198252823E+01 0.  0.
     999903    2    3    3    0    0  0.56556634654E-01 -0.11234376085E+00 -0.34024778204E-01  0.13187314770E+00  0.20324075083E-01 0.  0.
         14    1    1    2    0    0  0.15396085805E-02  0.72307503993E-02  0.22650482412E-01  0.23826424394E-01  0.00000000000E+00 0. -1.
     999901    1    3    3    0    0 -0.58096243234E-01  0.10511301045E+00  0.11374295792E-01  0.88823042790E+00  0.88000000000E+00 0.  1.
        -11    1    4    4    0    0  0.39167678099E-01 -0.67263690587E-01 -0.11953029983E-01  0.78750537305E-01  0.51100000000E-03 0. -1.
         11    1    4    4    0    0  0.17388956555E-01 -0.45080070264E-01 -0.22071748221E-01  0.53122610400E-01  0.51100000000E-03 0.  1.
</event>
<event>
 8    1  0.1137518E+005  0.1043930E+01  0.7957747E-01            NaN
         13   -1    0    0    0    0  0.00000000000E+00  0.00000000000E+00  0.74505805969E-08  0.10566000000E+00  0.10566000000E+00 0. -1.
     999900   -1    0    0    0    0 -0.00000000000E+00 -0.00000000000E+00 -0.74505805969E-08  0.93827000000E+00  0.93827000000E+00 0.  1.
     999902    2    1    2    0    0 -0.70923314981E-02 -0.18976657461E-01  0.12742040626E-01  0.10199972966E+01  0.10197164855E+01 0.  0.
     999903    2    3    3    0    0 -0.40097907602E-01  0.10826199316E+00 -0.50331506677E-01  0.12800104397E+00  0.22858375643E-01 0.  0.
         14    1    1    2    0    0  0.70923314981E-02  0.18976657461E-01 -0.12742040626E-01  0.23932703436E-01  0.00000000000E+00 0.  1.
     999901    1    3    3    0    0  0.33005576104E-01 -0.12723865062E+00  0.63073547303E-01  0.89199625259E+00  0.88000000000E+00 0.  1.
        -11    1    4    4    0    0 -0.15127644046E-01  0.41844435103E-01 -0.31708689220E-01  0.54639769917E-01  0.51100000000E-03 0. -1.
         11    1    4    4    0    0 -0.24970263557E-01  0.66417558056E-01 -0.18622817456E-01  0.73361274057E-01  0.51100000000E-03 0.  1.
</event>
<event>
 8    1  0.1137518E+005  0.1043930E+01  0.7957747E-01            NaN
         13   -1    0    0    0    0  0.00000000000E+00  0.00000000000E+00  0.74505805969E-08  0.10566000000E+00  0.10566000000E+00 0. -1.
     999900   -1    0    0    0    0 -0.00000000000E+00 -0.00000000000E+00 -0.74505805969E-08  0.93827000000E+00  0.93827000000E+00 0.  1.
     999902    2    1    2    0    0 -0.22842416564E-02  0.59235782369E-02  0.22079641290E-01  0.10209557296E+01  0.10206972052E+01 0.  0.
     999903    2    3    3    0    0  0.63546134917E-01  0.69890438731E-01 -0.86465241311E-01  0.12954819699E+00  0.19588585966E-01 0.  0.
         14    1    1    2    0    0  0.22842416564E-02 -0.59235782369E-02 -0.22079641290E-01  0.22974270360E-01  0.00000000000E+00 0.  1.
     999901    1    3    3    0    0 -0.65830376573E-01 -0.63966860494E-01  0.10854488260E+00  0.89140753265E+00  0.88000000000E+00 0.  1.
        -11    1    4    4    0    0  0.52387966852E-01  0.58817221888E-01 -0.61034246439E-01  0.99646399939E-01  0.51100000000E-03 0.  1.
         11    1    4    4    0    0  0.11158168065E-01  0.11073216843E-01 -0.25430994873E-01  0.29901797054E-01  0.51100000000E-03 0. -1.
</event>
<event>
 7    1  0.1137518E+005  0.1043930E+01  0.7957747E-01            NaN
         13   -1    0    0    0    0  0.00000000000E+00  0.00000000000E+00  0.74505805969E-08  0.10566000000E+00  0.10566000000E+00 0. -1.
     999900   -1    0    0    0    0 -0.00000000000E+00 -0.00000000000E+00 -0.74505805969E-08  0.93827000000E+00  0.93827000000E+00 0.  1.
     999902    2    1    2    0    0  0.37537681616E-02  0.19898452842E-01  0.12103010571E-01  0.10203392801E+01  0.10200665294E+01 0.  0.
         14    1    1    2    0    0 -0.37537681616E-02 -0.19898452842E-01 -0.12103010571E-01  0.23590719909E-01  0.00000000000E+00 0.  1.
     999901    1    3    3    0    0  0.14192490966E-01 -0.24134753822E-02  0.12983397473E+00  0.88964268819E+00  0.88000000000E+00 0. -1.
        -11    1    3    3    0    0 -0.18569922574E-01 -0.99456879236E-02 -0.28343836489E-01  0.35318450144E-01  0.51100000000E-03 0.  1.
         11    1    3    3    0    0  0.81311997695E-02  0.32257616148E-01 -0.89387127675E-01  0.95378141753E-01  0.51100000000E-03 0. -1.
</event>
<event>
 7    1  0.1137518E+005  0.1043930E+01  0.7957747E-01            NaN
         13   -1    0    0    0    0  0.00000000000E+00  0.00000000000E+00  0.74505805969E-08  0.10566000000E+00  0.10566000000E+00 0.  1.
     999900   -1    0    0    0    0 -0.00000000000E+00 -0.00000000000E+00 -0.74505805969E-08  0.93827000000E+00  0.93827000000E+00 0.  1.
     999902    2    1    2    0    0  0.92997620758E-02 -0.24979289539E-02  0.19088122435E-01  0.10225505322E+01  0.10223270070E+01 0.  0.
         14    1    1    2    0    0 -0.92997620758E-02  0.24979289539E-02 -0.19088122435E-01  0.21379467763E-01  0.00000000000E+00 0. -1.
     999901    1    3    3    0    0 -0.21209986950E-01  0.11313294731E+00 -0.31480503569E-01  0.88805402393E+00  0.88000000000E+00 0.  1.
        -11    1    3    3    0    0  0.85632438558E-02 -0.20413116148E-01  0.25191394864E-01  0.33539408945E-01  0.51100000000E-03 0.  1.
         11    1    3    3    0    0  0.21946505170E-01 -0.95217760114E-01  0.25377231141E-01  0.10095709936E+00  0.51100000000E-03 0. -1.
</event>
<event>
 8    1  0.1137518E+005  0.1043930E+01  0.7957747E-01            NaN
         13   -1    0    0    0    0  0.00000000000E+00  0.00000000000E+00  0.74505805969E-08  0.10566000000E+00  0.10566000000E+00 0.  1.
     999900   -1    0    0    0    0 -0.00000000000E+00 -0.00000000000E+00 -0.74505805969E-08  0.93827000000E+00  0.93827000000E+00 0. -1.
     999902    2    1    2    0    0 -0.15549905644E-01 -0.30079609341E-02 -0.18358216530E-01  0.10196839383E+01  0.10193956359E+01 0.  0.
     999903    2    3    3    0    0  0.87935382510E-01 -0.12870186954E-01 -0.94098092377E-01  0.13033417741E+00  0.15305998955E-01 0.  0.
         14    1    1    2    0    0  0.15549905644E-01  0.30079609341E-02  0.18358216530E-01  0.24246061715E-01  0.00000000000E+00 0.  1.
     999901    1    3    3    0    0 -0.10348528815E+00  0.98622260204E-02  0.75739875847E-01  0.88934976087E+00  0.88000000000E+00 0.  1.
        -11    1    4    4    0    0  0.35773148455E-01 -0.58515099390E-02 -0.49440069121E-01  0.61306931702E-01  0.51100000000E-03 0.  1.
         11    1    4    4    0    0  0.52162234055E-01 -0.70186770154E-02 -0.44658023256E-01  0.69027245713E-01  0.51100000000E-03 0. -1.
</event>
<event>
 8    1  0.1137518E+005  0.1043930E+01  0.7957747E-01            NaN
         13   -1    0    0    0    0  0.00000000000E+00  0.00000000000E+00  0.74505805969E-08  0.10566000000E+00  0.10566000000E+00 0.  1.
     999900   -1    0    0    0    0 -0.00000000000E+00 -0.00000000000E+00 -0.74505805969E-08  0.93827000000E+00  0.93827000000E+00 0.  1.
     999902    2    1    2    0    0 -0.17120405567E-01  0.25847338279E-02  0.17543354933E-01  0.10192812995E+01  0.10189832231E+01 0.  0.
     999903    2    3    3    0    0  0.42430872507E-01 -0.32235058992E-01 -0.11339910859E+00  0.12692223415E+00  0.20258769075E-01 0.  0.
         14    1    1    2    0    0  0.17120405567E-01 -0.25847338279E-02 -0.17543354933E-01  0.24648700535E-01  0.00000000000E+00 0. -1.
     999901    1    3    3    0    0 -0.59551278074E-01  0.34819792820E-01  0.13094246352E+00  0.89235906531E+00  0.88000000000E+00 0. -1.
        -11    1    4    4    0    0  0.26675132856E-01 -0.10702146023E-01 -0.43888017880E-01  0.52464443929E-01  0.51100000000E-03 0.  1.
         11    1    4    4    0    0  0.15755739651E-01 -0.21532912969E-01 -0.69511090706E-01  0.74457790224E-01  0.51100000000E-03 0. -1.
</event>
<event>
 8    1  0.1137518E+005  0.1043930E+01  0.7957747E-01            NaN
         13   -1    0    0    0    0  0.00000000000E+00  0.00000000000E+00  0.74505805969E-08  0.10566000000E+00  0.10566000000E+00 0. -1.
     999900   -1    0    0    0    0 -0.00000000000E+00 -0.00000000000E+00 -0.74505805969E-08  0.93827000000E+00  0.93827000000E+00 0. -1.
     999902    2    1    2    0    0  0.10496034897E-01 -0.12839251476E-01 -0.42938658061E-02  0.10267996056E+01  0.10266567000E+01 0.  0.
     999903    2    3    3    0    0 -0.46606574205E-02 -0.85224476154E-01  0.10522790118E+00  0.13693199554E+00  0.19812298003E-01 0.  0.
         14    1    1    2    0    0 -0.10496034897E-01  0.12839251476E-01  0.42938658061E-02  0.17130394350E-01  0.00000000000E+00 0. -1.
     999901    1    3    3    0    0  0.15156692318E-01  0.72385224678E-01 -0.10952176699E+00  0.88986761011E+00  0.88000000000E+00 0. -1.
        -11    1    4    4    0    0 -0.10356336952E-01 -0.24301648616E-01  0.32648498352E-01  0.42000111978E-01  0.51100000000E-03 0. -1.
         11    1    4    4    0    0  0.56956795311E-02 -0.60922827538E-01  0.72579402833E-01  0.94931883565E-01  0.51100000000E-03 0.  1.
</event>
<event>
 8    1  0.1137518E+005  0.1043930E+01  0.7957747E-01            NaN
         13   -1    0    0    0    0  0.00000000000E+00  0.00000000000E+00  0.74505805969E-08  0.10566000000E+00  0.10566000000E+00 0. -1.
     999900   -1    0    0    0    0 -0.00000000000E+00 -0.00000000000E+00 -0.74505805969E-08  0.93827000000E+00  0.93827000000E+00 0. -1.
     999902    2    1    2    0    0 -0.14575124556E-01 -0.68779935169E-02 -0.17688929673E-01  0.10200001174E+01  0.10197193732E+01 0.  0.
     999903    2    3    3    0    0 -0.10978169627E+00  0.69168527420E-01 -0.44327227597E-02  0.13150527118E+00  0.20920834036E-01 0.  0.
         14    1    1    2    0    0  0.14575124556E-01  0.68779935169E-02  0.17688929673E-01  0.23929882649E-01  0.00000000000E+00 0.  1.
     999901    1    3    3    0    0  0.95206571714E-01 -0.76046520937E-01 -0.13256206913E-01  0.88849484617E+00  0.88000000000E+00 0. -1.
        -11    1    4    4    0    0 -0.26605281627E-01  0.21571590594E-01  0.70903889456E-02  0.34981556106E-01  0.51100000000E-03 0.  1.
         11    1    4    4    0    0 -0.83176414643E-01  0.47596936827E-01 -0.11523111705E-01  0.96523715078E-01  0.51100000000E-03 0. -1.
</event>
<event>
 8    1  0.1137518E+005  0.1043930E+01  0.7957747E-01            NaN
         13   -1    0    0    0    0  0.00000000000E+00  0.00000000000E+00  0.74505805969E-08  0.10566000000E+00  0.10566000000E+00 0. -1.
     999900   -1    0    0    0    0 -0.00000000000E+00 -0.00000000000E+00 -0.74505805969E-08  0.93827000000E+00  0.93827000000E+00 0.  1.
     999902    2    1    2    0    0  0.51387159561E-02  0.71075283610E-02 -0.20701361519E-01  0.10214473460E+01  0.10211998879E+01 0.  0.
     999903    2    3    3    0    0  0.10114829343E+00  0.79635182783E-02  0.79686423584E-01  0.13055101138E+00  0.19981130629E-01 0.  0.
         14    1    1    2    0    0 -0.51387159561E-02 -0.71075283610E-02  0.20701361519E-01  0.22482653977E-01  0.00000000000E+00 0. -1.
     999901    1    3    3    0    0 -0.96009577474E-01 -0.85598991727E-03 -0.10038778510E+00  0.89089633464E+00  0.88000000000E+00 0.  1.
        -11    1    4    4    0    0  0.64444248173E-01  0.35780632275E-02  0.62265066846E-01  0.89683127340E-01  0.51100000000E-03 0. -1.
         11    1    4    4    0    0  0.36704045257E-01  0.43854550508E-02  0.17421356737E-01  0.40867884039E-01  0.51100000000E-03 0.  1.
</event>
<event>
 8    1  0.1137518E+005  0.1043930E+01  0.7957747E-01            NaN
         13   -1    0    0    0    0  0.00000000000E+00  0.00000000000E+00  0.74505805969E-08  0.10566000000E+00  0.10566000000E+00 0.  1.
     999900   -1    0    0    0    0 -0.00000000000E+00 -0.00000000000E+00 -0.74505805969E-08  0.93827000000E+00  0.93827000000E+00 0.  1.
     999902    2    1    2    0    0 -0.10163507345E-02 -0.21263323423E-01  0.86008336945E-02  0.10209705524E+01  0.10207123653E+01 0.  0.
     999903    2    3    3    0    0 -0.11424480831E+00 -0.37517323126E-01 -0.49898439174E-01  0.13164100664E+00  0.19495503034E-01 0.  0.
         14    1    1    2    0    0  0.10163507345E-02  0.21263323423E-01 -0.86008336945E-02  0.22959447556E-01  0.00000000000E+00 0. -1.
     999901    1    3    3    0    0  0.11322845757E+00  0.16253999703E-01  0.58499272869E-01  0.88932954580E+00  0.88000000000E+00 0. -1.
        -11    1    4    4    0    0 -0.98710105895E-01 -0.28706444754E-01 -0.35712269784E-01  0.10882725904E+00  0.51100000000E-03 0. -1.
         11    1    4    4    0    0 -0.15534702410E-01 -0.88108783723E-02 -0.14186169390E-01  0.22813747602E-01  0.51100000000E-03 0.  1.
</event>
<event>
 8    1  0.1137518E+005  0.1043930E+01  0.7957747E-01            NaN
         13   -1    0    0    0    0  0.00000000000E+00  0.00000000000E+00  0.74505805969E-08  0.10566000000E+00  0.10566000000E+00 0. -1.
     999900   -1    0    0    0    0 -0.00000000000E+00 -0.00000000000E+00 -0.74505805969E-08  0.93827000000E+00  0.93827000000E+00 0. -1.
     999902    2    1    2    0    0  0.15687358388E-01 -0.15471694107E-01  0.63753931593E-02  0.10209928648E+01  0.10207351850E+01 0.  0.
     999903    2    3    3    0    0  0.63713199600E-01  0.92349631231E-02  0.11432487628E+00  0.13275303729E+00  0.20212254327E-01 0.  0.
         14    1    1    2    0    0 -0.15687358388E-01  0.15471694107E-01 -0.63753931593E-02  0.22937135167E-01  0.00000000000E+00 0.  1.
     999901    1    3    3    0    0 -0.48025841211E-01 -0.24706657230E-01 -0.10794948312E+00  0.88823982755E+00  0.88000000000E+00 0. -1.
        -11    1    4    4    0    0  0.50541546603E-01  0.51924121672E-03  0.75742403154E-01  0.91059817159E-01  0.51100000000E-03 0.  1.
         11    1    4    4    0    0  0.13171652997E-01  0.87157219064E-02  0.38582473126E-01  0.41693220127E-01  0.51100000000E-03 0. -1.
</event>
<event>
 8    1  0.1137518E+005  0.1043930E+01  0.7957747E-01            NaN
         13   -1    0    0    0    0  0.00000000000E+00  0.00000000000E+00  0.74505805969E-08  0.10566000000E+00  0.10566000000E+00 0.  1.
     999900   -1    0    0    0    0 -0.00000000000E+00 -0.00000000000E+00 -0.74505805969E-08  0.93827000000E+00  0.93827000000E+00 0. -1.
     999902    2    1    2    0    0 -0.24851003462E-01 -0.83066302244E-02 -0.94477368933E-02  0.10160762352E+01  0.10156943849E+01 0.  0.
     999903    2    3    3    0    0  0.10146328564E+00  0.16282231430E-01  0.65798203389E-01  0.12353947786E+00  0.19305171038E-01 0.  0.
         14    1    1    2    0    0  0.24851003462E-01  0.83066302244E-02  0.94477368933E-02  0.27853764758E-01  0.00000000000E+00 0.  1.
     999901    1    3    3    0    0 -0.12631428910E+00 -0.24588861655E-01 -0.75245940282E-01  0.89253675738E+00  0.88000000000E+00 0.  1.
        -11    1    4    4    0    0  0.76018026488E-01  0.19916709454E-01  0.53286013942E-01  0.94947754420E-01  0.51100000000E-03 0. -1.
         11    1    4    4    0    0  0.25445259148E-01 -0.36344780236E-02  0.12512189446E-01  0.28591723441E-01  0.51100000000E-03 0.  1.
</event>
<event>
 8    1  0.1137518E+005  0.1043930E+01  0.7957747E-01            NaN
         13   -1    0    0    0    0  0.00000000000E+00  0.00000000000E+00  0.74505805969E-08  0.10566000000E+00  0.10566000000E+00 0.  1.
     999900   -1    0    0    0    0 -0.00000000000E+00 -0.00000000000E+00 -0.74505805969E-08  0.93827000000E+00  0.93827000000E+00 0. -1.
     999902    2    1    2    0    0  0.29589864913E-02  0.21098327814E-01 -0.64198654852E-02  0.10216789391E+01  0.10214366084E+01 0.  0.
     999903    2    3    3    0    0 -0.56770573044E-01  0.60915091278E-02  0.11663136925E+00  0.13098570839E+00  0.17157361790E-01 0.  0.
         14    1    1    2    0    0 -0.29589864913E-02 -0.21098327814E-01  0.64198654852E-02  0.22251060884E-01  0.00000000000E+00 0.  1.
     999901    1    3    3    0    0  0.59729559536E-01  0.15006818686E-01 -0.12305123473E+00  0.89069323072E+00  0.88000000000E+00 0. -1.
        -11    1    4    4    0    0 -0.30386282637E-01  0.11476811208E-01  0.58391175066E-01  0.66819411959E-01  0.51100000000E-03 0.  1.
         11    1    4    4    0    0 -0.26384290407E-01 -0.53853020804E-02  0.58240194180E-01  0.64166296432E-01  0.51100000000E-03 0. -1.
</event>
<event>
 8    1  0.1137518E+005  0.1043930E+01  0.7957747E-01            NaN
         13   -1    0    0    0    0  0.00000000000E+00  0.00000000000E+00  0.74505805969E-08  0.10566000000E+00  0.10566000000E+00 0. -1.
     999900   -1    0    0    0    0 -0.00000000000E+00 -0.00000000000E+00 -0.74505805969E-08  0.93827000000E+00  0.93827000000E+00 0.  1.
     999902    2    1    2    0    0 -0.19377632020E-01 -0.13767835856E-01  0.28770133268E-02  0.10199858330E+01  0.10197047496E+01 0.  0.
     999903    2    3    3    0    0  0.66309863317E-01 -0.71088411825E-01 -0.83611523261E-01  0.12975650175E+00  0.19882219579E-01 0.  0.
         14    1    1    2    0    0  0.19377632020E-01  0.13767835856E-01 -0.28770133268E-02  0.23944166984E-01  0.00000000000E+00 0.  1.
     999901    1    3    3    0    0 -0.85687495336E-01  0.57320575969E-01  0.86488536588E-01  0.89022933127E+00  0.88000000000E+00 0. -1.
        -11    1    4    4    0    0  0.39028826819E-01 -0.33616456708E-01 -0.33260270515E-01  0.61317389053E-01  0.51100000000E-03 0. -1.
         11    1    4    4    0    0  0.27281036497E-01 -0.37471955117E-01 -0.50351252746E-01  0.68439112697E-01  0.51100000000E-03 0.  1.
</event>
<event>
 8    1  0.1137518E+005  0.1043930E+01  0.7957747E-01            NaN
         13   -1    0    0    0    0  0.00000000000E+00  0.00000000000E+00  0.74505805969E-08  0.10566000000E+00  0.10566000000E+00 0.  1.
     999900   -1    0    0    0    0 -0.00000000000E+00 -0.00000000000E+00 -0.74505805969E-08  0.93827000000E+00  0.93827000000E+00 0.  1.
     999902    2    1    2    0    0 -0.35743688195E-03 -0.19266360818E-01  0.13889048193E-01  0.10201765565E+01  0.10198999854E+01 0.  0.
     999903    2    3    3    0    0  0.10009709429E+00 -0.78286915277E-01  0.31138585000E-01  0.13232967484E+00  0.19830834045E-01 0.  0.
         14    1    1    2    0    0  0.35743688195E-03  0.19266360818E-01 -0.13889048193E-01  0.23753443539E-01  0.00000000000E+00 0. -1.
     999901    1    3    3    0    0 -0.10045453117E+00  0.59020554459E-01 -0.17249536807E-01  0.88784688162E+00  0.88000000000E+00 0. -1.
        -11    1    4    4    0    0  0.29284729458E-01 -0.32806905952E-01  0.53325918501E-02  0.44301084800E-01  0.51100000000E-03 0.  1.
         11    1    4    4    0    0  0.70812364832E-01 -0.45480009325E-01  0.25805993150E-01  0.88028590041E-01  0.51100000000E-03 0. -1.
</event>
<event>
 8    1  0.1137518E+005  0.1043930E+01  0.7957747E-01            NaN
         13   -1    0    0    0    0  0.00000000000E+00  0.00000000000E+00  0.74505805969E-08  0.10566000000E+00  0.10566000000E+00 0.  1.
     999900   -1    0    0    0    0 -0.00000000000E+00 -0.00000000000E+00 -0.74505805969E-08  0.93827000000E+00  0.93827000000E+00 0.  1.
     999902    2    1    2    0    0 -0.91089942107E-02  0.14553159016E-01  0.15427635817E-01  0.10208479689E+01  0.10205869857E+01 0.  0.
     999903    2    3    3    0    0  0.81340703110E-01 -0.89467996752E-01  0.41641487591E-01  0.12973141389E+00  0.21803528032E-01 0.  0.
         14    1    1    2    0    0  0.91089942107E-02 -0.14553159016E-01 -0.15427635817E-01  0.23082031102E-01  0.00000000000E+00 0.  1.
     999901    1    3    3    0    0 -0.90449697321E-01  0.10402115577E+00 -0.26213851774E-01  0.89111655501E+00  0.88000000000E+00 0.  1.
        -11    1    4    4    0    0  0.64356990657E-01 -0.74950972047E-01  0.25108170939E-01  0.10193209419E+00  0.51100000000E-03 0. -1.
         11    1    4    4    0    0  0.16983712453E-01 -0.14517024706E-01  0.16533316652E-01  0.27799319696E-01  0.51100000000E-03 0.  1.
</event>
<event>
 8    1  0.1137518E+005  0.1043930E+01  0.7957747E-01            NaN
         13   -1    0    0    0    0  0.00000000000E+00  0.00000000000E+00  0.74505805969E-08  0.10566000000E+00  0.10566000000E+00 0.  1.
     999900   -1    0    0    0    0 -0.00000000000E+00 -0.00000000000E+00 -0.74505805969E-08  0.93827000000E+00  0.93827000000E+00 0.  1.
     999902    2    1    2    0    0  0.10736701342E-01 -0.13714821752E-01  0.12856388483E-01  0.10222814477E+01  0.10220521995E+01 0.  0.
     999903    2    3    3    0    0  0.64637764922E-01 -0.54062124656E-01 -0.10040447433E+00  0.13247177562E+00  0.19156171183E-01 0.  0.
         14    1    1    2    0    0 -0.10736701342E-01  0.13714821752E-01 -0.12856388483E-01  0.21648552289E-01  0.00000000000E+00 0. -1.
     999901    1    3    3    0    0 -0.53901063580E-01  0.40347302904E-01  0.11326086281E+00  0.88980967209E+00  0.88000000000E+00 0. -1.
        -11    1    4    4    0    0  0.17981912614E-01 -0.71759654760E-02 -0.31335739837E-01  0.36837933898E-01  0.51100000000E-03 0.  1.
         11    1    4    4    0    0  0.46655852307E-01 -0.46886159180E-01 -0.69068734489E-01  0.95633841719E-01  0.51100000000E-03 0. -1.
</event>
<event>
 8    1  0.1137518E+005  0.1043930E+01  0.7957747E-01            NaN
         13   -1    0    0    0    0  0.00000000000E+00  0.00000000000E+00  0.74505805969E-08  0.10566000000E+00  0.10566000000E+00 0. -1.
     999900   -1    0    0    0    0 -0.00000000000E+00 -0.00000000000E+00 -0.74505805969E-08  0.93827000000E+00  0.93827000000E+00 0.  1.
     999902    2    1    2    0    0  0.13851531294E-01  0.18928238694E-01  0.44017484942E-02  0.10200654127E+01  0.10197862166E+01 0.  0.
     999903    2    3    3    0    0 -0.97036258334E-01  0.64730864763E-01  0.54910602110E-01  0.13048959985E+00  0.20155425066E-01 0.  0.
         14    1    1    2    0    0 -0.13851531294E-01 -0.18928238694E-01 -0.44017484942E-02  0.23864587343E-01  0.00000000000E+00 0. -1.
     999901    1    3    3    0    0  0.11088778963E+00 -0.45802626069E-01 -0.50508853616E-01  0.88957581281E+00  0.88000000000E+00 0.  1.
        -11    1    4    4    0    0 -0.49357103694E-01  0.21769372127E-01  0.20904013677E-01  0.57855580169E-01  0.51100000000E-03 0.  1.
         11    1    4    4    0    0 -0.47679154640E-01  0.42961492636E-01  0.34006588433E-01  0.72634019677E-01  0.51100000000E-03 0. -1.
</event>
<event>
 8    1  0.1137518E+005  0.1043930E+01  0.7957747E-01            NaN
         13   -1    0    0    0    0  0.00000000000E+00  0.00000000000E+00  0.74505805969E-08  0.10566000000E+00  0.10566000000E+00 0.  1.
     999900   -1    0    0    0    0 -0.00000000000E+00 -0.00000000000E+00 -0.74505805969E-08  0.93827000000E+00  0.93827000000E+00 0. -1.
     999902    2    1    2    0    0  0.22736238120E-01  0.42181709537E-02 -0.52225488679E-02  0.10202233658E+01  0.10199478965E+01 0.  0.
     999903    2    3    3    0    0  0.85558998955E-01 -0.30997516472E-02  0.98267094777E-01  0.13190452795E+00  0.20308417376E-01 0.  0.
         14    1    1    2    0    0 -0.22736238120E-01 -0.42181709537E-02  0.52225488679E-02  0.23706634234E-01  0.00000000000E+00 0.  1.
     999901    1    3    3    0    0 -0.62822760835E-01  0.73179226009E-02 -0.10348964364E+00  0.88831883781E+00  0.88000000000E+00 0. -1.
        -11    1    4    4    0    0  0.42561124231E-01 -0.73752780708E-02  0.36685657569E-01  0.56674002988E-01  0.51100000000E-03 0.  1.
         11    1    4    4    0    0  0.42997874724E-01  0.42755264236E-02  0.61581437208E-01  0.75230524966E-01  0.51100000000E-03 0. -1.
</event>
<event>
 8    1  0.1137518E+005  0.1043930E+01  0.7957747E-01            NaN
         13   -1    0    0    0    0  0.00000000000E+00  0.00000000000E+00  0.74505805969E-08  0.10566000000E+00  0.10566000000E+00 0. -1.
     999900   -1    0    0    0    0 -0.00000000000E+00 -0.00000000000E+00 -0.74505805969E-08  0.93827000000E+00  0.93827000000E+00 0.  1.
     999902    2    1    2    0    0  0.10156757329E-01 -0.13640924858E-01 -0.18019487292E-01  0.10191522585E+01  0.10188510144E+01 0.  0.
     999903    2    3    3    0    0  0.46017951301E-01  0.84632053505E-01 -0.85591347226E-01  0.13038369486E+00  0.19844214316E-01 0.  0.
         14    1    1    2    0    0 -0.10156757329E-01  0.13640924858E-01  0.18019487292E-01  0.24777741477E-01  0.00000000000E+00 0. -1.
     999901    1    3    3    0    0 -0.35861193972E-01 -0.98272978363E-01  0.67571859934E-01  0.88876856367E+00  0.88000000000E+00 0.  1.
        -11    1    4    4    0    0  0.23798894817E-01  0.24278836813E-01 -0.31373538906E-01  0.46264558530E-01  0.51100000000E-03 0.  1.
         11    1    4    4    0    0  0.22219056485E-01  0.60353216692E-01 -0.54217808320E-01  0.84119136326E-01  0.51100000000E-03 0. -1.
</event>
<event>
 8    1  0.1137518E+005  0.1043930E+01  0.7957747E-01            NaN
         13   -1    0    0    0    0  0.00000000000E+00  0.00000000000E+00  0.74505805969E-08  0.10566000000E+00  0.10566000000E+00 0.  1.
     999900   -1    0    0    0    0 -0.00000000000E+00 -0.00000000000E+00 -0.74505805969E-08  0.93827000000E+00  0.93827000000E+00 0. -1.
     999902    2    1    2    0    0  0.22395339443E-01  0.61550880313E-02 -0.21136938584E-02  0.10206082497E+01  0.10203417541E+01 0.  0.
     999903    2    3    3    0    0 -0.12150842131E+00  0.24341719295E-01 -0.26861078279E-01  0.12839107937E+00  0.20147853213E-01 0.  0.
         14    1    1    2    0    0 -0.22395339443E-01 -0.61550880313E-02  0.21136938584E-02  0.23321750345E-01  0.00000000000E+00 0. -1.
     999901    1    3    3    0    0  0.14390376075E+00 -0.18186631264E-01  0.24747384421E-01  0.89221717028E+00  0.88000000000E+00 0.  1.
        -11    1    4    4    0    0 -0.26531856508E-01  0.14002951996E-02  0.15975563159E-02  0.26621674320E-01  0.51100000000E-03 0.  1.
         11    1    4    4    0    0 -0.94976564798E-01  0.22941424095E-01 -0.28458634595E-01  0.10176940505E+00  0.51100000000E-03 0. -1.
</event>
<event>
 8    1  0.1137518E+005  0.1043930E+01  0.7957747E-01            NaN
         13   -1    0    0    0    0  0.00000000000E+00  0.00000000000E+00  0.74505805969E-08  0.10566000000E+00  0.10566000000E+00 0.  1.
     999900   -1    0    0    0    0 -0.00000000000E+00 -0.00000000000E+00 -0.74505805969E-08  0.93827000000E+00  0.93827000000E+00 0. -1.
     999902    2    1    2    0    0 -0.47851915822E-02  0.96753666717E-02 -0.23117982785E-01  0.10184162408E+01  0.10180966004E+01 0.  0.
     999903    2    3    3    0    0  0.52959850615E-01 -0.11077745212E+00 -0.31149347115E-01  0.12829946520E+00  0.20348986926E-01 0.  0.
         14    1    1    2    0    0  0.47851915822E-02 -0.96753666717E-02  0.23117982785E-01  0.25513759166E-01  0.00000000000E+00 0. -1.
     999901    1    3    3    0    0 -0.57745042197E-01  0.12045281879E+00  0.80313643298E-02  0.89011677563E+00  0.88000000000E+00 0. -1.
        -11    1    4    4    0    0  0.36608254431E-01 -0.53714908519E-01 -0.18768726287E-01  0.67660785520E-01  0.51100000000E-03 0.  1.
         11    1    4    4    0    0  0.16351596184E-01 -0.57062543603E-01 -0.12380620827E-01  0.60638679679E-01  0.51100000000E-03 0. -1.
</event>
<event>
 8    1  0.1137518E+005  0.1043930E+01  0.7957747E-01            NaN
         13   -1    0    0    0    0  0.00000000000E+00  0.00000000000E+00  0.74505805969E-08  0.10566000000E+00  0.10566000000E+00 0.  1.
     999900   -1    0    0    0    0 -0.00000000000E+00 -0.00000000000E+00 -0.74505805969E-08  0.93827000000E+00  0.93827000000E+00 0.  1.
     999902    2    1    2    0    0  0.21235366052E-01  0.12895257532E-01 -0.98390464001E-02  0.10172085616E+01  0.10168575232E+01 0.  0.
     999903    2    3    3    0    0 -0.99338255877E-01 -0.99196111443E-02 -0.74505623230E-01  0.12634365446E+00  0.21098420898E-01 0.  0.
         14    1    1    2    0    0 -0.21235366052E-01 -0.12895257532E-01  0.98390464001E-02  0.26721438439E-01  0.00000000000E+00 0.  1.
     999901    1    3    3    0    0  0.12057362193E+00  0.22814868677E-01  0.64666576830E-01  0.89086490710E+00  0.88000000000E+00 0. -1.
        -11    1    4    4    0    0 -0.62491937850E-01 -0.15607656355E-01 -0.42174163910E-01  0.76991963579E-01  0.51100000000E-03 0.  1.
         11    1    4    4    0    0 -0.36846318027E-01  0.56880452107E-02 -0.32331459321E-01  0.49351690885E-01  0.51100000000E-03 0. -1.
</event>
<event>
 8    1  0.1137518E+005  0.1043930E+01  0.7957747E-01            NaN
         13   -1    0    0    0    0  0.00000000000E+00  0.00000000000E+00  0.74505805969E-08  0.10566000000E+00  0.10566000000E+00 0.  1.
     999900   -1    0    0    0    0 -0.00000000000E+00 -0.00000000000E+00 -0.74505805969E-08  0.93827000000E+00  0.93827000000E+00 0. -1.
     999902    2    1    2    0    0 -0.72492527950E-02  0.19234831400E-01  0.94069832802E-02  0.10213242100E+01  0.10210740033E+01 0.  0.
     999903    2    3    3    0    0  0.11528813543E+00 -0.11445873554E-01 -0.55464368191E-01  0.12994044902E+00  0.19643369419E-01 0.  0.
         14    1    1    2    0    0  0.72492527950E-02 -0.19234831400E-01 -0.94069832802E-02  0.22605789956E-01  0.00000000000E+00 0. -1.
     999901    1    3    3    0    0 -0.12253738822E+00  0.30680704955E-01  0.64871351472E-01  0.89138376102E+00  0.88000000000E+00 0. -1.
        -11    1    4    4    0    0  0.63075173087E-01 -0.15293169173E-01 -0.34870920149E-01  0.73679038243E-01  0.51100000000E-03 0. -1.
         11    1    4    4    0    0  0.52212962339E-01  0.38472956187E-02 -0.20593448043E-01  0.56261410782E-01  0.51100000000E-03 0.  1.
</event>
<event>
 8    1  0.1137518E+005  0.1043930E+01  0.7957747E-01            NaN
         13   -1    0    0    0    0  0.00000000000E+00  0.00000000000E+00  0.74505805969E-08  0.10566000000E+00  0.10566000000E+00 0.  1.
     999900   -1    0    0    0    0 -0.00000000000E+00 -0.00000000000E+00 -0.74505805969E-08  0.93827000000E+00  0.93827000000E+00 0.  1.
     999902    2    1    2    0    0 -0.85072855651E-02 -0.21525906730E-01 -0.77069850549E-02  0.10195345868E+01  0.10192426784E+01 0.  0.
     999903    2    3    3    0    0 -0.11857143122E+00  0.38747338818E-01  0.30431011742E-01  0.12981469428E+00  0.19111980718E-01 0.  0.
         14    1    1    2    0    0  0.85072855651E-02  0.21525906730E-01  0.77069850549E-02  0.24395413234E-01  0.00000000000E+00 0.  1.
     999901    1    3    3    0    0  0.11006414566E+00 -0.60273245548E-01 -0.38137996797E-01  0.88971989249E+00  0.88000000000E+00 0.  1.
        -11    1    4    4    0    0 -0.69051081458E-01  0.31047047835E-01  0.13442461197E-01  0.76895590991E-01  0.51100000000E-03 0. -1.
         11    1    4    4    0    0 -0.49520349766E-01  0.77002909837E-02  0.16988550544E-01  0.52919103287E-01  0.51100000000E-03 0.  1.
</event>
<event>
 8    1  0.1137518E+005  0.1043930E+01  0.7957747E-01            NaN
         13   -1    0    0    0    0  0.00000000000E+00  0.00000000000E+00  0.74505805969E-08  0.10566000000E+00  0.10566000000E+00 0.  1.
     999900   -1    0    0    0    0 -0.00000000000E+00 -0.00000000000E+00 -0.74505805969E-08  0.93827000000E+00  0.93827000000E+00 0.  1.
     999902    2    1    2    0    0 -0.21758098219E-01  0.29991180537E-02  0.92535539467E-02  0.10200964562E+01  0.10198179947E+01 0.  0.
     999903    2    3    3    0    0  0.85905392153E-01  0.72274981673E-01 -0.58728023277E-01  0.12823768532E+00  0.19811962069E-01 0.  0.
         14    1    1    2    0    0  0.21758098219E-01 -0.29991180537E-02 -0.92535539467E-02  0.23833543754E-01  0.00000000000E+00 0.  1.
     999901    1    3    3    0    0 -0.10766349037E+00 -0.69275863619E-01  0.67981577224E-01  0.89185877093E+00  0.88000000000E+00 0. -1.
        -11    1    4    4    0    0  0.15197284736E-01  0.22734633525E-01 -0.10160445766E-01  0.29177333738E-01  0.51100000000E-03 0. -1.
         11    1    4    4    0    0  0.70708107416E-01  0.49540348148E-01 -0.48567577511E-01  0.99060351581E-01  0.51100000000E-03 0.  1.
</event>
<event>
 8    1  0.1137518E+005  0.1043930E+01  0.7957747E-01            NaN
         13   -1    0    0    0    0  0.00000000000E+00  0.00000000000E+00  0.74505805969E-08  0.10566000000E+00  0.10566000000E+00 0.  1.
     999900   -1    0    0    0    0 -0.00000000000E+00 -0.00000000000E+00 -0.74505805969E-08  0.93827000000E+00  0.93827000000E+00 0.  1.
     999902    2    1    2    0    0 -0.19085417438E-01  0.18580045498E-01 -0.93010626228E-02  0.10157168645E+01  0.10153249567E+01 0.  0.
     999903    2    3    3    0    0  0.14665579295E-01  0.11257880229E+00  0.55374437762E-01  0.12770908501E+00  0.18820629570E-01 0.  0.
         14    1    1    2    0    0  0.19085417438E-01 -0.18580045498E-01  0.93010626228E-02  0.28213135512E-01  0.00000000000E+00 0.  1.
     999901    1    3    3    0    0 -0.33750996733E-01 -0.93998756787E-01 -0.64675500384E-01  0.88800777947E+00  0.88000000000E+00 0.  1.
        -11    1    4    4    0    0 -0.24942111597E-02  0.34758991171E-01  0.11278072821E-01  0.36631470133E-01  0.51100000000E-03 0.  1.
         11    1    4    4    0    0  0.17159790455E-01  0.77819811114E-01  0.44096364940E-01  0.91077614880E-01  0.51100000000E-03 0. -1.
</event>
<event>
 8    1  0.1137518E+005  0.1043930E+01  0.7957747E-01            NaN
         13   -1    0    0    0    0  0.00000000000E+00  0.00000000000E+00  0.74505805969E-08  0.10566000000E+00  0.10566000000E+00 0.  1.
     999900   -1    0    0    0    0 -0.00000000000E+00 -0.00000000000E+00 -0.74505805969E-08  0.93827000000E+00  0.93827000000E+00 0.  1.
     999902    2    1    2    0    0 -0.12458823611E-01  0.14286101778E-01  0.13626460860E-01  0.10205848629E+01  0.10203178265E+01 0.  0.
     999903    2    3    3    0    0  0.70156551084E-01  0.27278658969E-02 -0.10631153856E+00  0.12854001166E+00  0.17058969927E-01 0.  0.
         14    1    1    2    0    0  0.12458823611E-01 -0.14286101778E-01 -0.13626460860E-01  0.23345137082E-01  0.00000000000E+00 0. -1.
     999901    1    3    3    0    0 -0.82615374695E-01  0.11558235882E-01  0.11993799942E+00  0.89204485126E+00  0.88000000000E+00 0. -1.
        -11    1    4    4    0    0  0.39171861315E-01 -0.21958033761E-02 -0.45279891959E-01  0.59914822942E-01  0.51100000000E-03 0.  1.
         11    1    4    4    0    0  0.30984689769E-01  0.49236692730E-02 -0.61031646597E-01  0.68625188718E-01  0.51100000000E-03 0. -1.
</event>
<event>
 8    1  0.1137518E+005  0.1043930E+01  0.7957747E-01            NaN
         13   -1    0    0    0    0  0.00000000000E+00  0.00000000000E+00  0.74505805969E-08  0.10566000000E+00  0.10566000000E+00 0. -1.
     999900   -1    0    0    0    0 -0.00000000000E+00 -0.00000000000E+00 -0.74505805969E-08  0.93827000000E+00  0.93827000000E+00 0.  1.
     999902    2    1    2    0    0 -0.21163621041E-01 -0.12818410249E-04 -0.95628682090E-02  0.10207061444E+01  0.10204419071E+01 0.  0.
     999903    2    3    3    0    0  0.93098535387E-01 -0.65843781208E-01 -0.58200044388E-01  0.12955232438E+00  0.19844867614E-01 0.  0.
         14    1    1    2    0    0  0.21163621041E-01  0.12818410249E-04  0.95628682090E-02  0.23223855586E-01  0.00000000000E+00 0.  1.
     999901    1    3    3    0    0 -0.11426215643E+00  0.65830962798E-01  0.48637176179E-01  0.89115382003E+00  0.88000000000E+00 0.  1.
        -11    1    4    4    0    0  0.72465714965E-01 -0.53977687100E-01 -0.54318974171E-01  0.10543093771E+00  0.51100000000E-03 0. -1.
         11    1    4    4    0    0  0.20632820422E-01 -0.11866094108E-01 -0.38810702162E-02  0.24121386672E-01  0.51100000000E-03 0.  1.
</event>
<event>
 8    1  0.1137518E+005  0.1043930E+01  0.7957747E-01            NaN
         13   -1    0    0    0    0  0.00000000000E+00  0.00000000000E+00  0.74505805969E-08  0.10566000000E+00  0.10566000000E+00 0. -1.
     999900   -1    0    0    0    0 -0.00000000000E+00 -0.00000000000E+00 -0.74505805969E-08  0.93827000000E+00  0.93827000000E+00 0. -1.
     999902    2    1    2    0    0  0.42415466599E-02 -0.60843677780E-02  0.22523965659E-01  0.10202163061E+01  0.10199406708E+01 0.  0.
     999903    2    3    3    0    0 -0.75661033058E-01  0.99447810925E-01  0.30026114268E-01  0.13028499121E+00  0.21404494289E-01 0.  0.
         14    1    1    2    0    0 -0.42415466599E-02  0.60843677780E-02 -0.22523965659E-01  0.23713693899E-01  0.00000000000E+00 0.  1.
     999901    1    3    3    0    0  0.79902579718E-01 -0.10553217870E+00 -0.75021486088E-02  0.88993131489E+00  0.88000000000E+00 0.  1.
        -11    1    4    4    0    0 -0.26051671376E-01  0.51610424942E-01  0.15411153039E-01  0.59833855827E-01  0.51100000000E-03 0.  1.
         11    1    4    4    0    0 -0.49609361682E-01  0.47837385983E-01  0.14614961229E-01  0.70451135384E-01  0.51100000000E-03 0. -1.
</event>
<event>
 8    1  0.1137518E+005  0.1043930E+01  0.7957747E-01            NaN
         13   -1    0    0    0    0  0.00000000000E+00  0.00000000000E+00  0.74505805969E-08  0.10566000000E+00  0.10566000000E+00 0. -1.
     999900   -1    0    0    0    0 -0.00000000000E+00 -0.00000000000E+00 -0.74505805969E-08  0.93827000000E+00  0.93827000000E+00 0.  1.
     999902    2    1    2    0    0  0.17236270319E-01 -0.14980160461E-01 -0.59269584623E-02  0.10203371397E+01  0.10200643389E+01 0.  0.
     999903    2    3    3    0    0 -0.64034684878E-01  0.86739678646E-01  0.65846849193E-01  0.12786676297E+00  0.19745602143E-01 0.  0.
         14    1    1    2    0    0 -0.17236270319E-01  0.14980160461E-01  0.59269584623E-02  0.23592860330E-01  0.00000000000E+00 0. -1.
     999901    1    3    3    0    0  0.81270955197E-01 -0.10171983911E+00 -0.71773807655E-01  0.89247037670E+00  0.88000000000E+00 0.  1.
        -11    1    4    4    0    0 -0.62600490237E-01  0.75739653359E-01  0.61615937640E-01  0.11598319430E+00  0.51100000000E-03 0.  1.
         11    1    4    4    0    0 -0.14341946410E-02  0.11000025287E-01  0.42309115529E-02  0.11883568663E-01  0.51100000000E-03 0. -1.
</event>
<event>
 8    1  0.1137518E+005  0.1043930E+01  0.7957747E-01            NaN
         13   -1    0    0    0    0  0.00000000000E+00  0.00000000000E+00  0.74505805969E-08  0.10566000000E+00  0.10566000000E+00 0. -1.
     999900   -1    0    0    0    0 -0.00000000000E+00 -0.00000000000E+00 -0.74505805969E-08  0.93827000000E+00  0.93827000000E+00 0. -1.
     999902    2    1    2    0    0 -0.13775836475E-01 -0.15463747450E-01  0.26039100348E-01  0.10106593537E+01  0.10101115747E+01 0.  0.
     999903    2    3    3    0    0 -0.78792908233E-01 -0.89903610537E-01  0.24930101473E-01  0.12512576165E+00  0.27275716192E-01 0.  0.
         14    1    1    2    0    0  0.13775836475E-01  0.15463747450E-01 -0.26039100348E-01  0.33270646262E-01  0.00000000000E+00 0.  1.
     999901    1    3    3    0    0  0.65017071758E-01  0.74439863087E-01  0.11089988751E-02  0.88553359209E+00  0.88000000000E+00 0. -1.
        -11    1    4    4    0    0 -0.64331593710E-01 -0.74262916592E-01  0.30898900167E-01  0.10299775669E+00  0.51100000000E-03 0.  1.
         11    1    4    4    0    0 -0.14461314523E-01 -0.15640693945E-01 -0.59687986942E-02  0.22128004963E-01  0.51100000000E-03 0. -1.
</event>
<event>
 8    1  0.1137518E+005  0.1043930E+01  0.7957747E-01            NaN
         13   -1    0    0    0    0  0.00000000000E+00  0.00000000000E+00  0.74505805969E-08  0.10566000000E+00  0.10566000000E+00 0. -1.
     999900   -1    0    0    0    0 -0.00000000000E+00 -0.00000000000E+00 -0.74505805969E-08  0.93827000000E+00  0.93827000000E+00 0. -1.
     999902    2    1    2    0    0 -0.14672615483E-01 -0.35031869307E-03  0.18274258671E-01  0.10204916362E+01  0.10202224378E+01 0.  0.
     999903    2    3    3    0    0 -0.84874758396E-01 -0.60685877292E-01 -0.75951539382E-01  0.13063365790E+00  0.20248849996E-01 0.  0.
         14    1    1    2    0    0  0.14672615483E-01  0.35031869307E-03 -0.18274258671E-01  0.23438363814E-01  0.00000000000E+00 0.  1.
     999901    1    3    3    0    0  0.70202142912E-01  0.60335558599E-01  0.94225798053E-01  0.88985797829E+00  0.88000000000E+00 0. -1.
        -11    1    4    4    0    0 -0.24671403610E-01 -0.29025792452E-01 -0.30789165779E-01  0.48983758880E-01  0.51100000000E-03 0. -1.
         11    1    4    4    0    0 -0.60203354785E-01 -0.31660084840E-01 -0.45162373603E-01  0.81649899020E-01  0.51100000000E-03 0.  1.
</event>
<event>
 8    1  0.1137518E+005  0.1043930E+01  0.7957747E-01            NaN
         13   -1    0    0    0    0  0.00000000000E+00  0.00000000000E+00  0.74505805969E-08  0.10566000000E+00  0.10566000000E+00 0. -1.
     999900   -1    0    0    0    0 -0.00000000000E+00 -0.00000000000E+00 -0.74505805969E-08  0.93827000000E+00  0.93827000000E+00 0. -1.
     999902    2    1    2    0    0  0.17968103810E-01 -0.14899665877E-01 -0.24070501039E-02  0.10204641378E+01  0.10201943001E+01 0.  0.
     999903    2    3    3    0    0 -0.10904685172E+00  0.56567896254E-01 -0.30120408987E-01  0.12804694747E+00  0.19940886691E-01 0.  0.
         14    1    1    2    0    0 -0.17968103810E-01  0.14899665877E-01  0.24070501039E-02  0.23465862183E-01  0.00000000000E+00 0. -1.
     999901    1    3    3    0    0  0.12701495553E+00 -0.71467562131E-01  0.27713358883E-01  0.89241719035E+00  0.88000000000E+00 0.  1.
        -11    1    4    4    0    0 -0.61990813131E-01  0.43107466252E-01 -0.18108589542E-01  0.77648545997E-01  0.51100000000E-03 0. -1.
         11    1    4    4    0    0 -0.47056038590E-01  0.13460430002E-01 -0.12011819446E-01  0.50398401473E-01  0.51100000000E-03 0.  1.
</event>
<event>
 8    1  0.1137518E+005  0.1043930E+01  0.7957747E-01            NaN
         13   -1    0    0    0    0  0.00000000000E+00  0.00000000000E+00  0.74505805969E-08  0.10566000000E+00  0.10566000000E+00 0. -1.
     999900   -1    0    0    0    0 -0.00000000000E+00 -0.00000000000E+00 -0.74505805969E-08  0.93827000000E+00  0.93827000000E+00 0.  1.
     999902    2    1    2    0    0  0.11909198357E-02 -0.20650861543E-01  0.10897961592E-01  0.10205496249E+01  0.10202817723E+01 0.  0.
     999903    2    3    3    0    0  0.94998494990E-01 -0.21689503911E-01 -0.84306245620E-01  0.13045705612E+00  0.20404700727E-01 0.  0.
         14    1    1    2    0    0 -0.11909198357E-02  0.20650861543E-01 -0.10897961592E-01  0.23380375091E-01  0.00000000000E+00 0.  1.
     999901    1    3    3    0    0 -0.93807575155E-01  0.10386423678E-02  0.95204207212E-01  0.89009256878E+00  0.88000000000E+00 0. -1.
        -11    1    4    4    0    0  0.24824045485E-01 -0.32962734838E-03 -0.12474171222E-01  0.27788629997E-01  0.51100000000E-03 0. -1.
         11    1    4    4    0    0  0.70174449505E-01 -0.21359876563E-01 -0.71832074398E-01  0.10266842613E+00  0.51100000000E-03 0.  1.
</event>
<event>
 8    1  0.1137518E+005  0.1043930E+01  0.7957747E-01            NaN
         13   -1    0    0    0    0  0.00000000000E+00  0.00000000000E+00  0.74505805969E-08  0.10566000000E+00  0.10566000000E+00 0.  1.
     999900   -1    0    0    0    0 -0.00000000000E+00 -0.00000000000E+00 -0.74505805969E-08  0.93827000000E+00  0.93827000000E+00 0.  1.
     999902    2    1    2    0    0  0.39240958543E-02  0.83899032002E-02  0.22757795941E-01  0.10193595649E+01  0.10190634015E+01 0.  0.
     999903    2    3    3    0    0  0.67272297023E-01  0.67257394027E-01  0.90007777363E-01  0.13256706604E+00  0.20579310355E-01 0.  0.
         14    1    1    2    0    0 -0.39240958543E-02 -0.83899032002E-02 -0.22757795941E-01  0.24570435081E-01  0.00000000000E+00 0. -1.
     999901    1    3    3    0    0 -0.63348201168E-01 -0.58867490827E-01 -0.67249981422E-01  0.88679249888E+00  0.88000000000E+00 0.  1.
        -11    1    4    4    0    0  0.20362846495E-01  0.30545267741E-01  0.43959620092E-01  0.57274498849E-01  0.51100000000E-03 0.  1.
         11    1    4    4    0    0  0.46909450527E-01  0.36712126285E-01  0.46048157271E-01  0.75292567191E-01  0.51100000000E-03 0. -1.
</event>
<event>
 8    1  0.1137518E+005  0.1043930E+01  0.7957747E-01            NaN
         13   -1    0    0    0    0  0.00000000000E+00  0.00000000000E+00  0.74505805969E-08  0.10566000000E+00  0.10566000000E+00 0. -1.
     999900   -1    0    0    0    0 -0.00000000000E+00 -0.00000000000E+00 -0.74505805969E-08  0.93827000000E+00  0.93827000000E+00 0.  1.
     999902    2    1    2    0    0  0.29740523375E-02 -0.10542365150E-01  0.22027836727E-01  0.10193289423E+01  0.10190320312E+01 0.  0.
     999903    2    3    3    0    0 -0.12608039332E+00 -0.27966734785E-02 -0.18237442040E-01  0.12897152059E+00  0.19923901940E-01 0.  0.
         14    1    1    2    0    0 -0.29740523375E-02  0.10542365150E-01 -0.22027836727E-01  0.24601057723E-01  0.00000000000E+00 0.  1.
     999901    1    3    3    0    0  0.12905444566E+00 -0.77456916713E-02  0.40265278766E-01  0.89035742169E+00  0.88000000000E+00 0.  1.
        -11    1    4    4    0    0 -0.10411035925E+00  0.50734227608E-02 -0.12940316070E-01  0.10503532464E+00  0.51100000000E-03 0. -1.
         11    1    4    4    0    0 -0.21970034070E-01 -0.78700962392E-02 -0.52971259695E-02  0.23936195947E-01  0.51100000000E-03 0.  1.
</event>
<event>
 8    1  0.1137518E+005  0.1043930E+01  0.7957747E-01            NaN
         13   -1    0    0    0    0  0.00000000000E+00  0.00000000000E+00  0.74505805969E-08  0.10566000000E+00  0.10566000000E+00 0.  1.
     999900   -1    0    0    0    0 -0.00000000000E+00 -0.00000000000E+00 -0.74505805969E-08  0.93827000000E+00  0.93827000000E+00 0. -1.
     999902    2    1    2    0    0  0.10000651644E-03 -0.77165693374E-02  0.22340219021E-01  0.10202944160E+01  0.10200206148E+01 0.  0.
     999903    2    3    3    0    0 -0.65840917875E-03 -0.60068215988E-03 -0.12618798933E+00  0.12781929609E+00  0.20336407710E-01 0.  0.
         14    1    1    2    0    0 -0.10000651644E-03  0.77165693374E-02 -0.22340219021E-01  0.23635583969E-01  0.00000000000E+00 0. -1.
     999901    1    3    3    0    0  0.75841569519E-03 -0.71158871775E-02  0.14852820835E+00  0.89247511995E+00  0.88000000000E+00 0.  1.
        -11    1    4    4    0    0  0.97638507313E-02 -0.41865533538E-03 -0.68392530285E-01  0.69089126302E-01  0.51100000000E-03 0. -1.
         11    1    4    4    0    0 -0.10422259910E-01 -0.18202682450E-03 -0.57795459047E-01  0.58730169784E-01  0.51100000000E-03 0.  1.
</event>
<event>
 8    1  0.1137518E+005  0.1043930E+01  0.7957747E-01            NaN
         13   -1    0    0    0    0  0.00000000000E+00  0.00000000000E+00  0.74505805969E-08  0.10566000000E+00  0.10566000000E+00 0.  1.
     999900   -1    0    0    0    0 -0.00000000000E+00 -0.00000000000E+00 -0.74505805969E-08  0.93827000000E+00  0.93827000000E+00 0.  1.
     999902    2    1    2    0    0  0.11979449421E-01 -0.17158063438E-01  0.53937196603E-02  0.10223198505E+01  0.10220914236E+01 0.  0.
     999903    2    3    3    0    0 -0.82064466439E-01 -0.87373835981E-01 -0.53254288884E-01  0.13259286894E+00  0.19392930226E-01 0.  0.
         14    1    1    2    0    0 -0.11979449421E-01  0.17158063438E-01 -0.53937196603E-02  0.21610149494E-01  0.00000000000E+00 0.  1.
     999901    1    3    3    0    0  0.94043915860E-01  0.70215772543E-01  0.58648008545E-01  0.88972698157E+00  0.88000000000E+00 0. -1.
        -11    1    4    4    0    0 -0.23759727404E-01 -0.36813036803E-01 -0.13947755668E-01  0.45983968229E-01  0.51100000000E-03 0.  1.
         11    1    4    4    0    0 -0.58304739035E-01 -0.50560799178E-01 -0.39306533216E-01  0.86608900709E-01  0.51100000000E-03 0. -1.
</event>
<event>
 8    1  0.1137518E+005  0.1043930E+01  0.7957747E-01            NaN
         13   -1    0    0    0    0  0.00000000000E+00  0.00000000000E+00  0.74505805969E-08  0.10566000000E+00  0.10566000000E+00 0.  1.
     999900   -1    0    0    0    0 -0.00000000000E+00 -0.00000000000E+00 -0.74505805969E-08  0.93827000000E+00  0.93827000000E+00 0. -1.
     999902    2    1    2    0    0 -0.86448895522E-02  0.21631475593E-01 -0.26553445311E-02  0.10204841964E+01  0.10202148251E+01 0.  0.
     999903    2    3    3    0    0  0.32848922739E-01  0.39399714446E-01 -0.11908487804E+00  0.13166853326E+00  0.22891160970E-01 0.  0.
         14    1    1    2    0    0  0.86448895522E-02 -0.21631475593E-01  0.26553445311E-02  0.23445803596E-01  0.00000000000E+00 0. -1.
     999901    1    3    3    0    0 -0.41493812291E-01 -0.17768238853E-01  0.11642953351E+00  0.88881566314E+00  0.88000000000E+00 0.  1.
        -11    1    4    4    0    0  0.65762534413E-02  0.21032219277E-01 -0.66738121658E-01  0.70283990784E-01  0.51100000000E-03 0.  1.
         11    1    4    4    0    0  0.26272669297E-01  0.18367495169E-01 -0.52346756381E-01  0.61384542480E-01  0.51100000000E-03 0. -1.
</event>
<event>
 8    1  0.1137518E+005  0.1043930E+01  0.7957747E-01            NaN
         13   -1    0    0    0    0  0.00000000000E+00  0.00000000000E+00  0.74505805969E-08  0.10566000000E+00  0.10566000000E+00 0.  1.
     999900   -1    0    0    0    0 -0.00000000000E+00 -0.00000000000E+00 -0.74505805969E-08  0.93827000000E+00  0.93827000000E+00 0.  1.
     999902    2    1    2    0    0  0.11216259846E-01 -0.95223373967E-03  0.13393161596E-01  0.10264346289E+01  0.10262855155E+01 0.  0.
     999903    2    3    3    0    0 -0.10410111903E+00 -0.79825403989E-01  0.26297799599E-01  0.13531981889E+00  0.20266746550E-01 0.  0.
         14    1    1    2    0    0 -0.11216259846E-01  0.95223373967E-03 -0.13393161596E-01  0.17495371147E-01  0.00000000000E+00 0. -1.
     999901    1    3    3    0    0  0.11531737887E+00  0.78873170249E-01 -0.12904638003E-01  0.89111480996E+00  0.88000000000E+00 0. -1.
        -11    1    4    4    0    0 -0.63669310384E-01 -0.60251101735E-01  0.14269221766E-01  0.88813558401E-01  0.51100000000E-03 0.  1.
         11    1    4    4    0    0 -0.40431808644E-01 -0.19574302254E-01  0.12028577833E-01  0.46506260488E-01  0.51100000000E-03 0. -1.
</event>
<event>
 8    1  0.1137518E+005  0.1043930E+01  0.7957747E-01            NaN
         13   -1    0    0    0    0  0.00000000000E+00  0.00000000000E+00  0.74505805969E-08  0.10566000000E+00  0.10566000000E+00 0.  1.
     999900   -1    0    0    0    0 -0.00000000000E+00 -0.00000000000E+00 -0.74505805969E-08  0.93827000000E+00  0.93827000000E+00 0.  1.
     999902    2    1    2    0    0 -0.18593545915E-01  0.25298508097E-03  0.15355865339E-01  0.10198138944E+01  0.10195287110E+01 0.  0.
     999903    2    3    3    0    0  0.81380011707E-01  0.66780864755E-01  0.73787091760E-01  0.12973812274E+00  0.17465834607E-01 0.  0.
         14    1    1    2    0    0  0.18593545915E-01 -0.25298508097E-03 -0.15355865339E-01  0.24116105645E-01  0.00000000000E+00 0. -1.
     999901    1    3    3    0    0 -0.99973557622E-01 -0.66527879674E-01 -0.58431226421E-01  0.89007577162E+00  0.88000000000E+00 0.  1.
        -11    1    4    4    0    0  0.21340596241E-01  0.20573617689E-01  0.30252125524E-01  0.42357372587E-01  0.51100000000E-03 0.  1.
         11    1    4    4    0    0  0.60039415466E-01  0.46207247067E-01  0.43534966236E-01  0.87380750152E-01  0.51100000000E-03 0. -1.
</event>
<event>
 8    1  0.1137518E+005  0.1043930E+01  0.7957747E-01            NaN
         13   -1    0    0    0    0  0.00000000000E+00  0.00000000000E+00  0.74505805969E-08  0.10566000000E+00  0.10566000000E+00 0.  1.
     999900   -1    0    0    0    0 -0.00000000000E+00 -0.00000000000E+00 -0.74505805969E-08  0.93827000000E+00  0.93827000000E+00 0.  1.
     999902    2    1    2    0    0  0.13575641821E-01  0.12451079620E-01 -0.16201997648E-01  0.10193977322E+01  0.10191024994E+01 0.  0.
     999903    2    3    3    0    0  0.67576874833E-01  0.10270894769E+00  0.41746012202E-01  0.13124200952E+00  0.19130436006E-01 0.  0.
         14    1    1    2    0    0 -0.13575641821E-01 -0.12451079620E-01  0.16201997648E-01  0.24532267778E-01  0.00000000000E+00 0.  1.
     999901    1    3    3    0    0 -0.54001233012E-01 -0.90257868068E-01 -0.57948009850E-01  0.88815572270E+00  0.88000000000E+00 0.  1.
        -11    1    4    4    0    0  0.21463589461E-01  0.18627830317E-01  0.11814964049E-01  0.30782076463E-01  0.51100000000E-03 0. -1.
         11    1    4    4    0    0  0.46113285372E-01  0.84081117371E-01  0.29931048153E-01  0.10045993306E+00  0.51100000000E-03 0.  1.
</event>
<event>
 7    1  0.1137518E+005  0.1043930E+01  0.7957747E-01            NaN
         13   -1    0    0    0    0  0.00000000000E+00  0.00000000000E+00  0.74505805969E-08  0.10566000000E+00  0.10566000000E+00 0.  1.
     999900   -1    0    0    0    0 -0.00000000000E+00 -0.00000000000E+00 -0.74505805969E-08  0.93827000000E+00  0.93827000000E+00 0. -1.
     999903    2    1    2    0    0 -0.11293615837E-01  0.17858320226E-01  0.96891480331E-01  0.10103298046E+00  0.19319389718E-01 0.  0.
         14    1    1    2    0    0  0.45981632870E-01 -0.13492914117E-01  0.24594249499E-01  0.53863219372E-01  0.00000000000E+00 0.  1.
     999901    1    1    2    0    0 -0.34688017032E-01 -0.43654061090E-02 -0.12148572983E+00  0.88903380017E+00  0.88000000000E+00 0. -1.
        -11    1    3    3    0    0 -0.95243915449E-03  0.78083339936E-02  0.70629994892E-01  0.71068519892E-01  0.51100000000E-03 0.  1.
         11    1    3    3    0    0 -0.10341176683E-01  0.10049986233E-01  0.26261485438E-01  0.29964460564E-01  0.51100000000E-03 0. -1.
</event>
<event>
 8    1  0.1137518E+005  0.1043930E+01  0.7957747E-01            NaN
         13   -1    0    0    0    0  0.00000000000E+00  0.00000000000E+00  0.74505805969E-08  0.10566000000E+00  0.10566000000E+00 0. -1.
     999900   -1    0    0    0    0 -0.00000000000E+00 -0.00000000000E+00 -0.74505805969E-08  0.93827000000E+00  0.93827000000E+00 0.  1.
     999902    2    1    2    0    0  0.17322058399E-02  0.84643017457E-02  0.21816321580E-01  0.10204652002E+01  0.10201953872E+01 0.  0.
     999903    2    3    3    0    0 -0.39959332205E-01 -0.11161762213E+00 -0.45943011875E-01  0.12875382312E+00  0.20286567689E-01 0.  0.
         14    1    1    2    0    0 -0.17322058399E-02 -0.84643017457E-02 -0.21816321580E-01  0.23464799774E-01  0.00000000000E+00 0.  1.
     999901    1    3    3    0    0  0.41691538045E-01  0.12008192387E+00  0.67759333455E-01  0.89171137710E+00  0.88000000000E+00 0. -1.
        -11    1    4    4    0    0 -0.14937545525E-01 -0.71082661350E-01 -0.27351069961E-01  0.77615830601E-01  0.51100000000E-03 0. -1.
         11    1    4    4    0    0 -0.25021786680E-01 -0.40534960779E-01 -0.18591941914E-01  0.51137992522E-01  0.51100000000E-03 0.  1.
</event>
<event>
 8    1  0.1137518E+005  0.1043930E+01  0.7957747E-01            NaN
         13   -1    0    0    0    0  0.00000000000E+00  0.00000000000E+00  0.74505805969E-08  0.10566000000E+00  0.10566000000E+00 0. -1.
     999900   -1    0    0    0    0 -0.00000000000E+00 -0.00000000000E+00 -0.74505805969E-08  0.93827000000E+00  0.93827000000E+00 0.  1.
     999902    2    1    2    0    0  0.13888817954E-01  0.17133833611E-01  0.98391024144E-02  0.10197789037E+01  0.10194928822E+01 0.  0.
     999903    2    3    3    0    0  0.24260827134E-02  0.82271015670E-01  0.10282947024E+00  0.13241119222E+00  0.13580058169E-01 0.  0.
         14    1    1    2    0    0 -0.13888817954E-01 -0.17133833611E-01 -0.98391024144E-02  0.24151096345E-01  0.00000000000E+00 0.  1.
     999901    1    3    3    0    0  0.11462735240E-01 -0.65137182059E-01 -0.92990367822E-01  0.88736771143E+00  0.88000000000E+00 0.  1.
        -11    1    4    4    0    0 -0.32874596656E-02  0.34651989897E-01  0.35257454715E-01  0.49547119278E-01  0.51100000000E-03 0.  1.
         11    1    4    4    0    0  0.57135423791E-02  0.47619025773E-01  0.67572015522E-01  0.82864072944E-01  0.51100000000E-03 0. -1.
</event>
<event>
 8    1  0.1137518E+005  0.1043930E+01  0.7957747E-01            NaN
         13   -1    0    0    0    0  0.00000000000E+00  0.00000000000E+00  0.74505805969E-08  0.10566000000E+00  0.10566000000E+00 0. -1.
     999900   -1    0    0    0    0 -0.00000000000E+00 -0.00000000000E+00 -0.74505805969E-08  0.93827000000E+00  0.93827000000E+00 0.  1.
     999902    2    1    2    0    0  0.19412130452E-01  0.17121712322E-02  0.13493309397E-01  0.10202270099E+01  0.10199516263E+01 0.  0.
     999903    2    3    3    0    0  0.39429074399E-01 -0.10850032539E+00  0.61372360609E-01  0.13183527428E+00  0.16941085580E-01 0.  0.
         14    1    1    2    0    0 -0.19412130452E-01 -0.17121712322E-02 -0.13493309397E-01  0.23702990054E-01  0.00000000000E+00 0.  1.
     999901    1    3    3    0    0 -0.20016943947E-01  0.11021249662E+00 -0.47879051212E-01  0.88839173567E+00  0.88000000000E+00 0. -1.
        -11    1    4    4    0    0  0.25083049419E-01 -0.46111068985E-01  0.24170136320E-01  0.57791406471E-01  0.51100000000E-03 0. -1.
         11    1    4    4    0    0  0.14346024980E-01 -0.62389256402E-01  0.37202224289E-01  0.74043867809E-01  0.51100000000E-03 0.  1.
</event>
<event>
 8    1  0.1137518E+005  0.1043930E+01  0.7957747E-01            NaN
         13   -1    0    0    0    0  0.00000000000E+00  0.00000000000E+00  0.74505805969E-08  0.10566000000E+00  0.10566000000E+00 0.  1.
     999900   -1    0    0    0    0 -0.00000000000E+00 -0.00000000000E+00 -0.74505805969E-08  0.93827000000E+00  0.93827000000E+00 0.  1.
     999902    2    1    2    0    0 -0.17759696170E-01  0.12564509201E-02 -0.14792574447E-01  0.10207825220E+01  0.10205200398E+01 0.  0.
     999903    2    3    3    0    0  0.10135616679E+00  0.76536478389E-01 -0.15766052122E-01  0.12957176190E+00  0.20232844873E-01 0.  0.
         14    1    1    2    0    0  0.17759696170E-01 -0.12564509201E-02  0.14792574447E-01  0.23147477956E-01  0.00000000000E+00 0. -1.
     999901    1    3    3    0    0 -0.11911586296E+00 -0.75280027469E-01  0.97347767435E-03  0.89121076015E+00  0.88000000000E+00 0. -1.
        -11    1    4    4    0    0  0.74032116286E-01  0.44050849345E-01 -0.98481662655E-02  0.86709163701E-01  0.51100000000E-03 0.  1.
         11    1    4    4    0    0  0.27324050500E-01  0.32485629044E-01 -0.59178858561E-02  0.42862598196E-01  0.51100000000E-03 0. -1.
</event>
<event>
 8    1  0.1137518E+005  0.1043930E+01  0.7957747E-01            NaN
         13   -1    0    0    0    0  0.00000000000E+00  0.00000000000E+00  0.74505805969E-08  0.10566000000E+00  0.10566000000E+00 0. -1.
     999900   -1    0    0    0    0 -0.00000000000E+00 -0.00000000000E+00 -0.74505805969E-08  0.93827000000E+00  0.93827000000E+00 0. -1.
     999902    2    1    2    0    0  0.11166412221E-01 -0.25855468728E-02  0.21586374577E-01  0.10194893498E+01  0.10191963447E+01 0.  0.
     999903    2    3    3    0    0 -0.12222990686E+00 -0.17270763953E-01  0.32817172649E-01  0.12924423504E+00  0.19714868752E-01 0.  0.
         14    1    1    2    0    0 -0.11166412221E-01  0.25855468728E-02 -0.21586374577E-01  0.24440650194E-01  0.00000000000E+00 0.  1.
     999901    1    3    3    0    0  0.13339631909E+00  0.14685217081E-01 -0.11230798072E-01  0.89024511477E+00  0.88000000000E+00 0.  1.
        -11    1    4    4    0    0 -0.75577932958E-01 -0.17007719172E-02  0.16078553805E-01  0.77289699111E-01  0.51100000000E-03 0. -1.
         11    1    4    4    0    0 -0.46651973907E-01 -0.15569992036E-01  0.16738618844E-01  0.51954535925E-01  0.51100000000E-03 0.  1.
</event>
<event>
 8    1  0.1137518E+005  0.1043930E+01  0.7957747E-01            NaN
         13   -1    0    0    0    0  0.00000000000E+00  0.00000000000E+00  0.74505805969E-08  0.10566000000E+00  0.10566000000E+00 0.  1.
     999900   -1    0    0    0    0 -0.00000000000E+00 -0.00000000000E+00 -0.74505805969E-08  0.93827000000E+00  0.93827000000E+00 0. -1.
     999902    2    1    2    0    0 -0.10894328589E-01 -0.13635504393E-01 -0.16169936688E-01  0.10201375594E+01  0.10198600688E+01 0.  0.
     999903    2    3    3    0    0  0.12430804151E+00  0.25686477974E-01 -0.87654327583E-03  0.12881282229E+00  0.21901838328E-01 0.  0.
         14    1    1    2    0    0  0.10894328589E-01  0.13635504393E-01  0.16169936688E-01  0.23792440563E-01  0.00000000000E+00 0.  1.
     999901    1    3    3    0    0 -0.13520237010E+00 -0.39321982366E-01 -0.15293393412E-01  0.89132473715E+00  0.88000000000E+00 0.  1.
        -11    1    4    4    0    0  0.73301579215E-01  0.19144510897E-01  0.94820095997E-02  0.76353149509E-01  0.51100000000E-03 0. -1.
         11    1    4    4    0    0  0.51006462295E-01  0.65419670765E-02 -0.10358552876E-01  0.52459672776E-01  0.51100000000E-03 0.  1.
</event>
<event>
 8    1  0.1137518E+005  0.1043930E+01  0.7957747E-01            NaN
         13   -1    0    0    0    0  0.00000000000E+00  0.00000000000E+00  0.74505805969E-08  0.10566000000E+00  0.10566000000E+00 0. -1.
     999900   -1    0    0    0    0 -0.00000000000E+00 -0.00000000000E+00 -0.74505805969E-08  0.93827000000E+00  0.93827000000E+00 0. -1.
     999902    2    1    2    0    0 -0.41523465617E-03  0.10861717570E-01  0.21709307343E-01  0.10196515455E+01  0.10193624629E+01 0.  0.
     999903    2    3    3    0    0 -0.10265686344E+00  0.51319747768E-01  0.62225144842E-01  0.13188370649E+00  0.18686767085E-01 0.  0.
         14    1    1    2    0    0  0.41523465617E-03 -0.10861717570E-01 -0.21709307343E-01  0.24278454516E-01  0.00000000000E+00 0.  1.
     999901    1    3    3    0    0  0.10224162879E+00 -0.40458030198E-01 -0.40515837499E-01  0.88776783899E+00  0.88000000000E+00 0. -1.
        -11    1    4    4    0    0 -0.44542019789E-01  0.24763269697E-01  0.37900563939E-01  0.63513186984E-01  0.51100000000E-03 0.  1.
         11    1    4    4    0    0 -0.58114843653E-01  0.26556478071E-01  0.24324580903E-01  0.68370519506E-01  0.51100000000E-03 0. -1.
</event>
<event>
 8    1  0.1137518E+005  0.1043930E+01  0.7957747E-01            NaN
         13   -1    0    0    0    0  0.00000000000E+00  0.00000000000E+00  0.74505805969E-08  0.10566000000E+00  0.10566000000E+00 0. -1.
     999900   -1    0    0    0    0 -0.00000000000E+00 -0.00000000000E+00 -0.74505805969E-08  0.93827000000E+00  0.93827000000E+00 0. -1.
     999902    2    1    2    0    0 -0.99901155180E-02  0.14517762294E-01 -0.16097173009E-01  0.10200618872E+01  0.10197826077E+01 0.  0.
     999903    2    3    3    0    0 -0.30472813434E-01 -0.12096232866E+00  0.23529285039E-01  0.12857736566E+00  0.20445889346E-01 0.  0.
         14    1    1    2    0    0  0.99901155180E-02 -0.14517762294E-01  0.16097173009E-01  0.23868112807E-01  0.00000000000E+00 0.  1.
     999901    1    3    3    0    0  0.20482697916E-01  0.13548009096E+00 -0.39626458048E-01  0.89148452154E+00  0.88000000000E+00 0.  1.
        -11    1    4    4    0    0 -0.26742262290E-01 -0.76979312402E-01  0.21982016992E-01  0.84406358305E-01  0.51100000000E-03 0.  1.
         11    1    4    4    0    0 -0.37305511439E-02 -0.43983016260E-01  0.15472680475E-02  0.44171007353E-01  0.51100000000E-03 0. -1.
</event>
<event>
 8    1  0.1137518E+005  0.1043930E+01  0.7957747E-01            NaN
         13   -1    0    0    0    0  0.00000000000E+00  0.00000000000E+00  0.74505805969E-08  0.10566000000E+00  0.10566000000E+00 0. -1.
     999900   -1    0    0    0    0 -0.00000000000E+00 -0.00000000000E+00 -0.74505805969E-08  0.93827000000E+00  0.93827000000E+00 0. -1.
     999902    2    1    2    0    0  0.18393098490E-02 -0.21241343063E-01 -0.97619653552E-02  0.10204806144E+01  0.10202111599E+01 0.  0.
     999903    2    3    3    0    0  0.33509173313E-01  0.11950533493E+00  0.24483058073E-01  0.12807637349E+00  0.19993687514E-01 0.  0.
         14    1    1    2    0    0 -0.18393098490E-02  0.21241343063E-01  0.97619653552E-02  0.23449385566E-01  0.00000000000E+00 0. -1.
     999901    1    3    3    0    0 -0.31669863464E-01 -0.14074667800E+00 -0.34245023428E-01  0.89240424094E+00  0.88000000000E+00 0.  1.
        -11    1    4    4    0    0  0.13577762896E-01  0.33515574028E-01  0.15509691798E-01  0.39350489303E-01  0.51100000000E-03 0. -1.
         11    1    4    4    0    0  0.19931410417E-01  0.85989760907E-01  0.89733662756E-02  0.88725884190E-01  0.51100000000E-03 0.  1.
</event>
<event>
 8    1  0.1137518E+005  0.1043930E+01  0.7957747E-01            NaN
         13   -1    0    0    0    0  0.00000000000E+00  0.00000000000E+00  0.74505805969E-08  0.10566000000E+00  0.10566000000E+00 0.  1.
     999900   -1    0    0    0    0 -0.00000000000E+00 -0.00000000000E+00 -0.74505805969E-08  0.93827000000E+00  0.93827000000E+00 0.  1.
     999902    2    1    2    0    0  0.14272907521E-01  0.20600155588E-02  0.18087598568E-01  0.10207973224E+01  0.10205351795E+01 0.  0.
     999903    2    3    3    0    0 -0.87472479454E-01 -0.93586688274E-01  0.67730526205E-04  0.12960422803E+00  0.19681169980E-01 0.  0.
         14    1    1    2    0    0 -0.14272907521E-01 -0.20600155588E-02 -0.18087598568E-01  0.23132677648E-01  0.00000000000E+00 0. -1.
     999901    1    3    3    0    0  0.10174538697E+00  0.95646703833E-01  0.18019868042E-01  0.89119309432E+00  0.88000000000E+00 0.  1.
        -11    1    4    4    0    0 -0.25348936962E-01 -0.16362739461E-01  0.38506878173E-02  0.30420334736E-01  0.51100000000E-03 0.  1.
         11    1    4    4    0    0 -0.62123542492E-01 -0.77223948813E-01 -0.37829572911E-02  0.99183893294E-01  0.51100000000E-03 0. -1.
</event>
<event>
 8    1  0.1137518E+005  0.1043930E+01  0.7957747E-01            NaN
         13   -1    0    0    0    0  0.00000000000E+00  0.00000000000E+00  0.74505805969E-08  0.10566000000E+00  0.10566000000E+00 0.  1.
     999900   -1    0    0    0    0 -0.00000000000E+00 -0.00000000000E+00 -0.74505805969E-08  0.93827000000E+00  0.93827000000E+00 0.  1.
     999902    2    1    2    0    0  0.53916231021E-02  0.25233392922E-01  0.12332779268E-01  0.10153312035E+01  0.10149283529E+01 0.  0.
     999903    2    3    3    0    0 -0.83780634451E-01  0.81986504135E-01 -0.45146099803E-01  0.12714404489E+00  0.19658490613E-01 0.  0.
         14    1    1    2    0    0 -0.53916231021E-02 -0.25233392922E-01 -0.12332779268E-01  0.28598796522E-01  0.00000000000E+00 0.  1.
     999901    1    3    3    0    0  0.89172257553E-01 -0.56753111213E-01  0.57478879072E-01  0.88818715859E+00  0.88000000000E+00 0. -1.
        -11    1    4    4    0    0 -0.24208706604E-01  0.27344741738E-01 -0.23592964496E-01  0.43482013188E-01  0.51100000000E-03 0.  1.
         11    1    4    4    0    0 -0.59571927847E-01  0.54641762397E-01 -0.21553135308E-01  0.83662031698E-01  0.51100000000E-03 0. -1.
</event>
<event>
 8    1  0.1137518E+005  0.1043930E+01  0.7957747E-01            NaN
         13   -1    0    0    0    0  0.00000000000E+00  0.00000000000E+00  0.74505805969E-08  0.10566000000E+00  0.10566000000E+00 0. -1.
     999900   -1    0    0    0    0 -0.00000000000E+00 -0.00000000000E+00 -0.74505805969E-08  0.93827000000E+00  0.93827000000E+00 0.  1.
     999902    2    1    2    0    0  0.44104348055E-02  0.22490252937E-01 -0.79162196423E-03  0.10209977067E+01  0.10207401368E+01 0.  0.
     999903    2    3    3    0    0 -0.12420063020E+00  0.38084657750E-01  0.34343515595E-02  0.13150242823E+00  0.20121037790E-01 0.  0.
         14    1    1    2    0    0 -0.44104348055E-02 -0.22490252937E-01  0.79162196423E-03  0.22932293337E-01  0.00000000000E+00 0.  1.
     999901    1    3    3    0    0  0.12861106501E+00 -0.15594404813E-01 -0.42259735237E-02  0.88949527843E+00  0.88000000000E+00 0.  1.
        -11    1    4    4    0    0 -0.42704183622E-01  0.21397301538E-01  0.67787488722E-02  0.48246288657E-01  0.51100000000E-03 0. -1.
         11    1    4    4    0    0 -0.81496446578E-01  0.16687356212E-01 -0.33443973127E-02  0.83256139572E-01  0.51100000000E-03 0.  1.
</event>
<event>
 8    1  0.1137518E+005  0.1043930E+01  0.7957747E-01            NaN
         13   -1    0    0    0    0  0.00000000000E+00  0.00000000000E+00  0.74505805969E-08  0.10566000000E+00  0.10566000000E+00 0. -1.
     999900   -1    0    0    0    0 -0.00000000000E+00 -0.00000000000E+00 -0.74505805969E-08  0.93827000000E+00  0.93827000000E+00 0. -1.
     999902    2    1    2    0    0 -0.18284364182E-01 -0.12341215232E-01 -0.61822752696E-02  0.10210205239E+01  0.10207634722E+01 0.  0.
     999903    2    3    3    0    0 -0.52105100986E-01  0.92389355616E-01 -0.75029259998E-01  0.13149691995E+00  0.20280915174E-01 0.  0.
         14    1    1    2    0    0  0.18284364182E-01  0.12341215232E-01  0.61822752696E-02  0.22909476084E-01  0.00000000000E+00 0.  1.
     999901    1    3    3    0    0  0.33820736804E-01 -0.10473057085E+00  0.68846984728E-01  0.88952360397E+00  0.88000000000E+00 0. -1.
        -11    1    4    4    0    0 -0.35324104658E-01  0.46778301998E-01 -0.48765886361E-01  0.76252047194E-01  0.51100000000E-03 0. -1.
         11    1    4    4    0    0 -0.16780996328E-01  0.45611053618E-01 -0.26263373637E-01  0.55244872755E-01  0.51100000000E-03 0.  1.
</event>
<event>
 8    1  0.1137518E+005  0.1043930E+01  0.7957747E-01            NaN
         13   -1    0    0    0    0  0.00000000000E+00  0.00000000000E+00  0.74505805969E-08  0.10566000000E+00  0.10566000000E+00 0. -1.
     999900   -1    0    0    0    0 -0.00000000000E+00 -0.00000000000E+00 -0.74505805969E-08  0.93827000000E+00  0.93827000000E+00 0.  1.
     999902    2    1    2    0    0  0.66922657174E-02  0.18752974175E-01 -0.15028396934E-01  0.10189837944E+01  0.10186783889E+01 0.  0.
     999903    2    3    3    0    0  0.66021701053E-01  0.14832648263E-01  0.10734199196E+00  0.12852893143E+00  0.20457529519E-01 0.  0.
         14    1    1    2    0    0 -0.66922657174E-02 -0.18752974175E-01  0.15028396934E-01  0.24946205628E-01  0.00000000000E+00 0. -1.
     999901    1    3    3    0    0 -0.59329435336E-01  0.39203259119E-02 -0.12237038889E+00  0.89045486294E+00  0.88000000000E+00 0.  1.
        -11    1    4    4    0    0  0.29221656586E-02  0.62046757653E-02  0.12898573948E-01  0.14617502673E-01  0.51100000000E-03 0. -1.
         11    1    4    4    0    0  0.63099535394E-01  0.86279724977E-02  0.94443418008E-01  0.11391142876E+00  0.51100000000E-03 0.  1.
</event>
<event>
 8    1  0.1137518E+005  0.1043930E+01  0.7957747E-01            NaN
         13   -1    0    0    0    0  0.00000000000E+00  0.00000000000E+00  0.74505805969E-08  0.10566000000E+00  0.10566000000E+00 0. -1.
     999900   -1    0    0    0    0 -0.00000000000E+00 -0.00000000000E+00 -0.74505805969E-08  0.93827000000E+00  0.93827000000E+00 0.  1.
     999902    2    1    2    0    0 -0.51408885154E-02  0.18695869761E-01 -0.15084600799E-01  0.10193635704E+01  0.10190675048E+01 0.  0.
     999903    2    3    3    0    0 -0.12486792638E+00 -0.87630864230E-02 -0.31756624188E-01  0.13067548440E+00  0.19970185805E-01 0.  0.
         14    1    1    2    0    0  0.51408885154E-02 -0.18695869761E-01  0.15084600799E-01  0.24566429576E-01  0.00000000000E+00 0. -1.
     999901    1    3    3    0    0  0.11972703787E+00  0.27458956184E-01  0.16672023389E-01  0.88868808602E+00  0.88000000000E+00 0. -1.
        -11    1    4    4    0    0 -0.11265772730E+00 -0.17680776100E-02 -0.27898774438E-01  0.11607537359E+00  0.51100000000E-03 0. -1.
         11    1    4    4    0    0 -0.12210199089E-01 -0.69950088130E-02 -0.38578497493E-02  0.14600110813E-01  0.51100000000E-03 0.  1.
</event>
<event>
 8    1  0.1137518E+005  0.1043930E+01  0.7957747E-01            NaN
         13   -1    0    0    0    0  0.00000000000E+00  0.00000000000E+00  0.74505805969E-08  0.10566000000E+00  0.10566000000E+00 0. -1.
     999900   -1    0    0    0    0 -0.00000000000E+00 -0.00000000000E+00 -0.74505805969E-08  0.93827000000E+00  0.93827000000E+00 0.  1.
     999902    2    1    2    0    0  0.14609511947E-01  0.16656503571E-01  0.66053342303E-02  0.10208105841E+01  0.10205487452E+01 0.  0.
     999903    2    3    3    0    0 -0.10748449022E+00 -0.65879778001E-01  0.12011176172E-01  0.12853909725E+00  0.22022043102E-01 0.  0.
         14    1    1    2    0    0 -0.14609511947E-01 -0.16656503571E-01 -0.66053342303E-02  0.23119415884E-01  0.00000000000E+00 0. -1.
     999901    1    3    3    0    0  0.12209400217E+00  0.82536281572E-01 -0.54058419413E-02  0.89227148686E+00  0.88000000000E+00 0. -1.
        -11    1    4    4    0    0 -0.86659031266E-01 -0.44089419387E-01  0.38479999232E-02  0.97307414035E-01  0.51100000000E-03 0.  1.
         11    1    4    4    0    0 -0.20825458954E-01 -0.21790358614E-01  0.81631762484E-02  0.31231683218E-01  0.51100000000E-03 0. -1.
</event>
<event>
 8    1  0.1137518E+005  0.1043930E+01  0.7957747E-01            NaN
         13   -1    0    0    0    0  0.00000000000E+00  0.00000000000E+00  0.74505805969E-08  0.10566000000E+00  0.10566000000E+00 0. -1.
     999900   -1    0    0    0    0 -0.00000000000E+00 -0.00000000000E+00 -0.74505805969E-08  0.93827000000E+00  0.93827000000E+00 0.  1.
     999902    2    1    2    0    0 -0.11920904942E-01  0.38006770450E-02  0.19703519248E-01  0.10205894389E+01  0.10203225084E+01 0.  0.
     999903    2    3    3    0    0  0.93336764639E-01  0.86943756739E-01  0.17951386498E-01  0.13042371352E+00  0.20423621207E-01 0.  0.
         14    1    1    2    0    0  0.11920904942E-01 -0.38006770450E-02 -0.19703519248E-01  0.23340561077E-01  0.00000000000E+00 0.  1.
     999901    1    3    3    0    0 -0.10525766958E+00 -0.83143079694E-01  0.17521327495E-02  0.89016572540E+00  0.88000000000E+00 0.  1.
        -11    1    4    4    0    0  0.21235363638E-01  0.31827355852E-01  0.23540970382E-02  0.38336981405E-01  0.51100000000E-03 0.  1.
         11    1    4    4    0    0  0.72101401001E-01  0.55116400887E-01  0.15597289460E-01  0.92086732120E-01  0.51100000000E-03 0. -1.
</event>
<event>
 8    1  0.1137518E+005  0.1043930E+01  0.7957747E-01            NaN
         13   -1    0    0    0    0  0.00000000000E+00  0.00000000000E+00  0.74505805969E-08  0.10566000000E+00  0.10566000000E+00 0.  1.
     999900   -1    0    0    0    0 -0.00000000000E+00 -0.00000000000E+00 -0.74505805969E-08  0.93827000000E+00  0.93827000000E+00 0.  1.
     999902    2    1    2    0    0 -0.10927992695E-01  0.22576989660E-01  0.41912980674E-03  0.10188438055E+01  0.10185349198E+01 0.  0.
     999903    2    3    3    0    0  0.41772059010E-02 -0.12267362563E+00 -0.23161376023E-01  0.12649748899E+00  0.19972428705E-01 0.  0.
         14    1    1    2    0    0  0.10927992695E-01 -0.22576989660E-01 -0.41912980674E-03  0.25086194535E-01  0.00000000000E+00 0. -1.
     999901    1    3    3    0    0 -0.15105198596E-01  0.14525061529E+00  0.23580505830E-01  0.89234631647E+00  0.88000000000E+00 0.  1.
        -11    1    4    4    0    0 -0.35184878943E-02 -0.10357880537E+00 -0.21421728002E-01  0.10583052599E+00  0.51100000000E-03 0.  1.
         11    1    4    4    0    0  0.76956937953E-02 -0.19094820255E-01 -0.17396480213E-02  0.20666963004E-01  0.51100000000E-03 0. -1.
</event>
<event>
 8    1  0.1137518E+005  0.1043930E+01  0.7957747E-01            NaN
         13   -1    0    0    0    0  0.00000000000E+00  0.00000000000E+00  0.74505805969E-08  0.10566000000E+00  0.10566000000E+00 0. -1.
     999900   -1    0    0    0    0 -0.00000000000E+00 -0.00000000000E+00 -0.74505805969E-08  0.93827000000E+00  0.93827000000E+00 0.  1.
     999902    2    1    2    0    0  0.72655257827E-02 -0.17688558422E-01  0.13868504111E-01  0.10203077992E+01  0.10200343116E+01 0.  0.
     999903    2    3    3    0    0 -0.20999917931E-01 -0.10002295622E+00 -0.79553116236E-01  0.13109157831E+00  0.20266111498E-01 0.  0.
         14    1    1    2    0    0 -0.72655257827E-02  0.17688558422E-01 -0.13868504111E-01  0.23622200791E-01  0.00000000000E+00 0.  1.
     999901    1    3    3    0    0  0.28265443714E-01  0.82334397800E-01  0.93421620347E-01  0.88921622090E+00  0.88000000000E+00 0.  1.
        -11    1    4    4    0    0 -0.10616775484E-01 -0.31134742742E-01 -0.15165348254E-01  0.36226192678E-01  0.51100000000E-03 0. -1.
         11    1    4    4    0    0 -0.10383142448E-01 -0.68888213480E-01 -0.64387767982E-01  0.94865385628E-01  0.51100000000E-03 0.  1.
</event>
<event>
 8    1  0.1137518E+005  0.1043930E+01  0.7957747E-01            NaN
         13   -1    0    0    0    0  0.00000000000E+00  0.00000000000E+00  0.74505805969E-08  0.10566000000E+00  0.10566000000E+00 0.  1.
     999900   -1    0    0    0    0 -0.00000000000E+00 -0.00000000000E+00 -0.74505805969E-08  0.93827000000E+00  0.93827000000E+00 0.  1.
     999902    2    1    2    0    0  0.18422222911E-03 -0.14598270031E-01  0.18545322647E-01  0.10203276184E+01  0.10200545948E+01 0.  0.
     999903    2    3    3    0    0  0.29465447826E-01 -0.42236415143E-01  0.12235709991E+00  0.13331119107E+00  0.12185499030E-01 0.  0.
         14    1    1    2    0    0 -0.18422222911E-03  0.14598270031E-01 -0.18545322647E-01  0.23602381613E-01  0.00000000000E+00 0. -1.
     999901    1    3    3    0    0 -0.29281225597E-01  0.27638145112E-01 -0.10381177726E+00  0.88701642732E+00  0.88000000000E+00 0.  1.
        -11    1    4    4    0    0  0.25513763111E-01 -0.28275490273E-01  0.94757433453E-01  0.10212584283E+00  0.51100000000E-03 0.  1.
         11    1    4    4    0    0  0.39516847149E-02 -0.13960924870E-01  0.27599666452E-01  0.31185348236E-01  0.51100000000E-03 0. -1.
</event>
<event>
 8    1  0.1137518E+005  0.1043930E+01  0.7957747E-01            NaN
         13   -1    0    0    0    0  0.00000000000E+00  0.00000000000E+00  0.74505805969E-08  0.10566000000E+00  0.10566000000E+00 0.  1.
     999900   -1    0    0    0    0 -0.00000000000E+00 -0.00000000000E+00 -0.74505805969E-08  0.93827000000E+00  0.93827000000E+00 0. -1.
     999902    2    1    2    0    0 -0.21487140572E-01 -0.10205106457E-02 -0.87966770915E-02  0.10206895142E+01  0.10204248940E+01 0.  0.
     999903    2    3    3    0    0  0.11204693171E+00  0.59335113883E-01  0.39957573415E-02  0.12848001177E+00  0.20395506918E-01 0.  0.
         14    1    1    2    0    0  0.21487140572E-01  0.10205106457E-02  0.87966770915E-02  0.23240485791E-01  0.00000000000E+00 0.  1.
     999901    1    3    3    0    0 -0.13353407228E+00 -0.60355624529E-01 -0.12792434433E-01  0.89220950244E+00  0.88000000000E+00 0.  1.
        -11    1    4    4    0    0  0.33069974347E-01  0.19104512245E-01  0.10484723778E-01  0.39608031321E-01  0.51100000000E-03 0.  1.
         11    1    4    4    0    0  0.78976957358E-01  0.40230601638E-01 -0.64889664360E-02  0.88871980444E-01  0.51100000000E-03 0. -1.
</event>
<event>
 7    1  0.1137518E+005  0.1043930E+01  0.7957747E-01            NaN
         13   -1    0    0    0    0  0.00000000000E+00  0.00000000000E+00  0.74505805969E-08  0.10566000000E+00  0.10566000000E+00 0.  1.
     999900   -1    0    0    0    0 -0.00000000000E+00 -0.00000000000E+00 -0.74505805969E-08  0.93827000000E+00  0.93827000000E+00 0. -1.
     999903    2    1    2    0    0  0.95588897432E-01 -0.14106611041E-01 -0.48383593232E-01  0.10990784647E+00  0.20063121263E-01 0.  0.
         14    1    1    2    0    0  0.27540192094E-01  0.33072624278E-01 -0.66340648692E-02  0.43546199305E-01  0.00000000000E+00 0. -1.
     999901    1    1    2    0    0 -0.12312908953E+00 -0.18966013237E-01  0.55017658101E-01  0.89047595422E+00  0.88000000000E+00 0. -1.
        -11    1    3    3    0    0  0.30337483787E-01 -0.51898348532E-02 -0.26168247879E-01  0.40402173536E-01  0.51100000000E-03 0. -1.
         11    1    3    3    0    0  0.65251413645E-01 -0.89167761881E-02 -0.22215345353E-01  0.69505672937E-01  0.51100000000E-03 0.  1.
</event>
<event>
 8    1  0.1137518E+005  0.1043930E+01  0.7957747E-01            NaN
         13   -1    0    0    0    0  0.00000000000E+00  0.00000000000E+00  0.74505805969E-08  0.10566000000E+00  0.10566000000E+00 0.  1.
     999900   -1    0    0    0    0 -0.00000000000E+00 -0.00000000000E+00 -0.74505805969E-08  0.93827000000E+00  0.93827000000E+00 0. -1.
     999902    2    1    2    0    0 -0.16824085863E-01 -0.12805934164E-01 -0.10173919608E-01  0.10204661884E+01  0.10201963983E+01 0.  0.
     999903    2    3    3    0    0  0.39623020460E-02  0.16676299743E-01 -0.12909189895E+00  0.13173520443E+00  0.19890874875E-01 0.  0.
         14    1    1    2    0    0  0.16824085863E-01  0.12805934164E-01  0.10173919608E-01  0.23463811607E-01  0.00000000000E+00 0. -1.
     999901    1    3    3    0    0 -0.20786387909E-01 -0.29482233907E-01  0.11891797934E+00  0.88873098396E+00  0.88000000000E+00 0.  1.
        -11    1    4    4    0    0 -0.26311414141E-02  0.17802490542E-01 -0.70575426703E-01  0.72835455309E-01  0.51100000000E-03 0. -1.
         11    1    4    4    0    0  0.65934434601E-02 -0.11261907990E-02 -0.58516472243E-01  0.58899749126E-01  0.51100000000E-03 0.  1.
</event>
<event>
 8    1  0.1137518E+005  0.1043930E+01  0.7957747E-01            NaN
         13   -1    0    0    0    0  0.00000000000E+00  0.00000000000E+00  0.74505805969E-08  0.10566000000E+00  0.10566000000E+00 0.  1.
     999900   -1    0    0    0    0 -0.00000000000E+00 -0.00000000000E+00 -0.74505805969E-08  0.93827000000E+00  0.93827000000E+00 0.  1.
     999902    2    1    2    0    0  0.25708828474E-01 -0.14815094847E-02  0.63352830195E-02  0.10174106760E+01  0.10170649975E+01 0.  0.
     999903    2    3    3    0    0  0.34920476446E-01  0.47393330691E-01 -0.11221278776E+00  0.12806976867E+00  0.18563093497E-01 0.  0.
         14    1    1    2    0    0 -0.25708828474E-01  0.14815094847E-02 -0.63352830195E-02  0.26519323950E-01  0.00000000000E+00 0. -1.
     999901    1    3    3    0    0 -0.92116479727E-02 -0.48874840175E-01  0.11854807078E+00  0.88934090738E+00  0.88000000000E+00 0. -1.
        -11    1    4    4    0    0  0.14205439456E-01  0.19033423807E-01 -0.65145829039E-01  0.69341949021E-01  0.51100000000E-03 0. -1.
         11    1    4    4    0    0  0.20715036990E-01  0.28359906883E-01 -0.47066958721E-01  0.58727819645E-01  0.51100000000E-03 0.  1.
</event>
<event>
 8    1  0.1137518E+005  0.1043930E+01  0.7957747E-01            NaN
         13   -1    0    0    0    0  0.00000000000E+00  0.00000000000E+00  0.74505805969E-08  0.10566000000E+00  0.10566000000E+00 0.  1.
     999900   -1    0    0    0    0 -0.00000000000E+00 -0.00000000000E+00 -0.74505805969E-08  0.93827000000E+00  0.93827000000E+00 0.  1.
     999902    2    1    2    0    0  0.10400627922E-01  0.20505543232E-02 -0.21752625992E-01  0.10197317651E+01  0.10194446126E+01 0.  0.
     999903    2    3    3    0    0  0.73660734728E-01 -0.47595566436E-01  0.92088703454E-01  0.12876239038E+00  0.20203516708E-01 0.  0.
         14    1    1    2    0    0 -0.10400627922E-01 -0.20505543232E-02  0.21752625992E-01  0.24198234889E-01  0.00000000000E+00 0.  1.
     999901    1    3    3    0    0 -0.63260106806E-01  0.49646120759E-01 -0.11384132945E+00  0.89096937473E+00  0.88000000000E+00 0.  1.
        -11    1    4    4    0    0  0.51675396304E-01 -0.24735200053E-01  0.49884221075E-01  0.75966264474E-01  0.51100000000E-03 0. -1.
         11    1    4    4    0    0  0.21985338424E-01 -0.22860366383E-01  0.42204482378E-01  0.52796125905E-01  0.51100000000E-03 0.  1.
</event>
<event>
 8    1  0.1137518E+005  0.1043930E+01  0.7957747E-01            NaN
         13   -1    0    0    0    0  0.00000000000E+00  0.00000000000E+00  0.74505805969E-08  0.10566000000E+00  0.10566000000E+00 0.  1.
     999900   -1    0    0    0    0 -0.00000000000E+00 -0.00000000000E+00 -0.74505805969E-08  0.93827000000E+00  0.93827000000E+00 0.  1.
     999902    2    1    2    0    0 -0.17057744669E-01  0.11677963236E-01  0.11933290290E-01  0.10200606704E+01  0.10197813621E+01 0.  0.
     999903    2    3    3    0    0 -0.98501346046E-01  0.86649086459E-01  0.14171975205E-02  0.13306330979E+00  0.22209381027E-01 0.  0.
         14    1    1    2    0    0  0.17057744669E-01 -0.11677963236E-01 -0.11933290290E-01  0.23869329603E-01  0.00000000000E+00 0. -1.
     999901    1    3    3    0    0  0.81443601377E-01 -0.74971123223E-01  0.10516092770E-01  0.88699736061E+00  0.88000000000E+00 0.  1.
        -11    1    4    4    0    0 -0.65697892320E-01  0.68789128357E-01  0.65990854956E-02  0.95351802741E-01  0.51100000000E-03 0.  1.
         11    1    4    4    0    0 -0.32803453726E-01  0.17859958101E-01 -0.51818879750E-02  0.37711507046E-01  0.51100000000E-03 0. -1.
</event>
<event>
 8    1  0.1137518E+005  0.1043930E+01  0.7957747E-01            NaN
         13   -1    0    0    0    0  0.00000000000E+00  0.00000000000E+00  0.74505805969E-08  0.10566000000E+00  0.10566000000E+00 0. -1.
     999900   -1    0    0    0    0 -0.00000000000E+00 -0.00000000000E+00 -0.74505805969E-08  0.93827000000E+00  0.93827000000E+00 0.  1.
     999902    2    1    2    0    0 -0.73186957101E-03  0.16142453103E-01 -0.17142145825E-01  0.10203722499E+01  0.10201002700E+01 0.  0.
     999903    2    3    3    0    0 -0.69804236598E-01  0.10020010598E+00  0.44549648614E-01  0.13152886755E+00  0.20061882305E-01 0.  0.
         14    1    1    2    0    0  0.73186957101E-03 -0.16142453103E-01  0.17142145825E-01  0.23557750079E-01  0.00000000000E+00 0. -1.
     999901    1    3    3    0    0  0.69072367027E-01 -0.84057652872E-01 -0.61691794440E-01  0.88884338238E+00  0.88000000000E+00 0.  1.
        -11    1    4    4    0    0 -0.72890750101E-02  0.20898966802E-01  0.13282877260E-01  0.25818469692E-01  0.51100000000E-03 0.  1.
         11    1    4    4    0    0 -0.62515161588E-01  0.79301139173E-01  0.31266771354E-01  0.10571039785E+00  0.51100000000E-03 0. -1.
</event>
<event>
 8    1  0.1137518E+005  0.1043930E+01  0.7957747E-01            NaN
         13   -1    0    0    0    0  0.00000000000E+00  0.00000000000E+00  0.74505805969E-08  0.10566000000E+00  0.10566000000E+00 0.  1.
     999900   -1    0    0    0    0 -0.00000000000E+00 -0.00000000000E+00 -0.74505805969E-08  0.93827000000E+00  0.93827000000E+00 0.  1.
     999902    2    1    2    0    0  0.21283326506E-01 -0.70164562157E-02  0.11844542105E-01  0.10185823409E+01  0.10182669008E+01 0.  0.
     999903    2    3    3    0    0  0.22279877309E-01 -0.39133821224E-01  0.12156916587E+00  0.13118614340E+00  0.20072200526E-01 0.  0.
         14    1    1    2    0    0 -0.21283326506E-01  0.70164562157E-02 -0.11844542105E-01  0.25347659116E-01  0.00000000000E+00 0. -1.
     999901    1    3    3    0    0 -0.99655080273E-03  0.32117365009E-01 -0.10972462376E+00  0.88739619748E+00  0.88000000000E+00 0.  1.
        -11    1    4    4    0    0  0.21976759788E-04 -0.90679643105E-02  0.45707602880E-01  0.46601228973E-01  0.51100000000E-03 0.  1.
         11    1    4    4    0    0  0.22257900549E-01 -0.30065856914E-01  0.75861562987E-01  0.84584914427E-01  0.51100000000E-03 0. -1.
</event>
<event>
 8    1  0.1137518E+005  0.1043930E+01  0.7957747E-01            NaN
         13   -1    0    0    0    0  0.00000000000E+00  0.00000000000E+00  0.74505805969E-08  0.10566000000E+00  0.10566000000E+00 0. -1.
     999900   -1    0    0    0    0 -0.00000000000E+00 -0.00000000000E+00 -0.74505805969E-08  0.93827000000E+00  0.93827000000E+00 0.  1.
     999902    2    1    2    0    0  0.71745700044E-02 -0.13902765096E-01  0.16622462631E-01  0.10211030949E+01  0.10208479137E+01 0.  0.
     999903    2    3    3    0    0 -0.11239378789E+00 -0.45204901295E-01 -0.43226501620E-01  0.13045259417E+00  0.21760106298E-01 0.  0.
         14    1    1    2    0    0 -0.71745700044E-02  0.13902765096E-01 -0.16622462631E-01  0.22826905090E-01  0.00000000000E+00 0.  1.
     999901    1    3    3    0    0  0.11956835790E+00  0.31302136198E-01  0.59848964252E-01  0.89065050074E+00  0.88000000000E+00 0. -1.
        -11    1    4    4    0    0 -0.59136423165E-01 -0.15539990189E-01 -0.13462399437E-01  0.62610743163E-01  0.51100000000E-03 0.  1.
         11    1    4    4    0    0 -0.53257364728E-01 -0.29664911105E-01 -0.29764102184E-01  0.67841851010E-01  0.51100000000E-03 0. -1.
</event>
<event>
 8    1  0.1137518E+005  0.1043930E+01  0.7957747E-01            NaN
         13   -1    0    0    0    0  0.00000000000E+00  0.00000000000E+00  0.74505805969E-08  0.10566000000E+00  0.10566000000E+00 0. -1.
     999900   -1    0    0    0    0 -0.00000000000E+00 -0.00000000000E+00 -0.74505805969E-08  0.93827000000E+00  0.93827000000E+00 0. -1.
     999902    2    1    2    0    0  0.11924375251E-01  0.16783281709E-01 -0.11909590286E-01  0.10201453913E+01  0.10198680855E+01 0.  0.
     999903    2    3    3    0    0  0.12991435171E+00 -0.10862921809E-01 -0.32445783107E-02  0.13179803269E+00  0.19090633361E-01 0.  0.
         14    1    1    2    0    0 -0.11924375251E-01 -0.16783281709E-01  0.11909590286E-01  0.23784608696E-01  0.00000000000E+00 0. -1.
     999901    1    3    3    0    0 -0.11798997646E+00  0.27646203518E-01 -0.86650119748E-02  0.88834735861E+00  0.88000000000E+00 0.  1.
        -11    1    4    4    0    0  0.27219816048E-01 -0.57832454542E-02 -0.77083661750E-02  0.28879825895E-01  0.51100000000E-03 0.  1.
         11    1    4    4    0    0  0.10269453567E+00 -0.50796763547E-02  0.44637878643E-02  0.10291820680E+00  0.51100000000E-03 0. -1.
</event>
<event>
 8    1  0.1137518E+005  0.1043930E+01  0.7957747E-01            NaN
         13   -1    0    0    0    0  0.00000000000E+00  0.00000000000E+00  0.74505805969E-08  0.10566000000E+00  0.10566000000E+00 0.  1.
     999900   -1    0    0    0    0 -0.00000000000E+00 -0.00000000000E+00 -0.74505805969E-08  0.93827000000E+00  0.93827000000E+00 0. -1.
     999902    2    1    2    0    0 -0.19444752801E-01  0.29042708470E-02 -0.13148338875E-01  0.10202781076E+01  0.10200039239E+01 0.  0.
     999903    2    3    3    0    0  0.99827210935E-01  0.63091239770E-01 -0.48985845421E-01  0.12947364000E+00  0.20440983919E-01 0.  0.
         14    1    1    2    0    0  0.19444752801E-01 -0.29042708470E-02  0.13148338875E-01  0.23651892436E-01  0.00000000000E+00 0. -1.
     999901    1    3    3    0    0 -0.11927196374E+00 -0.60186968923E-01  0.35837506546E-01  0.89080446757E+00  0.88000000000E+00 0. -1.
        -11    1    4    4    0    0  0.48983863997E-01  0.42039545879E-01 -0.30724523887E-01  0.71491257080E-01  0.51100000000E-03 0. -1.
         11    1    4    4    0    0  0.50843346938E-01  0.21051693891E-01 -0.18261321534E-01  0.57982382917E-01  0.51100000000E-03 0.  1.
</event>
<event>
 8    1  0.1137518E+005  0.1043930E+01  0.7957747E-01            NaN
         13   -1    0    0    0    0  0.00000000000E+00  0.00000000000E+00  0.74505805969E-08  0.10566000000E+00  0.10566000000E+00 0.  1.
     999900   -1    0    0    0    0 -0.00000000000E+00 -0.00000000000E+00 -0.74505805969E-08  0.93827000000E+00  0.93827000000E+00 0. -1.
     999902    2    1    2    0    0 -0.88869881534E-03  0.17883860492E-02 -0.28370315064E-01  0.10154894851E+01  0.10150911444E+01 0.  0.
     999903    2    3    3    0    0  0.95231038730E-01  0.70858790073E-01 -0.42134261709E-01  0.12745842097E+00  0.19504722446E-01 0.  0.
         14    1    1    2    0    0  0.88869881534E-03 -0.17883860492E-02  0.28370315064E-01  0.28440514888E-01  0.00000000000E+00 0.  1.
     999901    1    3    3    0    0 -0.96119737545E-01 -0.69070404024E-01  0.13763946645E-01  0.88803106414E+00  0.88000000000E+00 0. -1.
        -11    1    4    4    0    0  0.74182750618E-01  0.59540413706E-01 -0.25977629128E-01  0.98606489085E-01  0.51100000000E-03 0.  1.
         11    1    4    4    0    0  0.21048288111E-01  0.11318376367E-01 -0.16156632582E-01  0.28851931883E-01  0.51100000000E-03 0. -1.
</event>
<event>
 8    1  0.1137518E+005  0.1043930E+01  0.7957747E-01            NaN
         13   -1    0    0    0    0  0.00000000000E+00  0.00000000000E+00  0.74505805969E-08  0.10566000000E+00  0.10566000000E+00 0. -1.
     999900   -1    0    0    0    0 -0.00000000000E+00 -0.00000000000E+00 -0.74505805969E-08  0.93827000000E+00  0.93827000000E+00 0.  1.
     999902    2    1    2    0    0  0.45777758212E-02 -0.13723178563E-01 -0.19087984183E-01  0.10199793674E+01  0.10196981304E+01 0.  0.
     999903    2    3    3    0    0 -0.20402849464E-01  0.12411031488E+00 -0.20563098702E-01  0.12889896727E+00  0.19299124564E-01 0.  0.
         14    1    1    2    0    0 -0.45777758212E-02  0.13723178563E-01  0.19087984183E-01  0.23950632591E-01  0.00000000000E+00 0. -1.
     999901    1    3    3    0    0  0.24980625285E-01 -0.13783349344E+00  0.14751145188E-02  0.89108040014E+00  0.88000000000E+00 0. -1.
        -11    1    4    4    0    0 -0.16637129767E-01  0.53787904597E-01 -0.14922685100E-01  0.58248437056E-01  0.51100000000E-03 0.  1.
         11    1    4    4    0    0 -0.37657196967E-02  0.70322410281E-01 -0.56404136018E-02  0.70650530211E-01  0.51100000000E-03 0. -1.
</event>
<event>
 8    1  0.1137518E+005  0.1043930E+01  0.7957747E-01            NaN
         13   -1    0    0    0    0  0.00000000000E+00  0.00000000000E+00  0.74505805969E-08  0.10566000000E+00  0.10566000000E+00 0. -1.
     999900   -1    0    0    0    0 -0.00000000000E+00 -0.00000000000E+00 -0.74505805969E-08  0.93827000000E+00  0.93827000000E+00 0.  1.
     999902    2    1    2    0    0 -0.25469713927E-02  0.13707758174E-01 -0.19888675358E-01  0.10196411321E+01  0.10193517985E+01 0.  0.
     999903    2    3    3    0    0  0.74274614674E-01  0.10373631230E+00 -0.24953543211E-01  0.13170400056E+00  0.21102691041E-01 0.  0.
         14    1    1    2    0    0  0.25469713927E-02 -0.13707758174E-01  0.19888675358E-01  0.24288867922E-01  0.00000000000E+00 0. -1.
     999901    1    3    3    0    0 -0.76821586067E-01 -0.90028554129E-01  0.50648678528E-02  0.88793713152E+00  0.88000000000E+00 0. -1.
        -11    1    4    4    0    0  0.56287201033E-01  0.87484042735E-01 -0.13545558326E-01  0.10490686348E+00  0.51100000000E-03 0.  1.
         11    1    4    4    0    0  0.17987413641E-01  0.16252269568E-01 -0.11407984884E-01  0.26797137081E-01  0.51100000000E-03 0. -1.
</event>
<event>
 8    1  0.1137518E+005  0.1043930E+01  0.7957747E-01            NaN
         13   -1    0    0    0    0  0.00000000000E+00  0.00000000000E+00  0.74505805969E-08  0.10566000000E+00  0.10566000000E+00 0.  1.
     999900   -1    0    0    0    0 -0.00000000000E+00 -0.00000000000E+00 -0.74505805969E-08  0.93827000000E+00  0.93827000000E+00 0. -1.
     999902    2    1    2    0    0  0.81876661981E-03 -0.26281409786E-01 -0.49004449527E-02  0.10171830892E+01  0.10168313723E+01 0.  0.
     999903    2    3    3    0    0 -0.91695687489E-01  0.72315482293E-01 -0.43004647765E-01  0.12604213419E+00  0.19989791839E-01 0.  0.
         14    1    1    2    0    0 -0.81876661981E-03  0.26281409786E-01  0.49004449527E-02  0.26746910847E-01  0.00000000000E+00 0. -1.
     999901    1    3    3    0    0  0.92514454108E-01 -0.98596892078E-01  0.38104202813E-01  0.89114095497E+00  0.88000000000E+00 0.  1.
        -11    1    4    4    0    0 -0.66532686990E-01  0.49020537614E-01 -0.20911921954E-01  0.85247763296E-01  0.51100000000E-03 0.  1.
         11    1    4    4    0    0 -0.25163000498E-01  0.23294944678E-01 -0.22092725811E-01  0.40794370891E-01  0.51100000000E-03 0. -1.
</event>
<event>
 8    1  0.1137518E+005  0.1043930E+01  0.7957747E-01            NaN
         13   -1    0    0    0    0  0.00000000000E+00  0.00000000000E+00  0.74505805969E-08  0.10566000000E+00  0.10566000000E+00 0.  1.
     999900   -1    0    0    0    0 -0.00000000000E+00 -0.00000000000E+00 -0.74505805969E-08  0.93827000000E+00  0.93827000000E+00 0. -1.
     999902    2    1    2    0    0  0.92145542879E-02  0.16762595342E-01  0.15283348833E-01  0.10194458548E+01  0.10191517932E+01 0.  0.
     999903    2    3    3    0    0  0.89318612394E-01 -0.59929620118E-01 -0.67668838815E-01  0.12861510689E+00  0.19834315861E-01 0.  0.
         14    1    1    2    0    0 -0.92145542879E-02 -0.16762595342E-01 -0.15283348833E-01  0.24484145174E-01  0.00000000000E+00 0. -1.
     999901    1    3    3    0    0 -0.80104058106E-01  0.76692215460E-01  0.82952187648E-01  0.89083074794E+00  0.88000000000E+00 0. -1.
        -11    1    4    4    0    0  0.40517021697E-01 -0.15529446676E-01 -0.27151534431E-01  0.51188472376E-01  0.51100000000E-03 0.  1.
         11    1    4    4    0    0  0.48801590697E-01 -0.44400173442E-01 -0.40517304384E-01  0.77426634511E-01  0.51100000000E-03 0. -1.
</event>
<event>
 8    1  0.1137518E+005  0.1043930E+01  0.7957747E-01            NaN
         13   -1    0    0    0    0  0.00000000000E+00  0.00000000000E+00  0.74505805969E-08  0.10566000000E+00  0.10566000000E+00 0. -1.
     999900   -1    0    0    0    0 -0.00000000000E+00 -0.00000000000E+00 -0.74505805969E-08  0.93827000000E+00  0.93827000000E+00 0.  1.
     999902    2    1    2    0    0  0.22930641370E-01 -0.24169563582E-02  0.37137800037E-02  0.10205751685E+01  0.10203079077E+01 0.  0.
     999903    2    3    3    0    0 -0.17539342302E-01  0.35251909524E-01  0.12305707733E+00  0.13080014883E+00  0.20379131491E-01 0.  0.
         14    1    1    2    0    0 -0.22930641370E-01  0.24169563582E-02 -0.37137800037E-02  0.23354831483E-01  0.00000000000E+00 0. -1.
     999901    1    3    3    0    0  0.40469983672E-01 -0.37668865882E-01 -0.11934329733E+00  0.88977501968E+00  0.88000000000E+00 0.  1.
        -11    1    4    4    0    0 -0.16537263853E-01  0.12744456348E-01  0.46072511598E-01  0.50584975134E-01  0.51100000000E-03 0. -1.
         11    1    4    4    0    0 -0.10020784493E-02  0.22507453176E-01  0.76984565732E-01  0.80215173700E-01  0.51100000000E-03 0.  1.
</event>
<event>
 8    1  0.1137518E+005  0.1043930E+01  0.7957747E-01            NaN
         13   -1    0    0    0    0  0.00000000000E+00  0.00000000000E+00  0.74505805969E-08  0.10566000000E+00  0.10566000000E+00 0. -1.
     999900   -1    0    0    0    0 -0.00000000000E+00 -0.00000000000E+00 -0.74505805969E-08  0.93827000000E+00  0.93827000000E+00 0.  1.
     999902    2    1    2    0    0  0.70011057455E-02  0.92462576740E-02 -0.21162752758E-01  0.10197976386E+01  0.10195120660E+01 0.  0.
     999903    2    3    3    0    0 -0.36182341853E-01  0.77453839673E-01 -0.99215511086E-01  0.13266218249E+00  0.21148945177E-01 0.  0.
         14    1    1    2    0    0 -0.70011057455E-02 -0.92462576740E-02  0.21162752758E-01  0.24132361404E-01  0.00000000000E+00 0. -1.
     999901    1    3    3    0    0  0.43183447599E-01 -0.68207581999E-01  0.78052758328E-01  0.88713545610E+00  0.88000000000E+00 0. -1.
        -11    1    4    4    0    0 -0.14854797603E-01  0.37607691791E-01 -0.62450456207E-01  0.74399758703E-01  0.51100000000E-03 0.  1.
         11    1    4    4    0    0 -0.21327544250E-01  0.39846147882E-01 -0.36765054880E-01  0.58262423792E-01  0.51100000000E-03 0. -1.
</event>
<event>
 8    1  0.1137518E+005  0.1043930E+01  0.7957747E-01            NaN
         13   -1    0    0    0    0  0.00000000000E+00  0.00000000000E+00  0.74505805969E-08  0.10566000000E+00  0.10566000000E+00 0. -1.
     999900   -1    0    0    0    0 -0.00000000000E+00 -0.00000000000E+00 -0.74505805969E-08  0.93827000000E+00  0.93827000000E+00 0.  1.
     999902    2    1    2    0    0  0.36696702775E-02 -0.18275656147E-02  0.23455176590E-01  0.10201192506E+01  0.10198413277E+01 0.  0.
     999903    2    3    3    0    0  0.30969055664E-01  0.11059671582E+00 -0.55304267717E-01  0.12905947399E+00  0.20175971844E-01 0.  0.
         14    1    1    2    0    0 -0.36696702775E-02  0.18275656147E-02 -0.23455176590E-01  0.23810749356E-01  0.00000000000E+00 0.  1.
     999901    1    3    3    0    0 -0.27299385386E-01 -0.11242428144E+00  0.78759444306E-01  0.89105977665E+00  0.88000000000E+00 0. -1.
        -11    1    4    4    0    0  0.51090086431E-02  0.23778464240E-01 -0.21184603342E-01  0.32257803253E-01  0.51100000000E-03 0.  1.
         11    1    4    4    0    0  0.25860047021E-01  0.86818251584E-01 -0.34119664374E-01  0.96801670740E-01  0.51100000000E-03 0. -1.
</event>
<event>
 8    1  0.1137518E+005  0.1043930E+01  0.7957747E-01            NaN
         13   -1    0    0    0    0  0.00000000000E+00  0.00000000000E+00  0.74505805969E-08  0.10566000000E+00  0.10566000000E+00 0.  1.
     999900   -1    0    0    0    0 -0.00000000000E+00 -0.00000000000E+00 -0.74505805969E-08  0.93827000000E+00  0.93827000000E+00 0. -1.
     999902    2    1    2    0    0  0.13552673796E-01  0.17461373638E-01  0.90304378857E-02  0.10200527442E+01  0.10197732481E+01 0.  0.
     999903    2    3    3    0    0 -0.62231308853E-01 -0.72590527047E-01 -0.82072022139E-01  0.12755500467E+00  0.19807624256E-01 0.  0.
         14    1    1    2    0    0 -0.13552673796E-01 -0.17461373638E-01 -0.90304378857E-02  0.23877255805E-01  0.00000000000E+00 0. -1.
     999901    1    3    3    0    0  0.75783982649E-01  0.90051900686E-01  0.91102460025E-01  0.89249773953E+00  0.88000000000E+00 0.  1.
        -11    1    4    4    0    0 -0.22761347087E-01 -0.16211915342E-01 -0.31733401399E-01  0.42286818343E-01  0.51100000000E-03 0.  1.
         11    1    4    4    0    0 -0.39469961767E-01 -0.56378611706E-01 -0.50338620740E-01  0.85268186323E-01  0.51100000000E-03 0. -1.
</event>
<event>
 8    1  0.1137518E+005  0.1043930E+01  0.7957747E-01            NaN
         13   -1    0    0    0    0  0.00000000000E+00  0.00000000000E+00  0.74505805969E-08  0.10566000000E+00  0.10566000000E+00 0.  1.
     999900   -1    0    0    0    0 -0.00000000000E+00 -0.00000000000E+00 -0.74505805969E-08  0.93827000000E+00  0.93827000000E+00 0. -1.
     999902    2    1    2    0    0 -0.51582715651E-02 -0.17641467085E-01 -0.13418127158E-01  0.10211731271E+01  0.10209195269E+01 0.  0.
     999903    2    3    3    0    0  0.40568458461E-01 -0.15688928449E-01  0.12010180240E+00  0.12992550843E+00  0.23753999714E-01 0.  0.
         14    1    1    2    0    0  0.51582715651E-02  0.17641467085E-01  0.13418127158E-01  0.22756872872E-01  0.00000000000E+00 0.  1.
     999901    1    3    3    0    0 -0.45726730026E-01 -0.19525386359E-02 -0.13351992956E+00  0.89124761870E+00  0.88000000000E+00 0. -1.
        -11    1    4    4    0    0  0.84443023493E-02 -0.11483001159E-01  0.18996171526E-01  0.23754604005E-01  0.51100000000E-03 0.  1.
         11    1    4    4    0    0  0.32124156111E-01 -0.42059272903E-02  0.10110563088E+00  0.10617090443E+00  0.51100000000E-03 0. -1.
</event>
<event>
 8    1  0.1137518E+005  0.1043930E+01  0.7957747E-01            NaN
         13   -1    0    0    0    0  0.00000000000E+00  0.00000000000E+00  0.74505805969E-08  0.10566000000E+00  0.10566000000E+00 0. -1.
     999900   -1    0    0    0    0 -0.00000000000E+00 -0.00000000000E+00 -0.74505805969E-08  0.93827000000E+00  0.93827000000E+00 0.  1.
     999902    2    1    2    0    0  0.19317217784E-02 -0.18019387811E-01 -0.31075668474E-02  0.10255428616E+01  0.10253780153E+01 0.  0.
     999903    2    3    3    0    0 -0.10957855488E+00 -0.76903323598E-01  0.16081692048E-01  0.13634654620E+00  0.20252875628E-01 0.  0.
         14    1    1    2    0    0 -0.19317217784E-02  0.18019387811E-01  0.31075668474E-02  0.18387138380E-01  0.00000000000E+00 0. -1.
     999901    1    3    3    0    0  0.11151027666E+00  0.58883935787E-01 -0.19189258896E-01  0.88919631542E+00  0.88000000000E+00 0.  1.
        -11    1    4    4    0    0 -0.64814371543E-01 -0.42790605417E-01 -0.51028678062E-03  0.77668913885E-01  0.51100000000E-03 0.  1.
         11    1    4    4    0    0 -0.44764183342E-01 -0.34112718181E-01  0.16591978829E-01  0.58677632317E-01  0.51100000000E-03 0. -1.
</event>
<event>
 8    1  0.1137518E+005  0.1043930E+01  0.7957747E-01            NaN
         13   -1    0    0    0    0  0.00000000000E+00  0.00000000000E+00  0.74505805969E-08  0.10566000000E+00  0.10566000000E+00 0.  1.
     999900   -1    0    0    0    0 -0.00000000000E+00 -0.00000000000E+00 -0.74505805969E-08  0.93827000000E+00  0.93827000000E+00 0.  1.
     999902    2    1    2    0    0 -0.88129720452E-02 -0.17240625807E-01  0.21384662348E-01  0.10150819249E+01  0.10146719188E+01 0.  0.
     999903    2    3    3    0    0 -0.51743414917E-01 -0.81804156598E-01 -0.78395523294E-01  0.12605573973E+00  0.19362087236E-01 0.  0.
         14    1    1    2    0    0  0.88129720452E-02  0.17240625807E-01 -0.21384662348E-01  0.28848075122E-01  0.00000000000E+00 0. -1.
     999901    1    3    3    0    0  0.42930442872E-01  0.64563530790E-01  0.99780185642E-01  0.88902618515E+00  0.88000000000E+00 0. -1.
        -11    1    4    4    0    0 -0.11224008574E-01 -0.33359772332E-01 -0.33247514826E-01  0.48420152226E-01  0.51100000000E-03 0.  1.
         11    1    4    4    0    0 -0.40519406343E-01 -0.48444384266E-01 -0.45148008468E-01  0.77635587503E-01  0.51100000000E-03 0. -1.
</event>
<event>
 8    1  0.1137518E+005  0.1043930E+01  0.7957747E-01            NaN
         13   -1    0    0    0    0  0.00000000000E+00  0.00000000000E+00  0.74505805969E-08  0.10566000000E+00  0.10566000000E+00 0.  1.
     999900   -1    0    0    0    0 -0.00000000000E+00 -0.00000000000E+00 -0.74505805969E-08  0.93827000000E+00  0.93827000000E+00 0. -1.
     999902    2    1    2    0    0  0.25828286340E-01 -0.17231835425E-01  0.99773110055E-03  0.10128650359E+01  0.10123885366E+01 0.  0.
     999903    2    3    3    0    0 -0.84325872455E-02  0.88303657431E-02  0.12149152625E+00  0.12361152848E+00  0.19249289223E-01 0.  0.
         14    1    1    2    0    0 -0.25828286340E-01  0.17231835425E-01 -0.99773110055E-03  0.31064964103E-01  0.00000000000E+00 0.  1.
     999901    1    3    3    0    0  0.34260873586E-01 -0.26062201168E-01 -0.12049379515E+00  0.88925350742E+00  0.88000000000E+00 0. -1.
        -11    1    4    4    0    0  0.45048097828E-02  0.71478713374E-02  0.29234896308E-01  0.30435598548E-01  0.51100000000E-03 0.  1.
         11    1    4    4    0    0 -0.12937397028E-01  0.16824944057E-02  0.92256629941E-01  0.93175929930E-01  0.51100000000E-03 0. -1.
</event>
<event>
 8    1  0.1137518E+005  0.1043930E+01  0.7957747E-01            NaN
         13   -1    0    0    0    0  0.00000000000E+00  0.00000000000E+00  0.74505805969E-08  0.10566000000E+00  0.10566000000E+00 0. -1.
     999900   -1    0    0    0    0 -0.00000000000E+00 -0.00000000000E+00 -0.74505805969E-08  0.93827000000E+00  0.93827000000E+00 0.  1.
     999902    2    1    2    0    0  0.83421040593E-04 -0.14685560005E-02 -0.23282797002E-01  0.10206007854E+01  0.10203341173E+01 0.  0.
     999903    2    3    3    0    0  0.95202103939E-01  0.80017795753E-01 -0.37914773793E-01  0.13161164934E+00  0.20440350739E-01 0.  0.
         14    1    1    2    0    0 -0.83421040593E-04  0.14685560005E-02  0.23282797002E-01  0.23329214561E-01  0.00000000000E+00 0. -1.
     999901    1    3    3    0    0 -0.95118682898E-01 -0.81486351754E-01  0.14631976791E-01  0.88898913610E+00  0.88000000000E+00 0. -1.
        -11    1    4    4    0    0  0.50323705620E-01  0.40969370682E-01 -0.91631330260E-02  0.65537689990E-01  0.51100000000E-03 0. -1.
         11    1    4    4    0    0  0.44878398319E-01  0.39048425072E-01 -0.28751640767E-01  0.66073959349E-01  0.51100000000E-03 0.  1.
</event>
<event>
 8    1  0.1137518E+005  0.1043930E+01  0.7957747E-01            NaN
         13   -1    0    0    0    0  0.00000000000E+00  0.00000000000E+00  0.74505805969E-08  0.10566000000E+00  0.10566000000E+00 0. -1.
     999900   -1    0    0    0    0 -0.00000000000E+00 -0.00000000000E+00 -0.74505805969E-08  0.93827000000E+00  0.93827000000E+00 0.  1.
     999902    2    1    2    0    0 -0.13764902221E-01 -0.13328650483E-01  0.10318222961E-01  0.10221678498E+01  0.10219361633E+01 0.  0.
     999903    2    3    3    0    0 -0.46425754989E-01 -0.67696987145E-01  0.10502234869E+00  0.13481700668E+00  0.20191551929E-01 0.  0.
         14    1    1    2    0    0  0.13764902221E-01  0.13328650483E-01 -0.10318222961E-01  0.21762150214E-01  0.00000000000E+00 0.  1.
     999901    1    3    3    0    0  0.32660852768E-01  0.54368336662E-01 -0.94704125734E-01  0.88735084311E+00  0.88000000000E+00 0.  1.
        -11    1    4    4    0    0 -0.27918546830E-01 -0.53682676551E-01  0.67138233850E-01  0.90382955164E-01  0.51100000000E-03 0.  1.
         11    1    4    4    0    0 -0.18507208160E-01 -0.14014310594E-01  0.37884114845E-01  0.44434051513E-01  0.51100000000E-03 0. -1.
</event>
<event>
 8    1  0.1137518E+005  0.1043930E+01  0.7957747E-01            NaN
         13   -1    0    0    0    0  0.00000000000E+00  0.00000000000E+00  0.74505805969E-08  0.10566000000E+00  0.10566000000E+00 0. -1.
     999900   -1    0    0    0    0 -0.00000000000E+00 -0.00000000000E+00 -0.74505805969E-08  0.93827000000E+00  0.93827000000E+00 0.  1.
     999902    2    1    2    0    0  0.18629802206E-01  0.45762374478E-02  0.91852337393E-02  0.10226607734E+01  0.10224395716E+01 0.  0.
     999903    2    3    3    0    0  0.21120876043E-01 -0.67878551790E-01  0.11159190283E+00  0.13376087593E+00  0.19637462987E-01 0.  0.
         14    1    1    2    0    0 -0.18629802206E-01 -0.45762374478E-02 -0.91852337393E-02  0.21269226555E-01  0.00000000000E+00 0.  1.
     999901    1    3    3    0    0 -0.24910738370E-02  0.72454789238E-01 -0.10240666909E+00  0.88889989752E+00  0.88000000000E+00 0.  1.
        -11    1    4    4    0    0  0.23167600020E-01 -0.47711301229E-01  0.86918195000E-01  0.10182406247E+00  0.51100000000E-03 0.  1.
         11    1    4    4    0    0 -0.20467239767E-02 -0.20167250561E-01  0.24673707834E-01  0.31936813452E-01  0.51100000000E-03 0. -1.
</event>
<event>
 8    1  0.1137518E+005  0.1043930E+01  0.7957747E-01            NaN
         13   -1    0    0    0    0  0.00000000000E+00  0.00000000000E+00  0.74505805969E-08  0.10566000000E+00  0.10566000000E+00 0. -1.
     999900   -1    0    0    0    0 -0.00000000000E+00 -0.00000000000E+00 -0.74505805969E-08  0.93827000000E+00  0.93827000000E+00 0. -1.
     999902    2    1    2    0    0  0.14787437487E-01  0.10259398245E-01 -0.19522182978E-01  0.10173774260E+01  0.10170308686E+01 0.  0.
     999903    2    3    3    0    0 -0.83737062523E-01  0.31533660852E-01  0.85628389315E-01  0.12540415607E+00  0.19690451896E-01 0.  0.
         14    1    1    2    0    0 -0.14787437487E-01 -0.10259398245E-01  0.19522182978E-01  0.26552574037E-01  0.00000000000E+00 0. -1.
     999901    1    3    3    0    0  0.98524500010E-01 -0.21274262607E-01 -0.10515057229E+00  0.89197326989E+00  0.88000000000E+00 0. -1.
        -11    1    4    4    0    0 -0.35838506809E-01  0.37850027035E-02  0.38045408476E-01  0.52406479016E-01  0.51100000000E-03 0.  1.
         11    1    4    4    0    0 -0.47898555714E-01  0.27748658149E-01  0.47582980839E-01  0.72997677053E-01  0.51100000000E-03 0. -1.
</event>
<event>
 8    1  0.1137518E+005  0.1043930E+01  0.7957747E-01            NaN
         13   -1    0    0    0    0  0.00000000000E+00  0.00000000000E+00  0.74505805969E-08  0.10566000000E+00  0.10566000000E+00 0. -1.
     999900   -1    0    0    0    0 -0.00000000000E+00 -0.00000000000E+00 -0.74505805969E-08  0.93827000000E+00  0.93827000000E+00 0. -1.
     999902    2    1    2    0    0 -0.46725993687E-02  0.18550925607E-01  0.14649753365E-01  0.10198346623E+01  0.10195499758E+01 0.  0.
     999903    2    3    3    0    0 -0.44167410054E-01  0.77177048237E-02  0.12377526438E+00  0.13214914596E+00  0.11522049659E-01 0.  0.
         14    1    1    2    0    0  0.46725993687E-02 -0.18550925607E-01 -0.14649753365E-01  0.24095337711E-01  0.00000000000E+00 0.  1.
     999901    1    3    3    0    0  0.39494810685E-01  0.10833220784E-01 -0.10912551101E+00  0.88768551633E+00  0.88000000000E+00 0. -1.
        -11    1    4    4    0    0 -0.93075699510E-02 -0.14165163321E-02  0.37103940321E-01  0.38283167127E-01  0.51100000000E-03 0.  1.
         11    1    4    4    0    0 -0.34859840103E-01  0.91342211557E-02  0.86671324056E-01  0.93865978835E-01  0.51100000000E-03 0. -1.
</event>
<event>
 7    1  0.1137518E+005  0.1043930E+01  0.7957747E-01            NaN
         13   -1    0    0    0    0  0.00000000000E+00  0.00000000000E+00  0.74505805969E-08  0.10566000000E+00  0.10566000000E+00 0. -1.
     999900   -1    0    0    0    0 -0.00000000000E+00 -0.00000000000E+00 -0.74505805969E-08  0.93827000000E+00  0.93827000000E+00 0.  1.
     999902    2    1    2    0    0 -0.16791221917E-01 -0.18383369452E-01  0.95269361451E-03  0.10190141209E+01  0.10187094667E+01 0.  0.
         14    1    1    2    0    0  0.16791221917E-01  0.18383369452E-01 -0.95269361451E-03  0.24915879093E-01  0.00000000000E+00 0. -1.
     999901    1    3    3    0    0  0.97749679012E-03 -0.10779260302E+00 -0.79562865197E-01  0.89014069129E+00  0.88000000000E+00 0. -1.
        -11    1    3    3    0    0  0.78990147199E-02  0.44937460592E-01  0.20889929089E-01  0.50183862509E-01  0.51100000000E-03 0.  1.
         11    1    3    3    0    0 -0.25667733427E-01  0.44471772981E-01  0.59625629722E-01  0.78689567111E-01  0.51100000000E-03 0. -1.
</event>
<event>
 8    1  0.1137518E+005  0.1043930E+01  0.7957747E-01            NaN
         13   -1    0    0    0    0  0.00000000000E+00  0.00000000000E+00  0.74505805969E-08  0.10566000000E+00  0.10566000000E+00 0.  1.
     999900   -1    0    0    0    0 -0.00000000000E+00 -0.00000000000E+00 -0.74505805969E-08  0.93827000000E+00  0.93827000000E+00 0. -1.
     999902    2    1    2    0    0 -0.56289015529E-02  0.17921154685E-02 -0.22996928095E-01  0.10201864764E+01  0.10199101391E+01 0.  0.
     999903    2    3    3    0    0  0.26598384301E-02  0.22117017915E-02 -0.13182022091E+00  0.13344446865E+00  0.20466783031E-01 0.  0.
         14    1    1    2    0    0  0.56289015529E-02 -0.17921154685E-02  0.22996928095E-01  0.23743523588E-01  0.00000000000E+00 0.  1.
     999901    1    3    3    0    0 -0.82887399830E-02 -0.41958632302E-03  0.10882329282E+00  0.88674200776E+00  0.88000000000E+00 0.  1.
        -11    1    4    4    0    0 -0.61321569191E-02  0.79336274368E-02 -0.54895473060E-01  0.55806091749E-01  0.51100000000E-03 0.  1.
         11    1    4    4    0    0  0.87919953492E-02 -0.57219256452E-02 -0.76924747853E-01  0.77638376906E-01  0.51100000000E-03 0. -1.
</event>
<event>
 8    1  0.1137518E+005  0.1043930E+01  0.7957747E-01            NaN
         13   -1    0    0    0    0  0.00000000000E+00  0.00000000000E+00  0.74505805969E-08  0.10566000000E+00  0.10566000000E+00 0. -1.
     999900   -1    0    0    0    0 -0.00000000000E+00 -0.00000000000E+00 -0.74505805969E-08  0.93827000000E+00  0.93827000000E+00 0. -1.
     999902    2    1    2    0    0  0.19024763584E-01 -0.54239006207E-04  0.14850038639E-01  0.10197956216E+01  0.10195100008E+01 0.  0.
     999903    2    3    3    0    0 -0.35203747025E-01  0.11551611769E+00 -0.40817623834E-01  0.12884325066E+00  0.18741066504E-01 0.  0.
         14    1    1    2    0    0 -0.19024763584E-01  0.54239006207E-04 -0.14850038639E-01  0.24134378361E-01  0.00000000000E+00 0. -1.
     999901    1    3    3    0    0  0.54228510609E-01 -0.11557035670E+00  0.55667662473E-01  0.89095237098E+00  0.88000000000E+00 0.  1.
        -11    1    4    4    0    0 -0.21179851045E-01  0.39745180500E-01 -0.12451077960E-01  0.46728534395E-01  0.51100000000E-03 0.  1.
         11    1    4    4    0    0 -0.14023895980E-01  0.75770937191E-01 -0.28366545875E-01  0.82114716264E-01  0.51100000000E-03 0. -1.
</event>
<event>
 8    1  0.1137518E+005  0.1043930E+01  0.7957747E-01            NaN
         13   -1    0    0    0    0  0.00000000000E+00  0.00000000000E+00  0.74505805969E-08  0.10566000000E+00  0.10566000000E+00 0.  1.
     999900   -1    0    0    0    0 -0.00000000000E+00 -0.00000000000E+00 -0.74505805969E-08  0.93827000000E+00  0.93827000000E+00 0.  1.
     999902    2    1    2    0    0 -0.81287291454E-02  0.15093161644E-02 -0.21554943194E-01  0.10208438602E+01  0.10205827831E+01 0.  0.
     999903    2    3    3    0    0 -0.11917047822E+00 -0.67367046458E-03 -0.55665315494E-01  0.13320736203E+00  0.21059848966E-01 0.  0.
         14    1    1    2    0    0  0.81287291454E-02 -0.15093161644E-02  0.21554943194E-01  0.23086139757E-01  0.00000000000E+00 0.  1.
     999901    1    3    3    0    0  0.11104174907E+00  0.21829866289E-02  0.34110372300E-01  0.88763649822E+00  0.88000000000E+00 0. -1.
        -11    1    4    4    0    0 -0.78637572305E-01  0.69133306222E-02 -0.43871505571E-01  0.90314074431E-01  0.51100000000E-03 0.  1.
         11    1    4    4    0    0 -0.40532905912E-01 -0.75870010867E-02 -0.11793809923E-01  0.42893287595E-01  0.51100000000E-03 0. -1.
</event>
<event>
 8    1  0.1137518E+005  0.1043930E+01  0.7957747E-01            NaN
         13   -1    0    0    0    0  0.00000000000E+00  0.00000000000E+00  0.74505805969E-08  0.10566000000E+00  0.10566000000E+00 0. -1.
     999900   -1    0    0    0    0 -0.00000000000E+00 -0.00000000000E+00 -0.74505805969E-08  0.93827000000E+00  0.93827000000E+00 0. -1.
     999902    2    1    2    0    0  0.78065292931E-02 -0.22787351370E-02  0.22066298340E-01  0.10204128561E+01  0.10201418239E+01 0.  0.
     999903    2    3    3    0    0 -0.54704206813E-02 -0.10579487618E+00  0.77113203481E-01  0.13253784768E+00  0.19933729942E-01 0.  0.
         14    1    1    2    0    0 -0.78065292931E-02  0.22787351370E-02 -0.22066298340E-01  0.23517143872E-01  0.00000000000E+00 0.  1.
     999901    1    3    3    0    0  0.13276949974E-01  0.10351614104E+00 -0.55046905140E-01  0.88787500845E+00  0.88000000000E+00 0.  1.
        -11    1    4    4    0    0 -0.76377640864E-02 -0.92192546447E-01  0.58792494651E-01  0.10961122027E+00  0.51100000000E-03 0.  1.
         11    1    4    4    0    0  0.21673434050E-02 -0.13602329731E-01  0.18320708830E-01  0.22926627414E-01  0.51100000000E-03 0. -1.
</event>
<event>
 8    1  0.1137518E+005  0.1043930E+01  0.7957747E-01            NaN
         13   -1    0    0    0    0  0.00000000000E+00  0.00000000000E+00  0.74505805969E-08  0.10566000000E+00  0.10566000000E+00 0. -1.
     999900   -1    0    0    0    0 -0.00000000000E+00 -0.00000000000E+00 -0.74505805969E-08  0.93827000000E+00  0.93827000000E+00 0. -1.
     999902    2    1    2    0    0  0.11916317137E-01 -0.17463636823E-01  0.86177924490E-02  0.10210992407E+01  0.10208439723E+01 0.  0.
     999903    2    3    3    0    0  0.32130730125E-01 -0.91985020471E-01  0.89814444724E-01  0.13399442417E+00  0.19855563876E-01 0.  0.
         14    1    1    2    0    0 -0.11916317137E-01  0.17463636823E-01 -0.86177924490E-02  0.22830759337E-01  0.00000000000E+00 0.  1.
     999901    1    3    3    0    0 -0.20214412988E-01  0.74521383648E-01 -0.81196652275E-01  0.88710481650E+00  0.88000000000E+00 0. -1.
        -11    1    4    4    0    0  0.72987792162E-02 -0.50922904961E-01  0.45992690443E-01  0.69007268624E-01  0.51100000000E-03 0. -1.
         11    1    4    4    0    0  0.24831950909E-01 -0.41062115510E-01  0.43821754281E-01  0.64987155541E-01  0.51100000000E-03 0.  1.
</event>
<event>
 8    1  0.1468682E+005  0.1043930E+01  0.7957747E-01            NaN
         13   -1    0    0    0    0  0.00000000000E+00  0.00000000000E+00  0.74505805969E-08  0.10566000000E+00  0.10566000000E+00 0.  1.
     999900   -1    0    0    0    0 -0.00000000000E+00 -0.00000000000E+00 -0.74505805969E-08  0.93827000000E+00  0.93827000000E+00 0.  1.
     999902    2    1    2    0    0 -0.30682101477E-01 -0.15198291682E-01 -0.78020449053E-02  0.10088123217E+01  0.10082008972E+01 0.  0.
     999903    2    3    3    0    0  0.20659924707E-01 -0.12203955425E-03 -0.11707584518E+00  0.12044074383E+00  0.19296939328E-01 0.  0.
         14    1    1    2    0    0  0.30682101477E-01  0.15198291682E-01  0.78020449053E-02  0.35117678252E-01  0.00000000000E+00 0. -1.
     999901    1    3    3    0    0 -0.51342026185E-01 -0.15076252128E-01  0.10927380027E+00  0.88837157792E+00  0.88000000000E+00 0. -1.
        -11    1    4    4    0    0  0.70456898722E-02 -0.94080033578E-02 -0.46644370714E-01  0.48105204638E-01  0.51100000000E-03 0. -1.
         11    1    4    4    0    0  0.13614234835E-01  0.92859638036E-02 -0.70431474462E-01  0.72335539189E-01  0.51100000000E-03 0.  1.
</event>
<event>
 8    1  0.1137518E+005  0.1043930E+01  0.7957747E-01            NaN
         13   -1    0    0    0    0  0.00000000000E+00  0.00000000000E+00  0.74505805969E-08  0.10566000000E+00  0.10566000000E+00 0. -1.
     999900   -1    0    0    0    0 -0.00000000000E+00 -0.00000000000E+00 -0.74505805969E-08  0.93827000000E+00  0.93827000000E+00 0. -1.
     999902    2    1    2    0    0  0.13115877289E-01 -0.15148405437E-01 -0.12283076055E-01  0.10204273537E+01  0.10201566595E+01 0.  0.
     999903    2    3    3    0    0  0.13264329986E-01  0.12043069544E+00 -0.40441606501E-01  0.12959930216E+00  0.21930816856E-01 0.  0.
         14    1    1    2    0    0 -0.13115877289E-01  0.15148405437E-01  0.12283076055E-01  0.23502646271E-01  0.00000000000E+00 0. -1.
     999901    1    3    3    0    0 -0.14845269721E-03 -0.13557910088E+00  0.28158530446E-01  0.89082805157E+00  0.88000000000E+00 0.  1.
        -11    1    4    4    0    0 -0.19925668697E-02  0.72385353754E-01 -0.28280931965E-01  0.77741121645E-01  0.51100000000E-03 0.  1.
         11    1    4    4    0    0  0.15256896856E-01  0.48045341689E-01 -0.12160674536E-01  0.51858180511E-01  0.51100000000E-03 0. -1.
</event>
<event>
 8    1  0.1137518E+005  0.1043930E+01  0.7957747E-01            NaN
         13   -1    0    0    0    0  0.00000000000E+00  0.00000000000E+00  0.74505805969E-08  0.10566000000E+00  0.10566000000E+00 0.  1.
     999900   -1    0    0    0    0 -0.00000000000E+00 -0.00000000000E+00 -0.74505805969E-08  0.93827000000E+00  0.93827000000E+00 0.  1.
     999902    2    1    2    0    0 -0.19426591145E-01  0.63775984073E-02 -0.11496519769E-01  0.10204728865E+01  0.10202032523E+01 0.  0.
     999903    2    3    3    0    0  0.88248969062E-02 -0.78696780123E-01  0.99633971088E-01  0.12896529686E+00  0.20834048879E-01 0.  0.
         14    1    1    2    0    0  0.19426591145E-01 -0.63775984073E-02  0.11496519769E-01  0.23457113458E-01  0.00000000000E+00 0. -1.
     999901    1    3    3    0    0 -0.28251488051E-01  0.85074378530E-01 -0.11113049086E+00  0.89150758968E+00  0.88000000000E+00 0. -1.
        -11    1    4    4    0    0  0.26418596908E-02 -0.54163053259E-01  0.52563397182E-01  0.75523424216E-01  0.51100000000E-03 0. -1.
         11    1    4    4    0    0  0.61830372154E-02 -0.24533726864E-01  0.47070573906E-01  0.53441872646E-01  0.51100000000E-03 0.  1.
</event>
<event>
 8    1  0.1137518E+005  0.1043930E+01  0.7957747E-01            NaN
         13   -1    0    0    0    0  0.00000000000E+00  0.00000000000E+00  0.74505805969E-08  0.10566000000E+00  0.10566000000E+00 0. -1.
     999900   -1    0    0    0    0 -0.00000000000E+00 -0.00000000000E+00 -0.74505805969E-08  0.93827000000E+00  0.93827000000E+00 0. -1.
     999902    2    1    2    0    0  0.36252577884E-02  0.21806085529E-01 -0.53825317497E-02  0.10211787471E+01  0.10209252735E+01 0.  0.
     999903    2    3    3    0    0 -0.81763809921E-01 -0.77659443684E-01 -0.60944471597E-01  0.12973507892E+00  0.20016300333E-01 0.  0.
         14    1    1    2    0    0 -0.36252577884E-02 -0.21806085529E-01  0.53825317497E-02  0.22751252892E-01  0.00000000000E+00 0.  1.
     999901    1    3    3    0    0  0.85389067709E-01  0.99465529213E-01  0.55561939848E-01  0.89144366818E+00  0.88000000000E+00 0.  1.
        -11    1    4    4    0    0 -0.45986327972E-01 -0.31550143894E-01 -0.35160757817E-01  0.65929461937E-01  0.51100000000E-03 0. -1.
         11    1    4    4    0    0 -0.35777481949E-01 -0.46109299790E-01 -0.25783713781E-01  0.63805616987E-01  0.51100000000E-03 0.  1.
</event>
<event>
 8    1  0.1137518E+005  0.1043930E+01  0.7957747E-01            NaN
         13   -1    0    0    0    0  0.00000000000E+00  0.00000000000E+00  0.74505805969E-08  0.10566000000E+00  0.10566000000E+00 0.  1.
     999900   -1    0    0    0    0 -0.00000000000E+00 -0.00000000000E+00 -0.74505805969E-08  0.93827000000E+00  0.93827000000E+00 0. -1.
     999902    2    1    2    0    0  0.19020800801E-01  0.20296622706E-02  0.14983910045E-01  0.10196312767E+01  0.10193417055E+01 0.  0.
     999903    2    3    3    0    0  0.34068838167E-01 -0.55138291287E-01 -0.10963176467E+00  0.12888794405E+00  0.19800540317E-01 0.  0.
         14    1    1    2    0    0 -0.19020800801E-01 -0.20296622706E-02 -0.14983910045E-01  0.24298723264E-01  0.00000000000E+00 0.  1.
     999901    1    3    3    0    0 -0.15048037366E-01  0.57167953557E-01  0.12461567471E+00  0.89074333269E+00  0.88000000000E+00 0.  1.
        -11    1    4    4    0    0  0.27555052722E-02 -0.94915518254E-02 -0.32318374888E-01  0.33799716593E-01  0.51100000000E-03 0. -1.
         11    1    4    4    0    0  0.31313332895E-01 -0.45646739461E-01 -0.77313389780E-01  0.95088227456E-01  0.51100000000E-03 0.  1.
</event>
<event>
 8    1  0.1137518E+005  0.1043930E+01  0.7957747E-01            NaN
         13   -1    0    0    0    0  0.00000000000E+00  0.00000000000E+00  0.74505805969E-08  0.10566000000E+00  0.10566000000E+00 0. -1.
     999900   -1    0    0    0    0 -0.00000000000E+00 -0.00000000000E+00 -0.74505805969E-08  0.93827000000E+00  0.93827000000E+00 0. -1.
     999902    2    1    2    0    0  0.21558409089E-01  0.14342706090E-02  0.21618698048E-02  0.10222160456E+01  0.10219853952E+01 0.  0.
     999903    2    3    3    0    0  0.61945826996E-01  0.66089612519E-01 -0.95963860545E-01  0.13348655035E+00  0.20111544680E-01 0.  0.
         14    1    1    2    0    0 -0.21558409089E-01 -0.14342706090E-02 -0.21618698048E-02  0.21713954400E-01  0.00000000000E+00 0. -1.
     999901    1    3    3    0    0 -0.40387417907E-01 -0.64655341910E-01  0.98125730350E-01  0.88872949525E+00  0.88000000000E+00 0.  1.
        -11    1    4    4    0    0  0.59695673175E-01  0.59936542610E-01 -0.80898757035E-01  0.11705055552E+00  0.51100000000E-03 0.  1.
         11    1    4    4    0    0  0.22501538215E-02  0.61530699092E-02 -0.15065103511E-01  0.16435994838E-01  0.51100000000E-03 0. -1.
</event>
<event>
 7    1  0.1137518E+005  0.1043930E+01  0.7957747E-01            NaN
         13   -1    0    0    0    0  0.00000000000E+00  0.00000000000E+00  0.74505805969E-08  0.10566000000E+00  0.10566000000E+00 0.  1.
     999900   -1    0    0    0    0 -0.00000000000E+00 -0.00000000000E+00 -0.74505805969E-08  0.93827000000E+00  0.93827000000E+00 0.  1.
     999903    2    1    2    0    0 -0.61241008979E-01  0.22779579268E-01  0.16461571867E-01  0.71389249743E-01  0.23581162356E-01 0.  0.
         14    1    1    2    0    0 -0.23098908810E-01  0.72869438990E-01 -0.32839369185E-01  0.83198190457E-01  0.00000000000E+00 0.  1.
     999901    1    1    2    0    0  0.84339917789E-01 -0.95649018258E-01  0.16377797317E-01  0.88934255980E+00  0.88000000000E+00 0.  1.
        -11    1    3    3    0    0 -0.69731143184E-02  0.11187625552E-01 -0.95132163092E-03  0.13226995979E-01  0.51100000000E-03 0. -1.
         11    1    3    3    0    0 -0.54267894661E-01  0.11591953717E-01  0.17412893498E-01  0.58162253764E-01  0.51100000000E-03 0.  1.
</event>
<event>
 8    1  0.1137518E+005  0.1043930E+01  0.7957747E-01            NaN
         13   -1    0    0    0    0  0.00000000000E+00  0.00000000000E+00  0.74505805969E-08  0.10566000000E+00  0.10566000000E+00 0. -1.
     999900   -1    0    0    0    0 -0.00000000000E+00 -0.00000000000E+00 -0.74505805969E-08  0.93827000000E+00  0.93827000000E+00 0. -1.
     999902    2    1    2    0    0 -0.72561114374E-02 -0.32657997279E-02 -0.29809670617E-01  0.10130765875E+01  0.10126066556E+01 0.  0.
     999903    2    3    3    0    0 -0.43029098348E-01 -0.78220387146E-01  0.80795384025E-01  0.12227280726E+00  0.21279404248E-01 0.  0.
         14    1    1    2    0    0  0.72561114374E-02  0.32657997279E-02  0.29809670617E-01  0.30853412507E-01  0.00000000000E+00 0. -1.
     999901    1    3    3    0    0  0.35772986911E-01  0.74954587418E-01 -0.11060505464E+00  0.89080378023E+00  0.88000000000E+00 0. -1.
        -11    1    4    4    0    0 -0.27413357358E-01 -0.65975554838E-01  0.68148741124E-01  0.98735900439E-01  0.51100000000E-03 0.  1.
         11    1    4    4    0    0 -0.15615740991E-01 -0.12244832307E-01  0.12646642902E-01  0.23536906819E-01  0.51100000000E-03 0. -1.
</event>
<event>
 8    1  0.1137518E+005  0.1043930E+01  0.7957747E-01            NaN
         13   -1    0    0    0    0  0.00000000000E+00  0.00000000000E+00  0.74505805969E-08  0.10566000000E+00  0.10566000000E+00 0.  1.
     999900   -1    0    0    0    0 -0.00000000000E+00 -0.00000000000E+00 -0.74505805969E-08  0.93827000000E+00  0.93827000000E+00 0. -1.
     999902    2    1    2    0    0  0.32971798220E-02 -0.59726089016E-02 -0.22571859988E-01  0.10203496625E+01  0.10200771547E+01 0.  0.
     999903    2    3    3    0    0 -0.74612842367E-01 -0.10340710650E+00 -0.24753808525E-01  0.13154810213E+00  0.20785721447E-01 0.  0.
         14    1    1    2    0    0 -0.32971798220E-02  0.59726089016E-02  0.22571859988E-01  0.23580337470E-01  0.00000000000E+00 0.  1.
     999901    1    3    3    0    0  0.77910022189E-01  0.97434497595E-01  0.21819485371E-02  0.88880156041E+00  0.88000000000E+00 0. -1.
        -11    1    4    4    0    0 -0.22824206993E-01 -0.20822808883E-01  0.29256281885E-03  0.30901140895E-01  0.51100000000E-03 0. -1.
         11    1    4    4    0    0 -0.51788635374E-01 -0.82584297614E-01 -0.25046371344E-01  0.10064696123E+00  0.51100000000E-03 0.  1.
</event>
<event>
 8    1  0.1137518E+005  0.1043930E+01  0.7957747E-01            NaN
         13   -1    0    0    0    0  0.00000000000E+00  0.00000000000E+00  0.74505805969E-08  0.10566000000E+00  0.10566000000E+00 0.  1.
     999900   -1    0    0    0    0 -0.00000000000E+00 -0.00000000000E+00 -0.74505805969E-08  0.93827000000E+00  0.93827000000E+00 0.  1.
     999902    2    1    2    0    0  0.73069582374E-02 -0.85242893037E-02 -0.20487861738E-01  0.10205674739E+01  0.10203000349E+01 0.  0.
     999903    2    3    3    0    0  0.84416796951E-01  0.33346031736E-01  0.90129486450E-01  0.12931260086E+00  0.18980805394E-01 0.  0.
         14    1    1    2    0    0 -0.73069582374E-02  0.85242893037E-02  0.20487861738E-01  0.23362526092E-01  0.00000000000E+00 0.  1.
     999901    1    3    3    0    0 -0.77109838714E-01 -0.41870321040E-01 -0.11061734819E+00  0.89125487305E+00  0.88000000000E+00 0.  1.
        -11    1    4    4    0    0  0.34072777968E-01  0.10590716261E-01  0.48108357545E-01  0.59898185749E-01  0.51100000000E-03 0. -1.
         11    1    4    4    0    0  0.50344018983E-01  0.22755315475E-01  0.42021128906E-01  0.69414415111E-01  0.51100000000E-03 0.  1.
</event>
<event>
 8    1  0.1137518E+005  0.1043930E+01  0.7957747E-01            NaN
         13   -1    0    0    0    0  0.00000000000E+00  0.00000000000E+00  0.74505805969E-08  0.10566000000E+00  0.10566000000E+00 0.  1.
     999900   -1    0    0    0    0 -0.00000000000E+00 -0.00000000000E+00 -0.74505805969E-08  0.93827000000E+00  0.93827000000E+00 0.  1.
     999902    2    1    2    0    0 -0.22392247336E-01  0.79234709635E-02  0.43627864649E-02  0.10197798853E+01  0.10194938874E+01 0.  0.
     999903    2    3    3    0    0  0.27374473070E-01  0.96532553853E-01 -0.80096247564E-01  0.12991381425E+00  0.19856850952E-01 0.  0.
         14    1    1    2    0    0  0.22392247336E-01 -0.79234709635E-02 -0.43627864649E-02  0.24150114671E-01  0.00000000000E+00 0. -1.
     999901    1    3    3    0    0 -0.49766720406E-01 -0.88609082889E-01  0.84459034029E-01  0.88986607108E+00  0.88000000000E+00 0. -1.
        -11    1    4    4    0    0  0.29357250772E-02  0.12314037632E-01 -0.27079656760E-02  0.12955624401E-01  0.51100000000E-03 0. -1.
         11    1    4    4    0    0  0.24438747993E-01  0.84218516221E-01 -0.77388281888E-01  0.11695818985E+00  0.51100000000E-03 0.  1.
</event>
<event>
 8    1  0.1137518E+005  0.1043930E+01  0.7957747E-01            NaN
         13   -1    0    0    0    0  0.00000000000E+00  0.00000000000E+00  0.74505805969E-08  0.10566000000E+00  0.10566000000E+00 0. -1.
     999900   -1    0    0    0    0 -0.00000000000E+00 -0.00000000000E+00 -0.74505805969E-08  0.93827000000E+00  0.93827000000E+00 0. -1.
     999902    2    1    2    0    0 -0.63211677225E-02  0.16145107234E-01  0.18607512450E-01  0.10184965345E+01  0.10181789281E+01 0.  0.
     999903    2    3    3    0    0  0.55151106178E-01 -0.39298412732E-01  0.10907893062E+00  0.12999335391E+00  0.20348198920E-01 0.  0.
         14    1    1    2    0    0  0.63211677225E-02 -0.16145107234E-01 -0.18607512450E-01  0.25433465524E-01  0.00000000000E+00 0.  1.
     999901    1    3    3    0    0 -0.61472273901E-01  0.55443519966E-01 -0.90471418174E-01  0.88850318056E+00  0.88000000000E+00 0. -1.
        -11    1    4    4    0    0  0.20372345938E-01 -0.26096994540E-01  0.58262322302E-01  0.67013766676E-01  0.51100000000E-03 0. -1.
         11    1    4    4    0    0  0.34778760240E-01 -0.13201418192E-01  0.50816608322E-01  0.62979587236E-01  0.51100000000E-03 0.  1.
</event>
<event>
 8    1  0.1137518E+005  0.1043930E+01  0.7957747E-01            NaN
         13   -1    0    0    0    0  0.00000000000E+00  0.00000000000E+00  0.74505805969E-08  0.10566000000E+00  0.10566000000E+00 0. -1.
     999900   -1    0    0    0    0 -0.00000000000E+00 -0.00000000000E+00 -0.74505805969E-08  0.93827000000E+00  0.93827000000E+00 0.  1.
     999902    2    1    2    0    0 -0.29135560674E-02 -0.24279891045E-02  0.22463744325E-01  0.10211483462E+01  0.10208941871E+01 0.  0.
     999903    2    3    3    0    0 -0.12550591243E+00  0.33284275827E-01  0.12524877122E-01  0.13187727799E+00  0.19369223813E-01 0.  0.
         14    1    1    2    0    0  0.29135560674E-02  0.24279891045E-02 -0.22463744325E-01  0.22781653784E-01  0.00000000000E+00 0.  1.
     999901    1    3    3    0    0  0.12259235636E+00 -0.35712264931E-01  0.99388672030E-02  0.88927106823E+00  0.88000000000E+00 0.  1.
        -11    1    4    4    0    0 -0.11890783576E+00  0.28018526941E-01  0.14956439860E-01  0.12307748564E+00  0.51100000000E-03 0.  1.
         11    1    4    4    0    0 -0.65980766696E-02  0.52657488855E-02 -0.24315627384E-02  0.87997923506E-02  0.51100000000E-03 0. -1.
</event>
<event>
 8    1  0.1137518E+005  0.1043930E+01  0.7957747E-01            NaN
         13   -1    0    0    0    0  0.00000000000E+00  0.00000000000E+00  0.74505805969E-08  0.10566000000E+00  0.10566000000E+00 0.  1.
     999900   -1    0    0    0    0 -0.00000000000E+00 -0.00000000000E+00 -0.74505805969E-08  0.93827000000E+00  0.93827000000E+00 0. -1.
     999902    2    1    2    0    0  0.63139094970E-02 -0.10131728357E-01  0.20572289006E-01  0.10201447851E+01  0.10198674650E+01 0.  0.
     999903    2    3    3    0    0  0.11875555877E+00  0.45721811454E-01  0.24877541784E-01  0.13122337261E+00  0.20182037843E-01 0.  0.
         14    1    1    2    0    0 -0.63139094970E-02  0.10131728357E-01 -0.20572289006E-01  0.23785214894E-01  0.00000000000E+00 0. -1.
     999901    1    3    3    0    0 -0.11244164927E+00 -0.55853539810E-01 -0.43052527778E-02  0.88892141250E+00  0.88000000000E+00 0.  1.
        -11    1    4    4    0    0  0.92170400591E-01  0.29395338912E-01  0.12073696307E-01  0.97496174071E-01  0.51100000000E-03 0.  1.
         11    1    4    4    0    0  0.26585158178E-01  0.16326472541E-01  0.12803845477E-01  0.33727198535E-01  0.51100000000E-03 0. -1.
</event>
<event>
 8    1  0.1137518E+005  0.1043930E+01  0.7957747E-01            NaN
         13   -1    0    0    0    0  0.00000000000E+00  0.00000000000E+00  0.74505805969E-08  0.10566000000E+00  0.10566000000E+00 0.  1.
     999900   -1    0    0    0    0 -0.00000000000E+00 -0.00000000000E+00 -0.74505805969E-08  0.93827000000E+00  0.93827000000E+00 0. -1.
     999902    2    1    2    0    0  0.16026701653E-01 -0.14615042844E-01 -0.10694880741E-01  0.10197466355E+01  0.10194598401E+01 0.  0.
     999903    2    3    3    0    0 -0.67373798218E-01 -0.67510348579E-01  0.84592550766E-01  0.12911020502E+00  0.20412484972E-01 0.  0.
         14    1    1    2    0    0 -0.16026701653E-01  0.14615042844E-01  0.10694880741E-01  0.24183364474E-01  0.00000000000E+00 0.  1.
     999901    1    3    3    0    0  0.83400499871E-01  0.52895305735E-01 -0.95287431507E-01  0.89063643051E+00  0.88000000000E+00 0. -1.
        -11    1    4    4    0    0 -0.59759200085E-01 -0.49122838316E-01  0.63264273271E-01  0.99934201515E-01  0.51100000000E-03 0.  1.
         11    1    4    4    0    0 -0.76145981331E-02 -0.18387510263E-01  0.21328277495E-01  0.29176003501E-01  0.51100000000E-03 0. -1.
</event>
<event>
 8    1  0.1137518E+005  0.1043930E+01  0.7957747E-01            NaN
         13   -1    0    0    0    0  0.00000000000E+00  0.00000000000E+00  0.74505805969E-08  0.10566000000E+00  0.10566000000E+00 0. -1.
     999900   -1    0    0    0    0 -0.00000000000E+00 -0.00000000000E+00 -0.74505805969E-08  0.93827000000E+00  0.93827000000E+00 0. -1.
     999902    2    1    2    0    0 -0.22245474660E-02 -0.19471481799E-01  0.12899492514E-01  0.10204676020E+01  0.10201978448E+01 0.  0.
     999903    2    3    3    0    0 -0.12205588310E+00  0.67489735946E-02  0.43902867848E-01  0.13141851975E+00  0.20004456664E-01 0.  0.
         14    1    1    2    0    0  0.22245474660E-02  0.19471481799E-01 -0.12899492514E-01  0.23462398044E-01  0.00000000000E+00 0.  1.
     999901    1    3    3    0    0  0.11983133563E+00 -0.26220455394E-01 -0.31003375334E-01  0.88904908220E+00  0.88000000000E+00 0.  1.
        -11    1    4    4    0    0 -0.91433826541E-01 -0.29722757606E-02  0.28766159974E-01  0.95899594054E-01  0.51100000000E-03 0. -1.
         11    1    4    4    0    0 -0.30622056555E-01  0.97212493552E-02  0.15136707874E-01  0.35518925701E-01  0.51100000000E-03 0.  1.
</event>
<event>
 8    1  0.1137518E+005  0.1043930E+01  0.7957747E-01            NaN
         13   -1    0    0    0    0  0.00000000000E+00  0.00000000000E+00  0.74505805969E-08  0.10566000000E+00  0.10566000000E+00 0. -1.
     999900   -1    0    0    0    0 -0.00000000000E+00 -0.00000000000E+00 -0.74505805969E-08  0.93827000000E+00  0.93827000000E+00 0. -1.
     999902    2    1    2    0    0  0.87154831013E-03  0.42439713319E-02 -0.22372016758E-01  0.10211423274E+01  0.10208880324E+01 0.  0.
     999903    2    3    3    0    0 -0.95211469838E-01 -0.29560924303E-01 -0.85391118377E-01  0.13302852583E+00  0.21584099557E-01 0.  0.
         14    1    1    2    0    0 -0.87154831013E-03 -0.42439713319E-02  0.22372016758E-01  0.22787672609E-01  0.00000000000E+00 0.  1.
     999901    1    3    3    0    0  0.96083018148E-01  0.33804895635E-01  0.63019101619E-01  0.88811380156E+00  0.88000000000E+00 0. -1.
        -11    1    4    4    0    0 -0.13389599704E-01  0.12650054543E-02 -0.18799115522E-01  0.23120326218E-01  0.51100000000E-03 0.  1.
         11    1    4    4    0    0 -0.81821870135E-01 -0.30825929757E-01 -0.66592002855E-01  0.10990819962E+00  0.51100000000E-03 0. -1.
</event>
<event>
 8    1  0.1137518E+005  0.1043930E+01  0.7957747E-01            NaN
         13   -1    0    0    0    0  0.00000000000E+00  0.00000000000E+00  0.74505805969E-08  0.10566000000E+00  0.10566000000E+00 0. -1.
     999900   -1    0    0    0    0 -0.00000000000E+00 -0.00000000000E+00 -0.74505805969E-08  0.93827000000E+00  0.93827000000E+00 0. -1.
     999902    2    1    2    0    0  0.31637790605E-02  0.10180649741E-02 -0.22949975122E-01  0.10207406207E+01  0.10204771763E+01 0.  0.
     999903    2    3    3    0    0 -0.95090575073E-01  0.39269049218E-01 -0.81195758397E-01  0.13253477340E+00  0.19708863114E-01 0.  0.
         14    1    1    2    0    0 -0.31637790605E-02 -0.10180649741E-02  0.22949975122E-01  0.23189379300E-01  0.00000000000E+00 0. -1.
     999901    1    3    3    0    0  0.98254354134E-01 -0.38250984244E-01  0.58245783275E-01  0.88820584730E+00  0.88000000000E+00 0.  1.
        -11    1    4    4    0    0 -0.74830595267E-01  0.33761545616E-01 -0.73428759489E-01  0.11014310596E+00  0.51100000000E-03 0.  1.
         11    1    4    4    0    0 -0.20259979806E-01  0.55075036025E-02 -0.77669989080E-02  0.22391667439E-01  0.51100000000E-03 0. -1.
</event>
<event>
 8    1  0.1137518E+005  0.1043930E+01  0.7957747E-01            NaN
         13   -1    0    0    0    0  0.00000000000E+00  0.00000000000E+00  0.74505805969E-08  0.10566000000E+00  0.10566000000E+00 0.  1.
     999900   -1    0    0    0    0 -0.00000000000E+00 -0.00000000000E+00 -0.74505805969E-08  0.93827000000E+00  0.93827000000E+00 0.  1.
     999902    2    1    2    0    0  0.10411376871E-01 -0.11092108846E-01  0.18689230500E-01  0.10198318884E+01  0.10195471355E+01 0.  0.
     999903    2    3    3    0    0  0.81602005323E-01  0.78161762683E-01 -0.59168171641E-01  0.12904788862E+00  0.19604504659E-01 0.  0.
         14    1    1    2    0    0 -0.10411376871E-01  0.11092108846E-01 -0.18689230500E-01  0.24098111621E-01  0.00000000000E+00 0. -1.
     999901    1    3    3    0    0 -0.71190628453E-01 -0.89253871529E-01  0.77857402141E-01  0.89078399976E+00  0.88000000000E+00 0. -1.
        -11    1    4    4    0    0  0.13491611098E-01  0.15098936149E-01 -0.19458131251E-01  0.28087033229E-01  0.51100000000E-03 0. -1.
         11    1    4    4    0    0  0.68110394226E-01  0.63062826534E-01 -0.39710040390E-01  0.10096085539E+00  0.51100000000E-03 0.  1.
</event>
<event>
 8    1  0.1137518E+005  0.1043930E+01  0.7957747E-01            NaN
         13   -1    0    0    0    0  0.00000000000E+00  0.00000000000E+00  0.74505805969E-08  0.10566000000E+00  0.10566000000E+00 0.  1.
     999900   -1    0    0    0    0 -0.00000000000E+00 -0.00000000000E+00 -0.74505805969E-08  0.93827000000E+00  0.93827000000E+00 0. -1.
     999902    2    1    2    0    0 -0.64196741846E-03  0.20817102860E-01  0.11527879244E-01  0.10201254649E+01  0.10198476887E+01 0.  0.
     999903    2    3    3    0    0  0.71207569731E-01  0.64222143708E-01  0.89643542249E-01  0.13268622166E+00  0.19356317348E-01 0.  0.
         14    1    1    2    0    0  0.64196741846E-03 -0.20817102860E-01 -0.11527879244E-01  0.23804535146E-01  0.00000000000E+00 0. -1.
     999901    1    3    3    0    0 -0.71849537149E-01 -0.43405040848E-01 -0.78115663005E-01  0.88743924320E+00  0.88000000000E+00 0. -1.
        -11    1    4    4    0    0  0.16119465277E-01  0.70382939982E-02  0.23403642235E-01  0.29280818535E-01  0.51100000000E-03 0.  1.
         11    1    4    4    0    0  0.55088104454E-01  0.57183849710E-01  0.66239900014E-01  0.10340540312E+00  0.51100000000E-03 0. -1.
</event>
<event>
 8    1  0.1137518E+005  0.1043930E+01  0.7957747E-01            NaN
         13   -1    0    0    0    0  0.00000000000E+00  0.00000000000E+00  0.74505805969E-08  0.10566000000E+00  0.10566000000E+00 0. -1.
     999900   -1    0    0    0    0 -0.00000000000E+00 -0.00000000000E+00 -0.74505805969E-08  0.93827000000E+00  0.93827000000E+00 0. -1.
     999902    2    1    2    0    0  0.60134071212E-02  0.81735132757E-02 -0.21208491389E-01  0.10204189921E+01  0.10201481030E+01 0.  0.
     999903    2    3    3    0    0  0.43529639848E-03  0.58631627799E-01  0.11293471376E+00  0.12880722900E+00  0.19979875141E-01 0.  0.
         14    1    1    2    0    0 -0.60134071212E-02 -0.81735132757E-02  0.21208491389E-01  0.23511007879E-01  0.00000000000E+00 0. -1.
     999901    1    3    3    0    0  0.55781107227E-02 -0.50458114523E-01 -0.13414320515E+00  0.89161176312E+00  0.88000000000E+00 0. -1.
        -11    1    4    4    0    0 -0.77320412315E-02  0.11996971197E-01  0.20994752617E-01  0.25391977827E-01  0.51100000000E-03 0. -1.
         11    1    4    4    0    0  0.81673376300E-02  0.46634656602E-01  0.91939961142E-01  0.10341525118E+00  0.51100000000E-03 0.  1.
</event>
<event>
 8    1  0.1137518E+005  0.1043930E+01  0.7957747E-01            NaN
         13   -1    0    0    0    0  0.00000000000E+00  0.00000000000E+00  0.74505805969E-08  0.10566000000E+00  0.10566000000E+00 0.  1.
     999900   -1    0    0    0    0 -0.00000000000E+00 -0.00000000000E+00 -0.74505805969E-08  0.93827000000E+00  0.93827000000E+00 0. -1.
     999902    2    1    2    0    0  0.63949896522E-03  0.19575693463E-01  0.15491803820E-01  0.10189577610E+01  0.10186517099E+01 0.  0.
     999903    2    3    3    0    0 -0.33612210396E-01  0.45566291390E-01 -0.11355831425E+00  0.12850696298E+00  0.20309633175E-01 0.  0.
         14    1    1    2    0    0 -0.63949896522E-03 -0.19575693463E-01 -0.15491803820E-01  0.24972238968E-01  0.00000000000E+00 0. -1.
     999901    1    3    3    0    0  0.34251709362E-01 -0.25990597928E-01  0.12905011807E+00  0.89045079805E+00  0.88000000000E+00 0.  1.
        -11    1    4    4    0    0 -0.18559343365E-01  0.10805813697E-01 -0.51481686433E-01  0.55783868589E-01  0.51100000000E-03 0. -1.
         11    1    4    4    0    0 -0.15052867031E-01  0.34760477693E-01 -0.62076627821E-01  0.72723094392E-01  0.51100000000E-03 0.  1.
</event>
<event>
 8    1  0.1137518E+005  0.1043930E+01  0.7957747E-01            NaN
         13   -1    0    0    0    0  0.00000000000E+00  0.00000000000E+00  0.74505805969E-08  0.10566000000E+00  0.10566000000E+00 0.  1.
     999900   -1    0    0    0    0 -0.00000000000E+00 -0.00000000000E+00 -0.74505805969E-08  0.93827000000E+00  0.93827000000E+00 0.  1.
     999902    2    1    2    0    0 -0.87740519635E-02 -0.65449863823E-02 -0.20969621825E-01  0.10202752780E+01  0.10200010279E+01 0.  0.
     999903    2    3    3    0    0  0.98454816378E-02 -0.75853801160E-01  0.10171874831E+00  0.12887029986E+00  0.20251364630E-01 0.  0.
         14    1    1    2    0    0  0.87740519635E-02  0.65449863823E-02  0.20969621825E-01  0.23654722025E-01  0.00000000000E+00 0.  1.
     999901    1    3    3    0    0 -0.18619533601E-01  0.69308814778E-01 -0.12268837014E+00  0.89140497811E+00  0.88000000000E+00 0.  1.
        -11    1    4    4    0    0 -0.18865553047E-02 -0.39286365658E-01  0.63442824204E-01  0.74647375583E-01  0.51100000000E-03 0. -1.
         11    1    4    4    0    0  0.11732036943E-01 -0.36567435503E-01  0.38275924108E-01  0.54222924279E-01  0.51100000000E-03 0.  1.
</event>
<event>
 8    1  0.1137518E+005  0.1043930E+01  0.7957747E-01            NaN
         13   -1    0    0    0    0  0.00000000000E+00  0.00000000000E+00  0.74505805969E-08  0.10566000000E+00  0.10566000000E+00 0. -1.
     999900   -1    0    0    0    0 -0.00000000000E+00 -0.00000000000E+00 -0.74505805969E-08  0.93827000000E+00  0.93827000000E+00 0. -1.
     999902    2    1    2    0    0  0.14342370480E-01 -0.14900604450E-01 -0.12076943989E-01  0.10199803825E+01  0.10196991696E+01 0.  0.
     999903    2    3    3    0    0 -0.11101484344E+00 -0.32551219275E-01  0.52733565016E-01  0.12856219925E+00  0.19066537634E-01 0.  0.
         14    1    1    2    0    0 -0.14342370480E-01  0.14900604450E-01  0.12076943989E-01  0.23949617535E-01  0.00000000000E+00 0. -1.
     999901    1    3    3    0    0  0.12535721392E+00  0.17650614825E-01 -0.64810509005E-01  0.89141818321E+00  0.88000000000E+00 0.  1.
        -11    1    4    4    0    0 -0.40526236664E-01 -0.72850053809E-02  0.27608845647E-01  0.49577783739E-01  0.51100000000E-03 0. -1.
         11    1    4    4    0    0 -0.70488606775E-01 -0.25266213894E-01  0.25124719369E-01  0.78984415513E-01  0.51100000000E-03 0.  1.
</event>
<event>
 8    1  0.1137518E+005  0.1043930E+01  0.7957747E-01            NaN
         13   -1    0    0    0    0  0.00000000000E+00  0.00000000000E+00  0.74505805969E-08  0.10566000000E+00  0.10566000000E+00 0.  1.
     999900   -1    0    0    0    0 -0.00000000000E+00 -0.00000000000E+00 -0.74505805969E-08  0.93827000000E+00  0.93827000000E+00 0. -1.
     999902    2    1    2    0    0  0.21457696937E-01  0.45037873512E-02 -0.87863673426E-02  0.10203097310E+01  0.10200362886E+01 0.  0.
     999903    2    3    3    0    0 -0.53771176720E-02 -0.54081107973E-01  0.11591070863E+00  0.12918591353E+00  0.17321323409E-01 0.  0.
         14    1    1    2    0    0 -0.21457696937E-01 -0.45037873512E-02  0.87863673426E-02  0.23620269038E-01  0.00000000000E+00 0.  1.
     999901    1    3    3    0    0  0.26834814609E-01  0.58584895324E-01 -0.12469707598E+00  0.89112381743E+00  0.88000000000E+00 0. -1.
        -11    1    4    4    0    0  0.53706999375E-02 -0.27424874138E-01  0.64242913169E-01  0.70059839799E-01  0.51100000000E-03 0. -1.
         11    1    4    4    0    0 -0.10747817610E-01 -0.26656233835E-01  0.51667795466E-01  0.59126073732E-01  0.51100000000E-03 0.  1.
</event>
<event>
 8    1  0.1137518E+005  0.1043930E+01  0.7957747E-01            NaN
         13   -1    0    0    0    0  0.00000000000E+00  0.00000000000E+00  0.74505805969E-08  0.10566000000E+00  0.10566000000E+00 0.  1.
     999900   -1    0    0    0    0 -0.00000000000E+00 -0.00000000000E+00 -0.74505805969E-08  0.93827000000E+00  0.93827000000E+00 0. -1.
     999902    2    1    2    0    0 -0.14140434291E-01 -0.74870480004E-02 -0.17392497571E-01  0.10202972528E+01  0.10200235180E+01 0.  0.
     999903    2    3    3    0    0 -0.42367453827E-01  0.12136682899E+00 -0.67746784392E-02  0.13040241386E+00  0.20832305424E-01 0.  0.
         14    1    1    2    0    0  0.14140434291E-01  0.74870480004E-02  0.17392497571E-01  0.23632747226E-01  0.00000000000E+00 0.  1.
     999901    1    3    3    0    0  0.28227019536E-01 -0.12885387699E+00 -0.10617819132E-01  0.88989483892E+00  0.88000000000E+00 0.  1.
        -11    1    4    4    0    0 -0.13870181001E-01  0.27587916187E-01 -0.96211435682E-02  0.32346600518E-01  0.51100000000E-03 0.  1.
         11    1    4    4    0    0 -0.28497272826E-01  0.93778912802E-01  0.28464651290E-02  0.98055813339E-01  0.51100000000E-03 0. -1.
</event>
<event>
 8    1  0.1137518E+005  0.1043930E+01  0.7957747E-01            NaN
         13   -1    0    0    0    0  0.00000000000E+00  0.00000000000E+00  0.74505805969E-08  0.10566000000E+00  0.10566000000E+00 0.  1.
     999900   -1    0    0    0    0 -0.00000000000E+00 -0.00000000000E+00 -0.74505805969E-08  0.93827000000E+00  0.93827000000E+00 0. -1.
     999902    2    1    2    0    0  0.15411686293E-01 -0.14374697318E-01  0.10670618702E-01  0.10203076779E+01  0.10200341874E+01 0.  0.
     999903    2    3    3    0    0 -0.22325199122E-01 -0.87497909561E-01 -0.92020287072E-01  0.13052315410E+00  0.20353423042E-01 0.  0.
         14    1    1    2    0    0 -0.15411686293E-01  0.14374697318E-01 -0.10670618702E-01  0.23622322088E-01  0.00000000000E+00 0. -1.
     999901    1    3    3    0    0  0.37736885414E-01  0.73123212243E-01  0.10269090577E+00  0.88978452381E+00  0.88000000000E+00 0.  1.
        -11    1    4    4    0    0 -0.21885681728E-01 -0.46200955518E-01 -0.47330228856E-01  0.69670101479E-01  0.51100000000E-03 0. -1.
         11    1    4    4    0    0 -0.43951739405E-03 -0.41296954043E-01 -0.44690058216E-01  0.60853052619E-01  0.51100000000E-03 0.  1.
</event>
<event>
 8    1  0.1137518E+005  0.1043930E+01  0.7957747E-01            NaN
         13   -1    0    0    0    0  0.00000000000E+00  0.00000000000E+00  0.74505805969E-08  0.10566000000E+00  0.10566000000E+00 0.  1.
     999900   -1    0    0    0    0 -0.00000000000E+00 -0.00000000000E+00 -0.74505805969E-08  0.93827000000E+00  0.93827000000E+00 0. -1.
     999902    2    1    2    0    0  0.76659592533E-02  0.19200860118E-01 -0.99495769945E-02  0.10209858495E+01  0.10207280102E+01 0.  0.
     999903    2    3    3    0    0 -0.12547758043E+00 -0.10429226178E-01  0.24640283501E-01  0.12980595596E+00  0.19724367711E-01 0.  0.
         14    1    1    2    0    0 -0.76659592533E-02 -0.19200860118E-01  0.99495769945E-02  0.22944150516E-01  0.00000000000E+00 0. -1.
     999901    1    3    3    0    0  0.13314353969E+00  0.29630086296E-01 -0.34589860495E-01  0.89117989352E+00  0.88000000000E+00 0. -1.
        -11    1    4    4    0    0 -0.10052276791E+00 -0.15529587842E-01  0.22954171539E-01  0.10427439801E+00  0.51100000000E-03 0. -1.
         11    1    4    4    0    0 -0.24954812520E-01  0.51003616633E-02  0.16861119618E-02  0.25531557953E-01  0.51100000000E-03 0.  1.
</event>
<event>
 8    1  0.1137518E+005  0.1043930E+01  0.7957747E-01            NaN
         13   -1    0    0    0    0  0.00000000000E+00  0.00000000000E+00  0.74505805969E-08  0.10566000000E+00  0.10566000000E+00 0. -1.
     999900   -1    0    0    0    0 -0.00000000000E+00 -0.00000000000E+00 -0.74505805969E-08  0.93827000000E+00  0.93827000000E+00 0.  1.
     999902    2    1    2    0    0 -0.33967717174E-02 -0.10671887790E-01  0.22879191463E-01  0.10184567857E+01  0.10181381731E+01 0.  0.
     999903    2    3    3    0    0  0.10932672986E+00  0.62266001756E-01 -0.12725300575E-01  0.12756161596E+00  0.16752425328E-01 0.  0.
         14    1    1    2    0    0  0.33967717174E-02  0.10671887790E-01 -0.22879191463E-01  0.25473214345E-01  0.00000000000E+00 0.  1.
     999901    1    3    3    0    0 -0.11272350158E+00 -0.72937889546E-01  0.35604492038E-01  0.89089516970E+00  0.88000000000E+00 0. -1.
        -11    1    4    4    0    0  0.23356067411E-01  0.21609759367E-01 -0.33959971949E-02  0.32004398179E-01  0.51100000000E-03 0. -1.
         11    1    4    4    0    0  0.85970662447E-01  0.40656242388E-01 -0.93293033805E-02  0.95557217777E-01  0.51100000000E-03 0.  1.
</event>
<event>
 8    1  0.1137518E+005  0.1043930E+01  0.7957747E-01            NaN
         13   -1    0    0    0    0  0.00000000000E+00  0.00000000000E+00  0.74505805969E-08  0.10566000000E+00  0.10566000000E+00 0.  1.
     999900   -1    0    0    0    0 -0.00000000000E+00 -0.00000000000E+00 -0.74505805969E-08  0.93827000000E+00  0.93827000000E+00 0. -1.
     999902    2    1    2    0    0 -0.12577102468E-01 -0.81275487313E-02 -0.15023851957E-01  0.10227178176E+01  0.10224978131E+01 0.  0.
     999903    2    3    3    0    0  0.74221360207E-01 -0.66626727950E-01  0.82664052946E-01  0.13114670217E+00  0.20449465820E-01 0.  0.
         14    1    1    2    0    0  0.12577102468E-01  0.81275487313E-02  0.15023851957E-01  0.21212182407E-01  0.00000000000E+00 0. -1.
     999901    1    3    3    0    0 -0.86798462674E-01  0.58499179219E-01 -0.97687904902E-01  0.89157111542E+00  0.88000000000E+00 0. -1.
        -11    1    4    4    0    0  0.18423761332E-02 -0.53318608185E-02  0.10634239897E-01  0.12048704030E-01  0.51100000000E-03 0.  1.
         11    1    4    4    0    0  0.72378984073E-01 -0.61294867132E-01  0.72029813049E-01  0.11909799814E+00  0.51100000000E-03 0. -1.
</event>
<event>
 8    1  0.1137518E+005  0.1043930E+01  0.7957747E-01            NaN
         13   -1    0    0    0    0  0.00000000000E+00  0.00000000000E+00  0.74505805969E-08  0.10566000000E+00  0.10566000000E+00 0. -1.
     999900   -1    0    0    0    0 -0.00000000000E+00 -0.00000000000E+00 -0.74505805969E-08  0.93827000000E+00  0.93827000000E+00 0.  1.
     999902    2    1    2    0    0  0.17719581873E-01 -0.14700232885E-01  0.57374042460E-02  0.10202024161E+01  0.10199264540E+01 0.  0.
     999903    2    3    3    0    0  0.77099395104E-02 -0.11926282092E+00  0.54736560727E-01  0.13260203021E+00  0.17439716604E-01 0.  0.
         14    1    1    2    0    0 -0.17719581873E-01  0.14700232885E-01 -0.57374042460E-02  0.23727583866E-01  0.00000000000E+00 0.  1.
     999901    1    3    3    0    0  0.10009642363E-01  0.10456258803E+00 -0.48999156481E-01  0.88760038592E+00  0.88000000000E+00 0.  1.
        -11    1    4    4    0    0  0.56649140981E-02 -0.53066776088E-01  0.15301057524E-01  0.55520784023E-01  0.51100000000E-03 0. -1.
         11    1    4    4    0    0  0.20450254123E-02 -0.66196044829E-01  0.39435503203E-01  0.77081246187E-01  0.51100000000E-03 0.  1.
</event>
<event>
 8    1  0.1137518E+005  0.1043930E+01  0.7957747E-01            NaN
         13   -1    0    0    0    0  0.00000000000E+00  0.00000000000E+00  0.74505805969E-08  0.10566000000E+00  0.10566000000E+00 0. -1.
     999900   -1    0    0    0    0 -0.00000000000E+00 -0.00000000000E+00 -0.74505805969E-08  0.93827000000E+00  0.93827000000E+00 0. -1.
     999902    2    1    2    0    0 -0.13138286738E-01 -0.14555700819E-01  0.12982392567E-01  0.10204135053E+01  0.10201424883E+01 0.  0.
     999903    2    3    3    0    0  0.49136624490E-02 -0.85573521132E-01  0.99815455633E-01  0.13310894403E+00  0.20196390742E-01 0.  0.
         14    1    1    2    0    0  0.13138286738E-01  0.14555700819E-01 -0.12982392567E-01  0.23516494669E-01  0.00000000000E+00 0.  1.
     999901    1    3    3    0    0 -0.18051949187E-01  0.71017820313E-01 -0.86833063066E-01  0.88730456131E+00  0.88000000000E+00 0. -1.
        -11    1    4    4    0    0  0.47358912750E-02 -0.19263093971E-01  0.12444050937E-01  0.23422446077E-01  0.51100000000E-03 0.  1.
         11    1    4    4    0    0  0.17777117392E-03 -0.66310427161E-01  0.87371404696E-01  0.10968649795E+00  0.51100000000E-03 0. -1.
</event>
<event>
 8    1  0.1137518E+005  0.1043930E+01  0.7957747E-01            NaN
         13   -1    0    0    0    0  0.00000000000E+00  0.00000000000E+00  0.74505805969E-08  0.10566000000E+00  0.10566000000E+00 0. -1.
     999900   -1    0    0    0    0 -0.00000000000E+00 -0.00000000000E+00 -0.74505805969E-08  0.93827000000E+00  0.93827000000E+00 0. -1.
     999902    2    1    2    0    0  0.16007009516E-01  0.62038576784E-02 -0.15523646577E-01  0.10207848967E+01  0.10205224689E+01 0.  0.
     999903    2    3    3    0    0  0.80442867321E-01 -0.68881951003E-02 -0.10488681007E+00  0.13381863093E+00  0.19689614590E-01 0.  0.
         14    1    1    2    0    0 -0.16007009516E-01 -0.62038576784E-02  0.15523646577E-01  0.23145103301E-01  0.00000000000E+00 0. -1.
     999901    1    3    3    0    0 -0.64435857804E-01  0.13092052779E-01  0.89363163497E-01  0.88696626577E+00  0.88000000000E+00 0.  1.
        -11    1    4    4    0    0  0.31521205872E-01  0.64075801618E-02 -0.35884793110E-01  0.48193599167E-01  0.51100000000E-03 0.  1.
         11    1    4    4    0    0  0.48921661449E-01 -0.13295775262E-01 -0.69002016964E-01  0.85625031766E-01  0.51100000000E-03 0. -1.
</event>
<event>
 8    1  0.1137518E+005  0.1043930E+01  0.7957747E-01            NaN
         13   -1    0    0    0    0  0.00000000000E+00  0.00000000000E+00  0.74505805969E-08  0.10566000000E+00  0.10566000000E+00 0.  1.
     999900   -1    0    0    0    0 -0.00000000000E+00 -0.00000000000E+00 -0.74505805969E-08  0.93827000000E+00  0.93827000000E+00 0. -1.
     999902    2    1    2    0    0 -0.10461442776E-01 -0.17979131756E-01 -0.97882961534E-02  0.10209408350E+01  0.10206819715E+01 0.  0.
     999903    2    3    3    0    0  0.12633163156E+00 -0.26746265230E-02  0.18225490527E-01  0.12980036054E+00  0.23433530076E-01 0.  0.
         14    1    1    2    0    0  0.10461442776E-01  0.17979131756E-01  0.97882961534E-02  0.22989164953E-01  0.00000000000E+00 0.  1.
     999901    1    3    3    0    0 -0.13679307433E+00 -0.15304505233E-01 -0.28013786680E-01  0.89114047451E+00  0.88000000000E+00 0.  1.
        -11    1    4    4    0    0  0.77345508668E-01  0.39649510266E-02  0.10208127222E-02  0.77455482229E-01  0.51100000000E-03 0. -1.
         11    1    4    4    0    0  0.48986122889E-01 -0.66395775496E-02  0.17204677805E-01  0.52344878308E-01  0.51100000000E-03 0.  1.
</event>
<event>
 8    1  0.1137518E+005  0.1043930E+01  0.7957747E-01            NaN
         13   -1    0    0    0    0  0.00000000000E+00  0.00000000000E+00  0.74505805969E-08  0.10566000000E+00  0.10566000000E+00 0. -1.
     999900   -1    0    0    0    0 -0.00000000000E+00 -0.00000000000E+00 -0.74505805969E-08  0.93827000000E+00  0.93827000000E+00 0. -1.
     999902    2    1    2    0    0 -0.22030986693E-02 -0.70621770807E-02 -0.22193664781E-01  0.10205358395E+01  0.10202676673E+01 0.  0.
     999903    2    3    3    0    0 -0.10437126444E-01 -0.57623907886E-01  0.11334128504E+00  0.12868719177E+00  0.16872998046E-01 0.  0.
         14    1    1    2    0    0  0.22030986693E-02  0.70621770807E-02  0.22193664781E-01  0.23394160495E-01  0.00000000000E+00 0. -1.
     999901    1    3    3    0    0  0.82340277744E-02  0.50561730806E-01 -0.13553494982E+00  0.89184864773E+00  0.88000000000E+00 0. -1.
        -11    1    4    4    0    0 -0.21782266314E-02 -0.46896522364E-01  0.81004319068E-01  0.93626862117E-01  0.51100000000E-03 0. -1.
         11    1    4    4    0    0 -0.82588998122E-02 -0.10727385522E-01  0.32336965975E-01  0.35060329657E-01  0.51100000000E-03 0.  1.
</event>
<event>
 8    1  0.1137518E+005  0.1043930E+01  0.7957747E-01            NaN
         13   -1    0    0    0    0  0.00000000000E+00  0.00000000000E+00  0.74505805969E-08  0.10566000000E+00  0.10566000000E+00 0. -1.
     999900   -1    0    0    0    0 -0.00000000000E+00 -0.00000000000E+00 -0.74505805969E-08  0.93827000000E+00  0.93827000000E+00 0.  1.
     999902    2    1    2    0    0  0.41437086252E-03 -0.75053304736E-02  0.67202170559E-02  0.10338471926E+01  0.10337980241E+01 0.  0.
     999903    2    3    3    0    0  0.47890775731E-01  0.12497203358E+00  0.42901202518E-01  0.14193165579E+00  0.19812777712E-01 0.  0.
         14    1    1    2    0    0 -0.41437086252E-03  0.75053304736E-02 -0.67202170559E-02  0.10082807447E-01  0.00000000000E+00 0.  1.
     999901    1    3    3    0    0 -0.47476404868E-01 -0.13247736406E+00 -0.36180985462E-01  0.89191553676E+00  0.88000000000E+00 0.  1.
        -11    1    4    4    0    0  0.31380780776E-01  0.71923860109E-01  0.15530385970E-01  0.79995306515E-01  0.51100000000E-03 0. -1.
         11    1    4    4    0    0  0.16509994955E-01  0.53048173473E-01  0.27370816548E-01  0.61936349277E-01  0.51100000000E-03 0.  1.
</event>
<event>
 8    1  0.1137518E+005  0.1043930E+01  0.7957747E-01            NaN
         13   -1    0    0    0    0  0.00000000000E+00  0.00000000000E+00  0.74505805969E-08  0.10566000000E+00  0.10566000000E+00 0. -1.
     999900   -1    0    0    0    0 -0.00000000000E+00 -0.00000000000E+00 -0.74505805969E-08  0.93827000000E+00  0.93827000000E+00 0.  1.
     999902    2    1    2    0    0  0.18537166640E-01 -0.13384683516E-01 -0.92120842910E-02  0.10192796694E+01  0.10189815532E+01 0.  0.
     999903    2    3    3    0    0 -0.99455755533E-01  0.74746998801E-01 -0.15872050486E-01  0.12701632364E+00  0.20066473155E-01 0.  0.
         14    1    1    2    0    0 -0.18537166640E-01  0.13384683516E-01  0.92120842910E-02  0.24650330563E-01  0.00000000000E+00 0. -1.
     999901    1    3    3    0    0  0.11799292217E+00 -0.88131682317E-01  0.66599661946E-02  0.89226334580E+00  0.88000000000E+00 0.  1.
        -11    1    4    4    0    0 -0.80301729674E-01  0.69367604191E-01 -0.13014624864E-01  0.10691058826E+00  0.51100000000E-03 0.  1.
         11    1    4    4    0    0 -0.19154025860E-01  0.53793946099E-02 -0.28574256216E-02  0.20105735380E-01  0.51100000000E-03 0. -1.
</event>
<event>
 8    1  0.1137518E+005  0.1043930E+01  0.7957747E-01            NaN
         13   -1    0    0    0    0  0.00000000000E+00  0.00000000000E+00  0.74505805969E-08  0.10566000000E+00  0.10566000000E+00 0. -1.
     999900   -1    0    0    0    0 -0.00000000000E+00 -0.00000000000E+00 -0.74505805969E-08  0.93827000000E+00  0.93827000000E+00 0. -1.
     999902    2    1    2    0    0  0.23477594932E-01 -0.32389434782E-02  0.27339242631E-02  0.10200728719E+01  0.10197938524E+01 0.  0.
     999903    2    3    3    0    0  0.12383764700E+00 -0.41267409232E-01  0.18487214206E-01  0.13341258161E+00  0.20454289604E-01 0.  0.
         14    1    1    2    0    0 -0.23477594932E-01  0.32389434782E-02 -0.27339242631E-02  0.23857128086E-01  0.00000000000E+00 0.  1.
     999901    1    3    3    0    0 -0.10036005207E+00  0.38028465754E-01 -0.15753289943E-01  0.88666029030E+00  0.88000000000E+00 0.  1.
        -11    1    4    4    0    0  0.54340062576E-01 -0.13665136174E-01 -0.13341120179E-02  0.56050150074E-01  0.51100000000E-03 0. -1.
         11    1    4    4    0    0  0.69497584425E-01 -0.27602273058E-01  0.19821326224E-01  0.77362431536E-01  0.51100000000E-03 0.  1.
</event>
<event>
 8    1  0.1137518E+005  0.1043930E+01  0.7957747E-01            NaN
         13   -1    0    0    0    0  0.00000000000E+00  0.00000000000E+00  0.74505805969E-08  0.10566000000E+00  0.10566000000E+00 0. -1.
     999900   -1    0    0    0    0 -0.00000000000E+00 -0.00000000000E+00 -0.74505805969E-08  0.93827000000E+00  0.93827000000E+00 0. -1.
     999902    2    1    2    0    0 -0.11682940218E-01  0.20152860265E-01  0.51954783246E-02  0.10200632477E+01  0.10197840004E+01 0.  0.
     999903    2    3    3    0    0 -0.44973815063E-01 -0.18138206817E-01 -0.11868049881E+00  0.12993980355E+00  0.21157815621E-01 0.  0.
         14    1    1    2    0    0  0.11682940218E-01 -0.20152860265E-01 -0.51954783246E-02  0.23866752272E-01  0.00000000000E+00 0.  1.
     999901    1    3    3    0    0  0.33290874845E-01  0.38291067081E-01  0.12387597713E+00  0.89012344418E+00  0.88000000000E+00 0.  1.
        -11    1    4    4    0    0 -0.11651720086E-01 -0.14994439921E-01 -0.51262364433E-01  0.54668884549E-01  0.51100000000E-03 0. -1.
         11    1    4    4    0    0 -0.33322094977E-01 -0.31437668955E-02 -0.67418134372E-01  0.75270919001E-01  0.51100000000E-03 0.  1.
</event>
<event>
 8    1  0.1137518E+005  0.1043930E+01  0.7957747E-01            NaN
         13   -1    0    0    0    0  0.00000000000E+00  0.00000000000E+00  0.74505805969E-08  0.10566000000E+00  0.10566000000E+00 0. -1.
     999900   -1    0    0    0    0 -0.00000000000E+00 -0.00000000000E+00 -0.74505805969E-08  0.93827000000E+00  0.93827000000E+00 0. -1.
     999902    2    1    2    0    0 -0.21999518199E-01  0.94487496848E-02  0.65181322960E-02  0.10191158161E+01  0.10188136743E+01 0.  0.
     999903    2    3    3    0    0  0.31230684588E-01  0.85266165407E-01 -0.89463648807E-01  0.12906287541E+00  0.20194225109E-01 0.  0.
         14    1    1    2    0    0  0.21999518199E-01 -0.94487496848E-02 -0.65181322960E-02  0.24814183851E-01  0.00000000000E+00 0. -1.
     999901    1    3    3    0    0 -0.53230202787E-01 -0.75817415722E-01  0.95981781103E-01  0.89005294074E+00  0.88000000000E+00 0.  1.
        -11    1    4    4    0    0  0.86541612010E-02  0.96069708734E-02 -0.20424784829E-01  0.24178944389E-01  0.51100000000E-03 0.  1.
         11    1    4    4    0    0  0.22576523387E-01  0.75659194534E-01 -0.69038863979E-01  0.10488393102E+00  0.51100000000E-03 0. -1.
</event>
<event>
 8    1  0.1137518E+005  0.1043930E+01  0.7957747E-01            NaN
         13   -1    0    0    0    0  0.00000000000E+00  0.00000000000E+00  0.74505805969E-08  0.10566000000E+00  0.10566000000E+00 0. -1.
     999900   -1    0    0    0    0 -0.00000000000E+00 -0.00000000000E+00 -0.74505805969E-08  0.93827000000E+00  0.93827000000E+00 0.  1.
     999902    2    1    2    0    0  0.17174547093E-01  0.13651561411E-01  0.88377201337E-02  0.10202776112E+01  0.10200034159E+01 0.  0.
     999903    2    3    3    0    0 -0.88416150808E-01 -0.26312984056E-01 -0.86471877217E-01  0.12796013426E+00  0.19662694554E-01 0.  0.
         14    1    1    2    0    0 -0.17174547093E-01 -0.13651561411E-01 -0.88377201337E-02  0.23652388758E-01  0.00000000000E+00 0.  1.
     999901    1    3    3    0    0  0.10559069790E+00  0.39964545467E-01  0.95309597351E-01  0.89231747698E+00  0.88000000000E+00 0. -1.
        -11    1    4    4    0    0 -0.63012712467E-01 -0.18087323043E-01 -0.72760027524E-01  0.97938939721E-01  0.51100000000E-03 0.  1.
         11    1    4    4    0    0 -0.25403438341E-01 -0.82256610130E-02 -0.13711849693E-01  0.30021194541E-01  0.51100000000E-03 0. -1.
</event>
<event>
 8    1  0.1137518E+005  0.1043930E+01  0.7957747E-01            NaN
         13   -1    0    0    0    0  0.00000000000E+00  0.00000000000E+00  0.74505805969E-08  0.10566000000E+00  0.10566000000E+00 0. -1.
     999900   -1    0    0    0    0 -0.00000000000E+00 -0.00000000000E+00 -0.74505805969E-08  0.93827000000E+00  0.93827000000E+00 0.  1.
     999902    2    1    2    0    0 -0.18107149528E-01  0.64014320912E-02 -0.13784289972E-01  0.10202899102E+01  0.10200160033E+01 0.  0.
     999903    2    3    3    0    0  0.42895980091E-01  0.12139321026E+00 -0.10419021498E-01  0.13070808937E+00  0.19991798637E-01 0.  0.
         14    1    1    2    0    0  0.18107149528E-01 -0.64014320912E-02  0.13784289972E-01  0.23640089824E-01  0.00000000000E+00 0. -1.
     999901    1    3    3    0    0 -0.61003129619E-01 -0.11499177817E+00 -0.33652684743E-02  0.88958182080E+00  0.88000000000E+00 0. -1.
        -11    1    4    4    0    0  0.24373574098E-01  0.63761938603E-01  0.43290299763E-02  0.68400713083E-01  0.51100000000E-03 0. -1.
         11    1    4    4    0    0  0.18522405993E-01  0.57631271660E-01 -0.14748051474E-01  0.62307376290E-01  0.51100000000E-03 0.  1.
</event>
<event>
 8    1  0.1137518E+005  0.1043930E+01  0.7957747E-01            NaN
         13   -1    0    0    0    0  0.00000000000E+00  0.00000000000E+00  0.74505805969E-08  0.10566000000E+00  0.10566000000E+00 0. -1.
     999900   -1    0    0    0    0 -0.00000000000E+00 -0.00000000000E+00 -0.74505805969E-08  0.93827000000E+00  0.93827000000E+00 0. -1.
     999902    2    1    2    0    0  0.11834423736E-01  0.66082275252E-02  0.19936685562E-01  0.10198220410E+01  0.10195370526E+01 0.  0.
     999903    2    3    3    0    0  0.81965007151E-01 -0.56741906379E-01  0.84911804079E-01  0.13238004051E+00  0.19405007528E-01 0.  0.
         14    1    1    2    0    0 -0.11834423736E-01 -0.66082275252E-02 -0.19936685562E-01  0.24107959005E-01  0.00000000000E+00 0.  1.
     999901    1    3    3    0    0 -0.70130583415E-01  0.63350133904E-01 -0.64975118517E-01  0.88744200048E+00  0.88000000000E+00 0. -1.
        -11    1    4    4    0    0  0.34680363630E-01 -0.26841023628E-01  0.25322868061E-01  0.50642639531E-01  0.51100000000E-03 0. -1.
         11    1    4    4    0    0  0.47284643521E-01 -0.29900882751E-01  0.59588936018E-01  0.81737400980E-01  0.51100000000E-03 0.  1.
</event>
<event>
 8    1  0.1137518E+005  0.1043930E+01  0.7957747E-01            NaN
         13   -1    0    0    0    0  0.00000000000E+00  0.00000000000E+00  0.74505805969E-08  0.10566000000E+00  0.10566000000E+00 0. -1.
     999900   -1    0    0    0    0 -0.00000000000E+00 -0.00000000000E+00 -0.74505805969E-08  0.93827000000E+00  0.93827000000E+00 0.  1.
     999902    2    1    2    0    0  0.67098756900E-02  0.19597668397E-01 -0.99319440613E-02  0.10209575262E+01  0.10206990427E+01 0.  0.
     999903    2    3    3    0    0  0.67989234809E-01  0.92263717731E-03  0.11051268707E+00  0.13044597335E+00  0.13405620061E-01 0.  0.
         14    1    1    2    0    0 -0.67098756900E-02 -0.19597668397E-01  0.99319440613E-02  0.22972473772E-01  0.00000000000E+00 0. -1.
     999901    1    3    3    0    0 -0.61279359119E-01  0.18675031220E-01 -0.12044463113E+00  0.89051155288E+00  0.88000000000E+00 0.  1.
        -11    1    4    4    0    0  0.49986990794E-01  0.36819020129E-02  0.70739762006E-01  0.86698504605E-01  0.51100000000E-03 0. -1.
         11    1    4    4    0    0  0.18002244016E-01 -0.27592648356E-02  0.39772925066E-01  0.43747468742E-01  0.51100000000E-03 0.  1.
</event>
<event>
 8    1  0.1137518E+005  0.1043930E+01  0.7957747E-01            NaN
         13   -1    0    0    0    0  0.00000000000E+00  0.00000000000E+00  0.74505805969E-08  0.10566000000E+00  0.10566000000E+00 0.  1.
     999900   -1    0    0    0    0 -0.00000000000E+00 -0.00000000000E+00 -0.74505805969E-08  0.93827000000E+00  0.93827000000E+00 0. -1.
     999902    2    1    2    0    0 -0.97184077403E-02  0.21412713739E-01  0.42471304583E-02  0.10200346056E+01  0.10197546796E+01 0.  0.
     999903    2    3    3    0    0 -0.16123857883E-01 -0.12464848098E+00 -0.10867830672E-01  0.12784439913E+00  0.20708887968E-01 0.  0.
         14    1    1    2    0    0  0.97184077403E-02 -0.21412713739E-01 -0.42471304583E-02  0.23895394448E-01  0.00000000000E+00 0. -1.
     999901    1    3    3    0    0  0.64054501426E-02  0.14606119472E+00  0.15114961131E-01  0.89219020643E+00  0.88000000000E+00 0. -1.
        -11    1    4    4    0    0 -0.20784887399E-01 -0.11147333893E+00 -0.98555176275E-02  0.11382314872E+00  0.51100000000E-03 0.  1.
         11    1    4    4    0    0  0.46610295163E-02 -0.13175142046E-01 -0.10123130449E-02  0.14021250401E-01  0.51100000000E-03 0. -1.
</event>
<event>
 8    1  0.1137518E+005  0.1043930E+01  0.7957747E-01            NaN
         13   -1    0    0    0    0  0.00000000000E+00  0.00000000000E+00  0.74505805969E-08  0.10566000000E+00  0.10566000000E+00 0. -1.
     999900   -1    0    0    0    0 -0.00000000000E+00 -0.00000000000E+00 -0.74505805969E-08  0.93827000000E+00  0.93827000000E+00 0.  1.
     999902    2    1    2    0    0 -0.20172834137E-01  0.13457280920E-02 -0.33170145310E-02  0.10234420326E+01  0.10232369410E+01 0.  0.
     999903    2    3    3    0    0 -0.18189250115E-01 -0.85506200632E-01  0.98636321670E-01  0.13330627058E+00  0.19981958304E-01 0.  0.
         14    1    1    2    0    0  0.20172834137E-01 -0.13457280920E-02  0.33170145310E-02  0.20487967362E-01  0.00000000000E+00 0. -1.
     999901    1    3    3    0    0 -0.19835840215E-02  0.86851928724E-01 -0.10195333620E+00  0.89013576206E+00  0.88000000000E+00 0.  1.
        -11    1    4    4    0    0 -0.87996319060E-03 -0.33918465678E-01  0.27110885000E-01  0.43433833076E-01  0.51100000000E-03 0. -1.
         11    1    4    4    0    0 -0.17309286925E-01 -0.51587734954E-01  0.71525436670E-01  0.89872437506E-01  0.51100000000E-03 0.  1.
</event>
<event>
 8    1  0.1137518E+005  0.1043930E+01  0.7957747E-01            NaN
         13   -1    0    0    0    0  0.00000000000E+00  0.00000000000E+00  0.74505805969E-08  0.10566000000E+00  0.10566000000E+00 0. -1.
     999900   -1    0    0    0    0 -0.00000000000E+00 -0.00000000000E+00 -0.74505805969E-08  0.93827000000E+00  0.93827000000E+00 0. -1.
     999902    2    1    2    0    0  0.12460475298E-02 -0.19836804259E-01 -0.13436291420E-01  0.10199386398E+01  0.10196564341E+01 0.  0.
     999903    2    3    3    0    0  0.97809249533E-01  0.43877513768E-01 -0.71663378776E-01  0.13045881427E+00  0.19798405353E-01 0.  0.
         14    1    1    2    0    0 -0.12460475298E-02  0.19836804259E-01  0.13436291420E-01  0.23991360211E-01  0.00000000000E+00 0.  1.
     999901    1    3    3    0    0 -0.96563202003E-01 -0.63714318027E-01  0.58227087356E-01  0.88947982552E+00  0.88000000000E+00 0.  1.
        -11    1    4    4    0    0  0.79699416354E-01  0.29219498658E-01 -0.49329971054E-01  0.98180870001E-01  0.51100000000E-03 0.  1.
         11    1    4    4    0    0  0.18109833179E-01  0.14658015111E-01 -0.22333407723E-01  0.32277944269E-01  0.51100000000E-03 0. -1.
</event>
<event>
 8    1  0.1137518E+005  0.1043930E+01  0.7957747E-01            NaN
         13   -1    0    0    0    0  0.00000000000E+00  0.00000000000E+00  0.74505805969E-08  0.10566000000E+00  0.10566000000E+00 0. -1.
     999900   -1    0    0    0    0 -0.00000000000E+00 -0.00000000000E+00 -0.74505805969E-08  0.93827000000E+00  0.93827000000E+00 0.  1.
     999902    2    1    2    0    0 -0.36594171946E-02  0.23150759988E-01  0.38946382108E-02  0.10201704287E+01  0.10198937133E+01 0.  0.
     999903    2    3    3    0    0 -0.25805687697E-01  0.11676007293E+00  0.57917027319E-01  0.13328172130E+00  0.10525541862E-01 0.  0.
         14    1    1    2    0    0  0.36594171946E-02 -0.23150759988E-01 -0.38946382108E-02  0.23759571314E-01  0.00000000000E+00 0. -1.
     999901    1    3    3    0    0  0.22146270502E-01 -0.93609312940E-01 -0.54022389108E-01  0.88688870739E+00  0.88000000000E+00 0.  1.
        -11    1    4    4    0    0 -0.29916760570E-02  0.30970483496E-01  0.17974734764E-01  0.35937072563E-01  0.51100000000E-03 0. -1.
         11    1    4    4    0    0 -0.22814011640E-01  0.85789589431E-01  0.39942292555E-01  0.97344648736E-01  0.51100000000E-03 0.  1.
</event>
<event>
 8    1  0.1137518E+005  0.1043930E+01  0.7957747E-01            NaN
         13   -1    0    0    0    0  0.00000000000E+00  0.00000000000E+00  0.74505805969E-08  0.10566000000E+00  0.10566000000E+00 0.  1.
     999900   -1    0    0    0    0 -0.00000000000E+00 -0.00000000000E+00 -0.74505805969E-08  0.93827000000E+00  0.93827000000E+00 0.  1.
     999902    2    1    2    0    0  0.17204967813E-01  0.16174426554E-01 -0.10695282596E-02  0.10202917496E+01  0.10200178858E+01 0.  0.
     999903    2    3    3    0    0  0.73242042719E-01  0.10142114524E+00  0.41638305625E-01  0.13336947797E+00  0.20075448595E-01 0.  0.
         14    1    1    2    0    0 -0.17204967813E-01 -0.16174426554E-01  0.10695282596E-02  0.23638250411E-01  0.00000000000E+00 0.  1.
     999901    1    3    3    0    0 -0.56037074906E-01 -0.85246718686E-01 -0.42707833885E-01  0.88692227161E+00  0.88000000000E+00 0.  1.
        -11    1    4    4    0    0  0.22632902944E-01  0.44288922752E-01  0.99392765973E-02  0.50722848052E-01  0.51100000000E-03 0.  1.
         11    1    4    4    0    0  0.50609139775E-01  0.57132222488E-01  0.31699029028E-01  0.82646629922E-01  0.51100000000E-03 0. -1.
</event>
<event>
 8    1  0.1137518E+005  0.1043930E+01  0.7957747E-01            NaN
         13   -1    0    0    0    0  0.00000000000E+00  0.00000000000E+00  0.74505805969E-08  0.10566000000E+00  0.10566000000E+00 0. -1.
     999900   -1    0    0    0    0 -0.00000000000E+00 -0.00000000000E+00 -0.74505805969E-08  0.93827000000E+00  0.93827000000E+00 0.  1.
     999902    2    1    2    0    0  0.22323402574E-01  0.65369723356E-02 -0.49594909143E-02  0.10201463321E+01  0.10198690485E+01 0.  0.
     999903    2    3    3    0    0 -0.69997999047E-02 -0.50556369535E-01  0.11722443394E+00  0.12938911971E+00  0.19875429244E-01 0.  0.
         14    1    1    2    0    0 -0.22323402574E-01 -0.65369723356E-02  0.49594909143E-02  0.23783667924E-01  0.00000000000E+00 0.  1.
     999901    1    3    3    0    0  0.29323202479E-01  0.57093341871E-01 -0.12218392485E+00  0.89075721237E+00  0.88000000000E+00 0.  1.
        -11    1    4    4    0    0 -0.10596159873E-01 -0.49953888143E-01  0.11022009303E+00  0.12147592178E+00  0.51100000000E-03 0. -1.
         11    1    4    4    0    0  0.35963599682E-02 -0.60248139257E-03  0.70043409087E-02  0.79131979259E-02  0.51100000000E-03 0.  1.
</event>
<event>
 8    1  0.1137518E+005  0.1043930E+01  0.7957747E-01            NaN
         13   -1    0    0    0    0  0.00000000000E+00  0.00000000000E+00  0.74505805969E-08  0.10566000000E+00  0.10566000000E+00 0.  1.
     999900   -1    0    0    0    0 -0.00000000000E+00 -0.00000000000E+00 -0.74505805969E-08  0.93827000000E+00  0.93827000000E+00 0.  1.
     999902    2    1    2    0    0  0.13190209605E-01 -0.17668047260E-01  0.91370063613E-02  0.10200631525E+01  0.10197839030E+01 0.  0.
     999903    2    3    3    0    0 -0.12137115342E+00  0.35681944805E-01  0.90678434214E-02  0.12823750428E+00  0.18933400434E-01 0.  0.
         14    1    1    2    0    0 -0.13190209605E-01  0.17668047260E-01 -0.91370063613E-02  0.23866847480E-01  0.00000000000E+00 0. -1.
     999901    1    3    3    0    0  0.13456136303E+00 -0.53349992065E-01  0.69162939935E-04  0.89182564824E+00  0.88000000000E+00 0. -1.
        -11    1    4    4    0    0 -0.81257410768E-01  0.15243017707E-01  0.94305710232E-02  0.83212458108E-01  0.51100000000E-03 0. -1.
         11    1    4    4    0    0 -0.40113742654E-01  0.20438927098E-01 -0.36272760177E-03  0.45025046173E-01  0.51100000000E-03 0.  1.
</event>
<event>
 8    1  0.1137518E+005  0.1043930E+01  0.7957747E-01            NaN
         13   -1    0    0    0    0  0.00000000000E+00  0.00000000000E+00  0.74505805969E-08  0.10566000000E+00  0.10566000000E+00 0. -1.
     999900   -1    0    0    0    0 -0.00000000000E+00 -0.00000000000E+00 -0.74505805969E-08  0.93827000000E+00  0.93827000000E+00 0. -1.
     999902    2    1    2    0    0 -0.19077067915E-01 -0.10537544033E-01  0.77147510816E-02  0.10208109226E+01  0.10205490914E+01 0.  0.
     999903    2    3    3    0    0 -0.95118711035E-01 -0.42353464467E-02 -0.89423817591E-01  0.13218391949E+00  0.20259863509E-01 0.  0.
         14    1    1    2    0    0  0.19077067915E-01  0.10537544033E-01 -0.77147510816E-02  0.23119077377E-01  0.00000000000E+00 0.  1.
     999901    1    3    3    0    0  0.76041643119E-01 -0.63021975865E-02  0.97138568673E-01  0.88862700314E+00  0.88000000000E+00 0.  1.
        -11    1    4    4    0    0 -0.37805374804E-01  0.45667749388E-02 -0.46119494106E-01  0.59811124843E-01  0.51100000000E-03 0. -1.
         11    1    4    4    0    0 -0.57313336231E-01 -0.88021213854E-02 -0.43304323486E-01  0.72372794642E-01  0.51100000000E-03 0.  1.
</event>
<event>
 7    1  0.1137518E+005  0.1043930E+01  0.7957747E-01            NaN
         13   -1    0    0    0    0  0.00000000000E+00  0.00000000000E+00  0.74505805969E-08  0.10566000000E+00  0.10566000000E+00 0.  1.
     999900   -1    0    0    0    0 -0.00000000000E+00 -0.00000000000E+00 -0.74505805969E-08  0.93827000000E+00  0.93827000000E+00 0.  1.
     999903    2    1    2    0    0 -0.15747949292E-01  0.21260524248E-01 -0.92090566758E-01  0.98073251679E-01  0.20920860666E-01 0.  0.
         14    1    1    2    0    0 -0.40542158433E-01  0.36492695956E-01  0.23864961828E-01  0.59539229686E-01  0.00000000000E+00 0.  1.
     999901    1    1    2    0    0  0.56290107725E-01 -0.57753220204E-01  0.68225604929E-01  0.88631751864E+00  0.88000000000E+00 0. -1.
        -11    1    3    3    0    0 -0.13070882791E-01  0.71028741241E-02 -0.70883006006E-01  0.72429002887E-01  0.51100000000E-03 0. -1.
         11    1    3    3    0    0 -0.26770665011E-02  0.14157650124E-01 -0.21207560751E-01  0.25644248792E-01  0.51100000000E-03 0.  1.
</event>
<event>
 8    1  0.1137518E+005  0.1043930E+01  0.7957747E-01            NaN
         13   -1    0    0    0    0  0.00000000000E+00  0.00000000000E+00  0.74505805969E-08  0.10566000000E+00  0.10566000000E+00 0.  1.
     999900   -1    0    0    0    0 -0.00000000000E+00 -0.00000000000E+00 -0.74505805969E-08  0.93827000000E+00  0.93827000000E+00 0.  1.
     999902    2    1    2    0    0  0.18992112264E-01  0.14708708886E-01  0.96098989042E-02  0.10180573001E+01  0.10177284852E+01 0.  0.
     999903    2    3    3    0    0  0.77880320889E-01  0.48744963168E-01 -0.89493029188E-01  0.12988632661E+00  0.20494871330E-01 0.  0.
         14    1    1    2    0    0 -0.18992112264E-01 -0.14708708886E-01 -0.96098989042E-02  0.25872699942E-01  0.00000000000E+00 0.  1.
     999901    1    3    3    0    0 -0.58888208625E-01 -0.34036254281E-01  0.99102928092E-01  0.88817097345E+00  0.88000000000E+00 0. -1.
        -11    1    4    4    0    0  0.61133001682E-01  0.41375562607E-01 -0.59789608469E-01  0.94995997167E-01  0.51100000000E-03 0.  1.
         11    1    4    4    0    0  0.16747319207E-01  0.73694005603E-02 -0.29703420719E-01  0.34890329443E-01  0.51100000000E-03 0. -1.
</event>
<event>
 8    1  0.1137518E+005  0.1043930E+01  0.7957747E-01            NaN
         13   -1    0    0    0    0  0.00000000000E+00  0.00000000000E+00  0.74505805969E-08  0.10566000000E+00  0.10566000000E+00 0. -1.
     999900   -1    0    0    0    0 -0.00000000000E+00 -0.00000000000E+00 -0.74505805969E-08  0.93827000000E+00  0.93827000000E+00 0. -1.
     999902    2    1    2    0    0 -0.60480254692E-04 -0.99448809318E-02  0.21126309177E-01  0.10205799410E+01  0.10203127907E+01 0.  0.
     999903    2    3    3    0    0 -0.12874636880E+00 -0.77976390213E-02  0.14195679202E-01  0.13119099226E+00  0.19316534106E-01 0.  0.
         14    1    1    2    0    0  0.60480254692E-04  0.99448809318E-02 -0.21126309177E-01  0.23350058973E-01  0.00000000000E+00 0.  1.
     999901    1    3    3    0    0  0.12868588854E+00 -0.21472419105E-02  0.69306299748E-02  0.88938894877E+00  0.88000000000E+00 0.  1.
        -11    1    4    4    0    0 -0.73092286140E-01  0.49592752141E-03 -0.24685894941E-03  0.73096171566E-01  0.51100000000E-03 0. -1.
         11    1    4    4    0    0 -0.55654082655E-01 -0.82935665427E-02  0.14442538151E-01  0.58094820694E-01  0.51100000000E-03 0.  1.
</event>
<event>
 8    1  0.1137518E+005  0.1043930E+01  0.7957747E-01            NaN
         13   -1    0    0    0    0  0.00000000000E+00  0.00000000000E+00  0.74505805969E-08  0.10566000000E+00  0.10566000000E+00 0.  1.
     999900   -1    0    0    0    0 -0.00000000000E+00 -0.00000000000E+00 -0.74505805969E-08  0.93827000000E+00  0.93827000000E+00 0.  1.
     999902    2    1    2    0    0 -0.18132553344E-01  0.17870816562E-02  0.16679112585E-01  0.10192282602E+01  0.10189288839E+01 0.  0.
     999903    2    3    3    0    0  0.17577267660E-01 -0.12537236403E+00  0.17760995917E-01  0.12937103211E+00  0.19854998670E-01 0.  0.
         14    1    1    2    0    0  0.18132553344E-01 -0.17870816562E-02 -0.16679112585E-01  0.24701739782E-01  0.00000000000E+00 0.  1.
     999901    1    3    3    0    0 -0.35709821005E-01  0.12715944569E+00 -0.10818833327E-02  0.88985722811E+00  0.88000000000E+00 0.  1.
        -11    1    4    4    0    0 -0.28229386081E-02 -0.46844543580E-01  0.43402380839E-02  0.47132568711E-01  0.51100000000E-03 0.  1.
         11    1    4    4    0    0  0.20400206268E-01 -0.78527820451E-01  0.13420757833E-01  0.82238463400E-01  0.51100000000E-03 0. -1.
</event>
<event>
 8    1  0.1137518E+005  0.1043930E+01  0.7957747E-01            NaN
         13   -1    0    0    0    0  0.00000000000E+00  0.00000000000E+00  0.74505805969E-08  0.10566000000E+00  0.10566000000E+00 0. -1.
     999900   -1    0    0    0    0 -0.00000000000E+00 -0.00000000000E+00 -0.74505805969E-08  0.93827000000E+00  0.93827000000E+00 0. -1.
     999902    2    1    2    0    0 -0.10856496163E-01 -0.18038896385E-01 -0.92212430095E-02  0.10209452961E+01  0.10206865341E+01 0.  0.
     999903    2    3    3    0    0  0.51410152623E-01  0.26611157925E-01  0.11367766844E+00  0.12910735938E+00  0.19873108054E-01 0.  0.
         14    1    1    2    0    0  0.10856496163E-01  0.18038896385E-01  0.92212430095E-02  0.22984703922E-01  0.00000000000E+00 0. -1.
     999901    1    3    3    0    0 -0.62266648787E-01 -0.44650054309E-01 -0.12289891145E+00  0.89183793670E+00  0.88000000000E+00 0.  1.
        -11    1    4    4    0    0  0.18987977395E-01  0.20233591115E-01  0.44564197984E-01  0.52499241499E-01  0.51100000000E-03 0.  1.
         11    1    4    4    0    0  0.32422175228E-01  0.63775668096E-02  0.69113470461E-01  0.76608117880E-01  0.51100000000E-03 0. -1.
</event>
<event>
 8    1  0.1137518E+005  0.1043930E+01  0.7957747E-01            NaN
         13   -1    0    0    0    0  0.00000000000E+00  0.00000000000E+00  0.74505805969E-08  0.10566000000E+00  0.10566000000E+00 0.  1.
     999900   -1    0    0    0    0 -0.00000000000E+00 -0.00000000000E+00 -0.74505805969E-08  0.93827000000E+00  0.93827000000E+00 0.  1.
     999902    2    1    2    0    0 -0.16483400569E-01  0.58419734374E-03 -0.16529116694E-01  0.10205792938E+01  0.10203121285E+01 0.  0.
     999903    2    3    3    0    0 -0.11837752581E+00 -0.45206746501E-01  0.31950360960E-01  0.13219340747E+00  0.19934464287E-01 0.  0.
         14    1    1    2    0    0  0.16483400569E-01 -0.58419734374E-03  0.16529116694E-01  0.23350706189E-01  0.00000000000E+00 0. -1.
     999901    1    3    3    0    0  0.10189412524E+00  0.45790943845E-01 -0.48479477655E-01  0.88838588634E+00  0.88000000000E+00 0. -1.
        -11    1    4    4    0    0 -0.55084884423E-01 -0.12149845596E-01  0.19643524679E-01  0.59733511722E-01  0.51100000000E-03 0.  1.
         11    1    4    4    0    0 -0.63292641389E-01 -0.33056900905E-01  0.12306836281E-01  0.72459895747E-01  0.51100000000E-03 0. -1.
</event>
<event>
 8    1  0.1137518E+005  0.1043930E+01  0.7957747E-01            NaN
         13   -1    0    0    0    0  0.00000000000E+00  0.00000000000E+00  0.74505805969E-08  0.10566000000E+00  0.10566000000E+00 0.  1.
     999900   -1    0    0    0    0 -0.00000000000E+00 -0.00000000000E+00 -0.74505805969E-08  0.93827000000E+00  0.93827000000E+00 0. -1.
     999902    2    1    2    0    0 -0.68055005640E-02 -0.20307054601E-01 -0.21177043580E-02  0.10224084764E+01  0.10221819392E+01 0.  0.
     999903    2    3    3    0    0  0.96402399835E-01  0.80831787714E-01  0.26256941417E-01  0.13017192897E+00  0.20690662610E-01 0.  0.
         14    1    1    2    0    0  0.68055005640E-02  0.20307054601E-01  0.21177043580E-02  0.21521523558E-01  0.00000000000E+00 0. -1.
     999901    1    3    3    0    0 -0.10320790040E+00 -0.10113884232E+00 -0.28374645775E-01  0.89223654748E+00  0.88000000000E+00 0.  1.
        -11    1    4    4    0    0  0.95259423366E-01  0.79492198129E-01  0.22644215183E-01  0.12612053324E+00  0.51100000000E-03 0. -1.
         11    1    4    4    0    0  0.11429764688E-02  0.13395895854E-02  0.36127262332E-02  0.40513957227E-02  0.51100000000E-03 0.  1.
</event>
<event>
 8    1  0.1137518E+005  0.1043930E+01  0.7957747E-01            NaN
         13   -1    0    0    0    0  0.00000000000E+00  0.00000000000E+00  0.74505805969E-08  0.10566000000E+00  0.10566000000E+00 0.  1.
     999900   -1    0    0    0    0 -0.00000000000E+00 -0.00000000000E+00 -0.74505805969E-08  0.93827000000E+00  0.93827000000E+00 0. -1.
     999902    2    1    2    0    0  0.75460752308E-02  0.65319178187E-02 -0.18673567556E-01  0.10227566364E+01  0.10225374448E+01 0.  0.
     999903    2    3    3    0    0  0.12754336733E+00 -0.24267186982E-01 -0.25258689942E-01  0.13405460600E+00  0.21827254927E-01 0.  0.
         14    1    1    2    0    0 -0.75460752308E-02 -0.65319178187E-02  0.18673567556E-01  0.21173363622E-01  0.00000000000E+00 0.  1.
     999901    1    3    3    0    0 -0.11999729210E+00  0.30799104801E-01  0.65851223863E-02  0.88870203038E+00  0.88000000000E+00 0.  1.
        -11    1    4    4    0    0  0.32535528330E-01 -0.15980037809E-01 -0.82769046336E-02  0.37184546298E-01  0.51100000000E-03 0.  1.
         11    1    4    4    0    0  0.95007839000E-01 -0.82871491731E-02 -0.16981785309E-01  0.96870059699E-01  0.51100000000E-03 0. -1.
</event>
<event>
 8    1  0.1137518E+005  0.1043930E+01  0.7957747E-01            NaN
         13   -1    0    0    0    0  0.00000000000E+00  0.00000000000E+00  0.74505805969E-08  0.10566000000E+00  0.10566000000E+00 0.  1.
     999900   -1    0    0    0    0 -0.00000000000E+00 -0.00000000000E+00 -0.74505805969E-08  0.93827000000E+00  0.93827000000E+00 0. -1.
     999902    2    1    2    0    0 -0.25035547019E-02  0.24105223035E-01  0.44350153006E-02  0.10192926518E+01  0.10189948534E+01 0.  0.
     999903    2    3    3    0    0  0.34202837662E-01 -0.25446870447E-01  0.12065756482E+00  0.12951152694E+00  0.19940169096E-01 0.  0.
         14    1    1    2    0    0  0.25035547019E-02 -0.24105223035E-01 -0.44350153006E-02  0.24637348162E-01  0.00000000000E+00 0. -1.
     999901    1    3    3    0    0 -0.36706392364E-01  0.49552093482E-01 -0.11622254951E+00  0.88978112490E+00  0.88000000000E+00 0. -1.
        -11    1    4    4    0    0  0.16962162399E-01 -0.86842370076E-03  0.40918827295E-01  0.44306666103E-01  0.51100000000E-03 0.  1.
         11    1    4    4    0    0  0.17240675264E-01 -0.24578446746E-01  0.79738737521E-01  0.85204860838E-01  0.51100000000E-03 0. -1.
</event>
<event>
 8    1  0.1137518E+005  0.1043930E+01  0.7957747E-01            NaN
         13   -1    0    0    0    0  0.00000000000E+00  0.00000000000E+00  0.74505805969E-08  0.10566000000E+00  0.10566000000E+00 0.  1.
     999900   -1    0    0    0    0 -0.00000000000E+00 -0.00000000000E+00 -0.74505805969E-08  0.93827000000E+00  0.93827000000E+00 0. -1.
     999902    2    1    2    0    0  0.15911688381E-01  0.13264638778E-01 -0.11641748029E-01  0.10201673662E+01  0.10198905786E+01 0.  0.
     999903    2    3    3    0    0 -0.12514044767E+00  0.11947267827E-01  0.20849523348E-01  0.12834164146E+00  0.15297236930E-01 0.  0.
         14    1    1    2    0    0 -0.15911688381E-01 -0.13264638778E-01  0.11641748029E-01  0.23762633823E-01  0.00000000000E+00 0.  1.
     999901    1    3    3    0    0  0.14105213605E+00  0.13173709508E-02 -0.32491271377E-01  0.89182572472E+00  0.88000000000E+00 0.  1.
        -11    1    4    4    0    0 -0.31173683422E-01 -0.32086252671E-02  0.75013168759E-02  0.32227700663E-01  0.51100000000E-03 0.  1.
         11    1    4    4    0    0 -0.93966764247E-01  0.15155893094E-01  0.13348206472E-01  0.96113940797E-01  0.51100000000E-03 0. -1.
</event>
<event>
 8    1  0.1137518E+005  0.1043930E+01  0.7957747E-01            NaN
         13   -1    0    0    0    0  0.00000000000E+00  0.00000000000E+00  0.74505805969E-08  0.10566000000E+00  0.10566000000E+00 0. -1.
     999900   -1    0    0    0    0 -0.00000000000E+00 -0.00000000000E+00 -0.74505805969E-08  0.93827000000E+00  0.93827000000E+00 0. -1.
     999902    2    1    2    0    0  0.58553066158E-02  0.12216882513E-01  0.22953256650E-01  0.10172768796E+01  0.10169276577E+01 0.  0.
     999903    2    3    3    0    0 -0.10336004359E+00  0.77722806027E-02 -0.68651211819E-01  0.12579545760E+00  0.19178146746E-01 0.  0.
         14    1    1    2    0    0 -0.58553066158E-02 -0.12216882513E-01 -0.22953256650E-01  0.26653120356E-01  0.00000000000E+00 0.  1.
     999901    1    3    3    0    0  0.10921535020E+00  0.44446019102E-02  0.91604468469E-01  0.89148142204E+00  0.88000000000E+00 0.  1.
        -11    1    4    4    0    0 -0.70481417685E-01  0.11817183054E-01 -0.53978757087E-01  0.89561394540E-01  0.51100000000E-03 0. -1.
         11    1    4    4    0    0 -0.32878625901E-01 -0.40449024510E-02 -0.14672454732E-01  0.36234063060E-01  0.51100000000E-03 0.  1.
</event>
<event>
 8    1  0.1137518E+005  0.1043930E+01  0.7957747E-01            NaN
         13   -1    0    0    0    0  0.00000000000E+00  0.00000000000E+00  0.74505805969E-08  0.10566000000E+00  0.10566000000E+00 0.  1.
     999900   -1    0    0    0    0 -0.00000000000E+00 -0.00000000000E+00 -0.74505805969E-08  0.93827000000E+00  0.93827000000E+00 0. -1.
     999902    2    1    2    0    0 -0.18898343497E-01 -0.76452060838E-02  0.21424789779E-01  0.10143560557E+01  0.10139248442E+01 0.  0.
     999903    2    3    3    0    0 -0.32291734330E-01  0.92956520268E-01  0.77480010224E-01  0.12675125740E+00  0.19469424815E-01 0.  0.
         14    1    1    2    0    0  0.18898343497E-01  0.76452060838E-02 -0.21424789779E-01  0.29573944276E-01  0.00000000000E+00 0. -1.
     999901    1    3    3    0    0  0.13393390833E-01 -0.10060172635E+00 -0.56055220445E-01  0.88760479832E+00  0.88000000000E+00 0. -1.
        -11    1    4    4    0    0 -0.19365479656E-01  0.57605621821E-01  0.35578359335E-01  0.70423790310E-01  0.51100000000E-03 0.  1.
         11    1    4    4    0    0 -0.12926254674E-01  0.35350898447E-01  0.41901650888E-01  0.56327467093E-01  0.51100000000E-03 0. -1.
</event>
<event>
 8    1  0.1137518E+005  0.1043930E+01  0.7957747E-01            NaN
         13   -1    0    0    0    0  0.00000000000E+00  0.00000000000E+00  0.74505805969E-08  0.10566000000E+00  0.10566000000E+00 0. -1.
     999900   -1    0    0    0    0 -0.00000000000E+00 -0.00000000000E+00 -0.74505805969E-08  0.93827000000E+00  0.93827000000E+00 0.  1.
     999902    2    1    2    0    0  0.23211055605E-01 -0.67085117287E-02 -0.36780683124E-02  0.10194905766E+01  0.10191976012E+01 0.  0.
     999903    2    3    3    0    0  0.56517964788E-01  0.11554784854E+00  0.71784422990E-02  0.13034838790E+00  0.19839015799E-01 0.  0.
         14    1    1    2    0    0 -0.23211055605E-01  0.67085117287E-02  0.36780683124E-02  0.24439423447E-01  0.00000000000E+00 0. -1.
     999901    1    3    3    0    0 -0.33306909183E-01 -0.12225636027E+00 -0.10856510611E-01  0.88914218866E+00  0.88000000000E+00 0. -1.
        -11    1    4    4    0    0  0.38145054820E-01  0.94737329568E-01  0.22842677497E-02  0.10215520457E+00  0.51100000000E-03 0. -1.
         11    1    4    4    0    0  0.18372909968E-01  0.20810518971E-01  0.48941745493E-02  0.28193183326E-01  0.51100000000E-03 0.  1.
</event>
<event>
 8    1  0.1137518E+005  0.1043930E+01  0.7957747E-01            NaN
         13   -1    0    0    0    0  0.00000000000E+00  0.00000000000E+00  0.74505805969E-08  0.10566000000E+00  0.10566000000E+00 0.  1.
     999900   -1    0    0    0    0 -0.00000000000E+00 -0.00000000000E+00 -0.74505805969E-08  0.93827000000E+00  0.93827000000E+00 0. -1.
     999902    2    1    2    0    0  0.23562685268E-01  0.17274727072E-02  0.15311879174E-02  0.10202545098E+01  0.10199797723E+01 0.  0.
     999903    2    3    3    0    0 -0.12194891652E+00  0.32409836224E-01 -0.13509694543E-02  0.12777294669E+00  0.20054053546E-01 0.  0.
         14    1    1    2    0    0 -0.23562685268E-01 -0.17274727072E-02 -0.15311879174E-02  0.23675490184E-01  0.00000000000E+00 0. -1.
     999901    1    3    3    0    0  0.14551160179E+00 -0.30682363517E-01  0.28821573717E-02  0.89248156312E+00  0.88000000000E+00 0. -1.
        -11    1    4    4    0    0 -0.57058405322E-01  0.25276242912E-01  0.15123340110E-02  0.62426743859E-01  0.51100000000E-03 0.  1.
         11    1    4    4    0    0 -0.64890511197E-01  0.71335933115E-02 -0.28633034653E-02  0.65346202833E-01  0.51100000000E-03 0. -1.
</event>
<event>
 8    1  0.1137518E+005  0.1043930E+01  0.7957747E-01            NaN
         13   -1    0    0    0    0  0.00000000000E+00  0.00000000000E+00  0.74505805969E-08  0.10566000000E+00  0.10566000000E+00 0.  1.
     999900   -1    0    0    0    0 -0.00000000000E+00 -0.00000000000E+00 -0.74505805969E-08  0.93827000000E+00  0.93827000000E+00 0.  1.
     999902    2    1    2    0    0 -0.11785834493E-01  0.46844235740E-03  0.20033000688E-01  0.10206824958E+01  0.10204177139E+01 0.  0.
     999903    2    3    3    0    0 -0.10720598418E+00  0.66103268130E-01 -0.32458562392E-01  0.13154341813E+00  0.19681145311E-01 0.  0.
         14    1    1    2    0    0  0.11785834493E-01 -0.46844235740E-03 -0.20033000688E-01  0.23247504156E-01  0.00000000000E+00 0. -1.
     999901    1    3    3    0    0  0.95420149683E-01 -0.65634825773E-01  0.52491563079E-01  0.88913907771E+00  0.88000000000E+00 0. -1.
        -11    1    4    4    0    0 -0.30700909827E-01  0.29296858645E-01 -0.79604666887E-02  0.43179647307E-01  0.51100000000E-03 0.  1.
         11    1    4    4    0    0 -0.76505074349E-01  0.36806409485E-01 -0.24498095703E-01  0.88363770825E-01  0.51100000000E-03 0. -1.
</event>
<event>
 8    1  0.1137518E+005  0.1043930E+01  0.7957747E-01            NaN
         13   -1    0    0    0    0  0.00000000000E+00  0.00000000000E+00  0.74505805969E-08  0.10566000000E+00  0.10566000000E+00 0.  1.
     999900   -1    0    0    0    0 -0.00000000000E+00 -0.00000000000E+00 -0.74505805969E-08  0.93827000000E+00  0.93827000000E+00 0.  1.
     999902    2    1    2    0    0  0.54329585791E-02  0.21237579200E-01 -0.68811674337E-02  0.10209538760E+01  0.10206953094E+01 0.  0.
     999903    2    3    3    0    0 -0.49221805700E-01  0.72711684834E-01  0.96091613400E-01  0.13177441132E+00  0.20521258341E-01 0.  0.
         14    1    1    2    0    0 -0.54329585791E-02 -0.21237579200E-01  0.68811674337E-02  0.22976124008E-01  0.00000000000E+00 0.  1.
     999901    1    3    3    0    0  0.54654764279E-01 -0.51474105634E-01 -0.10297278083E+00  0.88917946468E+00  0.88000000000E+00 0.  1.
        -11    1    4    4    0    0 -0.33382752194E-01  0.59686587980E-01  0.82529326659E-01  0.10718324407E+00  0.51100000000E-03 0.  1.
         11    1    4    4    0    0 -0.15839053506E-01  0.13025096854E-01  0.13562286741E-01  0.24591167249E-01  0.51100000000E-03 0. -1.
</event>
<event>
 8    1  0.1137518E+005  0.1043930E+01  0.7957747E-01            NaN
         13   -1    0    0    0    0  0.00000000000E+00  0.00000000000E+00  0.74505805969E-08  0.10566000000E+00  0.10566000000E+00 0. -1.
     999900   -1    0    0    0    0 -0.00000000000E+00 -0.00000000000E+00 -0.74505805969E-08  0.93827000000E+00  0.93827000000E+00 0. -1.
     999902    2    1    2    0    0 -0.11926236868E-01 -0.54728668521E-02 -0.18077427868E-01  0.10215921220E+01  0.10213478755E+01 0.  0.
     999903    2    3    3    0    0 -0.24196098502E-01 -0.12762708306E+00 -0.19612437450E-01  0.13306831344E+00  0.21175571424E-01 0.  0.
         14    1    1    2    0    0  0.11926236868E-01  0.54728668521E-02  0.18077427868E-01  0.22337878049E-01  0.00000000000E+00 0. -1.
     999901    1    3    3    0    0  0.12269861635E-01  0.12215421621E+00  0.15350095815E-02  0.88852380851E+00  0.88000000000E+00 0.  1.
        -11    1    4    4    0    0 -0.14716968691E-01 -0.59047559988E-01 -0.19269693358E-01  0.63834048212E-01  0.51100000000E-03 0.  1.
         11    1    4    4    0    0 -0.94791298108E-02 -0.68579523072E-01 -0.34274409144E-03  0.69234265225E-01  0.51100000000E-03 0. -1.
</event>
<event>
 8    1  0.1546690E+005  0.1043930E+01  0.7957747E-01            NaN
         13   -1    0    0    0    0  0.00000000000E+00  0.00000000000E+00  0.74505805969E-08  0.10566000000E+00  0.10566000000E+00 0.  1.
     999900   -1    0    0    0    0 -0.00000000000E+00 -0.00000000000E+00 -0.74505805969E-08  0.93827000000E+00  0.93827000000E+00 0.  1.
     999902    2    1    2    0    0  0.70351793982E-02 -0.81864829507E-02 -0.20995880940E-01  0.10203219660E+01  0.10200488101E+01 0.  0.
     999903    2    3    3    0    0  0.12988752974E+00  0.71056346448E-03 -0.31599400524E-02  0.13156441853E+00  0.20686607258E-01 0.  0.
         14    1    1    2    0    0 -0.70351793982E-02  0.81864829507E-02  0.20995880940E-01  0.23608033987E-01  0.00000000000E+00 0.  1.
     999901    1    3    3    0    0 -0.12285235034E+00 -0.88970464151E-02 -0.17835940888E-01  0.88875754748E+00  0.88000000000E+00 0. -1.
        -11    1    4    4    0    0  0.58678318838E-01  0.56878152158E-02  0.73431494259E-02  0.59411104249E-01  0.51100000000E-03 0. -1.
         11    1    4    4    0    0  0.71209210902E-01 -0.49772517513E-02 -0.10503089478E-01  0.72153314282E-01  0.51100000000E-03 0.  1.
</event>
<event>
 8    1  0.1137518E+005  0.1043930E+01  0.7957747E-01            NaN
         13   -1    0    0    0    0  0.00000000000E+00  0.00000000000E+00  0.74505805969E-08  0.10566000000E+00  0.10566000000E+00 0.  1.
     999900   -1    0    0    0    0 -0.00000000000E+00 -0.00000000000E+00 -0.74505805969E-08  0.93827000000E+00  0.93827000000E+00 0.  1.
     999902    2    1    2    0    0 -0.29872364472E-03 -0.18851842401E-01  0.15131690006E-01  0.10197546150E+01  0.10194680111E+01 0.  0.
     999903    2    3    3    0    0  0.10167321900E+00 -0.79207206988E-01 -0.19583534455E-01  0.13113422702E+00  0.14193152309E-01 0.  0.
         14    1    1    2    0    0  0.29872364472E-03  0.18851842401E-01 -0.15131690006E-01  0.24175385006E-01  0.00000000000E+00 0. -1.
     999901    1    3    3    0    0 -0.10197194265E+00  0.60355364587E-01  0.34715224462E-01  0.88862038798E+00  0.88000000000E+00 0. -1.
        -11    1    4    4    0    0  0.10214650541E-01 -0.13978745373E-01 -0.30333232749E-02  0.17584270783E-01  0.51100000000E-03 0.  1.
         11    1    4    4    0    0  0.91458568460E-01 -0.65228461615E-01 -0.16550211180E-01  0.11354995623E+00  0.51100000000E-03 0. -1.
</event>
<event>
 8    1  0.1137518E+005  0.1043930E+01  0.7957747E-01            NaN
         13   -1    0    0    0    0  0.00000000000E+00  0.00000000000E+00  0.74505805969E-08  0.10566000000E+00  0.10566000000E+00 0.  1.
     999900   -1    0    0    0    0 -0.00000000000E+00 -0.00000000000E+00 -0.74505805969E-08  0.93827000000E+00  0.93827000000E+00 0. -1.
     999902    2    1    2    0    0  0.15412604512E-01 -0.12465543644E-01  0.12867245435E-01  0.10202973074E+01  0.10200235739E+01 0.  0.
     999903    2    3    3    0    0 -0.43938038900E-01  0.77696085722E-01  0.92410867501E-01  0.13014068851E+00  0.20726730901E-01 0.  0.
         14    1    1    2    0    0 -0.15412604512E-01  0.12465543644E-01 -0.12867245435E-01  0.23632692637E-01  0.00000000000E+00 0.  1.
     999901    1    3    3    0    0  0.59350643412E-01 -0.90161629366E-01 -0.79543622066E-01  0.89015661886E+00  0.88000000000E+00 0. -1.
        -11    1    4    4    0    0 -0.98484232358E-02  0.20924028855E-01  0.37748892722E-01  0.44272411799E-01  0.51100000000E-03 0.  1.
         11    1    4    4    0    0 -0.34089615664E-01  0.56772056867E-01  0.54661974779E-01  0.85868276707E-01  0.51100000000E-03 0. -1.
</event>
<event>
 8    1  0.1137518E+005  0.1043930E+01  0.7957747E-01            NaN
         13   -1    0    0    0    0  0.00000000000E+00  0.00000000000E+00  0.74505805969E-08  0.10566000000E+00  0.10566000000E+00 0.  1.
     999900   -1    0    0    0    0 -0.00000000000E+00 -0.00000000000E+00 -0.74505805969E-08  0.93827000000E+00  0.93827000000E+00 0. -1.
     999902    2    1    2    0    0 -0.24266571444E-01 -0.12221996622E-01  0.26451396303E-02  0.10166309074E+01  0.10162643168E+01 0.  0.
     999903    2    3    3    0    0  0.40986515063E-02 -0.12683377109E+00  0.12811917614E-01  0.12868732359E+00  0.17107822374E-01 0.  0.
         14    1    1    2    0    0  0.24266571444E-01  0.12221996622E-01 -0.26451396303E-02  0.27299092563E-01  0.00000000000E+00 0. -1.
     999901    1    3    3    0    0 -0.28365222951E-01  0.11461177447E+00 -0.10166777984E-01  0.88794358385E+00  0.88000000000E+00 0.  1.
        -11    1    4    4    0    0 -0.85502190422E-03 -0.39907653308E-01 -0.36120658356E-02  0.40083163493E-01  0.51100000000E-03 0.  1.
         11    1    4    4    0    0  0.49536734105E-02 -0.86926117784E-01  0.16423983450E-01  0.88604160097E-01  0.51100000000E-03 0. -1.
</event>
<event>
 8    1  0.1137518E+005  0.1043930E+01  0.7957747E-01            NaN
         13   -1    0    0    0    0  0.00000000000E+00  0.00000000000E+00  0.74505805969E-08  0.10566000000E+00  0.10566000000E+00 0.  1.
     999900   -1    0    0    0    0 -0.00000000000E+00 -0.00000000000E+00 -0.74505805969E-08  0.93827000000E+00  0.93827000000E+00 0. -1.
     999902    2    1    2    0    0 -0.32810421849E-02 -0.81903926139E-02 -0.21036636238E-01  0.10211179893E+01  0.10208631447E+01 0.  0.
     999903    2    3    3    0    0  0.27984467344E-01 -0.10370527238E+00 -0.77050850447E-01  0.13362814903E+00  0.19538032851E-01 0.  0.
         14    1    1    2    0    0  0.32810421849E-02  0.81903926139E-02  0.21036636238E-01  0.22812010722E-01  0.00000000000E+00 0.  1.
     999901    1    3    3    0    0 -0.31265509529E-01  0.95514879766E-01  0.56014214209E-01  0.88748984024E+00  0.88000000000E+00 0. -1.
        -11    1    4    4    0    0  0.20278574608E-01 -0.82509469913E-01 -0.69714354056E-01  0.10990625776E+00  0.51100000000E-03 0. -1.
         11    1    4    4    0    0  0.77058927363E-02 -0.21195802467E-01 -0.73364963909E-02  0.23721891269E-01  0.51100000000E-03 0.  1.
</event>
<event>
 8    1  0.1137518E+005  0.1043930E+01  0.7957747E-01            NaN
         13   -1    0    0    0    0  0.00000000000E+00  0.00000000000E+00  0.74505805969E-08  0.10566000000E+00  0.10566000000E+00 0. -1.
     999900   -1    0    0    0    0 -0.00000000000E+00 -0.00000000000E+00 -0.74505805969E-08  0.93827000000E+00  0.93827000000E+00 0. -1.
     999902    2    1    2    0    0  0.10907863086E-01 -0.20037249065E-01 -0.27264823935E-01  0.10083794240E+01  0.10077525586E+01 0.  0.
     999903    2    3    3    0    0 -0.87124620471E-01  0.47002781232E-01  0.57534453942E-01  0.11636168261E+00  0.20733230644E-01 0.  0.
         14    1    1    2    0    0 -0.10907863086E-01  0.20037249065E-01  0.27264823935E-01  0.35550575965E-01  0.00000000000E+00 0. -1.
     999901    1    3    3    0    0  0.98032483556E-01 -0.67040030298E-01 -0.84799277878E-01  0.89201774143E+00  0.88000000000E+00 0. -1.
        -11    1    4    4    0    0 -0.57281940082E-01  0.26830274770E-01  0.47071316106E-01  0.78848298807E-01  0.51100000000E-03 0. -1.
         11    1    4    4    0    0 -0.29842680389E-01  0.20172506462E-01  0.10463137837E-01  0.37513383800E-01  0.51100000000E-03 0.  1.
</event>
<event>
 8    1  0.1137518E+005  0.1043930E+01  0.7957747E-01            NaN
         13   -1    0    0    0    0  0.00000000000E+00  0.00000000000E+00  0.74505805969E-08  0.10566000000E+00  0.10566000000E+00 0. -1.
     999900   -1    0    0    0    0 -0.00000000000E+00 -0.00000000000E+00 -0.74505805969E-08  0.93827000000E+00  0.93827000000E+00 0. -1.
     999902    2    1    2    0    0 -0.58394555072E-02 -0.80730725202E-03 -0.23851614182E-01  0.10193607004E+01  0.10190645647E+01 0.  0.
     999903    2    3    3    0    0  0.10478264082E+00  0.44602403824E-01 -0.60999297843E-01  0.13049668351E+00  0.18430784696E-01 0.  0.
         14    1    1    2    0    0  0.58394555072E-02  0.80730725202E-03  0.23851614182E-01  0.24569299638E-01  0.00000000000E+00 0. -1.
     999901    1    3    3    0    0 -0.11062209633E+00 -0.45409711076E-01  0.37147683661E-01  0.88886401685E+00  0.88000000000E+00 0. -1.
        -11    1    4    4    0    0  0.44764755076E-01  0.28466286072E-01 -0.31515814652E-01  0.61706729244E-01  0.51100000000E-03 0.  1.
         11    1    4    4    0    0  0.60017885747E-01  0.16136117753E-01 -0.29483483191E-01  0.68789954265E-01  0.51100000000E-03 0. -1.
</event>
<event>
 8    1  0.1137518E+005  0.1043930E+01  0.7957747E-01            NaN
         13   -1    0    0    0    0  0.00000000000E+00  0.00000000000E+00  0.74505805969E-08  0.10566000000E+00  0.10566000000E+00 0.  1.
     999900   -1    0    0    0    0 -0.00000000000E+00 -0.00000000000E+00 -0.74505805969E-08  0.93827000000E+00  0.93827000000E+00 0. -1.
     999902    2    1    2    0    0 -0.14972634689E-01 -0.15173760762E-01  0.11490505989E-01  0.10197131767E+01  0.10194255775E+01 0.  0.
     999903    2    3    3    0    0  0.79040344241E-01  0.84119044791E-01  0.52232354930E-01  0.12822150552E+00  0.19726780323E-01 0.  0.
         14    1    1    2    0    0  0.14972634689E-01  0.15173760762E-01 -0.11490505989E-01  0.24216823349E-01  0.00000000000E+00 0. -1.
     999901    1    3    3    0    0 -0.94012978930E-01 -0.99292805554E-01 -0.40741848941E-01  0.89149167113E+00  0.88000000000E+00 0. -1.
        -11    1    4    4    0    0  0.70482884591E-02  0.12170318316E-01  0.12939116474E-01  0.19117449470E-01  0.51100000000E-03 0.  1.
         11    1    4    4    0    0  0.71992055782E-01  0.71948726475E-01  0.39293238456E-01  0.10910405605E+00  0.51100000000E-03 0. -1.
</event>
<event>
 8    1  0.1137518E+005  0.1043930E+01  0.7957747E-01            NaN
         13   -1    0    0    0    0  0.00000000000E+00  0.00000000000E+00  0.74505805969E-08  0.10566000000E+00  0.10566000000E+00 0. -1.
     999900   -1    0    0    0    0 -0.00000000000E+00 -0.00000000000E+00 -0.74505805969E-08  0.93827000000E+00  0.93827000000E+00 0. -1.
     999902    2    1    2    0    0 -0.68902496523E-03  0.18032655285E-01  0.14526740506E-01  0.10207636968E+01  0.10205007826E+01 0.  0.
     999903    2    3    3    0    0 -0.36834830922E-01  0.38692463271E-01 -0.11680344922E+00  0.13004434392E+00  0.20361094051E-01 0.  0.
         14    1    1    2    0    0  0.68902496523E-03 -0.18032655285E-01 -0.14526740506E-01  0.23166303152E-01  0.00000000000E+00 0.  1.
     999901    1    3    3    0    0  0.36145805957E-01 -0.20659807987E-01  0.13133018973E+00  0.89071935293E+00  0.88000000000E+00 0.  1.
        -11    1    4    4    0    0 -0.20281136907E-01  0.34201646848E-01 -0.75872984947E-01  0.85662407900E-01  0.51100000000E-03 0. -1.
         11    1    4    4    0    0 -0.16553694015E-01  0.44908164237E-02 -0.40930464275E-01  0.44381936016E-01  0.51100000000E-03 0.  1.
</event>
<event>
 8    1  0.1137518E+005  0.1043930E+01  0.7957747E-01            NaN
         13   -1    0    0    0    0  0.00000000000E+00  0.00000000000E+00  0.74505805969E-08  0.10566000000E+00  0.10566000000E+00 0.  1.
     999900   -1    0    0    0    0 -0.00000000000E+00 -0.00000000000E+00 -0.74505805969E-08  0.93827000000E+00  0.93827000000E+00 0. -1.
     999902    2    1    2    0    0 -0.14157734279E-01  0.23026111442E-01  0.98755250180E-02  0.10151520702E+01  0.10147440842E+01 0.  0.
     999903    2    3    3    0    0 -0.41892411601E-02  0.10648892410E+00 -0.67523522770E-01  0.12776488046E+00  0.20174187804E-01 0.  0.
         14    1    1    2    0    0  0.14157734279E-01 -0.23026111442E-01 -0.98755250180E-02  0.28777929780E-01  0.00000000000E+00 0.  1.
     999901    1    3    3    0    0 -0.99684931191E-02 -0.83462812661E-01  0.77399047788E-01  0.88738718976E+00  0.88000000000E+00 0.  1.
        -11    1    4    4    0    0 -0.11225654526E-02  0.22772920396E-01 -0.24918821647E-01  0.33779799435E-01  0.51100000000E-03 0.  1.
         11    1    4    4    0    0 -0.30666757075E-02  0.83716003707E-01 -0.42604701123E-01  0.93985081025E-01  0.51100000000E-03 0. -1.
</event>
<event>
 8    1  0.1137518E+005  0.1043930E+01  0.7957747E-01            NaN
         13   -1    0    0    0    0  0.00000000000E+00  0.00000000000E+00  0.74505805969E-08  0.10566000000E+00  0.10566000000E+00 0.  1.
     999900   -1    0    0    0    0 -0.00000000000E+00 -0.00000000000E+00 -0.74505805969E-08  0.93827000000E+00  0.93827000000E+00 0.  1.
     999902    2    1    2    0    0 -0.17844250291E-02 -0.59271103582E-02  0.22867973863E-01  0.10202390938E+01  0.10199639942E+01 0.  0.
     999903    2    3    3    0    0  0.46241449990E-01 -0.62563133513E-01  0.10524780048E+00  0.13327767429E+00  0.25167868146E-01 0.  0.
         14    1    1    2    0    0  0.17844250291E-02  0.59271103582E-02 -0.22867973863E-01  0.23690906240E-01  0.00000000000E+00 0. -1.
     999901    1    3    3    0    0 -0.48025875019E-01  0.56636023155E-01 -0.82379826616E-01  0.88696141947E+00  0.88000000000E+00 0.  1.
        -11    1    4    4    0    0  0.36744757971E-01 -0.44603716976E-01  0.58156338023E-01  0.81988350268E-01  0.51100000000E-03 0. -1.
         11    1    4    4    0    0  0.94966920188E-02 -0.17959416537E-01  0.47091462456E-01  0.51289324025E-01  0.51100000000E-03 0.  1.
</event>
<event>
 8    1  0.1137518E+005  0.1043930E+01  0.7957747E-01            NaN
         13   -1    0    0    0    0  0.00000000000E+00  0.00000000000E+00  0.74505805969E-08  0.10566000000E+00  0.10566000000E+00 0.  1.
     999900   -1    0    0    0    0 -0.00000000000E+00 -0.00000000000E+00 -0.74505805969E-08  0.93827000000E+00  0.93827000000E+00 0. -1.
     999902    2    1    2    0    0 -0.49744963845E-02 -0.19497022581E-02 -0.17144790152E-01  0.10259719716E+01  0.10258147961E+01 0.  0.
     999903    2    3    3    0    0 -0.12477841612E-01  0.12416924278E+00 -0.51099025149E-01  0.13630058368E+00  0.19825270667E-01 0.  0.
         14    1    1    2    0    0  0.49744963845E-02  0.19497022581E-02  0.17144790152E-01  0.17958028358E-01  0.00000000000E+00 0.  1.
     999901    1    3    3    0    0  0.75033452278E-02 -0.12611894503E+00  0.33954234997E-01  0.88967138796E+00  0.88000000000E+00 0.  1.
        -11    1    4    4    0    0 -0.14833374679E-01  0.94672551096E-01 -0.31792975385E-01  0.10096521847E+00  0.51100000000E-03 0.  1.
         11    1    4    4    0    0  0.23555330665E-02  0.29496691680E-01 -0.19306049763E-01  0.35335365211E-01  0.51100000000E-03 0. -1.
</event>
<event>
 8    1  0.1137518E+005  0.1043930E+01  0.7957747E-01            NaN
         13   -1    0    0    0    0  0.00000000000E+00  0.00000000000E+00  0.74505805969E-08  0.10566000000E+00  0.10566000000E+00 0.  1.
     999900   -1    0    0    0    0 -0.00000000000E+00 -0.00000000000E+00 -0.74505805969E-08  0.93827000000E+00  0.93827000000E+00 0.  1.
     999902    2    1    2    0    0  0.25675422928E-01 -0.40255891661E-02  0.19021452356E-02  0.10178713955E+01  0.10175377767E+01 0.  0.
     999903    2    3    3    0    0 -0.31941186853E-01 -0.19908855331E-01  0.12065184867E+00  0.12788631479E+00  0.19530463003E-01 0.  0.
         14    1    1    2    0    0 -0.25675422928E-01  0.40255891661E-02 -0.19021452356E-02  0.26058604475E-01  0.00000000000E+00 0. -1.
     999901    1    3    3    0    0  0.57616609781E-01  0.15883266165E-01 -0.11874970343E+00  0.88998508074E+00  0.88000000000E+00 0.  1.
        -11    1    4    4    0    0 -0.13421367653E-01 -0.34344048852E-02  0.71547675162E-01  0.72878386293E-01  0.51100000000E-03 0. -1.
         11    1    4    4    0    0 -0.18519819200E-01 -0.16474450446E-01  0.49104173507E-01  0.55007928496E-01  0.51100000000E-03 0.  1.
</event>
<event>
 8    1  0.1137518E+005  0.1043930E+01  0.7957747E-01            NaN
         13   -1    0    0    0    0  0.00000000000E+00  0.00000000000E+00  0.74505805969E-08  0.10566000000E+00  0.10566000000E+00 0.  1.
     999900   -1    0    0    0    0 -0.00000000000E+00 -0.00000000000E+00 -0.74505805969E-08  0.93827000000E+00  0.93827000000E+00 0. -1.
     999902    2    1    2    0    0  0.56014643728E-02  0.17369965631E-01 -0.12919386738E-01  0.10215692607E+01  0.10213245085E+01 0.  0.
     999903    2    3    3    0    0 -0.34754961585E-01  0.20630762329E-01 -0.12564525814E+00  0.13345530629E+00  0.19749738584E-01 0.  0.
         14    1    1    2    0    0 -0.56014643728E-02 -0.17369965631E-01  0.12919386738E-01  0.22360739318E-01  0.00000000000E+00 0. -1.
     999901    1    3    3    0    0  0.40356425958E-01 -0.32607966983E-02  0.11272587140E+00  0.88811395440E+00  0.88000000000E+00 0.  1.
        -11    1    4    4    0    0 -0.31769816735E-01  0.22418102199E-01 -0.95618315109E-01  0.10322313630E+00  0.51100000000E-03 0.  1.
         11    1    4    4    0    0 -0.29851448493E-02 -0.17873398691E-02 -0.30026943029E-01  0.30232169989E-01  0.51100000000E-03 0. -1.
</event>
<event>
 8    1  0.1137518E+005  0.1043930E+01  0.7957747E-01            NaN
         13   -1    0    0    0    0  0.00000000000E+00  0.00000000000E+00  0.74505805969E-08  0.10566000000E+00  0.10566000000E+00 0. -1.
     999900   -1    0    0    0    0 -0.00000000000E+00 -0.00000000000E+00 -0.74505805969E-08  0.93827000000E+00  0.93827000000E+00 0.  1.
     999902    2    1    2    0    0 -0.15393632629E-01  0.16323937263E-01  0.60693493939E-02  0.10206862513E+01  0.10204215559E+01 0.  0.
     999903    2    3    3    0    0 -0.60871554631E-01 -0.81458079064E-01 -0.78626553802E-01  0.13006682630E+00  0.19861508818E-01 0.  0.
         14    1    1    2    0    0  0.15393632629E-01 -0.16323937263E-01 -0.60693493939E-02  0.23243748737E-01  0.00000000000E+00 0.  1.
     999901    1    3    3    0    0  0.45477922002E-01  0.97782016327E-01  0.84695903196E-01  0.89061942496E+00  0.88000000000E+00 0. -1.
        -11    1    4    4    0    0 -0.41621796486E-01 -0.64832031314E-01 -0.50389826014E-01  0.92059556341E-01  0.51100000000E-03 0.  1.
         11    1    4    4    0    0 -0.19249758145E-01 -0.16626047751E-01 -0.28236727788E-01  0.38007269957E-01  0.51100000000E-03 0. -1.
</event>
<event>
 8    1  0.1137518E+005  0.1043930E+01  0.7957747E-01            NaN
         13   -1    0    0    0    0  0.00000000000E+00  0.00000000000E+00  0.74505805969E-08  0.10566000000E+00  0.10566000000E+00 0. -1.
     999900   -1    0    0    0    0 -0.00000000000E+00 -0.00000000000E+00 -0.74505805969E-08  0.93827000000E+00  0.93827000000E+00 0. -1.
     999902    2    1    2    0    0  0.57017300283E-02  0.97272272984E-02 -0.21634772331E-01  0.10195334418E+01  0.10192415057E+01 0.  0.
     999903    2    3    3    0    0  0.44689698805E-01 -0.11960070355E+00 -0.22724843756E-02  0.12901635969E+00  0.18399984023E-01 0.  0.
         14    1    1    2    0    0 -0.57017300283E-02 -0.97272272984E-02  0.21634772331E-01  0.24396558160E-01  0.00000000000E+00 0. -1.
     999901    1    3    3    0    0 -0.38987968777E-01  0.12932793085E+00 -0.19362287955E-01  0.89051708215E+00  0.88000000000E+00 0. -1.
        -11    1    4    4    0    0  0.27857434039E-01 -0.90977863978E-01 -0.73019065548E-02  0.95428440863E-01  0.51100000000E-03 0.  1.
         11    1    4    4    0    0  0.16832264766E-01 -0.28622839577E-01  0.50294221791E-02  0.33587918826E-01  0.51100000000E-03 0. -1.
</event>
<event>
 8    1  0.1137518E+005  0.1043930E+01  0.7957747E-01            NaN
         13   -1    0    0    0    0  0.00000000000E+00  0.00000000000E+00  0.74505805969E-08  0.10566000000E+00  0.10566000000E+00 0.  1.
     999900   -1    0    0    0    0 -0.00000000000E+00 -0.00000000000E+00 -0.74505805969E-08  0.93827000000E+00  0.93827000000E+00 0. -1.
     999902    2    1    2    0    0 -0.10383600018E-01 -0.10362296835E-01 -0.18439251089E-01  0.10203672683E+01  0.10200951720E+01 0.  0.
     999903    2    3    3    0    0 -0.85048875685E-01 -0.93551351925E-02 -0.10036295596E+00  0.13341326092E+00  0.20138159070E-01 0.  0.
         14    1    1    2    0    0  0.10383600018E-01  0.10362296835E-01  0.18439251089E-01  0.23562731712E-01  0.00000000000E+00 0.  1.
     999901    1    3    3    0    0  0.74665275667E-01 -0.10071616422E-02  0.81923704870E-01  0.88695400737E+00  0.88000000000E+00 0.  1.
        -11    1    4    4    0    0 -0.35119969893E-01 -0.62054263453E-04 -0.27562593331E-01  0.44647215010E-01  0.51100000000E-03 0. -1.
         11    1    4    4    0    0 -0.49928905793E-01 -0.92930809291E-02 -0.72800362628E-01  0.88766045911E-01  0.51100000000E-03 0.  1.
</event>
<event>
 8    1  0.1210202E+005  0.1043930E+01  0.7957747E-01            NaN
         13   -1    0    0    0    0  0.00000000000E+00  0.00000000000E+00  0.74505805969E-08  0.10566000000E+00  0.10566000000E+00 0. -1.
     999900   -1    0    0    0    0 -0.00000000000E+00 -0.00000000000E+00 -0.74505805969E-08  0.93827000000E+00  0.93827000000E+00 0. -1.
     999902    2    1    2    0    0 -0.74419428062E-02  0.18816708511E-01 -0.17056078894E-01  0.10174656682E+01  0.10171214407E+01 0.  0.
     999903    2    3    3    0    0  0.33282635845E-01  0.10758591487E+00 -0.63366010811E-01  0.13085240801E+00  0.20606756874E-01 0.  0.
         14    1    1    2    0    0  0.74419428062E-02 -0.18816708511E-01  0.17056078894E-01  0.26464331829E-01  0.00000000000E+00 0. -1.
     999901    1    3    3    0    0 -0.40724578652E-01 -0.88769206356E-01  0.46309931918E-01  0.88661326016E+00  0.88000000000E+00 0.  1.
        -11    1    4    4    0    0  0.10684831204E-01  0.37060695354E-01 -0.10873364549E-01  0.40076825418E-01  0.51100000000E-03 0.  1.
         11    1    4    4    0    0  0.22597804641E-01  0.70525219512E-01 -0.52492646262E-01  0.90775582589E-01  0.51100000000E-03 0. -1.
</event>
<event>
 8    1  0.1137518E+005  0.1043930E+01  0.7957747E-01            NaN
         13   -1    0    0    0    0  0.00000000000E+00  0.00000000000E+00  0.74505805969E-08  0.10566000000E+00  0.10566000000E+00 0.  1.
     999900   -1    0    0    0    0 -0.00000000000E+00 -0.00000000000E+00 -0.74505805969E-08  0.93827000000E+00  0.93827000000E+00 0. -1.
     999902    2    1    2    0    0  0.78688590534E-02  0.13951949357E-01  0.16297040642E-01  0.10210789745E+01  0.10208232476E+01 0.  0.
     999903    2    3    3    0    0 -0.18960988629E-02 -0.64056756757E-01 -0.10956357857E+00  0.12865440730E+00  0.20997987783E-01 0.  0.
         14    1    1    2    0    0 -0.78688590534E-02 -0.13951949357E-01 -0.16297040642E-01  0.22851025521E-01  0.00000000000E+00 0. -1.
     999901    1    3    3    0    0  0.97649579163E-02  0.78008706114E-01  0.12586061922E+00  0.89242456718E+00  0.88000000000E+00 0. -1.
        -11    1    4    4    0    0 -0.79660056606E-02 -0.34505635200E-01 -0.73835711270E-01  0.81890594615E-01  0.51100000000E-03 0.  1.
         11    1    4    4    0    0  0.60699067978E-02 -0.29551121557E-01 -0.35727867305E-01  0.46763812686E-01  0.51100000000E-03 0. -1.
</event>
<event>
 8    1  0.1137518E+005  0.1043930E+01  0.7957747E-01            NaN
         13   -1    0    0    0    0  0.00000000000E+00  0.00000000000E+00  0.74505805969E-08  0.10566000000E+00  0.10566000000E+00 0. -1.
     999900   -1    0    0    0    0 -0.00000000000E+00 -0.00000000000E+00 -0.74505805969E-08  0.93827000000E+00  0.93827000000E+00 0.  1.
     999902    2    1    2    0    0 -0.90652306753E-04  0.16257490087E-01  0.16413032762E-01  0.10208280121E+01  0.10205665722E+01 0.  0.
     999903    2    3    3    0    0  0.11779663251E+00 -0.47238556389E-01  0.25127089364E-01  0.13065662710E+00  0.18227883757E-01 0.  0.
         14    1    1    2    0    0  0.90652306753E-04 -0.16257490087E-01 -0.16413032762E-01  0.23101987928E-01  0.00000000000E+00 0.  1.
     999901    1    3    3    0    0 -0.11788728481E+00  0.63496046476E-01 -0.87140566021E-02  0.89017138497E+00  0.88000000000E+00 0. -1.
        -11    1    4    4    0    0  0.40508866679E-01 -0.25716724740E-01  0.90057662506E-02  0.48822977763E-01  0.51100000000E-03 0.  1.
         11    1    4    4    0    0  0.77287765827E-01 -0.21521831649E-01  0.16121323113E-01  0.81833649338E-01  0.51100000000E-03 0. -1.
</event>
<event>
 8    1  0.1137518E+005  0.1043930E+01  0.7957747E-01            NaN
         13   -1    0    0    0    0  0.00000000000E+00  0.00000000000E+00  0.74505805969E-08  0.10566000000E+00  0.10566000000E+00 0.  1.
     999900   -1    0    0    0    0 -0.00000000000E+00 -0.00000000000E+00 -0.74505805969E-08  0.93827000000E+00  0.93827000000E+00 0.  1.
     999902    2    1    2    0    0 -0.33181851061E-03  0.18522123516E-01 -0.14921170841E-01  0.10201430182E+01  0.10198656564E+01 0.  0.
     999903    2    3    3    0    0  0.73957227300E-01 -0.72598946504E-01  0.72597444680E-01  0.12802115446E+00  0.19461462230E-01 0.  0.
         14    1    1    2    0    0  0.33181851061E-03 -0.18522123516E-01  0.14921170841E-01  0.23786981782E-01  0.00000000000E+00 0.  1.
     999901    1    3    3    0    0 -0.74289045811E-01  0.91121070020E-01 -0.87518615521E-01  0.89212186376E+00  0.88000000000E+00 0. -1.
        -11    1    4    4    0    0  0.45877429561E-01 -0.53386166287E-01  0.57060246474E-01  0.90614315329E-01  0.51100000000E-03 0.  1.
         11    1    4    4    0    0  0.28079797739E-01 -0.19212780218E-01  0.15537198206E-01  0.37406839132E-01  0.51100000000E-03 0. -1.
</event>
<event>
 8    1  0.1137518E+005  0.1043930E+01  0.7957747E-01            NaN
         13   -1    0    0    0    0  0.00000000000E+00  0.00000000000E+00  0.74505805969E-08  0.10566000000E+00  0.10566000000E+00 0. -1.
     999900   -1    0    0    0    0 -0.00000000000E+00 -0.00000000000E+00 -0.74505805969E-08  0.93827000000E+00  0.93827000000E+00 0.  1.
     999902    2    1    2    0    0  0.59707865980E-02 -0.22853227256E-01  0.35442259586E-02  0.10200452386E+01  0.10197655647E+01 0.  0.
     999903    2    3    3    0    0 -0.12161975977E+00  0.92514257736E-02 -0.37449634657E-01  0.12932050399E+00  0.21079913937E-01 0.  0.
         14    1    1    2    0    0 -0.59707865980E-02  0.22853227256E-01 -0.35442259586E-02  0.23884761382E-01  0.00000000000E+00 0. -1.
     999901    1    3    3    0    0  0.12759054637E+00 -0.32104653030E-01  0.40993860616E-01  0.89072473463E+00  0.88000000000E+00 0. -1.
        -11    1    4    4    0    0 -0.93576806345E-01 -0.18962156329E-02 -0.28233137307E-01  0.97762904430E-01  0.51100000000E-03 0.  1.
         11    1    4    4    0    0 -0.28042953424E-01  0.11147641407E-01 -0.92164973495E-02  0.31557599561E-01  0.51100000000E-03 0. -1.
</event>
<event>
 8    1  0.1137518E+005  0.1043930E+01  0.7957747E-01            NaN
         13   -1    0    0    0    0  0.00000000000E+00  0.00000000000E+00  0.74505805969E-08  0.10566000000E+00  0.10566000000E+00 0. -1.
     999900   -1    0    0    0    0 -0.00000000000E+00 -0.00000000000E+00 -0.74505805969E-08  0.93827000000E+00  0.93827000000E+00 0.  1.
     999902    2    1    2    0    0  0.33877953861E-02  0.17300838836E-01 -0.55828469989E-02  0.10254377215E+01  0.10252709673E+01 0.  0.
     999903    2    3    3    0    0 -0.65018951641E-01 -0.33523345134E-01 -0.11178379928E+00  0.13496524977E+00  0.19202138491E-01 0.  0.
         14    1    1    2    0    0 -0.33877953861E-02 -0.17300838836E-01  0.55828469989E-02  0.18492278459E-01  0.00000000000E+00 0. -1.
     999901    1    3    3    0    0  0.68406747027E-01  0.50824183970E-01  0.10620095228E+00  0.89047247177E+00  0.88000000000E+00 0. -1.
        -11    1    4    4    0    0 -0.25631277992E-01 -0.23836484562E-01 -0.49098642558E-01  0.60299902403E-01  0.51100000000E-03 0.  1.
         11    1    4    4    0    0 -0.39387673648E-01 -0.96868605723E-02 -0.62685156723E-01  0.74665347367E-01  0.51100000000E-03 0. -1.
</event>
<event>
 8    1  0.1137518E+005  0.1043930E+01  0.7957747E-01            NaN
         13   -1    0    0    0    0  0.00000000000E+00  0.00000000000E+00  0.74505805969E-08  0.10566000000E+00  0.10566000000E+00 0. -1.
     999900   -1    0    0    0    0 -0.00000000000E+00 -0.00000000000E+00 -0.74505805969E-08  0.93827000000E+00  0.93827000000E+00 0.  1.
     999902    2    1    2    0    0  0.67350418553E-03  0.18839878963E-01 -0.14516072342E-01  0.10201369127E+01  0.10198594068E+01 0.  0.
     999903    2    3    3    0    0  0.56041658497E-01 -0.39109040464E-01 -0.11027041169E+00  0.13132163195E+00  0.20386828869E-01 0.  0.
         14    1    1    2    0    0 -0.67350418553E-03 -0.18839878963E-01  0.14516072342E-01  0.23793087304E-01  0.00000000000E+00 0. -1.
     999901    1    3    3    0    0 -0.55368154311E-01  0.57948919427E-01  0.95754339351E-01  0.88881528074E+00  0.88000000000E+00 0. -1.
        -11    1    4    4    0    0  0.27389228692E-02 -0.95698001412E-02 -0.20835644489E-01  0.23096925672E-01  0.51100000000E-03 0.  1.
         11    1    4    4    0    0  0.53302735628E-01 -0.29539240322E-01 -0.89434767203E-01  0.10822470628E+00  0.51100000000E-03 0. -1.
</event>
<event>
 8    1  0.1137518E+005  0.1043930E+01  0.7957747E-01            NaN
         13   -1    0    0    0    0  0.00000000000E+00  0.00000000000E+00  0.74505805969E-08  0.10566000000E+00  0.10566000000E+00 0. -1.
     999900   -1    0    0    0    0 -0.00000000000E+00 -0.00000000000E+00 -0.74505805969E-08  0.93827000000E+00  0.93827000000E+00 0. -1.
     999902    2    1    2    0    0  0.20654560017E-01  0.33765379258E-03 -0.46376709976E-02  0.10227584896E+01  0.10225393368E+01 0.  0.
     999903    2    3    3    0    0  0.98956516005E-01 -0.87783038804E-01 -0.15814319424E-01  0.13482754059E+00  0.20739311480E-01 0.  0.
         14    1    1    2    0    0 -0.20654560017E-01 -0.33765379258E-03  0.46376709976E-02  0.21171510382E-01  0.00000000000E+00 0.  1.
     999901    1    3    3    0    0 -0.78301955988E-01  0.88120692596E-01  0.11176648426E-01  0.88793094903E+00  0.88000000000E+00 0. -1.
        -11    1    4    4    0    0  0.72431227870E-01 -0.56800833708E-01 -0.30909916976E-02  0.92100123949E-01  0.51100000000E-03 0. -1.
         11    1    4    4    0    0  0.26525288135E-01 -0.30982205095E-01 -0.12723327726E-01  0.42727416639E-01  0.51100000000E-03 0.  1.
</event>
<event>
 8    1  0.1137518E+005  0.1043930E+01  0.7957747E-01            NaN
         13   -1    0    0    0    0  0.00000000000E+00  0.00000000000E+00  0.74505805969E-08  0.10566000000E+00  0.10566000000E+00 0.  1.
     999900   -1    0    0    0    0 -0.00000000000E+00 -0.00000000000E+00 -0.74505805969E-08  0.93827000000E+00  0.93827000000E+00 0. -1.
     999902    2    1    2    0    0 -0.16397581131E-01 -0.96698376860E-02 -0.12127240639E-01  0.10213588593E+01  0.10211094276E+01 0.  0.
     999903    2    3    3    0    0 -0.56849124836E-03 -0.10587404149E+00  0.75880688482E-01  0.13161102731E+00  0.18813499965E-01 0.  0.
         14    1    1    2    0    0  0.16397581131E-01  0.96698376860E-02  0.12127240639E-01  0.22571140718E-01  0.00000000000E+00 0.  1.
     999901    1    3    3    0    0 -0.15829089882E-01  0.96204203802E-01 -0.88007929121E-01  0.88974783197E+00  0.88000000000E+00 0. -1.
        -11    1    4    4    0    0 -0.88427412797E-02 -0.32619461129E-01  0.24741671166E-01  0.41888360326E-01  0.51100000000E-03 0. -1.
         11    1    4    4    0    0  0.82742500313E-02 -0.73254580360E-01  0.51139017315E-01  0.89722666981E-01  0.51100000000E-03 0.  1.
</event>
<event>
 8    1  0.1137518E+005  0.1043930E+01  0.7957747E-01            NaN
         13   -1    0    0    0    0  0.00000000000E+00  0.00000000000E+00  0.74505805969E-08  0.10566000000E+00  0.10566000000E+00 0.  1.
     999900   -1    0    0    0    0 -0.00000000000E+00 -0.00000000000E+00 -0.74505805969E-08  0.93827000000E+00  0.93827000000E+00 0.  1.
     999902    2    1    2    0    0  0.18673118292E-01  0.10717449183E-01 -0.97585032589E-02  0.10202915261E+01  0.10200176571E+01 0.  0.
     999903    2    3    3    0    0  0.15816309030E-01  0.45633465784E-01 -0.12187696383E+00  0.13248645807E+00  0.19133698767E-01 0.  0.
         14    1    1    2    0    0 -0.18673118292E-01 -0.10717449183E-01  0.97585032589E-02  0.23638473927E-01  0.00000000000E+00 0.  1.
     999901    1    3    3    0    0  0.28568092619E-02 -0.34916016601E-01  0.11211846057E+00  0.88780506800E+00  0.88000000000E+00 0. -1.
        -11    1    4    4    0    0  0.72585438849E-02  0.27340931891E-01 -0.46336065770E-01  0.54290930440E-01  0.51100000000E-03 0.  1.
         11    1    4    4    0    0  0.85577651451E-02  0.18292533893E-01 -0.75540898059E-01  0.78195527629E-01  0.51100000000E-03 0. -1.
</event>
<event>
 8    1  0.1137518E+005  0.1043930E+01  0.7957747E-01            NaN
         13   -1    0    0    0    0  0.00000000000E+00  0.00000000000E+00  0.74505805969E-08  0.10566000000E+00  0.10566000000E+00 0.  1.
     999900   -1    0    0    0    0 -0.00000000000E+00 -0.00000000000E+00 -0.74505805969E-08  0.93827000000E+00  0.93827000000E+00 0.  1.
     999902    2    1    2    0    0 -0.21426786621E-01  0.92942321031E-02  0.35265859515E-02  0.10203095270E+01  0.10200360798E+01 0.  0.
     999903    2    3    3    0    0  0.11464962405E+00  0.45131820881E-01  0.31114944345E-01  0.12870297712E+00  0.20369069854E-01 0.  0.
         14    1    1    2    0    0  0.21426786621E-01 -0.92942321031E-02 -0.35265859515E-02  0.23620472979E-01  0.00000000000E+00 0.  1.
     999901    1    3    3    0    0 -0.13607641067E+00 -0.35837588778E-01 -0.27588358394E-01  0.89160654990E+00  0.88000000000E+00 0. -1.
        -11    1    4    4    0    0  0.66601343702E-01  0.30048395673E-01  0.87229725377E-02  0.73586659364E-01  0.51100000000E-03 0. -1.
         11    1    4    4    0    0  0.48048280347E-01  0.15083425208E-01  0.22391971807E-01  0.55116317754E-01  0.51100000000E-03 0.  1.
</event>
<event>
 8    1  0.1137518E+005  0.1043930E+01  0.7957747E-01            NaN
         13   -1    0    0    0    0  0.00000000000E+00  0.00000000000E+00  0.74505805969E-08  0.10566000000E+00  0.10566000000E+00 0. -1.
     999900   -1    0    0    0    0 -0.00000000000E+00 -0.00000000000E+00 -0.74505805969E-08  0.93827000000E+00  0.93827000000E+00 0.  1.
     999902    2    1    2    0    0 -0.19204979666E-01 -0.17745344676E-01  0.15895411949E-02  0.10177335280E+01  0.10173963234E+01 0.  0.
     999903    2    3    3    0    0 -0.14106530371E-01  0.12243707398E+00  0.19918516022E-01  0.12643500566E+00  0.19980793066E-01 0.  0.
         14    1    1    2    0    0  0.19204979666E-01  0.17745344676E-01 -0.15895411949E-02  0.26196471954E-01  0.00000000000E+00 0. -1.
     999901    1    3    3    0    0 -0.50984492947E-02 -0.14018241866E+00 -0.18328974827E-01  0.89129852238E+00  0.88000000000E+00 0.  1.
        -11    1    4    4    0    0 -0.11162158778E-01  0.61205847163E-01  0.19249622133E-01  0.65127249203E-01  0.51100000000E-03 0.  1.
         11    1    4    4    0    0 -0.29443715935E-02  0.61231226819E-01  0.66889388937E-03  0.61307756458E-01  0.51100000000E-03 0. -1.
</event>
<event>
 8    1  0.1185063E+005  0.1043930E+01  0.7957747E-01            NaN
         13   -1    0    0    0    0  0.00000000000E+00  0.00000000000E+00  0.74505805969E-08  0.10566000000E+00  0.10566000000E+00 0.  1.
     999900   -1    0    0    0    0 -0.00000000000E+00 -0.00000000000E+00 -0.74505805969E-08  0.93827000000E+00  0.93827000000E+00 0. -1.
     999902    2    1    2    0    0  0.12211297203E-01  0.21780663051E-01 -0.11165295304E-01  0.10165771778E+01  0.10162091230E+01 0.  0.
     999903    2    3    3    0    0 -0.52332575095E-01  0.36895864228E-02 -0.11501098833E+00  0.12793938520E+00  0.19714141734E-01 0.  0.
         14    1    1    2    0    0 -0.12211297203E-01 -0.21780663051E-01  0.11165295304E-01  0.27352822186E-01  0.00000000000E+00 0. -1.
     999901    1    3    3    0    0  0.64543872298E-01  0.18091076628E-01  0.10384569303E+00  0.88863779262E+00  0.88000000000E+00 0.  1.
        -11    1    4    4    0    0 -0.38505552046E-01  0.35739227742E-02 -0.61346142658E-01  0.72519382253E-01  0.51100000000E-03 0. -1.
         11    1    4    4    0    0 -0.13827023049E-01  0.11566364866E-03 -0.53664845672E-01  0.55420002945E-01  0.51100000000E-03 0.  1.
</event>
<event>
 8    1  0.1137518E+005  0.1043930E+01  0.7957747E-01            NaN
         13   -1    0    0    0    0  0.00000000000E+00  0.00000000000E+00  0.74505805969E-08  0.10566000000E+00  0.10566000000E+00 0. -1.
     999900   -1    0    0    0    0 -0.00000000000E+00 -0.00000000000E+00 -0.74505805969E-08  0.93827000000E+00  0.93827000000E+00 0.  1.
     999902    2    1    2    0    0 -0.10573641322E-01  0.20829150181E-01 -0.50882641521E-02  0.10200229755E+01  0.10197427738E+01 0.  0.
     999903    2    3    3    0    0 -0.25879823916E-02 -0.64708410460E-01  0.10933776209E+00  0.12846604490E+00  0.18838854432E-01 0.  0.
         14    1    1    2    0    0  0.10573641322E-01 -0.20829150181E-01  0.50882641521E-02  0.23907024494E-01  0.00000000000E+00 0.  1.
     999901    1    3    3    0    0 -0.79856589306E-02  0.85537560640E-01 -0.11442602624E+00  0.89155693061E+00  0.88000000000E+00 0.  1.
        -11    1    4    4    0    0  0.51261701762E-02 -0.45459524211E-01  0.64672107261E-01  0.79218612338E-01  0.51100000000E-03 0. -1.
         11    1    4    4    0    0 -0.77141525678E-02 -0.19248886249E-01  0.44665654830E-01  0.49247432563E-01  0.51100000000E-03 0.  1.
</event>
<event>
 8    1  0.1137518E+005  0.1043930E+01  0.7957747E-01            NaN
         13   -1    0    0    0    0  0.00000000000E+00  0.00000000000E+00  0.74505805969E-08  0.10566000000E+00  0.10566000000E+00 0.  1.
     999900   -1    0    0    0    0 -0.00000000000E+00 -0.00000000000E+00 -0.74505805969E-08  0.93827000000E+00  0.93827000000E+00 0.  1.
     999902    2    1    2    0    0 -0.57453722772E-03  0.50764193787E-02  0.23375223736E-01  0.10200030025E+01  0.10197223268E+01 0.  0.
     999903    2    3    3    0    0 -0.49588935130E-01  0.11935185341E+00  0.76026209934E-02  0.13112164872E+00  0.20764380957E-01 0.  0.
         14    1    1    2    0    0  0.57453722772E-03 -0.50764193787E-02 -0.23375223736E-01  0.23926997543E-01  0.00000000000E+00 0. -1.
     999901    1    3    3    0    0  0.49014397903E-01 -0.11427543403E+00  0.15772602742E-01  0.88888135374E+00  0.88000000000E+00 0.  1.
        -11    1    4    4    0    0 -0.28207988940E-01  0.59969702800E-01 -0.60356848131E-02  0.66548827984E-01  0.51100000000E-03 0.  1.
         11    1    4    4    0    0 -0.21380946190E-01  0.59382150613E-01  0.13638305806E-01  0.64572820735E-01  0.51100000000E-03 0. -1.
</event>
<event>
 8    1  0.1137518E+005  0.1043930E+01  0.7957747E-01            NaN
         13   -1    0    0    0    0  0.00000000000E+00  0.00000000000E+00  0.74505805969E-08  0.10566000000E+00  0.10566000000E+00 0.  1.
     999900   -1    0    0    0    0 -0.00000000000E+00 -0.00000000000E+00 -0.74505805969E-08  0.93827000000E+00  0.93827000000E+00 0. -1.
     999902    2    1    2    0    0  0.10318264158E-01 -0.81553973408E-02 -0.18495518922E-01  0.10212350380E+01  0.10209828311E+01 0.  0.
     999903    2    3    3    0    0  0.54250386413E-01  0.11464110947E+00 -0.28711213645E-01  0.13156466426E+00  0.19980958076E-01 0.  0.
         14    1    1    2    0    0 -0.10318264158E-01  0.81553973408E-02  0.18495518922E-01  0.22694962023E-01  0.00000000000E+00 0.  1.
     999901    1    3    3    0    0 -0.43932122255E-01 -0.12279650681E+00  0.10215694723E-01  0.88967037372E+00  0.88000000000E+00 0.  1.
        -11    1    4    4    0    0  0.45383284363E-01  0.78101345167E-01 -0.25295530413E-01  0.93806117052E-01  0.51100000000E-03 0.  1.
         11    1    4    4    0    0  0.88671020500E-02  0.36539764306E-01 -0.34156832316E-02  0.37758547208E-01  0.51100000000E-03 0. -1.
</event>
<event>
 8    1  0.1137518E+005  0.1043930E+01  0.7957747E-01            NaN
         13   -1    0    0    0    0  0.00000000000E+00  0.00000000000E+00  0.74505805969E-08  0.10566000000E+00  0.10566000000E+00 0. -1.
     999900   -1    0    0    0    0 -0.00000000000E+00 -0.00000000000E+00 -0.74505805969E-08  0.93827000000E+00  0.93827000000E+00 0. -1.
     999902    2    1    2    0    0 -0.19574531763E-01 -0.12401377043E-01  0.60041433493E-02  0.10199924524E+01  0.10197115263E+01 0.  0.
     999903    2    3    3    0    0  0.39121045395E-01 -0.72077883968E-01  0.10022431206E+00  0.13101332081E+00  0.19846912952E-01 0.  0.
         14    1    1    2    0    0  0.19574531763E-01  0.12401377043E-01 -0.60041433493E-02  0.23937547570E-01  0.00000000000E+00 0.  1.
     999901    1    3    3    0    0 -0.58695577159E-01  0.59676506925E-01 -0.94220168706E-01  0.88897913162E+00  0.88000000000E+00 0. -1.
        -11    1    4    4    0    0  0.23342315795E-01 -0.60142907805E-01  0.74373768290E-01  0.98456851445E-01  0.51100000000E-03 0. -1.
         11    1    4    4    0    0  0.15778729600E-01 -0.11934976164E-01  0.25850543765E-01  0.32556469369E-01  0.51100000000E-03 0.  1.
</event>
<event>
 8    1  0.1137518E+005  0.1043930E+01  0.7957747E-01            NaN
         13   -1    0    0    0    0  0.00000000000E+00  0.00000000000E+00  0.74505805969E-08  0.10566000000E+00  0.10566000000E+00 0.  1.
     999900   -1    0    0    0    0 -0.00000000000E+00 -0.00000000000E+00 -0.74505805969E-08  0.93827000000E+00  0.93827000000E+00 0.  1.
     999902    2    1    2    0    0 -0.81944418232E-02  0.30317310373E-02 -0.21651737243E-01  0.10205818096E+01  0.10203147025E+01 0.  0.
     999903    2    3    3    0    0 -0.29377267661E-01  0.22512069729E-01  0.12152849634E+00  0.12854550147E+00  0.19620229049E-01 0.  0.
         14    1    1    2    0    0  0.81944418232E-02 -0.30317310373E-02  0.21651737243E-01  0.23348190412E-01  0.00000000000E+00 0.  1.
     999901    1    3    3    0    0  0.21182825838E-01 -0.19480338692E-01 -0.14318023358E+00  0.89203630811E+00  0.88000000000E+00 0.  1.
        -11    1    4    4    0    0 -0.59402102872E-02  0.30724818180E-02  0.54643641191E-01  0.55053745435E-01  0.51100000000E-03 0.  1.
         11    1    4    4    0    0 -0.23437057374E-01  0.19439587911E-01  0.66884855148E-01  0.73491756038E-01  0.51100000000E-03 0. -1.
</event>
<event>
 8    1  0.1137518E+005  0.1043930E+01  0.7957747E-01            NaN
         13   -1    0    0    0    0  0.00000000000E+00  0.00000000000E+00  0.74505805969E-08  0.10566000000E+00  0.10566000000E+00 0. -1.
     999900   -1    0    0    0    0 -0.00000000000E+00 -0.00000000000E+00 -0.74505805969E-08  0.93827000000E+00  0.93827000000E+00 0. -1.
     999902    2    1    2    0    0  0.31825417708E-02  0.21426054499E-01  0.10027677074E-01  0.10200603814E+01  0.10197810662E+01 0.  0.
     999903    2    3    3    0    0  0.74752069185E-01  0.70926335584E-01  0.81799178149E-01  0.13286050346E+00  0.18503807940E-01 0.  0.
         14    1    1    2    0    0 -0.31825417708E-02 -0.21426054499E-01 -0.10027677074E-01  0.23869618577E-01  0.00000000000E+00 0.  1.
     999901    1    3    3    0    0 -0.71569527414E-01 -0.49500281084E-01 -0.71771501076E-01  0.88719987796E+00  0.88000000000E+00 0. -1.
        -11    1    4    4    0    0  0.22899632852E-01  0.20331550272E-01  0.14148039128E-01  0.33737119814E-01  0.51100000000E-03 0. -1.
         11    1    4    4    0    0  0.51852436333E-01  0.50594785311E-01  0.67651139022E-01  0.99123383651E-01  0.51100000000E-03 0.  1.
</event>
<event>
 8    1  0.1137518E+005  0.1043930E+01  0.7957747E-01            NaN
         13   -1    0    0    0    0  0.00000000000E+00  0.00000000000E+00  0.74505805969E-08  0.10566000000E+00  0.10566000000E+00 0.  1.
     999900   -1    0    0    0    0 -0.00000000000E+00 -0.00000000000E+00 -0.74505805969E-08  0.93827000000E+00  0.93827000000E+00 0.  1.
     999902    2    1    2    0    0 -0.95259071291E-02 -0.20861993908E-01  0.93960646647E-03  0.10209768182E+01  0.10207187735E+01 0.  0.
     999903    2    3    3    0    0  0.19692669603E-01  0.31548100330E-01  0.12342946155E+00  0.13046892498E+00  0.20105336065E-01 0.  0.
         14    1    1    2    0    0  0.95259071291E-02  0.20861993908E-01 -0.93960646647E-03  0.22953181844E-01  0.00000000000E+00 0.  1.
     999901    1    3    3    0    0 -0.29218576732E-01 -0.52410094238E-01 -0.12248985508E+00  0.89050789317E+00  0.88000000000E+00 0.  1.
        -11    1    4    4    0    0  0.16887713229E-01  0.28555697447E-01  0.76852875291E-01  0.83709308181E-01  0.51100000000E-03 0.  1.
         11    1    4    4    0    0  0.28049563743E-02  0.29924028836E-02  0.46576586256E-01  0.46759616803E-01  0.51100000000E-03 0. -1.
</event>
<event>
 8    1  0.1137518E+005  0.1043930E+01  0.7957747E-01            NaN
         13   -1    0    0    0    0  0.00000000000E+00  0.00000000000E+00  0.74505805969E-08  0.10566000000E+00  0.10566000000E+00 0.  1.
     999900   -1    0    0    0    0 -0.00000000000E+00 -0.00000000000E+00 -0.74505805969E-08  0.93827000000E+00  0.93827000000E+00 0. -1.
     999902    2    1    2    0    0 -0.41082206280E-02 -0.96962087071E-02  0.20032837514E-01  0.10212979758E+01  0.10210471815E+01 0.  0.
     999903    2    3    3    0    0 -0.51557007185E-03  0.12639902543E+00  0.26732621045E-01  0.13080389554E+00  0.20446188382E-01 0.  0.
         14    1    1    2    0    0  0.41082206280E-02  0.96962087071E-02 -0.20032837514E-01  0.22632024189E-01  0.00000000000E+00 0. -1.
     999901    1    3    3    0    0 -0.35926505562E-02 -0.13609523414E+00 -0.66997835312E-02  0.89049408027E+00  0.88000000000E+00 0.  1.
        -11    1    4    4    0    0 -0.38384295472E-02  0.39752008998E-01  0.17485558186E-01  0.43600018656E-01  0.51100000000E-03 0. -1.
         11    1    4    4    0    0  0.33228594754E-02  0.86647016432E-01  0.92470628588E-02  0.87203876887E-01  0.51100000000E-03 0.  1.
</event>
<event>
 8    1  0.1137518E+005  0.1043930E+01  0.7957747E-01            NaN
         13   -1    0    0    0    0  0.00000000000E+00  0.00000000000E+00  0.74505805969E-08  0.10566000000E+00  0.10566000000E+00 0. -1.
     999900   -1    0    0    0    0 -0.00000000000E+00 -0.00000000000E+00 -0.74505805969E-08  0.93827000000E+00  0.93827000000E+00 0. -1.
     999902    2    1    2    0    0  0.13708179616E-01  0.96425226104E-02  0.15180168996E-01  0.10213173938E+01  0.10210670344E+01 0.  0.
     999903    2    3    3    0    0 -0.65952641253E-01 -0.38190934087E-01 -0.10177655616E+00  0.12872971653E+00  0.20114029945E-01 0.  0.
         14    1    1    2    0    0 -0.13708179616E-01 -0.96425226104E-02 -0.15180168996E-01  0.22612606250E-01  0.00000000000E+00 0.  1.
     999901    1    3    3    0    0  0.79660820869E-01  0.47833456698E-01  0.11695672515E+00  0.89258767722E+00  0.88000000000E+00 0.  1.
        -11    1    4    4    0    0 -0.38421738417E-01 -0.18238624801E-01 -0.40945869393E-01  0.59039840439E-01  0.51100000000E-03 0.  1.
         11    1    4    4    0    0 -0.27530902835E-01 -0.19952309286E-01 -0.60830686765E-01  0.69689876094E-01  0.51100000000E-03 0. -1.
</event>
<event>
 8    1  0.1137518E+005  0.1043930E+01  0.7957747E-01            NaN
         13   -1    0    0    0    0  0.00000000000E+00  0.00000000000E+00  0.74505805969E-08  0.10566000000E+00  0.10566000000E+00 0.  1.
     999900   -1    0    0    0    0 -0.00000000000E+00 -0.00000000000E+00 -0.74505805969E-08  0.93827000000E+00  0.93827000000E+00 0.  1.
     999902    2    1    2    0    0  0.77946832541E-02 -0.21600982026E-02  0.22204819384E-01  0.10202978796E+01  0.10200241595E+01 0.  0.
     999903    2    3    3    0    0 -0.93483626026E-02 -0.76680122220E-02  0.13133210161E+00  0.13337455434E+00  0.19861030675E-01 0.  0.
         14    1    1    2    0    0 -0.77946832541E-02  0.21600982026E-02 -0.22204819384E-01  0.23632120412E-01  0.00000000000E+00 0. -1.
     999901    1    3    3    0    0  0.17143045857E-01  0.55079140194E-02 -0.10912728222E+00  0.88692332524E+00  0.88000000000E+00 0.  1.
        -11    1    4    4    0    0 -0.88491616019E-02  0.85877888831E-03  0.11043484886E+00  0.11079333069E+00  0.51100000000E-03 0.  1.
         11    1    4    4    0    0 -0.49920100078E-03 -0.85267911103E-02  0.20897252748E-01  0.22581223653E-01  0.51100000000E-03 0. -1.
</event>
<event>
 8    1  0.1137518E+005  0.1043930E+01  0.7957747E-01            NaN
         13   -1    0    0    0    0  0.00000000000E+00  0.00000000000E+00  0.74505805969E-08  0.10566000000E+00  0.10566000000E+00 0. -1.
     999900   -1    0    0    0    0 -0.00000000000E+00 -0.00000000000E+00 -0.74505805969E-08  0.93827000000E+00  0.93827000000E+00 0. -1.
     999902    2    1    2    0    0 -0.18134146464E-01  0.14772355102E-01  0.34731402028E-02  0.10202840184E+01  0.10200099734E+01 0.  0.
     999903    2    3    3    0    0 -0.16305869935E-01  0.33715116738E-01 -0.12386645490E+00  0.13091483560E+00  0.19829398378E-01 0.  0.
         14    1    1    2    0    0  0.18134146464E-01 -0.14772355102E-01 -0.34731402028E-02  0.23645981606E-01  0.00000000000E+00 0. -1.
     999901    1    3    3    0    0 -0.18282765290E-02 -0.18942761637E-01  0.12733959511E+00  0.88936918279E+00  0.88000000000E+00 0.  1.
        -11    1    4    4    0    0 -0.17814809591E-01  0.26476574083E-01 -0.11505978773E+00  0.11940432274E+00  0.51100000000E-03 0.  1.
         11    1    4    4    0    0  0.15089396554E-02  0.72385426556E-02 -0.88066671720E-02  0.11510512862E-01  0.51100000000E-03 0. -1.
</event>
<event>
 8    1  0.1137518E+005  0.1043930E+01  0.7957747E-01            NaN
         13   -1    0    0    0    0  0.00000000000E+00  0.00000000000E+00  0.74505805969E-08  0.10566000000E+00  0.10566000000E+00 0.  1.
     999900   -1    0    0    0    0 -0.00000000000E+00 -0.00000000000E+00 -0.74505805969E-08  0.93827000000E+00  0.93827000000E+00 0.  1.
     999902    2    1    2    0    0  0.14489221780E-01  0.17304674715E-01 -0.66808384556E-02  0.10203923086E+01  0.10201207970E+01 0.  0.
     999903    2    3    3    0    0  0.50945638997E-01 -0.11248644419E+00  0.36259564733E-01  0.12909062950E+00  0.10048698066E-01 0.  0.
         14    1    1    2    0    0 -0.14489221780E-01 -0.17304674715E-01  0.66808384556E-02  0.23537691417E-01  0.00000000000E+00 0.  1.
     999901    1    3    3    0    0 -0.36456417217E-01  0.12979111890E+00 -0.42940403188E-01  0.89130167908E+00  0.88000000000E+00 0. -1.
        -11    1    4    4    0    0  0.44029968272E-01 -0.95637059203E-01  0.27208378806E-01  0.10874576864E+00  0.51100000000E-03 0.  1.
         11    1    4    4    0    0  0.69156707251E-02 -0.16849384983E-01  0.90511859264E-02  0.20344860864E-01  0.51100000000E-03 0. -1.
</event>
<event>
 8    1  0.1137518E+005  0.1043930E+01  0.7957747E-01            NaN
         13   -1    0    0    0    0  0.00000000000E+00  0.00000000000E+00  0.74505805969E-08  0.10566000000E+00  0.10566000000E+00 0. -1.
     999900   -1    0    0    0    0 -0.00000000000E+00 -0.00000000000E+00 -0.74505805969E-08  0.93827000000E+00  0.93827000000E+00 0.  1.
     999902    2    1    2    0    0 -0.22740569148E-01 -0.70544010667E-02 -0.11294555804E-02  0.10200936049E+01  0.10198150759E+01 0.  0.
     999903    2    3    3    0    0 -0.44959677875E-01  0.10620802193E+00  0.58151572435E-01  0.13057895889E+00  0.19176615193E-01 0.  0.
         14    1    1    2    0    0  0.22740569148E-01  0.70544010667E-02  0.11294555804E-02  0.23836395061E-01  0.00000000000E+00 0. -1.
     999901    1    3    3    0    0  0.22219108727E-01 -0.11326242300E+00 -0.59281028015E-01  0.88951464605E+00  0.88000000000E+00 0.  1.
        -11    1    4    4    0    0 -0.30002220990E-01  0.54950535402E-01  0.23251437540E-01  0.66787611680E-01  0.51100000000E-03 0. -1.
         11    1    4    4    0    0 -0.14957456885E-01  0.51257486531E-01  0.34900134895E-01  0.63791347208E-01  0.51100000000E-03 0.  1.
</event>
<event>
 8    1  0.1137518E+005  0.1043930E+01  0.7957747E-01            NaN
         13   -1    0    0    0    0  0.00000000000E+00  0.00000000000E+00  0.74505805969E-08  0.10566000000E+00  0.10566000000E+00 0. -1.
     999900   -1    0    0    0    0 -0.00000000000E+00 -0.00000000000E+00 -0.74505805969E-08  0.93827000000E+00  0.93827000000E+00 0.  1.
     999902    2    1    2    0    0 -0.49842850043E-03  0.18205985549E-01  0.13988031017E-01  0.10209654327E+01  0.10207071291E+01 0.  0.
     999903    2    3    3    0    0  0.95375959663E-01  0.68357699708E-01  0.59763320378E-01  0.13315775651E+00  0.19748034463E-01 0.  0.
         14    1    1    2    0    0  0.49842850043E-03 -0.18205985549E-01 -0.13988031017E-01  0.22964567327E-01  0.00000000000E+00 0.  1.
     999901    1    3    3    0    0 -0.95874388163E-01 -0.50151714159E-01 -0.45775289361E-01  0.88780767616E+00  0.88000000000E+00 0. -1.
        -11    1    4    4    0    0  0.76580519911E-01  0.46634566375E-01  0.39376147956E-01  0.97929060853E-01  0.51100000000E-03 0.  1.
         11    1    4    4    0    0  0.18795439752E-01  0.21723133333E-01  0.20387172422E-01  0.35228695656E-01  0.51100000000E-03 0. -1.
</event>
<event>
 8    1  0.1137518E+005  0.1043930E+01  0.7957747E-01            NaN
         13   -1    0    0    0    0  0.00000000000E+00  0.00000000000E+00  0.74505805969E-08  0.10566000000E+00  0.10566000000E+00 0. -1.
     999900   -1    0    0    0    0 -0.00000000000E+00 -0.00000000000E+00 -0.74505805969E-08  0.93827000000E+00  0.93827000000E+00 0. -1.
     999902    2    1    2    0    0  0.75879224428E-02 -0.19993258267E-01  0.85130879593E-02  0.10209130582E+01  0.10206535616E+01 0.  0.
     999903    2    3    3    0    0 -0.83071581583E-01  0.95840106974E-01  0.80058634096E-02  0.12870413006E+00  0.20357933959E-01 0.  0.
         14    1    1    2    0    0 -0.75879224428E-02  0.19993258267E-01 -0.85130879593E-02  0.23016941798E-01  0.00000000000E+00 0. -1.
     999901    1    3    3    0    0  0.90659504026E-01 -0.11583336524E+00  0.50722454974E-03  0.89220892814E+00  0.88000000000E+00 0. -1.
        -11    1    4    4    0    0 -0.68166624639E-01  0.64966988621E-01  0.58055758541E-02  0.94347041062E-01  0.51100000000E-03 0. -1.
         11    1    4    4    0    0 -0.14904956943E-01  0.30873118353E-01  0.22002875555E-02  0.34357089002E-01  0.51100000000E-03 0.  1.
</event>
<event>
 8    1  0.1137518E+005  0.1043930E+01  0.7957747E-01            NaN
         13   -1    0    0    0    0  0.00000000000E+00  0.00000000000E+00  0.74505805969E-08  0.10566000000E+00  0.10566000000E+00 0.  1.
     999900   -1    0    0    0    0 -0.00000000000E+00 -0.00000000000E+00 -0.74505805969E-08  0.93827000000E+00  0.93827000000E+00 0.  1.
     999902    2    1    2    0    0 -0.11922687576E-01  0.15147513165E-01  0.13269191564E-01  0.10205276694E+01  0.10202593077E+01 0.  0.
     999903    2    3    3    0    0  0.31584140438E-01 -0.96702418425E-01 -0.75140581913E-01  0.12799221387E+00  0.19671911563E-01 0.  0.
         14    1    1    2    0    0  0.11922687576E-01 -0.15147513165E-01 -0.13269191564E-01  0.23402330629E-01  0.00000000000E+00 0. -1.
     999901    1    3    3    0    0 -0.43506828014E-01  0.11184993159E+00  0.88409773477E-01  0.89253545550E+00  0.88000000000E+00 0. -1.
        -11    1    4    4    0    0  0.19299493699E-01 -0.30360789103E-01 -0.29593416372E-01  0.46586257475E-01  0.51100000000E-03 0. -1.
         11    1    4    4    0    0  0.12284646739E-01 -0.66341629323E-01 -0.45547165541E-01  0.81405956395E-01  0.51100000000E-03 0.  1.
</event>
<event>
 8    1  0.1137518E+005  0.1043930E+01  0.7957747E-01            NaN
         13   -1    0    0    0    0  0.00000000000E+00  0.00000000000E+00  0.74505805969E-08  0.10566000000E+00  0.10566000000E+00 0. -1.
     999900   -1    0    0    0    0 -0.00000000000E+00 -0.00000000000E+00 -0.74505805969E-08  0.93827000000E+00  0.93827000000E+00 0. -1.
     999902    2    1    2    0    0  0.13296604007E-01  0.22350989984E-02  0.18884096277E-01  0.10207264564E+01  0.10204626864E+01 0.  0.
     999903    2    3    3    0    0 -0.59457062062E-01 -0.72332967978E-01  0.90715369974E-01  0.13167458811E+00  0.18485624669E-01 0.  0.
         14    1    1    2    0    0 -0.13296604007E-01 -0.22350989984E-02 -0.18884096277E-01  0.23203543648E-01  0.00000000000E+00 0.  1.
     999901    1    3    3    0    0  0.72753666068E-01  0.74568066977E-01 -0.71831273697E-01  0.88905186824E+00  0.88000000000E+00 0. -1.
        -11    1    4    4    0    0 -0.47876309130E-01 -0.65042950576E-01  0.83606376330E-01  0.11624548886E+00  0.51100000000E-03 0. -1.
         11    1    4    4    0    0 -0.11580752932E-01 -0.72900174023E-02  0.71089936439E-02  0.15429099255E-01  0.51100000000E-03 0.  1.
</event>
<event>
 8    1  0.1137518E+005  0.1043930E+01  0.7957747E-01            NaN
         13   -1    0    0    0    0  0.00000000000E+00  0.00000000000E+00  0.74505805969E-08  0.10566000000E+00  0.10566000000E+00 0.  1.
     999900   -1    0    0    0    0 -0.00000000000E+00 -0.00000000000E+00 -0.74505805969E-08  0.93827000000E+00  0.93827000000E+00 0.  1.
     999902    2    1    2    0    0 -0.75729176799E-02  0.13766983117E-01  0.17713935327E-01  0.10202516890E+01  0.10199768853E+01 0.  0.
     999903    2    3    3    0    0  0.73060070341E-01 -0.82725564474E-01  0.65824736329E-01  0.13001175525E+00  0.19719728557E-01 0.  0.
         14    1    1    2    0    0  0.75729176799E-02 -0.13766983117E-01 -0.17713935327E-01  0.23678310985E-01  0.00000000000E+00 0.  1.
     999901    1    3    3    0    0 -0.80632988021E-01  0.96492547591E-01 -0.48110801001E-01  0.89023993377E+00  0.88000000000E+00 0. -1.
        -11    1    4    4    0    0  0.52863752359E-01 -0.65598502186E-01  0.58379425973E-01  0.10249955268E+00  0.51100000000E-03 0.  1.
         11    1    4    4    0    0  0.20196317983E-01 -0.17127062288E-01  0.74453103553E-02  0.27512202565E-01  0.51100000000E-03 0. -1.
</event>
<event>
 8    1  0.1137518E+005  0.1043930E+01  0.7957747E-01            NaN
         13   -1    0    0    0    0  0.00000000000E+00  0.00000000000E+00  0.74505805969E-08  0.10566000000E+00  0.10566000000E+00 0. -1.
     999900   -1    0    0    0    0 -0.00000000000E+00 -0.00000000000E+00 -0.74505805969E-08  0.93827000000E+00  0.93827000000E+00 0. -1.
     999902    2    1    2    0    0  0.13329001586E-01  0.17004577062E-01  0.67595345748E-02  0.10212913333E+01  0.10210403901E+01 0.  0.
     999903    2    3    3    0    0 -0.75565721094E-01  0.30273563655E-01  0.99456377390E-01  0.13186958718E+00  0.29518640861E-01 0.  0.
         14    1    1    2    0    0 -0.13329001586E-01 -0.17004577062E-01 -0.67595345748E-02  0.22638666745E-01  0.00000000000E+00 0. -1.
     999901    1    3    3    0    0  0.88894722679E-01 -0.13268986592E-01 -0.92696842815E-01  0.88942174608E+00  0.88000000000E+00 0. -1.
        -11    1    4    4    0    0 -0.28979243114E-01 -0.17237091806E-02  0.24484886293E-01  0.37980764639E-01  0.51100000000E-03 0.  1.
         11    1    4    4    0    0 -0.46586477979E-01  0.31997272835E-01  0.74971491097E-01  0.93888822539E-01  0.51100000000E-03 0. -1.
</event>
<event>
 8    1  0.1137518E+005  0.1043930E+01  0.7957747E-01            NaN
         13   -1    0    0    0    0  0.00000000000E+00  0.00000000000E+00  0.74505805969E-08  0.10566000000E+00  0.10566000000E+00 0. -1.
     999900   -1    0    0    0    0 -0.00000000000E+00 -0.00000000000E+00 -0.74505805969E-08  0.93827000000E+00  0.93827000000E+00 0.  1.
     999902    2    1    2    0    0 -0.18249672901E-01  0.11851304898E-01  0.16517592345E-02  0.10221072528E+01  0.10218742603E+01 0.  0.
     999903    2    3    3    0    0 -0.38337679711E-01  0.52982200151E-01 -0.11427413729E+00  0.13332488792E+00  0.20977513369E-01 0.  0.
         14    1    1    2    0    0  0.18249672901E-01 -0.11851304898E-01 -0.16517592345E-02  0.21822747246E-01  0.00000000000E+00 0. -1.
     999901    1    3    3    0    0  0.20088006810E-01 -0.41130895253E-01  0.11592589652E+00  0.88878236484E+00  0.88000000000E+00 0. -1.
        -11    1    4    4    0    0 -0.12338435756E-01  0.24402211369E-01 -0.29885142706E-01  0.40510341793E-01  0.51100000000E-03 0.  1.
         11    1    4    4    0    0 -0.25999243955E-01  0.28579988782E-01 -0.84388994580E-01  0.92814546124E-01  0.51100000000E-03 0. -1.
</event>
<event>
 8    1  0.1137518E+005  0.1043930E+01  0.7957747E-01            NaN
         13   -1    0    0    0    0  0.00000000000E+00  0.00000000000E+00  0.74505805969E-08  0.10566000000E+00  0.10566000000E+00 0. -1.
     999900   -1    0    0    0    0 -0.00000000000E+00 -0.00000000000E+00 -0.74505805969E-08  0.93827000000E+00  0.93827000000E+00 0.  1.
     999902    2    1    2    0    0  0.17545641137E-01 -0.16214764549E-01 -0.22361573905E-02  0.10199348231E+01  0.10196525266E+01 0.  0.
     999903    2    3    3    0    0  0.33335873748E-01 -0.77387955585E-01  0.99451076666E-01  0.13182909503E+00  0.19703235728E-01 0.  0.
         14    1    1    2    0    0 -0.17545641137E-01  0.16214764549E-01  0.22361573905E-02  0.23995176852E-01  0.00000000000E+00 0.  1.
     999901    1    3    3    0    0 -0.15790232611E-01  0.61173191036E-01 -0.10168723406E+00  0.88810572812E+00  0.88000000000E+00 0.  1.
        -11    1    4    4    0    0  0.52853839139E-02 -0.32673966200E-01  0.46328575939E-01  0.56939629608E-01  0.51100000000E-03 0. -1.
         11    1    4    4    0    0  0.28050489834E-01 -0.44713989384E-01  0.53122500727E-01  0.74889465421E-01  0.51100000000E-03 0.  1.
</event>
<event>
 8    1  0.1137518E+005  0.1043930E+01  0.7957747E-01            NaN
         13   -1    0    0    0    0  0.00000000000E+00  0.00000000000E+00  0.74505805969E-08  0.10566000000E+00  0.10566000000E+00 0.  1.
     999900   -1    0    0    0    0 -0.00000000000E+00 -0.00000000000E+00 -0.74505805969E-08  0.93827000000E+00  0.93827000000E+00 0.  1.
     999902    2    1    2    0    0  0.11123843447E-01 -0.19436101063E-01 -0.89957337109E-02  0.10197965141E+01  0.10195109146E+01 0.  0.
     999903    2    3    3    0    0 -0.87516763742E-01  0.83845847489E-01 -0.35691977818E-01  0.12788294219E+00  0.19769156390E-01 0.  0.
         14    1    1    2    0    0 -0.11123843447E-01  0.19436101063E-01  0.89957337109E-02  0.24133485918E-01  0.00000000000E+00 0.  1.
     999901    1    3    3    0    0  0.98640607189E-01 -0.10328194855E+00  0.26696244107E-01  0.89191357190E+00  0.88000000000E+00 0.  1.
        -11    1    4    4    0    0 -0.41873758729E-01  0.33715239230E-01 -0.68209030992E-02  0.54193310164E-01  0.51100000000E-03 0.  1.
         11    1    4    4    0    0 -0.45643005014E-01  0.50130608259E-01 -0.28871074718E-01  0.73689632022E-01  0.51100000000E-03 0. -1.
</event>
<event>
 8    1  0.1137518E+005  0.1043930E+01  0.7957747E-01            NaN
         13   -1    0    0    0    0  0.00000000000E+00  0.00000000000E+00  0.74505805969E-08  0.10566000000E+00  0.10566000000E+00 0.  1.
     999900   -1    0    0    0    0 -0.00000000000E+00 -0.00000000000E+00 -0.74505805969E-08  0.93827000000E+00  0.93827000000E+00 0.  1.
     999902    2    1    2    0    0 -0.18466345458E-01 -0.13195617320E-01 -0.73490964604E-02  0.10200733563E+01  0.10197943483E+01 0.  0.
     999903    2    3    3    0    0 -0.11143590511E+00 -0.64312216516E-01  0.27362489647E-01  0.13302141871E+00  0.19798228535E-01 0.  0.
         14    1    1    2    0    0  0.18466345458E-01  0.13195617320E-01  0.73490964604E-02  0.23856643725E-01  0.00000000000E+00 0.  1.
     999901    1    3    3    0    0  0.92969559655E-01  0.51116599197E-01 -0.34711586107E-01  0.88705193757E+00  0.88000000000E+00 0.  1.
        -11    1    4    4    0    0 -0.10601039714E+00 -0.55701250148E-01  0.27318866472E-01  0.12283083960E+00  0.51100000000E-03 0.  1.
         11    1    4    4    0    0 -0.54255079696E-02 -0.86109663679E-02  0.43623175271E-04  0.10190579105E-01  0.51100000000E-03 0. -1.
</event>
<event>
 8    1  0.1137518E+005  0.1043930E+01  0.7957747E-01            NaN
         13   -1    0    0    0    0  0.00000000000E+00  0.00000000000E+00  0.74505805969E-08  0.10566000000E+00  0.10566000000E+00 0.  1.
     999900   -1    0    0    0    0 -0.00000000000E+00 -0.00000000000E+00 -0.74505805969E-08  0.93827000000E+00  0.93827000000E+00 0. -1.
     999902    2    1    2    0    0  0.72704352559E-04  0.19662138896E-01  0.17442659674E-01  0.10176459484E+01  0.10173064558E+01 0.  0.
     999903    2    3    3    0    0 -0.12155686653E+00  0.37940517904E-01 -0.16898857170E-02  0.12888619124E+00  0.19830276874E-01 0.  0.
         14    1    1    2    0    0 -0.72704352559E-04 -0.19662138896E-01 -0.17442659674E-01  0.26284051598E-01  0.00000000000E+00 0. -1.
     999901    1    3    3    0    0  0.12162957088E+00 -0.18278379008E-01  0.19132545391E-01  0.88875975716E+00  0.88000000000E+00 0. -1.
        -11    1    4    4    0    0 -0.68720478287E-01  0.24090156012E-01  0.85104450094E-02  0.73317996072E-01  0.51100000000E-03 0.  1.
         11    1    4    4    0    0 -0.52836388240E-01  0.13850361892E-01 -0.10200330726E-01  0.55568195172E-01  0.51100000000E-03 0. -1.
</event>
<event>
 8    1  0.1137518E+005  0.1043930E+01  0.7957747E-01            NaN
         13   -1    0    0    0    0  0.00000000000E+00  0.00000000000E+00  0.74505805969E-08  0.10566000000E+00  0.10566000000E+00 0.  1.
     999900   -1    0    0    0    0 -0.00000000000E+00 -0.00000000000E+00 -0.74505805969E-08  0.93827000000E+00  0.93827000000E+00 0. -1.
     999902    2    1    2    0    0  0.16331375326E-01  0.84727053575E-02 -0.14082471361E-01  0.10207606980E+01  0.10204977148E+01 0.  0.
     999903    2    3    3    0    0 -0.44694616007E-01 -0.11034156639E+00 -0.48121599360E-01  0.13003084836E+00  0.20480801424E-01 0.  0.
         14    1    1    2    0    0 -0.16331375326E-01 -0.84727053575E-02  0.14082471361E-01  0.23169302012E-01  0.00000000000E+00 0.  1.
     999901    1    3    3    0    0  0.61025991333E-01  0.11881427174E+00  0.34039127999E-01  0.89072984963E+00  0.88000000000E+00 0. -1.
        -11    1    4    4    0    0 -0.46612119587E-02 -0.30295243385E-01 -0.18249385356E-01  0.35676741101E-01  0.51100000000E-03 0. -1.
         11    1    4    4    0    0 -0.40033404048E-01 -0.80046323001E-01 -0.29872214004E-01  0.94354107256E-01  0.51100000000E-03 0.  1.
</event>
<event>
 8    1  0.1137518E+005  0.1043930E+01  0.7957747E-01            NaN
         13   -1    0    0    0    0  0.00000000000E+00  0.00000000000E+00  0.74505805969E-08  0.10566000000E+00  0.10566000000E+00 0.  1.
     999900   -1    0    0    0    0 -0.00000000000E+00 -0.00000000000E+00 -0.74505805969E-08  0.93827000000E+00  0.93827000000E+00 0. -1.
     999902    2    1    2    0    0 -0.19579566784E-01 -0.12405236904E-01 -0.33167701413E-02  0.10205152546E+01  0.10202466048E+01 0.  0.
     999903    2    3    3    0    0  0.51231884480E-01 -0.11672437877E+00 -0.18000684400E-01  0.13140763326E+00  0.26356305747E-01 0.  0.
         14    1    1    2    0    0  0.19579566784E-01  0.12405236904E-01  0.33167701413E-02  0.23414745403E-01  0.00000000000E+00 0.  1.
     999901    1    3    3    0    0 -0.70811451264E-01  0.10431914186E+00  0.14683914259E-01  0.88910762134E+00  0.88000000000E+00 0.  1.
        -11    1    4    4    0    0  0.13179303745E-01 -0.62046177732E-01 -0.11580332784E-01  0.64480907614E-01  0.51100000000E-03 0. -1.
         11    1    4    4    0    0  0.38052580735E-01 -0.54678201037E-01 -0.64203516164E-02  0.66926725641E-01  0.51100000000E-03 0.  1.
</event>
<event>
 8    1  0.1137518E+005  0.1043930E+01  0.7957747E-01            NaN
         13   -1    0    0    0    0  0.00000000000E+00  0.00000000000E+00  0.74505805969E-08  0.10566000000E+00  0.10566000000E+00 0.  1.
     999900   -1    0    0    0    0 -0.00000000000E+00 -0.00000000000E+00 -0.74505805969E-08  0.93827000000E+00  0.93827000000E+00 0. -1.
     999902    2    1    2    0    0 -0.85589696487E-02 -0.20327534452E-01 -0.64351515525E-02  0.10209544523E+01  0.10206958988E+01 0.  0.
     999903    2    3    3    0    0  0.97219887122E-01 -0.68208289628E-02 -0.85610263419E-01  0.13098799448E+00  0.18179860730E-01 0.  0.
         14    1    1    2    0    0  0.85589696487E-02  0.20327534452E-01  0.64351515525E-02  0.22975547738E-01  0.00000000000E+00 0.  1.
     999901    1    3    3    0    0 -0.10577885677E+00 -0.13506705490E-01  0.79175111866E-01  0.88996645778E+00  0.88000000000E+00 0.  1.
        -11    1    4    4    0    0  0.65657742117E-01  0.39380247001E-02 -0.55807779610E-01  0.86262486195E-01  0.51100000000E-03 0. -1.
         11    1    4    4    0    0  0.31562145005E-01 -0.10758853663E-01 -0.29802483809E-01  0.44725508288E-01  0.51100000000E-03 0.  1.
</event>
<event>
 8    1  0.1137518E+005  0.1043930E+01  0.7957747E-01            NaN
         13   -1    0    0    0    0  0.00000000000E+00  0.00000000000E+00  0.74505805969E-08  0.10566000000E+00  0.10566000000E+00 0.  1.
     999900   -1    0    0    0    0 -0.00000000000E+00 -0.00000000000E+00 -0.74505805969E-08  0.93827000000E+00  0.93827000000E+00 0.  1.
     999902    2    1    2    0    0  0.18533447979E-01  0.14568545436E-01  0.63331456412E-02  0.10195201671E+01  0.10192279093E+01 0.  0.
     999903    2    3    3    0    0  0.11631824751E+00  0.25379047154E-01  0.54957300724E-01  0.13270392769E+00  0.20395999166E-01 0.  0.
         14    1    1    2    0    0 -0.18533447979E-01 -0.14568545436E-01 -0.63331456412E-02  0.24409832933E-01  0.00000000000E+00 0.  1.
     999901    1    3    3    0    0 -0.97784799534E-01 -0.10810501718E-01 -0.48624155083E-01  0.88681623938E+00  0.88000000000E+00 0.  1.
        -11    1    4    4    0    0  0.60812458149E-01  0.23561256213E-01  0.28157000564E-01  0.71037776304E-01  0.51100000000E-03 0. -1.
         11    1    4    4    0    0  0.55505789365E-01  0.18177909409E-02  0.26800300160E-01  0.61666151385E-01  0.51100000000E-03 0.  1.
</event>
<event>
 8    1  0.1137518E+005  0.1043930E+01  0.7957747E-01            NaN
         13   -1    0    0    0    0  0.00000000000E+00  0.00000000000E+00  0.74505805969E-08  0.10566000000E+00  0.10566000000E+00 0.  1.
     999900   -1    0    0    0    0 -0.00000000000E+00 -0.00000000000E+00 -0.74505805969E-08  0.93827000000E+00  0.93827000000E+00 0.  1.
     999902    2    1    2    0    0  0.20279720918E-02 -0.31704172087E-04  0.23315883374E-01  0.10205260667E+01  0.10202576678E+01 0.  0.
     999903    2    3    3    0    0 -0.94203767378E-01 -0.88249781154E-01  0.78254796469E-02  0.13076040689E+00  0.19356451542E-01 0.  0.
         14    1    1    2    0    0 -0.20279720918E-02  0.31704172087E-04 -0.23315883374E-01  0.23403933290E-01  0.00000000000E+00 0. -1.
     999901    1    3    3    0    0  0.96231739470E-01  0.88218076982E-01  0.15490403727E-01  0.88976565982E+00  0.88000000000E+00 0.  1.
        -11    1    4    4    0    0 -0.27283982219E-01 -0.25839062134E-01 -0.64981322372E-02  0.38138689821E-01  0.51100000000E-03 0. -1.
         11    1    4    4    0    0 -0.66919785159E-01 -0.62410719020E-01  0.14323611884E-01  0.92621717069E-01  0.51100000000E-03 0.  1.
</event>
<event>
 8    1  0.1137518E+005  0.1043930E+01  0.7957747E-01            NaN
         13   -1    0    0    0    0  0.00000000000E+00  0.00000000000E+00  0.74505805969E-08  0.10566000000E+00  0.10566000000E+00 0.  1.
     999900   -1    0    0    0    0 -0.00000000000E+00 -0.00000000000E+00 -0.74505805969E-08  0.93827000000E+00  0.93827000000E+00 0. -1.
     999902    2    1    2    0    0 -0.18901148689E-01 -0.63188142831E-02  0.13787710218E-01  0.10196961025E+01  0.10194080928E+01 0.  0.
     999903    2    3    3    0    0 -0.80254428689E-01 -0.93805941468E-01  0.43884520270E-01  0.13272144650E+00  0.21184977274E-01 0.  0.
         14    1    1    2    0    0  0.18901148689E-01  0.63188142831E-02 -0.13787710218E-01  0.24233897515E-01  0.00000000000E+00 0. -1.
     999901    1    3    3    0    0  0.61353280000E-01  0.87487127185E-01 -0.30096810052E-01  0.88697465599E+00  0.88000000000E+00 0. -1.
        -11    1    4    4    0    0 -0.33267851024E-01 -0.26316547920E-01  0.21144499348E-01  0.47398961802E-01  0.51100000000E-03 0.  1.
         11    1    4    4    0    0 -0.46986577665E-01 -0.67489393548E-01  0.22740020921E-01  0.85322484696E-01  0.51100000000E-03 0. -1.
</event>
<event>
 8    1  0.1137518E+005  0.1043930E+01  0.7957747E-01            NaN
         13   -1    0    0    0    0  0.00000000000E+00  0.00000000000E+00  0.74505805969E-08  0.10566000000E+00  0.10566000000E+00 0.  1.
     999900   -1    0    0    0    0 -0.00000000000E+00 -0.00000000000E+00 -0.74505805969E-08  0.93827000000E+00  0.93827000000E+00 0.  1.
     999902    2    1    2    0    0  0.22695651739E-02  0.21383708831E-01 -0.12286413088E-01  0.10191636947E+01  0.10188627321E+01 0.  0.
     999903    2    3    3    0    0  0.11410591748E+00  0.28551536060E-01 -0.54434115910E-01  0.13105605696E+00  0.19423348729E-01 0.  0.
         14    1    1    2    0    0 -0.22695651739E-02 -0.21383708831E-01  0.12286413088E-01  0.24766305255E-01  0.00000000000E+00 0.  1.
     999901    1    3    3    0    0 -0.11183635230E+00 -0.71678272293E-02  0.42147702822E-01  0.88810763779E+00  0.88000000000E+00 0. -1.
        -11    1    4    4    0    0  0.31550777381E-01  0.33869551720E-05 -0.18673866914E-01  0.36666415032E-01  0.51100000000E-03 0.  1.
         11    1    4    4    0    0  0.82555140095E-01  0.28548149105E-01 -0.35760248996E-01  0.94389641925E-01  0.51100000000E-03 0. -1.
</event>
<event>
 8    1  0.1137518E+005  0.1043930E+01  0.7957747E-01            NaN
         13   -1    0    0    0    0  0.00000000000E+00  0.00000000000E+00  0.74505805969E-08  0.10566000000E+00  0.10566000000E+00 0.  1.
     999900   -1    0    0    0    0 -0.00000000000E+00 -0.00000000000E+00 -0.74505805969E-08  0.93827000000E+00  0.93827000000E+00 0.  1.
     999902    2    1    2    0    0  0.11268078324E-01 -0.20180504544E-01  0.45023570155E-02  0.10203823128E+01  0.10201105679E+01 0.  0.
     999903    2    3    3    0    0  0.12703988861E+00  0.59286812424E-02  0.29576464114E-01  0.13206169926E+00  0.19779853922E-01 0.  0.
         14    1    1    2    0    0 -0.11268078324E-01  0.20180504544E-01 -0.45023570155E-02  0.23547687179E-01  0.00000000000E+00 0. -1.
     999901    1    3    3    0    0 -0.11577181029E+00 -0.26109185787E-01 -0.25074107098E-01  0.88832061357E+00  0.88000000000E+00 0.  1.
        -11    1    4    4    0    0  0.90505222191E-01  0.16358781217E-02  0.12081278195E-01  0.91324091809E-01  0.51100000000E-03 0.  1.
         11    1    4    4    0    0  0.36534666420E-01  0.42928031207E-02  0.17495185919E-01  0.40737607446E-01  0.51100000000E-03 0. -1.
</event>
<event>
 7    1  0.1137518E+005  0.1043930E+01  0.7957747E-01            NaN
         13   -1    0    0    0    0  0.00000000000E+00  0.00000000000E+00  0.74505805969E-08  0.10566000000E+00  0.10566000000E+00 0.  1.
     999900   -1    0    0    0    0 -0.00000000000E+00 -0.00000000000E+00 -0.74505805969E-08  0.93827000000E+00  0.93827000000E+00 0.  1.
     999903    2    1    2    0    0  0.46216125212E-03 -0.65962212826E-01  0.88705878022E-01  0.11209608953E+00  0.18589604051E-01 0.  0.
         14    1    1    2    0    0  0.92719092944E-02 -0.38944630216E-01  0.60919552157E-02  0.40494005025E-01  0.00000000000E+00 0.  1.
     999901    1    1    2    0    0 -0.97340705465E-02  0.10490684304E+00 -0.94797833238E-01  0.89133990544E+00  0.88000000000E+00 0.  1.
        -11    1    3    3    0    0 -0.14704841048E-02 -0.31651056440E-01  0.57594787471E-01  0.65737145984E-01  0.51100000000E-03 0.  1.
         11    1    3    3    0    0  0.19326453569E-02 -0.34311156386E-01  0.31111090551E-01  0.46358943549E-01  0.51100000000E-03 0. -1.
</event>
<event>
 8    1  0.1137518E+005  0.1043930E+01  0.7957747E-01            NaN
         13   -1    0    0    0    0  0.00000000000E+00  0.00000000000E+00  0.74505805969E-08  0.10566000000E+00  0.10566000000E+00 0. -1.
     999900   -1    0    0    0    0 -0.00000000000E+00 -0.00000000000E+00 -0.74505805969E-08  0.93827000000E+00  0.93827000000E+00 0. -1.
     999902    2    1    2    0    0 -0.60972572802E-02  0.73625175217E-02 -0.21550363303E-01  0.10203545600E+01  0.10200821667E+01 0.  0.
     999903    2    3    3    0    0  0.19503340984E-01  0.23652280920E-01  0.12272795922E+00  0.12808947535E+00  0.20123394773E-01 0.  0.
         14    1    1    2    0    0  0.60972572802E-02 -0.73625175217E-02  0.21550363303E-01  0.23575439955E-01  0.00000000000E+00 0. -1.
     999901    1    3    3    0    0 -0.25600598265E-01 -0.16289763399E-01 -0.14427832252E+00  0.89226508470E+00  0.88000000000E+00 0. -1.
        -11    1    4    4    0    0 -0.20166779184E-02  0.47902496893E-02  0.44218227852E-01  0.44525568804E-01  0.51100000000E-03 0. -1.
         11    1    4    4    0    0  0.21520018903E-01  0.18862031231E-01  0.78509731370E-01  0.83563906541E-01  0.51100000000E-03 0.  1.
</event>
<event>
 8    1  0.1137518E+005  0.1043930E+01  0.7957747E-01            NaN
         13   -1    0    0    0    0  0.00000000000E+00  0.00000000000E+00  0.74505805969E-08  0.10566000000E+00  0.10566000000E+00 0.  1.
     999900   -1    0    0    0    0 -0.00000000000E+00 -0.00000000000E+00 -0.74505805969E-08  0.93827000000E+00  0.93827000000E+00 0. -1.
     999902    2    1    2    0    0  0.20546145033E-01  0.42485206540E-02 -0.10107601171E-03  0.10229489557E+01  0.10227337688E+01 0.  0.
     999903    2    3    3    0    0  0.22279803263E-01 -0.43821728491E-01 -0.12194753188E+00  0.13325220218E+00  0.21638283925E-01 0.  0.
         14    1    1    2    0    0 -0.20546145033E-01 -0.42485206540E-02  0.10107601171E-03  0.20981044298E-01  0.00000000000E+00 0. -1.
     999901    1    3    3    0    0 -0.17336582299E-02  0.48070249145E-01  0.12184645587E+00  0.88969675352E+00  0.88000000000E+00 0.  1.
        -11    1    4    4    0    0 -0.18776153564E-02 -0.18729530122E-01 -0.45470448965E-01  0.49215277995E-01  0.51100000000E-03 0.  1.
         11    1    4    4    0    0  0.24157418619E-01 -0.25092198369E-01 -0.76477082919E-01  0.84036924183E-01  0.51100000000E-03 0. -1.
</event>
<event>
 8    1  0.1137518E+005  0.1043930E+01  0.7957747E-01            NaN
         13   -1    0    0    0    0  0.00000000000E+00  0.00000000000E+00  0.74505805969E-08  0.10566000000E+00  0.10566000000E+00 0.  1.
     999900   -1    0    0    0    0 -0.00000000000E+00 -0.00000000000E+00 -0.74505805969E-08  0.93827000000E+00  0.93827000000E+00 0.  1.
     999902    2    1    2    0    0  0.20842575586E-01  0.75544507369E-02  0.64550369105E-02  0.10208399549E+01  0.10205787884E+01 0.  0.
     999903    2    3    3    0    0  0.10600105510E-01  0.12837982739E+00 -0.21535461263E-01  0.13208399971E+00  0.19714577556E-01 0.  0.
         14    1    1    2    0    0 -0.20842575586E-01 -0.75544507369E-02 -0.64550369105E-02  0.23090045139E-01  0.00000000000E+00 0. -1.
     999901    1    3    3    0    0  0.10242470076E-01 -0.12082537666E+00  0.27990498174E-01  0.88875595516E+00  0.88000000000E+00 0. -1.
        -11    1    4    4    0    0  0.50920410497E-02  0.51136759676E-01  0.10961322142E-02  0.51403887976E-01  0.51100000000E-03 0. -1.
         11    1    4    4    0    0  0.55080644604E-02  0.77243067716E-01 -0.22631593477E-01  0.80680111729E-01  0.51100000000E-03 0.  1.
</event>
<event>
 8    1  0.1137518E+005  0.1043930E+01  0.7957747E-01            NaN
         13   -1    0    0    0    0  0.00000000000E+00  0.00000000000E+00  0.74505805969E-08  0.10566000000E+00  0.10566000000E+00 0. -1.
     999900   -1    0    0    0    0 -0.00000000000E+00 -0.00000000000E+00 -0.74505805969E-08  0.93827000000E+00  0.93827000000E+00 0.  1.
     999902    2    1    2    0    0 -0.22606530781E-01  0.14839940974E-02  0.62194205705E-02  0.10204366251E+01  0.10201661468E+01 0.  0.
     999903    2    3    3    0    0  0.76326419296E-01  0.83126018588E-01 -0.58105238437E-01  0.12881405330E+00  0.21935914483E-01 0.  0.
         14    1    1    2    0    0  0.22606530781E-01 -0.14839940974E-02 -0.62194205705E-02  0.23493374910E-01  0.00000000000E+00 0.  1.
     999901    1    3    3    0    0 -0.98932950077E-01 -0.81642024491E-01  0.64324659008E-01  0.89162257179E+00  0.88000000000E+00 0. -1.
        -11    1    4    4    0    0  0.54172679382E-01  0.64119912763E-01 -0.52728492499E-01  0.99129195732E-01  0.51100000000E-03 0.  1.
         11    1    4    4    0    0  0.22153739914E-01  0.19006105825E-01 -0.53767459378E-02  0.29684857565E-01  0.51100000000E-03 0. -1.
</event>
<event>
 8    1  0.1137518E+005  0.1043930E+01  0.7957747E-01            NaN
         13   -1    0    0    0    0  0.00000000000E+00  0.00000000000E+00  0.74505805969E-08  0.10566000000E+00  0.10566000000E+00 0. -1.
     999900   -1    0    0    0    0 -0.00000000000E+00 -0.00000000000E+00 -0.74505805969E-08  0.93827000000E+00  0.93827000000E+00 0. -1.
     999902    2    1    2    0    0 -0.28067879744E-01  0.81367613403E-02  0.12985330886E-01  0.10119513888E+01  0.10114459855E+01 0.  0.
     999903    2    3    3    0    0 -0.11691440876E+00 -0.25356903150E-01 -0.31732901866E-01  0.12571482237E+00  0.22029252991E-01 0.  0.
         14    1    1    2    0    0  0.28067879744E-01 -0.81367613403E-02 -0.12985330886E-01  0.31978611237E-01  0.00000000000E+00 0.  1.
     999901    1    3    3    0    0  0.88846529021E-01  0.33493664490E-01  0.44718232752E-01  0.88623656640E+00  0.88000000000E+00 0. -1.
        -11    1    4    4    0    0 -0.82889120154E-01 -0.11085750385E-01 -0.14066948786E-01  0.84803539257E-01  0.51100000000E-03 0. -1.
         11    1    4    4    0    0 -0.34025288611E-01 -0.14271152765E-01 -0.17665953080E-01  0.40911283108E-01  0.51100000000E-03 0.  1.
</event>
<event>
 8    1  0.1137518E+005  0.1043930E+01  0.7957747E-01            NaN
         13   -1    0    0    0    0  0.00000000000E+00  0.00000000000E+00  0.74505805969E-08  0.10566000000E+00  0.10566000000E+00 0.  1.
     999900   -1    0    0    0    0 -0.00000000000E+00 -0.00000000000E+00 -0.74505805969E-08  0.93827000000E+00  0.93827000000E+00 0. -1.
     999902    2    1    2    0    0 -0.59425576458E-02  0.74644187310E-02  0.21010748895E-01  0.10208544045E+01  0.10205935685E+01 0.  0.
     999903    2    3    3    0    0 -0.68950821658E-01 -0.32596094514E-01  0.10764240799E+00  0.13345374504E+00  0.20156708127E-01 0.  0.
         14    1    1    2    0    0  0.59425576458E-02 -0.74644187310E-02 -0.21010748895E-01  0.23075595496E-01  0.00000000000E+00 0. -1.
     999901    1    3    3    0    0  0.63008264012E-01  0.40060513245E-01 -0.86631659097E-01  0.88740065946E+00  0.88000000000E+00 0. -1.
        -11    1    4    4    0    0 -0.19943390299E-01  0.10084217306E-03  0.25935769809E-01  0.32721159246E-01  0.51100000000E-03 0. -1.
         11    1    4    4    0    0 -0.49007431359E-01 -0.32696936687E-01  0.81706638183E-01  0.10073258580E+00  0.51100000000E-03 0.  1.
</event>
<event>
 8    1  0.1137518E+005  0.1043930E+01  0.7957747E-01            NaN
         13   -1    0    0    0    0  0.00000000000E+00  0.00000000000E+00  0.74505805969E-08  0.10566000000E+00  0.10566000000E+00 0. -1.
     999900   -1    0    0    0    0 -0.00000000000E+00 -0.00000000000E+00 -0.74505805969E-08  0.93827000000E+00  0.93827000000E+00 0. -1.
     999902    2    1    2    0    0  0.17623006696E-01  0.10535852144E-01  0.11113732333E-01  0.10205828462E+01  0.10203157630E+01 0.  0.
     999903    2    3    3    0    0 -0.79475335371E-01 -0.44413241936E-01  0.90562291541E-01  0.12998778413E+00  0.20160118624E-01 0.  0.
         14    1    1    2    0    0 -0.17623006696E-01 -0.10535852144E-01 -0.11113732333E-01  0.23347153826E-01  0.00000000000E+00 0.  1.
     999901    1    3    3    0    0  0.97098342067E-01  0.54949094080E-01 -0.79448559208E-01  0.89059506204E+00  0.88000000000E+00 0. -1.
        -11    1    4    4    0    0 -0.17707208078E-01 -0.30967660946E-02  0.25584500680E-01  0.31272399560E-01  0.51100000000E-03 0.  1.
         11    1    4    4    0    0 -0.61768127293E-01 -0.41316475841E-01  0.64977790861E-01  0.98715384573E-01  0.51100000000E-03 0. -1.
</event>
<event>
 8    1  0.1137518E+005  0.1043930E+01  0.7957747E-01            NaN
         13   -1    0    0    0    0  0.00000000000E+00  0.00000000000E+00  0.74505805969E-08  0.10566000000E+00  0.10566000000E+00 0.  1.
     999900   -1    0    0    0    0 -0.00000000000E+00 -0.00000000000E+00 -0.74505805969E-08  0.93827000000E+00  0.93827000000E+00 0.  1.
     999902    2    1    2    0    0  0.70450369589E-03  0.10553240462E-01  0.21812566555E-01  0.10196883980E+01  0.10194002029E+01 0.  0.
     999903    2    3    3    0    0 -0.20214819649E-01  0.12605223591E+00 -0.20677414145E-01  0.13087850012E+00  0.20095303599E-01 0.  0.
         14    1    1    2    0    0 -0.70450369589E-03 -0.10553240462E-01 -0.21812566555E-01  0.24241602039E-01  0.00000000000E+00 0. -1.
     999901    1    3    3    0    0  0.20919323345E-01 -0.11549899545E+00  0.42489980700E-01  0.88880989784E+00  0.88000000000E+00 0. -1.
        -11    1    4    4    0    0 -0.11098190236E-01  0.53951403915E-01  0.81831484280E-03  0.55089514166E-01  0.51100000000E-03 0.  1.
         11    1    4    4    0    0 -0.91166294132E-02  0.72100831995E-01 -0.21495728988E-01  0.75788985955E-01  0.51100000000E-03 0. -1.
</event>
<event>
 8    1  0.1137518E+005  0.1043930E+01  0.7957747E-01            NaN
         13   -1    0    0    0    0  0.00000000000E+00  0.00000000000E+00  0.74505805969E-08  0.10566000000E+00  0.10566000000E+00 0.  1.
     999900   -1    0    0    0    0 -0.00000000000E+00 -0.00000000000E+00 -0.74505805969E-08  0.93827000000E+00  0.93827000000E+00 0.  1.
     999902    2    1    2    0    0  0.95478342056E-02  0.15844799162E-01  0.13818783769E-01  0.10208393616E+01  0.10205781815E+01 0.  0.
     999903    2    3    3    0    0  0.11213049997E+00 -0.58757591200E-01  0.30006640050E-01  0.13159768089E+00  0.19795141369E-01 0.  0.
         14    1    1    2    0    0 -0.95478342056E-02 -0.15844799162E-01 -0.13818783769E-01  0.23090638435E-01  0.00000000000E+00 0. -1.
     999901    1    3    3    0    0 -0.10258266576E+00  0.74602390361E-01 -0.16187856282E-01  0.88924168068E+00  0.88000000000E+00 0.  1.
        -11    1    4    4    0    0  0.87715894006E-01 -0.39995434866E-01  0.29428654506E-01  0.10079692306E+00  0.51100000000E-03 0. -1.
         11    1    4    4    0    0  0.24414605959E-01 -0.18762156334E-01  0.57798554445E-03  0.30800757828E-01  0.51100000000E-03 0.  1.
</event>
<event>
 8    1  0.1137518E+005  0.1043930E+01  0.7957747E-01            NaN
         13   -1    0    0    0    0  0.00000000000E+00  0.00000000000E+00  0.74505805969E-08  0.10566000000E+00  0.10566000000E+00 0. -1.
     999900   -1    0    0    0    0 -0.00000000000E+00 -0.00000000000E+00 -0.74505805969E-08  0.93827000000E+00  0.93827000000E+00 0.  1.
     999902    2    1    2    0    0 -0.11633958975E-01 -0.20188041520E-01  0.60553618168E-02  0.10198556687E+01  0.10195714843E+01 0.  0.
     999903    2    3    3    0    0  0.91278042245E-01  0.69358786934E-01  0.54503316877E-01  0.12802792812E+00  0.16679823351E-01 0.  0.
         14    1    1    2    0    0  0.11633958975E-01  0.20188041520E-01 -0.60553618168E-02  0.24074331321E-01  0.00000000000E+00 0.  1.
     999901    1    3    3    0    0 -0.10291200122E+00 -0.89546828453E-01 -0.48447955060E-01  0.89182774056E+00  0.88000000000E+00 0.  1.
        -11    1    4    4    0    0  0.39154189875E-01  0.40040861276E-01  0.27960592308E-01  0.62596940818E-01  0.51100000000E-03 0. -1.
         11    1    4    4    0    0  0.52123852371E-01  0.29317925657E-01  0.26542724568E-01  0.65430987302E-01  0.51100000000E-03 0.  1.
</event>
<event>
 8    1  0.1137518E+005  0.1043930E+01  0.7957747E-01            NaN
         13   -1    0    0    0    0  0.00000000000E+00  0.00000000000E+00  0.74505805969E-08  0.10566000000E+00  0.10566000000E+00 0. -1.
     999900   -1    0    0    0    0 -0.00000000000E+00 -0.00000000000E+00 -0.74505805969E-08  0.93827000000E+00  0.93827000000E+00 0. -1.
     999902    2    1    2    0    0  0.19144030959E-01 -0.18737069849E-01 -0.59029617781E-02  0.10164997855E+01  0.10161296164E+01 0.  0.
     999903    2    3    3    0    0  0.19144743783E-01  0.10388766883E+00  0.63639139147E-01  0.12527987421E+00  0.22043999201E-01 0.  0.
         14    1    1    2    0    0 -0.19144030959E-01  0.18737069849E-01  0.59029617781E-02  0.27430214466E-01  0.00000000000E+00 0. -1.
     999901    1    3    3    0    0 -0.71282387992E-06 -0.12262473868E+00 -0.69542100925E-01  0.89121991132E+00  0.88000000000E+00 0. -1.
        -11    1    4    4    0    0  0.20594898144E-01  0.73346975024E-01  0.36865631698E-01  0.84636070893E-01  0.51100000000E-03 0. -1.
         11    1    4    4    0    0 -0.14501543608E-02  0.30540693810E-01  0.26773507449E-01  0.40643803318E-01  0.51100000000E-03 0.  1.
</event>
<event>
 8    1  0.1137518E+005  0.1043930E+01  0.7957747E-01            NaN
         13   -1    0    0    0    0  0.00000000000E+00  0.00000000000E+00  0.74505805969E-08  0.10566000000E+00  0.10566000000E+00 0. -1.
     999900   -1    0    0    0    0 -0.00000000000E+00 -0.00000000000E+00 -0.74505805969E-08  0.93827000000E+00  0.93827000000E+00 0.  1.
     999902    2    1    2    0    0  0.15519197247E-02  0.20145168721E-01 -0.88204666496E-02  0.10218837552E+01  0.10216459133E+01 0.  0.
     999903    2    3    3    0    0  0.88874136581E-01 -0.51918137264E-01  0.77964461819E-01  0.13039628281E+00  0.18183182729E-01 0.  0.
         14    1    1    2    0    0 -0.15519197247E-02 -0.20145168721E-01  0.88204666496E-02  0.22046244795E-01  0.00000000000E+00 0.  1.
     999901    1    3    3    0    0 -0.87322216856E-01  0.72063305986E-01 -0.86784928469E-01  0.89148747239E+00  0.88000000000E+00 0.  1.
        -11    1    4    4    0    0  0.39223612502E-01 -0.18492148737E-01  0.43025154986E-01  0.61089085974E-01  0.51100000000E-03 0. -1.
         11    1    4    4    0    0  0.49650524079E-01 -0.33425988527E-01  0.34939306833E-01  0.69307196837E-01  0.51100000000E-03 0.  1.
</event>
<event>
 8    1  0.1137518E+005  0.1043930E+01  0.7957747E-01            NaN
         13   -1    0    0    0    0  0.00000000000E+00  0.00000000000E+00  0.74505805969E-08  0.10566000000E+00  0.10566000000E+00 0. -1.
     999900   -1    0    0    0    0 -0.00000000000E+00 -0.00000000000E+00 -0.74505805969E-08  0.93827000000E+00  0.93827000000E+00 0.  1.
     999902    2    1    2    0    0  0.23258005313E-03  0.59990539812E-02 -0.22874527921E-01  0.10202807554E+01  0.10200066338E+01 0.  0.
     999903    2    3    3    0    0 -0.72005281201E-01 -0.97173014397E-01  0.41294266182E-01  0.12900054222E+00  0.17566110120E-01 0.  0.
         14    1    1    2    0    0 -0.23258005313E-03 -0.59990539812E-02  0.22874527921E-01  0.23649244591E-01  0.00000000000E+00 0. -1.
     999901    1    3    3    0    0  0.72237861254E-01  0.10317206838E+00 -0.64168794103E-01  0.89128021319E+00  0.88000000000E+00 0. -1.
        -11    1    4    4    0    0 -0.13609977848E-01 -0.16468573117E-01  0.14558859426E-01  0.25858594438E-01  0.51100000000E-03 0.  1.
         11    1    4    4    0    0 -0.58395303353E-01 -0.80704441280E-01  0.26735406756E-01  0.10314194778E+00  0.51100000000E-03 0. -1.
</event>
<event>
 8    1  0.1137518E+005  0.1043930E+01  0.7957747E-01            NaN
         13   -1    0    0    0    0  0.00000000000E+00  0.00000000000E+00  0.74505805969E-08  0.10566000000E+00  0.10566000000E+00 0. -1.
     999900   -1    0    0    0    0 -0.00000000000E+00 -0.00000000000E+00 -0.74505805969E-08  0.93827000000E+00  0.93827000000E+00 0. -1.
     999902    2    1    2    0    0  0.76409515079E-02 -0.21663549586E-01 -0.90771708252E-03  0.10209404922E+01  0.10206816208E+01 0.  0.
     999903    2    3    3    0    0 -0.12831796953E+00  0.61446733314E-02 -0.66632871630E-02  0.13004697885E+00  0.19093428132E-01 0.  0.
         14    1    1    2    0    0 -0.76409515079E-02  0.21663549586E-01  0.90771708252E-03  0.22989507844E-01  0.00000000000E+00 0. -1.
     999901    1    3    3    0    0  0.13595892103E+00 -0.27808222917E-01  0.57555700804E-02  0.89089351331E+00  0.88000000000E+00 0.  1.
        -11    1    4    4    0    0 -0.11824058963E+00  0.75923479358E-02 -0.12209615649E-02  0.11849148767E+00  0.51100000000E-03 0.  1.
         11    1    4    4    0    0 -0.10077379898E-01 -0.14476746044E-02 -0.54423255980E-02  0.11555491175E-01  0.51100000000E-03 0. -1.
</event>
<event>
 8    1  0.1137518E+005  0.1043930E+01  0.7957747E-01            NaN
         13   -1    0    0    0    0  0.00000000000E+00  0.00000000000E+00  0.74505805969E-08  0.10566000000E+00  0.10566000000E+00 0. -1.
     999900   -1    0    0    0    0 -0.00000000000E+00 -0.00000000000E+00 -0.74505805969E-08  0.93827000000E+00  0.93827000000E+00 0.  1.
     999902    2    1    2    0    0  0.11754774740E-01 -0.92918264333E-02 -0.18888360548E-01  0.10198201901E+01  0.10195351574E+01 0.  0.
     999903    2    3    3    0    0 -0.11374069876E+00  0.54967439032E-01 -0.13268138816E-01  0.12857950774E+00  0.19956963571E-01 0.  0.
         14    1    1    2    0    0 -0.11754774740E-01  0.92918264333E-02  0.18888360548E-01  0.24109809868E-01  0.00000000000E+00 0. -1.
     999901    1    3    3    0    0  0.12549547350E+00 -0.64259265465E-01 -0.56202217320E-02  0.89124068240E+00  0.88000000000E+00 0. -1.
        -11    1    4    4    0    0 -0.61888968865E-01  0.40589801750E-01 -0.97627311309E-02  0.74654862624E-01  0.51100000000E-03 0. -1.
         11    1    4    4    0    0 -0.51851729890E-01  0.14377637282E-01 -0.35054076852E-02  0.53924645112E-01  0.51100000000E-03 0.  1.
</event>
<event>
 8    1  0.1137518E+005  0.1043930E+01  0.7957747E-01            NaN
         13   -1    0    0    0    0  0.00000000000E+00  0.00000000000E+00  0.74505805969E-08  0.10566000000E+00  0.10566000000E+00 0. -1.
     999900   -1    0    0    0    0 -0.00000000000E+00 -0.00000000000E+00 -0.74505805969E-08  0.93827000000E+00  0.93827000000E+00 0. -1.
     999902    2    1    2    0    0 -0.82218011358E-02  0.20496353308E-01  0.87990680063E-02  0.10201577029E+01  0.10198806874E+01 0.  0.
     999903    2    3    3    0    0 -0.12382945207E+00  0.30302580994E-02  0.40577552734E-01  0.13185591546E+00  0.19913035692E-01 0.  0.
         14    1    1    2    0    0  0.82218011358E-02 -0.20496353308E-01 -0.87990680063E-02  0.23772297126E-01  0.00000000000E+00 0.  1.
     999901    1    3    3    0    0  0.11560765094E+00  0.17466095209E-01 -0.31778484728E-01  0.88830178742E+00  0.88000000000E+00 0.  1.
        -11    1    4    4    0    0 -0.89506422683E-01  0.11013243123E-01  0.27849736586E-01  0.94385169250E-01  0.51100000000E-03 0. -1.
         11    1    4    4    0    0 -0.34323029390E-01 -0.79829850240E-02  0.12727816148E-01  0.37470746207E-01  0.51100000000E-03 0.  1.
</event>
<event>
 8    1  0.1137518E+005  0.1043930E+01  0.7957747E-01            NaN
         13   -1    0    0    0    0  0.00000000000E+00  0.00000000000E+00  0.74505805969E-08  0.10566000000E+00  0.10566000000E+00 0.  1.
     999900   -1    0    0    0    0 -0.00000000000E+00 -0.00000000000E+00 -0.74505805969E-08  0.93827000000E+00  0.93827000000E+00 0.  1.
     999902    2    1    2    0    0  0.21737653923E-01  0.36358654584E-02  0.24643403681E-02  0.10217530280E+01  0.10215123259E+01 0.  0.
     999903    2    3    3    0    0 -0.44428492281E-01  0.11009619290E+00 -0.52067312806E-01  0.13119957003E+00  0.20180671359E-01 0.  0.
         14    1    1    2    0    0 -0.21737653923E-01 -0.36358654584E-02 -0.24643403681E-02  0.22176972047E-01  0.00000000000E+00 0. -1.
     999901    1    3    3    0    0  0.66166146204E-01 -0.10646032744E+00  0.54531653174E-01  0.89055345792E+00  0.88000000000E+00 0. -1.
        -11    1    4    4    0    0 -0.36759918026E-01  0.71695052296E-01 -0.41526343044E-01  0.90643093419E-01  0.51100000000E-03 0.  1.
         11    1    4    4    0    0 -0.76685742545E-02  0.38401140601E-01 -0.10540969762E-01  0.40556476610E-01  0.51100000000E-03 0. -1.
</event>
<event>
 8    1  0.1137518E+005  0.1043930E+01  0.7957747E-01            NaN
         13   -1    0    0    0    0  0.00000000000E+00  0.00000000000E+00  0.74505805969E-08  0.10566000000E+00  0.10566000000E+00 0. -1.
     999900   -1    0    0    0    0 -0.00000000000E+00 -0.00000000000E+00 -0.74505805969E-08  0.93827000000E+00  0.93827000000E+00 0. -1.
     999902    2    1    2    0    0 -0.63806374095E-03 -0.57248590652E-03 -0.23607488731E-01  0.10203069522E+01  0.10200334447E+01 0.  0.
     999903    2    3    3    0    0 -0.44349111072E-01  0.12082287821E+00  0.80538632495E-02  0.13033508108E+00  0.18903891029E-01 0.  0.
         14    1    1    2    0    0  0.63806374095E-03  0.57248590652E-03  0.23607488731E-01  0.23623047848E-01  0.00000000000E+00 0. -1.
     999901    1    3    3    0    0  0.43711047331E-01 -0.12139536411E+00 -0.31661351981E-01  0.88997187107E+00  0.88000000000E+00 0.  1.
        -11    1    4    4    0    0 -0.32842669919E-01  0.73105721905E-01 -0.22516970082E-02  0.80177420781E-01  0.51100000000E-03 0. -1.
         11    1    4    4    0    0 -0.11506441153E-01  0.47717156302E-01  0.10305560258E-01  0.50157660301E-01  0.51100000000E-03 0.  1.
</event>
<event>
 8    1  0.1137518E+005  0.1043930E+01  0.7957747E-01            NaN
         13   -1    0    0    0    0  0.00000000000E+00  0.00000000000E+00  0.74505805969E-08  0.10566000000E+00  0.10566000000E+00 0.  1.
     999900   -1    0    0    0    0 -0.00000000000E+00 -0.00000000000E+00 -0.74505805969E-08  0.93827000000E+00  0.93827000000E+00 0. -1.
     999902    2    1    2    0    0 -0.79248643272E-02 -0.20525571267E-01 -0.16098659084E-01  0.10166670329E+01  0.10163014250E+01 0.  0.
     999903    2    3    3    0    0 -0.48141638831E-01 -0.11330926249E+00 -0.38505917889E-01  0.13059238167E+00  0.20372974320E-01 0.  0.
         14    1    1    2    0    0  0.79248643272E-02  0.20525571267E-01  0.16098659084E-01  0.27262967093E-01  0.00000000000E+00 0.  1.
     999901    1    3    3    0    0  0.40216774504E-01  0.92783691227E-01  0.22407258805E-01  0.88607465123E+00  0.88000000000E+00 0. -1.
        -11    1    4    4    0    0 -0.24210942233E-01 -0.69844324920E-01 -0.31983175168E-01  0.80545540300E-01  0.51100000000E-03 0.  1.
         11    1    4    4    0    0 -0.23930696598E-01 -0.43464937574E-01 -0.65227427206E-02  0.50046841375E-01  0.51100000000E-03 0. -1.
</event>
<event>
 8    1  0.1137518E+005  0.1043930E+01  0.7957747E-01            NaN
         13   -1    0    0    0    0  0.00000000000E+00  0.00000000000E+00  0.74505805969E-08  0.10566000000E+00  0.10566000000E+00 0. -1.
     999900   -1    0    0    0    0 -0.00000000000E+00 -0.00000000000E+00 -0.74505805969E-08  0.93827000000E+00  0.93827000000E+00 0.  1.
     999902    2    1    2    0    0 -0.14668652173E-01  0.90457978958E-02  0.19623577695E-01  0.10178133268E+01  0.10174782001E+01 0.  0.
     999903    2    3    3    0    0  0.50801124566E-01  0.43705457783E-01  0.11009234913E+00  0.13007902970E+00  0.17587135472E-01 0.  0.
         14    1    1    2    0    0  0.14668652173E-01 -0.90457978958E-02 -0.19623577695E-01  0.26116673175E-01  0.00000000000E+00 0.  1.
     999901    1    3    3    0    0 -0.65469776739E-01 -0.34659659887E-01 -0.90468771431E-01  0.88773429713E+00  0.88000000000E+00 0.  1.
        -11    1    4    4    0    0  0.43504942754E-01  0.28114883392E-01  0.77526747156E-01  0.93240465238E-01  0.51100000000E-03 0. -1.
         11    1    4    4    0    0  0.72961818115E-02  0.15590574390E-01  0.32565601970E-01  0.36838564461E-01  0.51100000000E-03 0.  1.
</event>
<event>
 8    1  0.1137518E+005  0.1043930E+01  0.7957747E-01            NaN
         13   -1    0    0    0    0  0.00000000000E+00  0.00000000000E+00  0.74505805969E-08  0.10566000000E+00  0.10566000000E+00 0. -1.
     999900   -1    0    0    0    0 -0.00000000000E+00 -0.00000000000E+00 -0.74505805969E-08  0.93827000000E+00  0.93827000000E+00 0.  1.
     999902    2    1    2    0    0 -0.30576624825E-02  0.11554101270E-02 -0.22867878503E-01  0.10208296939E+01  0.10205682926E+01 0.  0.
     999903    2    3    3    0    0  0.11106136315E+00 -0.17516094284E-01  0.60767455241E-01  0.12933283689E+00  0.19820674547E-01 0.  0.
         14    1    1    2    0    0  0.30576624825E-02 -0.11554101270E-02  0.22867878503E-01  0.23100306051E-01  0.00000000000E+00 0. -1.
     999901    1    3    3    0    0 -0.11411902563E+00  0.18671504411E-01 -0.83635333745E-01  0.89149685705E+00  0.88000000000E+00 0. -1.
        -11    1    4    4    0    0  0.54652254525E-01 -0.13468999620E-01  0.40124614476E-01  0.69126902745E-01  0.51100000000E-03 0. -1.
         11    1    4    4    0    0  0.56409108623E-01 -0.40470946643E-02  0.20642840766E-01  0.60205934149E-01  0.51100000000E-03 0.  1.
</event>
<event>
 8    1  0.1137518E+005  0.1043930E+01  0.7957747E-01            NaN
         13   -1    0    0    0    0  0.00000000000E+00  0.00000000000E+00  0.74505805969E-08  0.10566000000E+00  0.10566000000E+00 0. -1.
     999900   -1    0    0    0    0 -0.00000000000E+00 -0.00000000000E+00 -0.74505805969E-08  0.93827000000E+00  0.93827000000E+00 0.  1.
     999902    2    1    2    0    0  0.42863551399E-02  0.22866945638E-01 -0.10674651586E-02  0.10206403129E+01  0.10203745581E+01 0.  0.
     999903    2    3    3    0    0  0.38405822454E-01  0.33120051911E-01 -0.12017838744E+00  0.13190150085E+00  0.19575905642E-01 0.  0.
         14    1    1    2    0    0 -0.42863551399E-02 -0.22866945638E-01  0.10674651586E-02  0.23289687097E-01  0.00000000000E+00 0. -1.
     999901    1    3    3    0    0 -0.34119467314E-01 -0.10253106273E-01  0.11911092228E+00  0.88873881205E+00  0.88000000000E+00 0. -1.
        -11    1    4    4    0    0  0.30386031051E-01  0.33930653041E-01 -0.93128024059E-01  0.10367106677E+00  0.51100000000E-03 0.  1.
         11    1    4    4    0    0  0.80197914024E-02 -0.81060112982E-03 -0.27050363385E-01  0.28230434084E-01  0.51100000000E-03 0. -1.
</event>
<event>
 8    1  0.1137518E+005  0.1043930E+01  0.7957747E-01            NaN
         13   -1    0    0    0    0  0.00000000000E+00  0.00000000000E+00  0.74505805969E-08  0.10566000000E+00  0.10566000000E+00 0. -1.
     999900   -1    0    0    0    0 -0.00000000000E+00 -0.00000000000E+00 -0.74505805969E-08  0.93827000000E+00  0.93827000000E+00 0. -1.
     999902    2    1    2    0    0  0.49258655550E-02 -0.11378793146E-02  0.22253699752E-01  0.10211092622E+01  0.10208542204E+01 0.  0.
     999903    2    3    3    0    0 -0.73839190817E-01  0.81437048892E-01  0.70993997829E-01  0.13240336624E+00  0.20156503425E-01 0.  0.
         14    1    1    2    0    0 -0.49258655550E-02  0.11378793146E-02 -0.22253699752E-01  0.22820737794E-01  0.00000000000E+00 0.  1.
     999901    1    3    3    0    0  0.78765056372E-01 -0.82574928206E-01 -0.48740298077E-01  0.88870589597E+00  0.88000000000E+00 0. -1.
        -11    1    4    4    0    0 -0.54509607274E-01  0.45848670244E-01  0.43801055945E-01  0.83619324747E-01  0.51100000000E-03 0.  1.
         11    1    4    4    0    0 -0.19329583543E-01  0.35588378647E-01  0.27192941885E-01  0.48784041489E-01  0.51100000000E-03 0. -1.
</event>
<event>
 8    1  0.1137518E+005  0.1043930E+01  0.7957747E-01            NaN
         13   -1    0    0    0    0  0.00000000000E+00  0.00000000000E+00  0.74505805969E-08  0.10566000000E+00  0.10566000000E+00 0.  1.
     999900   -1    0    0    0    0 -0.00000000000E+00 -0.00000000000E+00 -0.74505805969E-08  0.93827000000E+00  0.93827000000E+00 0.  1.
     999902    2    1    2    0    0 -0.55960812474E-02 -0.13670827471E-01  0.20137819702E-01  0.10189552241E+01  0.10186491100E+01 0.  0.
     999903    2    3    3    0    0 -0.92323499478E-02  0.84028029430E-01  0.96914417062E-01  0.13021851675E+00  0.20457562265E-01 0.  0.
         14    1    1    2    0    0  0.55960812474E-02  0.13670827471E-01 -0.20137819702E-01  0.24974775903E-01  0.00000000000E+00 0. -1.
     999901    1    3    3    0    0  0.36362687004E-02 -0.97698856901E-01 -0.76776597360E-01  0.88873670735E+00  0.88000000000E+00 0.  1.
        -11    1    4    4    0    0 -0.96927513796E-02  0.36915099994E-01  0.30877845345E-01  0.49095585250E-01  0.51100000000E-03 0.  1.
         11    1    4    4    0    0  0.46040143177E-03  0.47112929436E-01  0.66036571717E-01  0.81122931497E-01  0.51100000000E-03 0. -1.
</event>
<event>
 8    1  0.1137518E+005  0.1043930E+01  0.7957747E-01            NaN
         13   -1    0    0    0    0  0.00000000000E+00  0.00000000000E+00  0.74505805969E-08  0.10566000000E+00  0.10566000000E+00 0.  1.
     999900   -1    0    0    0    0 -0.00000000000E+00 -0.00000000000E+00 -0.74505805969E-08  0.93827000000E+00  0.93827000000E+00 0.  1.
     999902    2    1    2    0    0  0.90133583449E-02 -0.20579133816E-01 -0.75406275018E-02  0.10202318473E+01  0.10199565774E+01 0.  0.
     999903    2    3    3    0    0 -0.12622638526E+00  0.12961986479E-01  0.17137265967E-01  0.12892730149E+00  0.15081437414E-01 0.  0.
         14    1    1    2    0    0 -0.90133583449E-02  0.20579133816E-01  0.75406275018E-02  0.23698152679E-01  0.00000000000E+00 0.  1.
     999901    1    3    3    0    0  0.13523974360E+00 -0.33541120295E-01 -0.24677893469E-01  0.89130454584E+00  0.88000000000E+00 0.  1.
        -11    1    4    4    0    0 -0.87058000456E-01  0.29255454153E-02  0.80346561507E-02  0.87478403505E-01  0.51100000000E-03 0. -1.
         11    1    4    4    0    0 -0.39168384803E-01  0.10036441064E-01  0.91026098161E-02  0.41448897980E-01  0.51100000000E-03 0.  1.
</event>
<event>
 8    1  0.1137518E+005  0.1043930E+01  0.7957747E-01            NaN
         13   -1    0    0    0    0  0.00000000000E+00  0.00000000000E+00  0.74505805969E-08  0.10566000000E+00  0.10566000000E+00 0.  1.
     999900   -1    0    0    0    0 -0.00000000000E+00 -0.00000000000E+00 -0.74505805969E-08  0.93827000000E+00  0.93827000000E+00 0. -1.
     999902    2    1    2    0    0 -0.41315250027E-02  0.14523021922E-01  0.17809434121E-01  0.10205812611E+01  0.10203141413E+01 0.  0.
     999903    2    3    3    0    0 -0.65618737568E-01 -0.52639923733E-02 -0.10921855158E+00  0.12911712138E+00  0.20224012697E-01 0.  0.
         14    1    1    2    0    0  0.41315250027E-02 -0.14523021922E-01 -0.17809434121E-01  0.23348738902E-01  0.00000000000E+00 0. -1.
     999901    1    3    3    0    0  0.61487212565E-01  0.19787014295E-01  0.12702798570E+00  0.89146413971E+00  0.88000000000E+00 0.  1.
        -11    1    4    4    0    0 -0.21537569344E-01 -0.43373068105E-02 -0.55027478501E-01  0.59253385007E-01  0.51100000000E-03 0.  1.
         11    1    4    4    0    0 -0.44081168224E-01 -0.92668556282E-03 -0.54191073080E-01  0.69863736378E-01  0.51100000000E-03 0. -1.
</event>
<event>
 8    1  0.1137518E+005  0.1043930E+01  0.7957747E-01            NaN
         13   -1    0    0    0    0  0.00000000000E+00  0.00000000000E+00  0.74505805969E-08  0.10566000000E+00  0.10566000000E+00 0. -1.
     999900   -1    0    0    0    0 -0.00000000000E+00 -0.00000000000E+00 -0.74505805969E-08  0.93827000000E+00  0.93827000000E+00 0. -1.
     999902    2    1    2    0    0  0.13023099286E-01 -0.17216920770E-01  0.31447702172E-02  0.10221145684E+01  0.10218817338E+01 0.  0.
     999903    2    3    3    0    0 -0.49312339652E-01 -0.11924330595E+00 -0.26467904846E-01  0.13353592769E+00  0.21923073254E-01 0.  0.
         14    1    1    2    0    0 -0.13023099286E-01  0.17216920770E-01 -0.31447702172E-02  0.21815431592E-01  0.00000000000E+00 0.  1.
     999901    1    3    3    0    0  0.62335438939E-01  0.10202638518E+00  0.29612675063E-01  0.88857864072E+00  0.88000000000E+00 0. -1.
        -11    1    4    4    0    0 -0.19192455164E-01 -0.64293130761E-01 -0.49585046140E-02  0.67281534520E-01  0.51100000000E-03 0.  1.
         11    1    4    4    0    0 -0.30119884488E-01 -0.54950175187E-01 -0.21509400232E-01  0.66254393168E-01  0.51100000000E-03 0. -1.
</event>
<event>
 8    1  0.1137518E+005  0.1043930E+01  0.7957747E-01            NaN
         13   -1    0    0    0    0  0.00000000000E+00  0.00000000000E+00  0.74505805969E-08  0.10566000000E+00  0.10566000000E+00 0. -1.
     999900   -1    0    0    0    0 -0.00000000000E+00 -0.00000000000E+00 -0.74505805969E-08  0.93827000000E+00  0.93827000000E+00 0. -1.
     999902    2    1    2    0    0  0.41706593765E-02  0.53046191562E-02 -0.22594683021E-01  0.10203492221E+01  0.10200767040E+01 0.  0.
     999903    2    3    3    0    0 -0.47756648816E-01 -0.99191785031E-01 -0.68858590948E-01  0.13144186307E+00  0.20389950840E-01 0.  0.
         14    1    1    2    0    0 -0.41706593765E-02 -0.53046191562E-02  0.22594683021E-01  0.23580777868E-01  0.00000000000E+00 0. -1.
     999901    1    3    3    0    0  0.51927308193E-01  0.10449640419E+00  0.46263907927E-01  0.88890735907E+00  0.88000000000E+00 0. -1.
        -11    1    4    4    0    0 -0.19940645605E-01 -0.39647828979E-01 -0.39675228548E-01  0.59531206701E-01  0.51100000000E-03 0. -1.
         11    1    4    4    0    0 -0.27816003211E-01 -0.59543956053E-01 -0.29183362400E-01  0.71910656366E-01  0.51100000000E-03 0.  1.
</event>
<event>
 8    1  0.1137518E+005  0.1043930E+01  0.7957747E-01            NaN
         13   -1    0    0    0    0  0.00000000000E+00  0.00000000000E+00  0.74505805969E-08  0.10566000000E+00  0.10566000000E+00 0.  1.
     999900   -1    0    0    0    0 -0.00000000000E+00 -0.00000000000E+00 -0.74505805969E-08  0.93827000000E+00  0.93827000000E+00 0. -1.
     999902    2    1    2    0    0  0.14907412929E-01 -0.89939468564E-02  0.16479234246E-01  0.10199573656E+01  0.10196756055E+01 0.  0.
     999903    2    3    3    0    0 -0.40663764284E-01  0.10508378362E+00  0.61116864195E-01  0.12973581880E+00  0.19999207081E-01 0.  0.
         14    1    1    2    0    0 -0.14907412929E-01  0.89939468564E-02 -0.16479234246E-01  0.23972634433E-01  0.00000000000E+00 0.  1.
     999901    1    3    3    0    0  0.55571177213E-01 -0.11407773048E+00 -0.44637629949E-01  0.89022154677E+00  0.88000000000E+00 0. -1.
        -11    1    4    4    0    0 -0.24084150938E-01  0.80809667082E-01  0.51480769387E-01  0.98796656613E-01  0.51100000000E-03 0.  1.
         11    1    4    4    0    0 -0.16579613345E-01  0.24274116539E-01  0.96360948086E-02  0.30939162183E-01  0.51100000000E-03 0. -1.
</event>
<event>
 8    1  0.1137518E+005  0.1043930E+01  0.7957747E-01            NaN
         13   -1    0    0    0    0  0.00000000000E+00  0.00000000000E+00  0.74505805969E-08  0.10566000000E+00  0.10566000000E+00 0. -1.
     999900   -1    0    0    0    0 -0.00000000000E+00 -0.00000000000E+00 -0.74505805969E-08  0.93827000000E+00  0.93827000000E+00 0.  1.
     999902    2    1    2    0    0 -0.89156782434E-02 -0.61564082635E-02 -0.87675263823E-02  0.10299922742E+01  0.10298979681E+01 0.  0.
     999903    2    3    3    0    0  0.60406964445E-01 -0.23229541533E-01  0.11981812421E+00  0.13778636177E+00  0.20978218378E-01 0.  0.
         14    1    1    2    0    0  0.89156782434E-02  0.61564082635E-02  0.87675263823E-02  0.13937725787E-01  0.00000000000E+00 0. -1.
     999901    1    3    3    0    0 -0.69322642688E-01  0.17073133269E-01 -0.12858565059E+00  0.89220591245E+00  0.88000000000E+00 0.  1.
        -11    1    4    4    0    0  0.40715921946E-01 -0.47414909026E-02  0.70373668882E-01  0.81443123889E-01  0.51100000000E-03 0.  1.
         11    1    4    4    0    0  0.19691042498E-01 -0.18488050630E-01  0.49444455327E-01  0.56343237876E-01  0.51100000000E-03 0. -1.
</event>
<event>
 8    1  0.1137518E+005  0.1043930E+01  0.7957747E-01            NaN
         13   -1    0    0    0    0  0.00000000000E+00  0.00000000000E+00  0.74505805969E-08  0.10566000000E+00  0.10566000000E+00 0. -1.
     999900   -1    0    0    0    0 -0.00000000000E+00 -0.00000000000E+00 -0.74505805969E-08  0.93827000000E+00  0.93827000000E+00 0.  1.
     999902    2    1    2    0    0 -0.27642739486E-02 -0.20858208557E-01 -0.10107580708E-01  0.10205875652E+01  0.10203205913E+01 0.  0.
     999903    2    3    3    0    0 -0.12140541764E-01  0.28145587577E-01 -0.12632982356E+00  0.13154487997E+00  0.20131176580E-01 0.  0.
         14    1    1    2    0    0  0.27642739486E-02  0.20858208557E-01  0.10107580708E-01  0.23342434801E-01  0.00000000000E+00 0. -1.
     999901    1    3    3    0    0  0.93762678152E-02 -0.49003796133E-01  0.11622224285E+00  0.88904268523E+00  0.88000000000E+00 0. -1.
        -11    1    4    4    0    0 -0.35787300794E-02  0.19408835962E-01 -0.10592230450E+00  0.10774648920E+00  0.51100000000E-03 0.  1.
         11    1    4    4    0    0 -0.85618116844E-02  0.87367516150E-02 -0.20407519055E-01  0.23798390766E-01  0.51100000000E-03 0. -1.
</event>
<event>
 8    1  0.1137518E+005  0.1043930E+01  0.7957747E-01            NaN
         13   -1    0    0    0    0  0.00000000000E+00  0.00000000000E+00  0.74505805969E-08  0.10566000000E+00  0.10566000000E+00 0. -1.
     999900   -1    0    0    0    0 -0.00000000000E+00 -0.00000000000E+00 -0.74505805969E-08  0.93827000000E+00  0.93827000000E+00 0.  1.
     999902    2    1    2    0    0 -0.33115587383E-02  0.22846913670E-01  0.57650848382E-02  0.10201353769E+01  0.10198578348E+01 0.  0.
     999903    2    3    3    0    0  0.22706590531E-01 -0.88851438438E-01  0.88293961480E-01  0.12886410425E+00  0.19999159115E-01 0.  0.
         14    1    1    2    0    0  0.33115587383E-02 -0.22846913670E-01 -0.57650848382E-02  0.23794623105E-01  0.00000000000E+00 0. -1.
     999901    1    3    3    0    0 -0.26018149269E-01  0.11169835211E+00 -0.82528876642E-01  0.89127127264E+00  0.88000000000E+00 0.  1.
        -11    1    4    4    0    0  0.72849586122E-02 -0.65292294180E-01  0.61989620932E-01  0.90327894504E-01  0.51100000000E-03 0.  1.
         11    1    4    4    0    0  0.15421631919E-01 -0.23559144257E-01  0.26304340548E-01  0.38536209749E-01  0.51100000000E-03 0. -1.
</event>
<event>
 8    1  0.1137518E+005  0.1043930E+01  0.7957747E-01            NaN
         13   -1    0    0    0    0  0.00000000000E+00  0.00000000000E+00  0.74505805969E-08  0.10566000000E+00  0.10566000000E+00 0.  1.
     999900   -1    0    0    0    0 -0.00000000000E+00 -0.00000000000E+00 -0.74505805969E-08  0.93827000000E+00  0.93827000000E+00 0.  1.
     999902    2    1    2    0    0 -0.13798907306E-01  0.67647224339E-02 -0.18334910777E-01  0.10200063660E+01  0.10197257702E+01 0.  0.
     999903    2    3    3    0    0  0.11080391269E+00  0.25639456171E-01 -0.60550816808E-01  0.13002642178E+00  0.17480851344E-01 0.  0.
         14    1    1    2    0    0  0.13798907306E-01 -0.67647224339E-02  0.18334910777E-01  0.23923634039E-01  0.00000000000E+00 0.  1.
     999901    1    3    3    0    0 -0.12460282000E+00 -0.18874733737E-01  0.42215906031E-01  0.88997994418E+00  0.88000000000E+00 0. -1.
        -11    1    4    4    0    0  0.12756787882E-01  0.83673856826E-02 -0.52610072510E-02  0.16145838428E-01  0.51100000000E-03 0.  1.
         11    1    4    4    0    0  0.98047124810E-01  0.17272070489E-01 -0.55289809557E-01  0.11388058335E+00  0.51100000000E-03 0. -1.
</event>
<event>
 8    1  0.1137518E+005  0.1043930E+01  0.7957747E-01            NaN
         13   -1    0    0    0    0  0.00000000000E+00  0.00000000000E+00  0.74505805969E-08  0.10566000000E+00  0.10566000000E+00 0.  1.
     999900   -1    0    0    0    0 -0.00000000000E+00 -0.00000000000E+00 -0.74505805969E-08  0.93827000000E+00  0.93827000000E+00 0. -1.
     999902    2    1    2    0    0 -0.11321701072E-01  0.11536571708E-02  0.18205693673E-01  0.10224600414E+01  0.10222345999E+01 0.  0.
     999903    2    3    3    0    0  0.11119171902E+00  0.55864527612E-01 -0.34383177119E-01  0.13073788357E+00  0.20633649850E-01 0.  0.
         14    1    1    2    0    0  0.11321701072E-01 -0.11536571708E-02 -0.18205693673E-01  0.21469958597E-01  0.00000000000E+00 0. -1.
     999901    1    3    3    0    0 -0.12251342009E+00 -0.54710870441E-01  0.52588870792E-01  0.89172215784E+00  0.88000000000E+00 0.  1.
        -11    1    4    4    0    0  0.39498049293E-01  0.25595298270E-01 -0.21920934570E-01  0.51923055427E-01  0.51100000000E-03 0. -1.
         11    1    4    4    0    0  0.71693669729E-01  0.30269229342E-01 -0.12462242549E-01  0.78814828138E-01  0.51100000000E-03 0.  1.
</event>
<event>
 8    1  0.1137518E+005  0.1043930E+01  0.7957747E-01            NaN
         13   -1    0    0    0    0  0.00000000000E+00  0.00000000000E+00  0.74505805969E-08  0.10566000000E+00  0.10566000000E+00 0. -1.
     999900   -1    0    0    0    0 -0.00000000000E+00 -0.00000000000E+00 -0.74505805969E-08  0.93827000000E+00  0.93827000000E+00 0. -1.
     999902    2    1    2    0    0 -0.98158339176E-02  0.21324884217E-01 -0.10377609841E-02  0.10204315271E+01  0.10201609300E+01 0.  0.
     999903    2    3    3    0    0  0.50053483261E-01  0.59223787167E-01  0.10430139191E+00  0.13132129818E+00  0.18806776602E-01 0.  0.
         14    1    1    2    0    0  0.98158339176E-02 -0.21324884217E-01  0.10377609841E-02  0.23498472934E-01  0.00000000000E+00 0.  1.
     999901    1    3    3    0    0 -0.59869317179E-01 -0.37898902950E-01 -0.10533915290E+00  0.88911022889E+00  0.88000000000E+00 0. -1.
        -11    1    4    4    0    0  0.43401521991E-01  0.45430750994E-01  0.71938541251E-01  0.95514711355E-01  0.51100000000E-03 0.  1.
         11    1    4    4    0    0  0.66519612702E-02  0.13793036173E-01  0.32362850664E-01  0.35806586820E-01  0.51100000000E-03 0. -1.
</event>
<event>
 8    1  0.1137518E+005  0.1043930E+01  0.7957747E-01            NaN
         13   -1    0    0    0    0  0.00000000000E+00  0.00000000000E+00  0.74505805969E-08  0.10566000000E+00  0.10566000000E+00 0. -1.
     999900   -1    0    0    0    0 -0.00000000000E+00 -0.00000000000E+00 -0.74505805969E-08  0.93827000000E+00  0.93827000000E+00 0.  1.
     999902    2    1    2    0    0  0.14647294666E-01 -0.24385104828E-02  0.17496861409E-01  0.10209815854E+01  0.10207236492E+01 0.  0.
     999903    2    3    3    0    0 -0.99052198078E-01  0.28629873614E-01  0.78613644123E-01  0.13102199064E+00  0.18858668607E-01 0.  0.
         14    1    1    2    0    0 -0.14647294666E-01  0.24385104828E-02 -0.17496861409E-01  0.22948414620E-01  0.00000000000E+00 0.  1.
     999901    1    3    3    0    0  0.11369949274E+00 -0.31068384097E-01 -0.61116782714E-01  0.88995959474E+00  0.88000000000E+00 0.  1.
        -11    1    4    4    0    0 -0.28799669381E-01  0.13399226812E-01  0.15439877727E-01  0.35321539899E-01  0.51100000000E-03 0. -1.
         11    1    4    4    0    0 -0.70252528698E-01  0.15230646802E-01  0.63173766396E-01  0.95700450741E-01  0.51100000000E-03 0.  1.
</event>
<event>
 8    1  0.1137518E+005  0.1043930E+01  0.7957747E-01            NaN
         13   -1    0    0    0    0  0.00000000000E+00  0.00000000000E+00  0.74505805969E-08  0.10566000000E+00  0.10566000000E+00 0.  1.
     999900   -1    0    0    0    0 -0.00000000000E+00 -0.00000000000E+00 -0.74505805969E-08  0.93827000000E+00  0.93827000000E+00 0.  1.
     999902    2    1    2    0    0 -0.14432084696E-01 -0.17651006101E-01  0.55293101112E-02  0.10204690462E+01  0.10201993226E+01 0.  0.
     999903    2    3    3    0    0  0.25835194413E-01 -0.15890451201E-01 -0.12477469725E+00  0.12996150118E+00  0.20032548681E-01 0.  0.
         14    1    1    2    0    0  0.14432084696E-01  0.17651006101E-01 -0.55293101112E-02  0.23460953846E-01  0.00000000000E+00 0. -1.
     999901    1    3    3    0    0 -0.40267279110E-01 -0.17605549005E-02  0.13030400736E+00  0.89050754497E+00  0.88000000000E+00 0. -1.
        -11    1    4    4    0    0 -0.12613210188E-02 -0.80079900483E-02 -0.27313217062E-01  0.28495469510E-01  0.51100000000E-03 0. -1.
         11    1    4    4    0    0  0.27096515432E-01 -0.78824611527E-02 -0.97461480183E-01  0.10146603167E+00  0.51100000000E-03 0.  1.
</event>
<event>
 8    1  0.1137518E+005  0.1043930E+01  0.7957747E-01            NaN
         13   -1    0    0    0    0  0.00000000000E+00  0.00000000000E+00  0.74505805969E-08  0.10566000000E+00  0.10566000000E+00 0. -1.
     999900   -1    0    0    0    0 -0.00000000000E+00 -0.00000000000E+00 -0.74505805969E-08  0.93827000000E+00  0.93827000000E+00 0.  1.
     999902    2    1    2    0    0 -0.20569466428E-01  0.11097409924E-01  0.32230783610E-02  0.10203367024E+01  0.10200638914E+01 0.  0.
     999903    2    3    3    0    0  0.92285872965E-01  0.28912044805E-01  0.84260883326E-01  0.12925824647E+00  0.15975266422E-01 0.  0.
         14    1    1    2    0    0  0.20569466428E-01 -0.11097409924E-01 -0.32230783610E-02  0.23593297571E-01  0.00000000000E+00 0.  1.
     999901    1    3    3    0    0 -0.11285533939E+00 -0.17814634881E-01 -0.81037804965E-01  0.89107845596E+00  0.88000000000E+00 0.  1.
        -11    1    4    4    0    0  0.17213111187E-01  0.28605020514E-02  0.23241947902E-01  0.29067558067E-01  0.51100000000E-03 0.  1.
         11    1    4    4    0    0  0.75072761778E-01  0.26051542754E-01  0.61018935425E-01  0.10019068840E+00  0.51100000000E-03 0. -1.
</event>
<event>
 8    1  0.1137518E+005  0.1043930E+01  0.7957747E-01            NaN
         13   -1    0    0    0    0  0.00000000000E+00  0.00000000000E+00  0.74505805969E-08  0.10566000000E+00  0.10566000000E+00 0.  1.
     999900   -1    0    0    0    0 -0.00000000000E+00 -0.00000000000E+00 -0.74505805969E-08  0.93827000000E+00  0.93827000000E+00 0.  1.
     999902    2    1    2    0    0  0.17155296124E-01 -0.15845856303E-01 -0.29821489945E-03  0.10205743951E+01  0.10203071164E+01 0.  0.
     999903    2    3    3    0    0 -0.77546395977E-01 -0.10347829254E+00  0.75134994792E-02  0.13113137994E+00  0.20439803687E-01 0.  0.
         14    1    1    2    0    0 -0.17155296124E-01  0.15845856303E-01  0.29821489945E-03  0.23355604877E-01  0.00000000000E+00 0.  1.
     999901    1    3    3    0    0  0.94701692101E-01  0.87632436242E-01 -0.78117143786E-02  0.88944301518E+00  0.88000000000E+00 0.  1.
        -11    1    4    4    0    0 -0.55257599943E-01 -0.57228420085E-01  0.56708465839E-02  0.79755338623E-01  0.51100000000E-03 0.  1.
         11    1    4    4    0    0 -0.22288796034E-01 -0.46249872460E-01  0.18426528953E-02  0.51376041321E-01  0.51100000000E-03 0. -1.
</event>
<event>
 8    1  0.1137518E+005  0.1043930E+01  0.7957747E-01            NaN
         13   -1    0    0    0    0  0.00000000000E+00  0.00000000000E+00  0.74505805969E-08  0.10566000000E+00  0.10566000000E+00 0.  1.
     999900   -1    0    0    0    0 -0.00000000000E+00 -0.00000000000E+00 -0.74505805969E-08  0.93827000000E+00  0.93827000000E+00 0. -1.
     999902    2    1    2    0    0 -0.12440558196E-01  0.84077814808E-02  0.18483642251E-01  0.10201160690E+01  0.10198380710E+01 0.  0.
     999903    2    3    3    0    0  0.18692652754E-01 -0.21725301999E-01  0.12810402521E+00  0.13225689781E+00  0.16119607004E-01 0.  0.
         14    1    1    2    0    0  0.12440558196E-01 -0.84077814808E-02 -0.18483642251E-01  0.23813930976E-01  0.00000000000E+00 0. -1.
     999901    1    3    3    0    0 -0.31133210951E-01  0.30133083480E-01 -0.10962038296E+00  0.88785917121E+00  0.88000000000E+00 0. -1.
        -11    1    4    4    0    0  0.82724290954E-02 -0.12562724985E-01  0.34656723029E-01  0.37783656709E-01  0.51100000000E-03 0. -1.
         11    1    4    4    0    0  0.10420223659E-01 -0.91625770140E-02  0.93447302182E-01  0.94473241104E-01  0.51100000000E-03 0.  1.
</event>
<event>
 8    1  0.1137518E+005  0.1043930E+01  0.7957747E-01            NaN
         13   -1    0    0    0    0  0.00000000000E+00  0.00000000000E+00  0.74505805969E-08  0.10566000000E+00  0.10566000000E+00 0. -1.
     999900   -1    0    0    0    0 -0.00000000000E+00 -0.00000000000E+00 -0.74505805969E-08  0.93827000000E+00  0.93827000000E+00 0.  1.
     999902    2    1    2    0    0 -0.13426461309E-01 -0.70733601266E-02  0.18676939176E-01  0.10198648729E+01  0.10195809083E+01 0.  0.
     999903    2    3    3    0    0  0.95103345873E-01  0.82705512639E-01 -0.12168948207E-01  0.12813036428E+00  0.19607619258E-01 0.  0.
         14    1    1    2    0    0  0.13426461309E-01  0.70733601266E-02 -0.18676939176E-01  0.24065127130E-01  0.00000000000E+00 0.  1.
     999901    1    3    3    0    0 -0.10852980718E+00 -0.89778872766E-01  0.30845887384E-01  0.89173450859E+00  0.88000000000E+00 0.  1.
        -11    1    4    4    0    0  0.67966024808E-01  0.60802992361E-01 -0.17466321619E-01  0.92853206300E-01  0.51100000000E-03 0. -1.
         11    1    4    4    0    0  0.27137321065E-01  0.21902520278E-01  0.52973734112E-02  0.35277157980E-01  0.51100000000E-03 0.  1.
</event>
<event>
 8    1  0.1137518E+005  0.1043930E+01  0.7957747E-01            NaN
         13   -1    0    0    0    0  0.00000000000E+00  0.00000000000E+00  0.74505805969E-08  0.10566000000E+00  0.10566000000E+00 0.  1.
     999900   -1    0    0    0    0 -0.00000000000E+00 -0.00000000000E+00 -0.74505805969E-08  0.93827000000E+00  0.93827000000E+00 0. -1.
     999902    2    1    2    0    0  0.14292422185E-01 -0.12242751114E-01  0.13398239534E-01  0.10208286773E+01  0.10205672527E+01 0.  0.
     999903    2    3    3    0    0 -0.72763907978E-01  0.91858562708E-01  0.51288630318E-01  0.12962074992E+00  0.20938800398E-01 0.  0.
         14    1    1    2    0    0 -0.14292422185E-01  0.12242751114E-01 -0.13398239534E-01  0.23101322676E-01  0.00000000000E+00 0. -1.
     999901    1    3    3    0    0  0.87056330163E-01 -0.10410131382E+00 -0.37890390783E-01  0.89120792741E+00  0.88000000000E+00 0. -1.
        -11    1    4    4    0    0 -0.35457553054E-01  0.59771784192E-01  0.34776784954E-01  0.77714800050E-01  0.51100000000E-03 0. -1.
         11    1    4    4    0    0 -0.37306354924E-01  0.32086778516E-01  0.16511845364E-01  0.51905949867E-01  0.51100000000E-03 0.  1.
</event>
<event>
 8    1  0.1137518E+005  0.1043930E+01  0.7957747E-01            NaN
         13   -1    0    0    0    0  0.00000000000E+00  0.00000000000E+00  0.74505805969E-08  0.10566000000E+00  0.10566000000E+00 0. -1.
     999900   -1    0    0    0    0 -0.00000000000E+00 -0.00000000000E+00 -0.74505805969E-08  0.93827000000E+00  0.93827000000E+00 0. -1.
     999902    2    1    2    0    0 -0.38897328211E-02 -0.93481736541E-02  0.21085506171E-01  0.10205394690E+01  0.10202713809E+01 0.  0.
     999903    2    3    3    0    0  0.30298760517E-01  0.70153752972E-01  0.10572667170E+00  0.13225261421E+00  0.21749963477E-01 0.  0.
         14    1    1    2    0    0  0.38897328211E-02  0.93481736541E-02 -0.21085506171E-01  0.23390531045E-01  0.00000000000E+00 0.  1.
     999901    1    3    3    0    0 -0.34188493339E-01 -0.79501926626E-01 -0.84641165529E-01  0.88828685475E+00  0.88000000000E+00 0. -1.
        -11    1    4    4    0    0  0.10128971311E-01  0.75649054593E-02  0.10061907394E-01  0.16165610283E-01  0.51100000000E-03 0.  1.
         11    1    4    4    0    0  0.20169789207E-01  0.62588847513E-01  0.95664764305E-01  0.11608700392E+00  0.51100000000E-03 0. -1.
</event>
<event>
 8    1  0.1137518E+005  0.1043930E+01  0.7957747E-01            NaN
         13   -1    0    0    0    0  0.00000000000E+00  0.00000000000E+00  0.74505805969E-08  0.10566000000E+00  0.10566000000E+00 0.  1.
     999900   -1    0    0    0    0 -0.00000000000E+00 -0.00000000000E+00 -0.74505805969E-08  0.93827000000E+00  0.93827000000E+00 0.  1.
     999902    2    1    2    0    0  0.22976682088E-01 -0.44520505573E-02  0.36566962597E-02  0.10202420262E+01  0.10199669955E+01 0.  0.
     999903    2    3    3    0    0  0.37807455635E-01 -0.92946296281E-02 -0.12364390328E+00  0.13094520004E+00  0.18521251432E-01 0.  0.
         14    1    1    2    0    0 -0.22976682088E-01  0.44520505573E-02 -0.36566962597E-02  0.23687973773E-01  0.00000000000E+00 0.  1.
     999901    1    3    3    0    0 -0.14830773548E-01  0.48425790708E-02  0.12730059954E+00  0.88929682618E+00  0.88000000000E+00 0. -1.
        -11    1    4    4    0    0  0.31392328266E-01  0.47497696441E-03 -0.91615911318E-01  0.96847510059E-01  0.51100000000E-03 0. -1.
         11    1    4    4    0    0  0.64151273691E-02 -0.97696065925E-02 -0.32027991963E-01  0.34097689985E-01  0.51100000000E-03 0.  1.
</event>
<event>
 8    1  0.1137518E+005  0.1043930E+01  0.7957747E-01            NaN
         13   -1    0    0    0    0  0.00000000000E+00  0.00000000000E+00  0.74505805969E-08  0.10566000000E+00  0.10566000000E+00 0. -1.
     999900   -1    0    0    0    0 -0.00000000000E+00 -0.00000000000E+00 -0.74505805969E-08  0.93827000000E+00  0.93827000000E+00 0.  1.
     999902    2    1    2    0    0  0.10150443818E-01 -0.21283232147E-01  0.15775332138E-02  0.10202974781E+01  0.10200237486E+01 0.  0.
     999903    2    3    3    0    0 -0.36530072534E-01  0.25784863565E-01  0.12027808187E+00  0.12985697111E+00  0.19917594712E-01 0.  0.
         14    1    1    2    0    0 -0.10150443818E-01  0.21283232147E-01 -0.15775332138E-02  0.23632521900E-01  0.00000000000E+00 0.  1.
     999901    1    3    3    0    0  0.46680516352E-01 -0.47068095711E-01 -0.11870054865E+00  0.89044050699E+00  0.88000000000E+00 0.  1.
        -11    1    4    4    0    0  0.53117477880E-03 -0.20260435094E-02  0.25598016907E-02  0.33467453807E-02  0.51100000000E-03 0. -1.
         11    1    4    4    0    0 -0.37061247313E-01  0.27810907074E-01  0.11771828018E+00  0.12651022573E+00  0.51100000000E-03 0.  1.
</event>
<event>
 8    1  0.1137518E+005  0.1043930E+01  0.7957747E-01            NaN
         13   -1    0    0    0    0  0.00000000000E+00  0.00000000000E+00  0.74505805969E-08  0.10566000000E+00  0.10566000000E+00 0. -1.
     999900   -1    0    0    0    0 -0.00000000000E+00 -0.00000000000E+00 -0.74505805969E-08  0.93827000000E+00  0.93827000000E+00 0.  1.
     999902    2    1    2    0    0 -0.66792406474E-02  0.17582550384E-01 -0.12898977641E-01  0.10211233791E+01  0.10208686563E+01 0.  0.
     999903    2    3    3    0    0  0.97739013743E-01  0.70609580021E-01 -0.51058538909E-01  0.13254519465E+00  0.20557884909E-01 0.  0.
         14    1    1    2    0    0  0.66792406474E-02 -0.17582550384E-01  0.12898977641E-01  0.22806620920E-01  0.00000000000E+00 0.  1.
     999901    1    3    3    0    0 -0.10441825439E+00 -0.53027029637E-01  0.38159561267E-01  0.88857818443E+00  0.88000000000E+00 0. -1.
        -11    1    4    4    0    0  0.56948007997E-01  0.29284867269E-01 -0.30646417021E-01  0.70993964977E-01  0.51100000000E-03 0.  1.
         11    1    4    4    0    0  0.40791005746E-01  0.41324712751E-01 -0.20412121887E-01  0.61551229677E-01  0.51100000000E-03 0. -1.
</event>
<event>
 8    1  0.1137518E+005  0.1043930E+01  0.7957747E-01            NaN
         13   -1    0    0    0    0  0.00000000000E+00  0.00000000000E+00  0.74505805969E-08  0.10566000000E+00  0.10566000000E+00 0. -1.
     999900   -1    0    0    0    0 -0.00000000000E+00 -0.00000000000E+00 -0.74505805969E-08  0.93827000000E+00  0.93827000000E+00 0.  1.
     999902    2    1    2    0    0 -0.15094463874E-01  0.10505193750E-01  0.14940333602E-01  0.10202357918E+01  0.10199606146E+01 0.  0.
     999903    2    3    3    0    0  0.11693382843E+00 -0.33489275611E-01  0.38079737541E-01  0.12899933868E+00  0.19892489942E-01 0.  0.
         14    1    1    2    0    0  0.15094463874E-01 -0.10505193750E-01 -0.14940333602E-01  0.23694208227E-01  0.00000000000E+00 0.  1.
     999901    1    3    3    0    0 -0.13202829231E+00  0.43994469360E-01 -0.23139403939E-01  0.89123645309E+00  0.88000000000E+00 0.  1.
        -11    1    4    4    0    0  0.87491599238E-01 -0.16295142194E-01  0.30397596408E-01  0.94045662232E-01  0.51100000000E-03 0.  1.
         11    1    4    4    0    0  0.29442229196E-01 -0.17194133416E-01  0.76821411333E-02  0.34953676449E-01  0.51100000000E-03 0. -1.
</event>
<event>
 8    1  0.1137518E+005  0.1043930E+01  0.7957747E-01            NaN
         13   -1    0    0    0    0  0.00000000000E+00  0.00000000000E+00  0.74505805969E-08  0.10566000000E+00  0.10566000000E+00 0.  1.
     999900   -1    0    0    0    0 -0.00000000000E+00 -0.00000000000E+00 -0.74505805969E-08  0.93827000000E+00  0.93827000000E+00 0.  1.
     999902    2    1    2    0    0  0.10327185732E-01 -0.14073488361E-01  0.16062646462E-01  0.10202082283E+01  0.10199324030E+01 0.  0.
     999903    2    3    3    0    0 -0.10794280028E+00 -0.21262850312E-01  0.67872114280E-01  0.13075688201E+00  0.19671841788E-01 0.  0.
         14    1    1    2    0    0 -0.10327185732E-01  0.14073488361E-01 -0.16062646462E-01  0.23721771670E-01  0.00000000000E+00 0. -1.
     999901    1    3    3    0    0  0.11826998602E+00  0.71893619509E-02 -0.51809467819E-01  0.88945134632E+00  0.88000000000E+00 0.  1.
        -11    1    4    4    0    0 -0.15715592244E-01 -0.66792912527E-02  0.37646248091E-02  0.17493607180E-01  0.51100000000E-03 0.  1.
         11    1    4    4    0    0 -0.92227208040E-01 -0.14583559059E-01  0.64107489471E-01  0.11326327483E+00  0.51100000000E-03 0. -1.
</event>
<event>
 8    1  0.1137518E+005  0.1043930E+01  0.7957747E-01            NaN
         13   -1    0    0    0    0  0.00000000000E+00  0.00000000000E+00  0.74505805969E-08  0.10566000000E+00  0.10566000000E+00 0.  1.
     999900   -1    0    0    0    0 -0.00000000000E+00 -0.00000000000E+00 -0.74505805969E-08  0.93827000000E+00  0.93827000000E+00 0.  1.
     999902    2    1    2    0    0 -0.23380802336E-01 -0.30506710384E-03  0.63401805738E-03  0.10205386135E+01  0.10202705056E+01 0.  0.
     999903    2    3    3    0    0 -0.10852781726E+00  0.70182467581E-01  0.23985155055E-01  0.13331610347E+00  0.22226783535E-01 0.  0.
         14    1    1    2    0    0  0.23380802336E-01  0.30506710384E-03 -0.63401805738E-03  0.23391386506E-01  0.00000000000E+00 0.  1.
     999901    1    3    3    0    0  0.85147014923E-01 -0.70487534685E-01 -0.23351136998E-01  0.88722251003E+00  0.88000000000E+00 0.  1.
        -11    1    4    4    0    0 -0.59908602220E-01  0.28336351902E-01  0.19145606214E-01  0.68984091046E-01  0.51100000000E-03 0.  1.
         11    1    4    4    0    0 -0.48619215038E-01  0.41846115679E-01  0.48395488411E-02  0.64332012422E-01  0.51100000000E-03 0. -1.
</event>
<event>
 8    1  0.1137518E+005  0.1043930E+01  0.7957747E-01            NaN
         13   -1    0    0    0    0  0.00000000000E+00  0.00000000000E+00  0.74505805969E-08  0.10566000000E+00  0.10566000000E+00 0.  1.
     999900   -1    0    0    0    0 -0.00000000000E+00 -0.00000000000E+00 -0.74505805969E-08  0.93827000000E+00  0.93827000000E+00 0.  1.
     999902    2    1    2    0    0  0.22965003077E-01  0.65886772936E-03  0.43725932781E-02  0.10205431438E+01  0.10202751409E+01 0.  0.
     999903    2    3    3    0    0  0.11309220811E+00 -0.59484404074E-01  0.31827968394E-01  0.13347272724E+00  0.21764822127E-01 0.  0.
         14    1    1    2    0    0 -0.22965003077E-01 -0.65886772936E-03 -0.43725932781E-02  0.23386856245E-01  0.00000000000E+00 0.  1.
     999901    1    3    3    0    0 -0.90127205032E-01  0.60143271804E-01 -0.27455375116E-01  0.88707041651E+00  0.88000000000E+00 0. -1.
        -11    1    4    4    0    0  0.66811515448E-01 -0.45591695909E-01  0.14752134592E-01  0.82220848502E-01  0.51100000000E-03 0. -1.
         11    1    4    4    0    0  0.46280692662E-01 -0.13892708165E-01  0.17075833802E-01  0.51251878740E-01  0.51100000000E-03 0.  1.
</event>
<event>
 7    1  0.1137518E+005  0.1043930E+01  0.7957747E-01            NaN
         13   -1    0    0    0    0  0.00000000000E+00  0.00000000000E+00  0.74505805969E-08  0.10566000000E+00  0.10566000000E+00 0.  1.
     999900   -1    0    0    0    0 -0.00000000000E+00 -0.00000000000E+00 -0.74505805969E-08  0.93827000000E+00  0.93827000000E+00 0.  1.
     999902    2    1    2    0    0  0.16426605944E-01  0.26590619786E-02  0.16241557271E-01  0.10206772114E+01  0.10204123077E+01 0.  0.
         14    1    1    2    0    0 -0.16426605944E-01 -0.26590619786E-02 -0.16241557271E-01  0.23252788565E-01  0.00000000000E+00 0.  1.
     999901    1    3    3    0    0  0.57381487419E-01  0.11725246996E+00  0.37805779146E-01  0.89043250937E+00  0.88000000000E+00 0.  1.
        -11    1    3    3    0    0 -0.16382069250E-01 -0.92669018342E-02 -0.10410808272E-01  0.21514964847E-01  0.51100000000E-03 0. -1.
         11    1    3    3    0    0 -0.24572812226E-01 -0.10532650615E+00 -0.11153413603E-01  0.10872973722E+00  0.51100000000E-03 0.  1.
</event>
<event>
 8    1  0.1137518E+005  0.1043930E+01  0.7957747E-01            NaN
         13   -1    0    0    0    0  0.00000000000E+00  0.00000000000E+00  0.74505805969E-08  0.10566000000E+00  0.10566000000E+00 0. -1.
     999900   -1    0    0    0    0 -0.00000000000E+00 -0.00000000000E+00 -0.74505805969E-08  0.93827000000E+00  0.93827000000E+00 0. -1.
     999902    2    1    2    0    0  0.58494252931E-02  0.21608750967E-01 -0.85025757616E-02  0.10199832322E+01  0.10197020870E+01 0.  0.
     999903    2    3    3    0    0 -0.97287319787E-01  0.86238067022E-01 -0.35642130037E-02  0.13159225738E+00  0.20049732967E-01 0.  0.
         14    1    1    2    0    0 -0.58494252931E-02 -0.21608750967E-01  0.85025757616E-02  0.23946767824E-01  0.00000000000E+00 0.  1.
     999901    1    3    3    0    0  0.10313674508E+00 -0.64629316055E-01 -0.49383627579E-02  0.88839097480E+00  0.88000000000E+00 0.  1.
        -11    1    4    4    0    0 -0.52313247585E-01  0.36199089270E-01 -0.82318255853E-02  0.64148842627E-01  0.51100000000E-03 0. -1.
         11    1    4    4    0    0 -0.44974072201E-01  0.50038977752E-01  0.46676125816E-02  0.67443414749E-01  0.51100000000E-03 0.  1.
</event>
<event>
 8    1  0.1137518E+005  0.1043930E+01  0.7957747E-01            NaN
         13   -1    0    0    0    0  0.00000000000E+00  0.00000000000E+00  0.74505805969E-08  0.10566000000E+00  0.10566000000E+00 0.  1.
     999900   -1    0    0    0    0 -0.00000000000E+00 -0.00000000000E+00 -0.74505805969E-08  0.93827000000E+00  0.93827000000E+00 0. -1.
     999902    2    1    2    0    0  0.11679956817E-01  0.46946758991E-02 -0.19972849134E-01  0.10203211865E+01  0.10200480124E+01 0.  0.
     999903    2    3    3    0    0 -0.24497258234E-01  0.98434452040E-01 -0.82338377789E-01  0.13241049521E+00  0.21528441073E-01 0.  0.
         14    1    1    2    0    0 -0.11679956817E-01 -0.46946758991E-02  0.19972849134E-01  0.23608813514E-01  0.00000000000E+00 0.  1.
     999901    1    3    3    0    0  0.36177215051E-01 -0.93739776141E-01  0.62365528655E-01  0.88791069128E+00  0.88000000000E+00 0.  1.
        -11    1    4    4    0    0 -0.16321799093E-01  0.25388370710E-01 -0.24607858345E-01  0.38945838112E-01  0.51100000000E-03 0.  1.
         11    1    4    4    0    0 -0.81754591415E-02  0.73046081330E-01 -0.57730519444E-01  0.93464657097E-01  0.51100000000E-03 0. -1.
</event>
<event>
 8    1  0.1137518E+005  0.1043930E+01  0.7957747E-01            NaN
         13   -1    0    0    0    0  0.00000000000E+00  0.00000000000E+00  0.74505805969E-08  0.10566000000E+00  0.10566000000E+00 0.  1.
     999900   -1    0    0    0    0 -0.00000000000E+00 -0.00000000000E+00 -0.74505805969E-08  0.93827000000E+00  0.93827000000E+00 0. -1.
     999902    2    1    2    0    0  0.29661150933E-02 -0.10749242292E-01  0.19277105206E-01  0.10216600464E+01  0.10214172994E+01 0.  0.
     999903    2    3    3    0    0  0.30775933670E-01 -0.10066058565E+00  0.81349167360E-01  0.13446763402E+00  0.19599642110E-01 0.  0.
         14    1    1    2    0    0 -0.29661150933E-02  0.10749242292E-01 -0.19277105206E-01  0.22269953608E-01  0.00000000000E+00 0. -1.
     999901    1    3    3    0    0 -0.27809818576E-01  0.89911343362E-01 -0.62072062153E-01  0.88719241237E+00  0.88000000000E+00 0. -1.
        -11    1    4    4    0    0  0.30280012989E-01 -0.69422638049E-01  0.59967849501E-01  0.96606345315E-01  0.51100000000E-03 0.  1.
         11    1    4    4    0    0  0.49592068037E-03 -0.31237947604E-01  0.21381317859E-01  0.37861288703E-01  0.51100000000E-03 0. -1.
</event>
<event>
 8    1  0.1137518E+005  0.1043930E+01  0.7957747E-01            NaN
         13   -1    0    0    0    0  0.00000000000E+00  0.00000000000E+00  0.74505805969E-08  0.10566000000E+00  0.10566000000E+00 0. -1.
     999900   -1    0    0    0    0 -0.00000000000E+00 -0.00000000000E+00 -0.74505805969E-08  0.93827000000E+00  0.93827000000E+00 0. -1.
     999902    2    1    2    0    0 -0.28846185336E-02 -0.87841064007E-02  0.26470303080E-01  0.10158914819E+01  0.10155044779E+01 0.  0.
     999903    2    3    3    0    0  0.78181136315E-01  0.89334138408E-01 -0.32362384033E-01  0.12479096481E+00  0.20798621037E-01 0.  0.
         14    1    1    2    0    0  0.28846185336E-02  0.87841064007E-02 -0.26470303080E-01  0.28038518051E-01  0.00000000000E+00 0.  1.
     999901    1    3    3    0    0 -0.81065754849E-01 -0.98118244809E-01  0.58832687113E-01  0.89110051714E+00  0.88000000000E+00 0. -1.
        -11    1    4    4    0    0  0.57819762262E-01  0.51635589443E-01 -0.23820838887E-01  0.81099028918E-01  0.51100000000E-03 0.  1.
         11    1    4    4    0    0  0.20361374053E-01  0.37698548966E-01 -0.85415451453E-02  0.43691935891E-01  0.51100000000E-03 0. -1.
</event>
<event>
 8    1  0.1137518E+005  0.1043930E+01  0.7957747E-01            NaN
         13   -1    0    0    0    0  0.00000000000E+00  0.00000000000E+00  0.74505805969E-08  0.10566000000E+00  0.10566000000E+00 0. -1.
     999900   -1    0    0    0    0 -0.00000000000E+00 -0.00000000000E+00 -0.74505805969E-08  0.93827000000E+00  0.93827000000E+00 0. -1.
     999902    2    1    2    0    0 -0.16935783999E-01  0.14211586039E-01  0.10300705347E-01  0.10195395410E+01  0.10192477526E+01 0.  0.
     999903    2    3    3    0    0  0.45394217451E-01 -0.10925822014E+00 -0.41390820986E-01  0.12723811439E+00  0.21871077850E-01 0.  0.
         14    1    1    2    0    0  0.16935783999E-01 -0.14211586039E-01 -0.10300705347E-01  0.24390458955E-01  0.00000000000E+00 0. -1.
     999901    1    3    3    0    0 -0.62330001450E-01  0.12346980617E+00  0.51691526333E-01  0.89230142666E+00  0.88000000000E+00 0.  1.
        -11    1    4    4    0    0  0.34313161948E-01 -0.65802760792E-01 -0.16805547972E-01  0.76092601312E-01  0.51100000000E-03 0.  1.
         11    1    4    4    0    0  0.11081055503E-01 -0.43455459343E-01 -0.24585273015E-01  0.51145513078E-01  0.51100000000E-03 0. -1.
</event>
<event>
 8    1  0.1137518E+005  0.1043930E+01  0.7957747E-01            NaN
         13   -1    0    0    0    0  0.00000000000E+00  0.00000000000E+00  0.74505805969E-08  0.10566000000E+00  0.10566000000E+00 0. -1.
     999900   -1    0    0    0    0 -0.00000000000E+00 -0.00000000000E+00 -0.74505805969E-08  0.93827000000E+00  0.93827000000E+00 0.  1.
     999902    2    1    2    0    0  0.13756506226E-01  0.42334631030E-02 -0.18758546211E-01  0.10202858310E+01  0.10200118284E+01 0.  0.
     999903    2    3    3    0    0 -0.74611427276E-01  0.18321991160E-01 -0.10471267683E+00  0.13158144206E+00  0.21127488382E-01 0.  0.
         14    1    1    2    0    0 -0.13756506226E-01 -0.42334631030E-02  0.18758546211E-01  0.23644169035E-01  0.00000000000E+00 0. -1.
     999901    1    3    3    0    0  0.88367933502E-01 -0.14088528057E-01  0.85954130616E-01  0.88870438891E+00  0.88000000000E+00 0. -1.
        -11    1    4    4    0    0 -0.53814625796E-01  0.16274328078E-01 -0.60013404487E-01  0.82235865309E-01  0.51100000000E-03 0.  1.
         11    1    4    4    0    0 -0.20796801480E-01  0.20476630824E-02 -0.44699272341E-01  0.49345576749E-01  0.51100000000E-03 0. -1.
</event>
<event>
 8    1  0.1137518E+005  0.1043930E+01  0.7957747E-01            NaN
         13   -1    0    0    0    0  0.00000000000E+00  0.00000000000E+00  0.74505805969E-08  0.10566000000E+00  0.10566000000E+00 0.  1.
     999900   -1    0    0    0    0 -0.00000000000E+00 -0.00000000000E+00 -0.74505805969E-08  0.93827000000E+00  0.93827000000E+00 0. -1.
     999902    2    1    2    0    0 -0.18700766755E-01  0.15998473607E-01  0.17052547526E-02  0.10192606318E+01  0.10189620492E+01 0.  0.
     999903    2    3    3    0    0 -0.31517345641E-01  0.66780149715E-01 -0.10660504316E+00  0.13107474810E+00  0.19053159573E-01 0.  0.
         14    1    1    2    0    0  0.18700766755E-01 -0.15998473607E-01 -0.17052547526E-02  0.24669368228E-01  0.00000000000E+00 0. -1.
     999901    1    3    3    0    0  0.12816578885E-01 -0.50781676108E-01  0.10831029791E+00  0.88818588367E+00  0.88000000000E+00 0.  1.
        -11    1    4    4    0    0 -0.24818780186E-01  0.63638579228E-01 -0.90887523744E-01  0.11369539881E+00  0.51100000000E-03 0.  1.
         11    1    4    4    0    0 -0.66985654543E-02  0.31415704870E-02 -0.15717519416E-01  0.17379349294E-01  0.51100000000E-03 0. -1.
</event>
<event>
 8    1  0.1137518E+005  0.1043930E+01  0.7957747E-01            NaN
         13   -1    0    0    0    0  0.00000000000E+00  0.00000000000E+00  0.74505805969E-08  0.10566000000E+00  0.10566000000E+00 0. -1.
     999900   -1    0    0    0    0 -0.00000000000E+00 -0.00000000000E+00 -0.74505805969E-08  0.93827000000E+00  0.93827000000E+00 0.  1.
     999902    2    1    2    0    0 -0.18063148294E-02 -0.15221658385E-01 -0.18176310199E-01  0.10201531224E+01  0.10198759989E+01 0.  0.
     999903    2    3    3    0    0 -0.86069374311E-01  0.88889262835E-01 -0.33878284008E-01  0.12988018721E+00  0.20294990997E-01 0.  0.
         14    1    1    2    0    0  0.18063148294E-02  0.15221658385E-01  0.18176310199E-01  0.23776877627E-01  0.00000000000E+00 0. -1.
     999901    1    3    3    0    0  0.84263059481E-01 -0.10411092122E+00  0.15701973809E-01  0.89027293517E+00  0.88000000000E+00 0.  1.
        -11    1    4    4    0    0 -0.38359135811E-01  0.28301865607E-01 -0.68522036300E-02  0.48162565470E-01  0.51100000000E-03 0. -1.
         11    1    4    4    0    0 -0.47710238499E-01  0.60587397228E-01 -0.27026080378E-01  0.81717621735E-01  0.51100000000E-03 0.  1.
</event>
<event>
 8    1  0.1137518E+005  0.1043930E+01  0.7957747E-01            NaN
         13   -1    0    0    0    0  0.00000000000E+00  0.00000000000E+00  0.74505805969E-08  0.10566000000E+00  0.10566000000E+00 0.  1.
     999900   -1    0    0    0    0 -0.00000000000E+00 -0.00000000000E+00 -0.74505805969E-08  0.93827000000E+00  0.93827000000E+00 0.  1.
     999902    2    1    2    0    0  0.14341239595E-01  0.13498955489E-01  0.18973393171E-01  0.10165825577E+01  0.10162146496E+01 0.  0.
     999903    2    3    3    0    0  0.16987801411E-01  0.12647865731E+00  0.43929625821E-02  0.12923594770E+00  0.19929774366E-01 0.  0.
         14    1    1    2    0    0 -0.14341239595E-01 -0.13498955489E-01 -0.18973393171E-01  0.27347442309E-01  0.00000000000E+00 0.  1.
     999901    1    3    3    0    0 -0.26465618160E-02 -0.11297970182E+00  0.14580430589E-01  0.88734660999E+00  0.88000000000E+00 0.  1.
        -11    1    4    4    0    0  0.21785406018E-02  0.86301914844E-01  0.36170351848E-02  0.86406658363E-01  0.51100000000E-03 0.  1.
         11    1    4    4    0    0  0.14809260809E-01  0.40176742461E-01  0.77592739729E-03  0.42829289334E-01  0.51100000000E-03 0. -1.
</event>
<event>
 8    1  0.1137518E+005  0.1043930E+01  0.7957747E-01            NaN
         13   -1    0    0    0    0  0.00000000000E+00  0.00000000000E+00  0.74505805969E-08  0.10566000000E+00  0.10566000000E+00 0.  1.
     999900   -1    0    0    0    0 -0.00000000000E+00 -0.00000000000E+00 -0.74505805969E-08  0.93827000000E+00  0.93827000000E+00 0.  1.
     999902    2    1    2    0    0  0.68228014928E-02  0.22206763297E-01 -0.68826528024E-02  0.10197006404E+01  0.10194127399E+01 0.  0.
     999903    2    3    3    0    0 -0.56138883259E-01  0.99973693392E-01  0.61233760548E-01  0.13141481089E+00  0.19338187779E-01 0.  0.
         14    1    1    2    0    0 -0.68228014928E-02 -0.22206763297E-01  0.68826528024E-02  0.24229359586E-01  0.00000000000E+00 0.  1.
     999901    1    3    3    0    0  0.62961684752E-01 -0.77766930095E-01 -0.68116413351E-01  0.88828582952E+00  0.88000000000E+00 0. -1.
        -11    1    4    4    0    0 -0.26739655615E-01  0.46120230881E-01  0.39382825422E-01  0.66282372756E-01  0.51100000000E-03 0.  1.
         11    1    4    4    0    0 -0.29399227644E-01  0.53853462511E-01  0.21850935126E-01  0.65132438135E-01  0.51100000000E-03 0. -1.
</event>
<event>
 8    1  0.1137518E+005  0.1043930E+01  0.7957747E-01            NaN
         13   -1    0    0    0    0  0.00000000000E+00  0.00000000000E+00  0.74505805969E-08  0.10566000000E+00  0.10566000000E+00 0.  1.
     999900   -1    0    0    0    0 -0.00000000000E+00 -0.00000000000E+00 -0.74505805969E-08  0.93827000000E+00  0.93827000000E+00 0.  1.
     999902    2    1    2    0    0 -0.97983384115E-02  0.13960741734E-01 -0.15875146675E-01  0.10206291411E+01  0.10203631283E+01 0.  0.
     999903    2    3    3    0    0 -0.57581160498E-01  0.58579896327E-01 -0.10379213726E+00  0.13383521670E+00  0.19795534226E-01 0.  0.
         14    1    1    2    0    0  0.97983384115E-02 -0.13960741734E-01  0.15875146675E-01  0.23300858941E-01  0.00000000000E+00 0.  1.
     999901    1    3    3    0    0  0.47782822086E-01 -0.44619154593E-01  0.87916990583E-01  0.88679392436E+00  0.88000000000E+00 0. -1.
        -11    1    4    4    0    0 -0.35961939308E-01  0.33961246572E-01 -0.46810583588E-01  0.68103738549E-01  0.51100000000E-03 0. -1.
         11    1    4    4    0    0 -0.21619221190E-01  0.24618649755E-01 -0.56981553670E-01  0.65731478154E-01  0.51100000000E-03 0.  1.
</event>
<event>
 8    1  0.1137518E+005  0.1043930E+01  0.7957747E-01            NaN
         13   -1    0    0    0    0  0.00000000000E+00  0.00000000000E+00  0.74505805969E-08  0.10566000000E+00  0.10566000000E+00 0.  1.
     999900   -1    0    0    0    0 -0.00000000000E+00 -0.00000000000E+00 -0.74505805969E-08  0.93827000000E+00  0.93827000000E+00 0.  1.
     999902    2    1    2    0    0 -0.84814101449E-02  0.56005788062E-02 -0.21420510093E-01  0.10202205282E+01  0.10199449922E+01 0.  0.
     999903    2    3    3    0    0 -0.12731116852E+00  0.16910112089E-01 -0.24182164431E-01  0.13215744273E+00  0.19665377478E-01 0.  0.
         14    1    1    2    0    0  0.84814101449E-02 -0.56005788062E-02  0.21420510093E-01  0.23709471813E-01  0.00000000000E+00 0.  1.
     999901    1    3    3    0    0  0.11882975837E+00 -0.11309533283E-01  0.27616543383E-02  0.88806308546E+00  0.88000000000E+00 0.  1.
        -11    1    4    4    0    0 -0.90720641537E-01  0.17780176406E-01 -0.24160818412E-01  0.95552999645E-01  0.51100000000E-03 0.  1.
         11    1    4    4    0    0 -0.36590526983E-01 -0.87006431701E-03 -0.21346019154E-04  0.36604443084E-01  0.51100000000E-03 0. -1.
</event>
<event>
 8    1  0.1137518E+005  0.1043930E+01  0.7957747E-01            NaN
         13   -1    0    0    0    0  0.00000000000E+00  0.00000000000E+00  0.74505805969E-08  0.10566000000E+00  0.10566000000E+00 0. -1.
     999900   -1    0    0    0    0 -0.00000000000E+00 -0.00000000000E+00 -0.74505805969E-08  0.93827000000E+00  0.93827000000E+00 0. -1.
     999902    2    1    2    0    0  0.42830873238E-02  0.79850614423E-02 -0.21484424774E-01  0.10206129129E+01  0.10203465252E+01 0.  0.
     999903    2    3    3    0    0 -0.91954515861E-01  0.91390122276E-01 -0.60914146854E-02  0.13131261198E+00  0.19952676416E-01 0.  0.
         14    1    1    2    0    0 -0.42830873238E-02 -0.79850614423E-02  0.21484424774E-01  0.23317087107E-01  0.00000000000E+00 0. -1.
     999901    1    3    3    0    0  0.96237603185E-01 -0.83405060833E-01 -0.15393010089E-01  0.88930030091E+00  0.88000000000E+00 0. -1.
        -11    1    4    4    0    0 -0.76345899209E-01  0.71108586635E-01  0.23489247504E-02  0.10435950358E+00  0.51100000000E-03 0.  1.
         11    1    4    4    0    0 -0.15608616652E-01  0.20281535640E-01 -0.84403394358E-02  0.26953108402E-01  0.51100000000E-03 0. -1.
</event>
<event>
 8    1  0.1137518E+005  0.1043930E+01  0.7957747E-01            NaN
         13   -1    0    0    0    0  0.00000000000E+00  0.00000000000E+00  0.74505805969E-08  0.10566000000E+00  0.10566000000E+00 0.  1.
     999900   -1    0    0    0    0 -0.00000000000E+00 -0.00000000000E+00 -0.74505805969E-08  0.93827000000E+00  0.93827000000E+00 0. -1.
     999902    2    1    2    0    0 -0.47061472342E-03  0.90679038315E-02 -0.21616248462E-01  0.10204840930E+01  0.10202147193E+01 0.  0.
     999903    2    3    3    0    0  0.33931169200E-01  0.33502837327E-02 -0.12743642879E+00  0.13345867933E+00  0.20214525973E-01 0.  0.
         14    1    1    2    0    0  0.47061472342E-03 -0.90679038315E-02  0.21616248462E-01  0.23445907013E-01  0.00000000000E+00 0.  1.
     999901    1    3    3    0    0 -0.34401783924E-01  0.57176200988E-02  0.10582018033E+00  0.88702541366E+00  0.88000000000E+00 0.  1.
        -11    1    4    4    0    0  0.31901757496E-01  0.30704764469E-03 -0.83843738702E-01  0.89709810222E-01  0.51100000000E-03 0.  1.
         11    1    4    4    0    0  0.20294117043E-02  0.30432360880E-02 -0.43592690088E-01  0.43748869103E-01  0.51100000000E-03 0. -1.
</event>
<event>
 8    1  0.1137518E+005  0.1043930E+01  0.7957747E-01            NaN
         13   -1    0    0    0    0  0.00000000000E+00  0.00000000000E+00  0.74505805969E-08  0.10566000000E+00  0.10566000000E+00 0.  1.
     999900   -1    0    0    0    0 -0.00000000000E+00 -0.00000000000E+00 -0.74505805969E-08  0.93827000000E+00  0.93827000000E+00 0. -1.
     999902    2    1    2    0    0  0.19053207286E-01 -0.12494179841E-01 -0.89175977052E-02  0.10194626179E+01  0.10191689637E+01 0.  0.
     999903    2    3    3    0    0 -0.65419217611E-01  0.10490462273E+00 -0.24015638462E-01  0.12752875250E+00  0.20054374150E-01 0.  0.
         14    1    1    2    0    0 -0.19053207286E-01  0.12494179841E-01  0.89175977052E-02  0.24467382095E-01  0.00000000000E+00 0.  1.
     999901    1    3    3    0    0  0.84472424896E-01 -0.11739880257E+00  0.15098040757E-01  0.89193386540E+00  0.88000000000E+00 0. -1.
        -11    1    4    4    0    0 -0.35911339170E-01  0.63842943064E-01 -0.23601245283E-01  0.76959895790E-01  0.51100000000E-03 0.  1.
         11    1    4    4    0    0 -0.29507878440E-01  0.41061679663E-01 -0.41439317869E-03  0.50568856715E-01  0.51100000000E-03 0. -1.
</event>
<event>
 8    1  0.1137518E+005  0.1043930E+01  0.7957747E-01            NaN
         13   -1    0    0    0    0  0.00000000000E+00  0.00000000000E+00  0.74505805969E-08  0.10566000000E+00  0.10566000000E+00 0.  1.
     999900   -1    0    0    0    0 -0.00000000000E+00 -0.00000000000E+00 -0.74505805969E-08  0.93827000000E+00  0.93827000000E+00 0.  1.
     999902    2    1    2    0    0 -0.64015468206E-03  0.65746983621E-02 -0.23404110563E-01  0.10196115122E+01  0.10193214640E+01 0.  0.
     999903    2    3    3    0    0 -0.63371257102E-01  0.98786202050E-01  0.50895024416E-01  0.12946629144E+00  0.19914496391E-01 0.  0.
         14    1    1    2    0    0  0.64015468206E-03 -0.65746983621E-02  0.23404110563E-01  0.24318487779E-01  0.00000000000E+00 0.  1.
     999901    1    3    3    0    0  0.62731102420E-01 -0.92211503688E-01 -0.74299134980E-01  0.89014522078E+00  0.88000000000E+00 0.  1.
        -11    1    4    4    0    0 -0.51699416808E-01  0.63579273388E-01  0.35214869289E-01  0.89193619967E-01  0.51100000000E-03 0. -1.
         11    1    4    4    0    0 -0.11671840294E-01  0.35206928662E-01  0.15680155127E-01  0.40272671472E-01  0.51100000000E-03 0.  1.
</event>
<event>
 8    1  0.1137518E+005  0.1043930E+01  0.7957747E-01            NaN
         13   -1    0    0    0    0  0.00000000000E+00  0.00000000000E+00  0.74505805969E-08  0.10566000000E+00  0.10566000000E+00 0. -1.
     999900   -1    0    0    0    0 -0.00000000000E+00 -0.00000000000E+00 -0.74505805969E-08  0.93827000000E+00  0.93827000000E+00 0.  1.
     999902    2    1    2    0    0  0.48668977870E-03 -0.11617195406E-01  0.20937720542E-01  0.10199803813E+01  0.10196991683E+01 0.  0.
     999903    2    3    3    0    0  0.12709264183E+00  0.17787625430E-01  0.11322913860E-01  0.13038150813E+00  0.20054676667E-01 0.  0.
         14    1    1    2    0    0 -0.48668977870E-03  0.11617195406E-01 -0.20937720542E-01  0.23949618735E-01  0.00000000000E+00 0.  1.
     999901    1    3    3    0    0 -0.12660595205E+00 -0.29404820836E-01  0.96148066820E-02  0.88959887314E+00  0.88000000000E+00 0. -1.
        -11    1    4    4    0    0  0.40578697160E-01  0.89340975686E-02 -0.51378400619E-02  0.41870124003E-01  0.51100000000E-03 0.  1.
         11    1    4    4    0    0  0.86513944674E-01  0.88535278619E-02  0.16460753922E-01  0.88511384122E-01  0.51100000000E-03 0. -1.
</event>
<event>
 8    1  0.1137518E+005  0.1043930E+01  0.7957747E-01            NaN
         13   -1    0    0    0    0  0.00000000000E+00  0.00000000000E+00  0.74505805969E-08  0.10566000000E+00  0.10566000000E+00 0. -1.
     999900   -1    0    0    0    0 -0.00000000000E+00 -0.00000000000E+00 -0.74505805969E-08  0.93827000000E+00  0.93827000000E+00 0. -1.
     999902    2    1    2    0    0  0.10527461185E-01 -0.21049169153E-01 -0.46481428136E-02  0.10199404149E+01  0.10196582515E+01 0.  0.
     999903    2    3    3    0    0 -0.54803807063E-01 -0.39667489197E-01  0.10932886394E+00  0.12999346452E+00  0.19197222718E-01 0.  0.
         14    1    1    2    0    0 -0.10527461185E-01  0.21049169153E-01  0.46481428136E-02  0.23989585087E-01  0.00000000000E+00 0. -1.
     999901    1    3    3    0    0  0.65331268248E-01  0.18618320044E-01 -0.11397700675E+00  0.88994695040E+00  0.88000000000E+00 0. -1.
        -11    1    4    4    0    0 -0.26410182484E-01 -0.16292876251E-01  0.33213261633E-01  0.45456984333E-01  0.51100000000E-03 0. -1.
         11    1    4    4    0    0 -0.28393624579E-01 -0.23374612946E-01  0.76115602302E-01  0.84536480184E-01  0.51100000000E-03 0.  1.
</event>
<event>
 8    1  0.1137518E+005  0.1043930E+01  0.7957747E-01            NaN
         13   -1    0    0    0    0  0.00000000000E+00  0.00000000000E+00  0.74505805969E-08  0.10566000000E+00  0.10566000000E+00 0.  1.
     999900   -1    0    0    0    0 -0.00000000000E+00 -0.00000000000E+00 -0.74505805969E-08  0.93827000000E+00  0.93827000000E+00 0.  1.
     999902    2    1    2    0    0 -0.10301380276E-02  0.14285292181E-01 -0.18398577711E-01  0.10206139450E+01  0.10203475812E+01 0.  0.
     999903    2    3    3    0    0 -0.80253273830E-01  0.40375791964E-01 -0.95769740285E-01  0.13329026328E+00  0.22883587842E-01 0.  0.
         14    1    1    2    0    0  0.10301380276E-02 -0.14285292181E-01  0.18398577711E-01  0.23316054958E-01  0.00000000000E+00 0.  1.
     999901    1    3    3    0    0  0.79223135803E-01 -0.26090499783E-01  0.77371162574E-01  0.88732368177E+00  0.88000000000E+00 0. -1.
        -11    1    4    4    0    0 -0.60608731589E-01  0.19507949399E-01 -0.60394006232E-01  0.87759190655E-01  0.51100000000E-03 0. -1.
         11    1    4    4    0    0 -0.19644542241E-01  0.20867842565E-01 -0.35375734053E-01  0.45531072621E-01  0.51100000000E-03 0.  1.
</event>
<event>
 8    1  0.1137518E+005  0.1043930E+01  0.7957747E-01            NaN
         13   -1    0    0    0    0  0.00000000000E+00  0.00000000000E+00  0.74505805969E-08  0.10566000000E+00  0.10566000000E+00 0. -1.
     999900   -1    0    0    0    0 -0.00000000000E+00 -0.00000000000E+00 -0.74505805969E-08  0.93827000000E+00  0.93827000000E+00 0. -1.
     999902    2    1    2    0    0 -0.13535263170E-01  0.17560979526E-01  0.62346661324E-02  0.10208982304E+01  0.10206383955E+01 0.  0.
     999903    2    3    3    0    0  0.12732154176E+00 -0.87625087344E-02  0.20484442010E-02  0.12929793315E+00  0.20644680609E-01 0.  0.
         14    1    1    2    0    0  0.13535263170E-01 -0.17560979526E-01 -0.62346661324E-02  0.23031769640E-01  0.00000000000E+00 0. -1.
     999901    1    3    3    0    0 -0.14085680493E+00  0.26323488260E-01  0.41862219313E-02  0.89160029721E+00  0.88000000000E+00 0.  1.
        -11    1    4    4    0    0  0.78302689658E-01 -0.20745338437E-02 -0.82395031860E-02  0.78763985629E-01  0.51100000000E-03 0. -1.
         11    1    4    4    0    0  0.49018852104E-01 -0.66879748906E-02  0.10287947387E-01  0.50533947522E-01  0.51100000000E-03 0.  1.
</event>
<event>
 8    1  0.1137518E+005  0.1043930E+01  0.7957747E-01            NaN
         13   -1    0    0    0    0  0.00000000000E+00  0.00000000000E+00  0.74505805969E-08  0.10566000000E+00  0.10566000000E+00 0. -1.
     999900   -1    0    0    0    0 -0.00000000000E+00 -0.00000000000E+00 -0.74505805969E-08  0.93827000000E+00  0.93827000000E+00 0. -1.
     999902    2    1    2    0    0 -0.16733701833E-01  0.49770688552E-02  0.15769159758E-01  0.10204043886E+01  0.10201331589E+01 0.  0.
     999903    2    3    3    0    0  0.70337743653E-01 -0.56994209081E-01 -0.88096272078E-01  0.12787433095E+00  0.19878463507E-01 0.  0.
         14    1    1    2    0    0  0.16733701833E-01 -0.49770688552E-02 -0.15769159758E-01  0.23525611382E-01  0.00000000000E+00 0.  1.
     999901    1    3    3    0    0 -0.87071445486E-01  0.61971277936E-01  0.10386543184E+00  0.89253005767E+00  0.88000000000E+00 0.  1.
        -11    1    4    4    0    0 -0.79627849237E-03 -0.36531702267E-02 -0.36127826011E-02  0.52242732763E-02  0.51100000000E-03 0. -1.
         11    1    4    4    0    0  0.71134022145E-01 -0.53341038854E-01 -0.84483489477E-01  0.12265005768E+00  0.51100000000E-03 0.  1.
</event>
<event>
 8    1  0.1137518E+005  0.1043930E+01  0.7957747E-01            NaN
         13   -1    0    0    0    0  0.00000000000E+00  0.00000000000E+00  0.74505805969E-08  0.10566000000E+00  0.10566000000E+00 0. -1.
     999900   -1    0    0    0    0 -0.00000000000E+00 -0.00000000000E+00 -0.74505805969E-08  0.93827000000E+00  0.93827000000E+00 0. -1.
     999902    2    1    2    0    0  0.56498044116E-02 -0.22942072428E-01 -0.47527819149E-02  0.10198292134E+01  0.10195443966E+01 0.  0.
     999903    2    3    3    0    0 -0.12614306599E+00 -0.22234638244E-01 -0.78798208484E-02  0.13000920943E+00  0.20829083645E-01 0.  0.
         14    1    1    2    0    0 -0.56498044116E-02  0.22942072428E-01  0.47527819149E-02  0.24100786566E-01  0.00000000000E+00 0. -1.
     999901    1    3    3    0    0  0.13179287040E+00 -0.70743418350E-03  0.31270389334E-02  0.88982000400E+00  0.88000000000E+00 0.  1.
        -11    1    4    4    0    0 -0.61804758279E-01 -0.23743038679E-02  0.23694943895E-02  0.61897827824E-01  0.51100000000E-03 0. -1.
         11    1    4    4    0    0 -0.64338307710E-01 -0.19860334376E-01 -0.10249315238E-01  0.68111381606E-01  0.51100000000E-03 0.  1.
</event>
<event>
 8    1  0.1137518E+005  0.1043930E+01  0.7957747E-01            NaN
         13   -1    0    0    0    0  0.00000000000E+00  0.00000000000E+00  0.74505805969E-08  0.10566000000E+00  0.10566000000E+00 0. -1.
     999900   -1    0    0    0    0 -0.00000000000E+00 -0.00000000000E+00 -0.74505805969E-08  0.93827000000E+00  0.93827000000E+00 0. -1.
     999902    2    1    2    0    0  0.22181619464E-01 -0.80771476879E-02 -0.43809178525E-02  0.10199204811E+01  0.10196378429E+01 0.  0.
     999903    2    3    3    0    0  0.60280250466E-01  0.39047122875E-01  0.10715527978E+00  0.13081276774E+00  0.21710362040E-01 0.  0.
         14    1    1    2    0    0 -0.22181619464E-01  0.80771476879E-02  0.43809178525E-02  0.24009518905E-01  0.00000000000E+00 0. -1.
     999901    1    3    3    0    0 -0.38098631002E-01 -0.47124270563E-01 -0.11153619763E+00  0.88910771335E+00  0.88000000000E+00 0. -1.
        -11    1    4    4    0    0  0.24102468839E-01  0.68731564137E-02  0.49799209520E-01  0.55752952147E-01  0.51100000000E-03 0.  1.
         11    1    4    4    0    0  0.36177781627E-01  0.32173966462E-01  0.57356070255E-01  0.75059815597E-01  0.51100000000E-03 0. -1.
</event>
<event>
 8    1  0.1137518E+005  0.1043930E+01  0.7957747E-01            NaN
         13   -1    0    0    0    0  0.00000000000E+00  0.00000000000E+00  0.74505805969E-08  0.10566000000E+00  0.10566000000E+00 0.  1.
     999900   -1    0    0    0    0 -0.00000000000E+00 -0.00000000000E+00 -0.74505805969E-08  0.93827000000E+00  0.93827000000E+00 0.  1.
     999902    2    1    2    0    0  0.73721790087E-02  0.22304888511E-01  0.35292546148E-02  0.10201747329E+01  0.10198981189E+01 0.  0.
     999903    2    3    3    0    0  0.10792940659E+00 -0.68430253754E-01  0.17315720498E-01  0.12970593018E+00  0.13868587204E-01 0.  0.
         14    1    1    2    0    0 -0.73721790087E-02 -0.22304888511E-01 -0.35292546148E-02  0.23755267057E-01  0.00000000000E+00 0. -1.
     999901    1    3    3    0    0 -0.10055722758E+00  0.90735142265E-01 -0.13786465883E-01  0.89046880277E+00  0.88000000000E+00 0.  1.
        -11    1    4    4    0    0  0.61997154232E-01 -0.31454792227E-01  0.74787941246E-02  0.69923133293E-01  0.51100000000E-03 0.  1.
         11    1    4    4    0    0  0.45932252356E-01 -0.36975461528E-01  0.98369263730E-02  0.59782796883E-01  0.51100000000E-03 0. -1.
</event>
<event>
 8    1  0.1137518E+005  0.1043930E+01  0.7957747E-01            NaN
         13   -1    0    0    0    0  0.00000000000E+00  0.00000000000E+00  0.74505805969E-08  0.10566000000E+00  0.10566000000E+00 0. -1.
     999900   -1    0    0    0    0 -0.00000000000E+00 -0.00000000000E+00 -0.74505805969E-08  0.93827000000E+00  0.93827000000E+00 0. -1.
     999902    2    1    2    0    0 -0.12876321277E-01 -0.42741344963E-02 -0.18755935954E-01  0.10207815009E+01  0.10205189952E+01 0.  0.
     999903    2    3    3    0    0  0.72171493219E-01  0.72020925890E-01  0.75610606333E-01  0.12839194962E+00  0.19281875912E-01 0.  0.
         14    1    1    2    0    0  0.12876321277E-01  0.42741344963E-02  0.18755935954E-01  0.23148499063E-01  0.00000000000E+00 0. -1.
     999901    1    3    3    0    0 -0.85047814496E-01 -0.76295060386E-01 -0.94366542288E-01  0.89238955131E+00  0.88000000000E+00 0. -1.
        -11    1    4    4    0    0  0.62955902722E-01  0.53234391666E-01  0.55668700379E-01  0.99481714231E-01  0.51100000000E-03 0.  1.
         11    1    4    4    0    0  0.92155904969E-02  0.18786534224E-01  0.19941905955E-01  0.28910235393E-01  0.51100000000E-03 0. -1.
</event>
<event>
 8    1  0.1137518E+005  0.1043930E+01  0.7957747E-01            NaN
         13   -1    0    0    0    0  0.00000000000E+00  0.00000000000E+00  0.74505805969E-08  0.10566000000E+00  0.10566000000E+00 0. -1.
     999900   -1    0    0    0    0 -0.00000000000E+00 -0.00000000000E+00 -0.74505805969E-08  0.93827000000E+00  0.93827000000E+00 0.  1.
     999902    2    1    2    0    0  0.18220058368E-01  0.30396033853E-02 -0.11821002029E-01  0.10219995234E+01  0.10217641998E+01 0.  0.
     999903    2    3    3    0    0  0.12862222787E+00 -0.27520226753E-01  0.17048687191E-01  0.13410538487E+00  0.19813029375E-01 0.  0.
         14    1    1    2    0    0 -0.18220058368E-01 -0.30396033853E-02  0.11821002029E-01  0.21930476617E-01  0.00000000000E+00 0.  1.
     999901    1    3    3    0    0 -0.11040216950E+00  0.30559830138E-01 -0.28869689220E-01  0.88789413851E+00  0.88000000000E+00 0. -1.
        -11    1    4    4    0    0  0.11938792556E-01 -0.81949050921E-02  0.44740750971E-02  0.15164752096E-01  0.51100000000E-03 0.  1.
         11    1    4    4    0    0  0.11668343532E+00 -0.19325321661E-01  0.12574612094E-01  0.11894063277E+00  0.51100000000E-03 0. -1.
</event>
<event>
 8    1  0.1137518E+005  0.1043930E+01  0.7957747E-01            NaN
         13   -1    0    0    0    0  0.00000000000E+00  0.00000000000E+00  0.74505805969E-08  0.10566000000E+00  0.10566000000E+00 0. -1.
     999900   -1    0    0    0    0 -0.00000000000E+00 -0.00000000000E+00 -0.74505805969E-08  0.93827000000E+00  0.93827000000E+00 0.  1.
     999902    2    1    2    0    0  0.84902883036E-02  0.10052540027E-01  0.20172088643E-01  0.10198457372E+01  0.10195613154E+01 0.  0.
     999903    2    3    3    0    0 -0.92630753530E-03 -0.12310186335E+00 -0.30841655764E-01  0.12831830094E+00  0.18959214641E-01 0.  0.
         14    1    1    2    0    0 -0.84902883036E-02 -0.10052540027E-01 -0.20172088643E-01  0.24084262843E-01  0.00000000000E+00 0.  1.
     999901    1    3    3    0    0  0.94165958389E-02  0.13315440337E+00  0.51013744407E-01  0.89152743622E+00  0.88000000000E+00 0. -1.
        -11    1    4    4    0    0  0.75085491239E-02 -0.90799871793E-01 -0.20851978828E-01  0.93466898791E-01  0.51100000000E-03 0. -1.
         11    1    4    4    0    0 -0.84348566592E-02 -0.32301991555E-01 -0.99896769368E-02  0.34851402146E-01  0.51100000000E-03 0.  1.
</event>
<event>
 8    1  0.1137518E+005  0.1043930E+01  0.7957747E-01            NaN
         13   -1    0    0    0    0  0.00000000000E+00  0.00000000000E+00  0.74505805969E-08  0.10566000000E+00  0.10566000000E+00 0.  1.
     999900   -1    0    0    0    0 -0.00000000000E+00 -0.00000000000E+00 -0.74505805969E-08  0.93827000000E+00  0.93827000000E+00 0. -1.
     999902    2    1    2    0    0  0.23346690358E-01  0.61057821914E-04 -0.16227512777E-02  0.10205269019E+01  0.10202585224E+01 0.  0.
     999903    2    3    3    0    0 -0.57844365708E-01  0.11300084637E+00 -0.17827356031E-01  0.12945452963E+00  0.18041582333E-01 0.  0.
         14    1    1    2    0    0 -0.23346690358E-01 -0.61057821914E-04  0.16227512777E-02  0.23403098094E-01  0.00000000000E+00 0.  1.
     999901    1    3    3    0    0  0.81191056066E-01 -0.11293978855E+00  0.16204604753E-01  0.89107237228E+00  0.88000000000E+00 0. -1.
        -11    1    4    4    0    0 -0.14078980153E-01  0.46621198784E-01 -0.74403919716E-02  0.49268391611E-01  0.51100000000E-03 0. -1.
         11    1    4    4    0    0 -0.43765385555E-01  0.66379647587E-01 -0.10386964059E-01  0.80186138016E-01  0.51100000000E-03 0.  1.
</event>
<event>
 8    1  0.1137518E+005  0.1043930E+01  0.7957747E-01            NaN
         13   -1    0    0    0    0  0.00000000000E+00  0.00000000000E+00  0.74505805969E-08  0.10566000000E+00  0.10566000000E+00 0. -1.
     999900   -1    0    0    0    0 -0.00000000000E+00 -0.00000000000E+00 -0.74505805969E-08  0.93827000000E+00  0.93827000000E+00 0.  1.
     999902    2    1    2    0    0  0.25022801130E-01  0.52930467528E-02  0.11936707666E-02  0.10183256689E+01  0.10180037260E+01 0.  0.
     999903    2    3    3    0    0  0.12505116559E+00  0.34885952763E-01  0.13459952493E-01  0.13207972368E+00  0.20225216214E-01 0.  0.
         14    1    1    2    0    0 -0.25022801130E-01 -0.52930467528E-02 -0.11936707666E-02  0.25604331083E-01  0.00000000000E+00 0. -1.
     999901    1    3    3    0    0 -0.10002836446E+00 -0.29592906010E-01 -0.12266281727E-01  0.88624594524E+00  0.88000000000E+00 0.  1.
        -11    1    4    4    0    0  0.12071609770E+00  0.29335618893E-01  0.11558643826E-01  0.12476705554E+00  0.51100000000E-03 0. -1.
         11    1    4    4    0    0  0.43350678850E-02  0.55503338699E-02  0.19013086676E-02  0.73126681372E-02  0.51100000000E-03 0.  1.
</event>
<event>
 8    1  0.1137518E+005  0.1043930E+01  0.7957747E-01            NaN
         13   -1    0    0    0    0  0.00000000000E+00  0.00000000000E+00  0.74505805969E-08  0.10566000000E+00  0.10566000000E+00 0.  1.
     999900   -1    0    0    0    0 -0.00000000000E+00 -0.00000000000E+00 -0.74505805969E-08  0.93827000000E+00  0.93827000000E+00 0.  1.
     999902    2    1    2    0    0 -0.68569782876E-02  0.21339127722E-01  0.68261494619E-02  0.10204998306E+01  0.10202308226E+01 0.  0.
     999903    2    3    3    0    0 -0.97765372855E-01  0.66004701360E-01  0.57033521090E-01  0.13326810783E+00  0.24349071946E-01 0.  0.
         14    1    1    2    0    0  0.68569782876E-02 -0.21339127722E-01 -0.68261494619E-02  0.23430169433E-01  0.00000000000E+00 0. -1.
     999901    1    3    3    0    0  0.90908394568E-01 -0.44665573638E-01 -0.50207371628E-01  0.88723172274E+00  0.88000000000E+00 0.  1.
        -11    1    4    4    0    0 -0.73287417434E-01  0.38447808308E-01  0.46500427009E-01  0.94930660752E-01  0.51100000000E-03 0.  1.
         11    1    4    4    0    0 -0.24477955421E-01  0.27556893052E-01  0.10533094081E-01  0.38337447075E-01  0.51100000000E-03 0. -1.
</event>
<event>
 8    1  0.1137518E+005  0.1043930E+01  0.7957747E-01            NaN
         13   -1    0    0    0    0  0.00000000000E+00  0.00000000000E+00  0.74505805969E-08  0.10566000000E+00  0.10566000000E+00 0.  1.
     999900   -1    0    0    0    0 -0.00000000000E+00 -0.00000000000E+00 -0.74505805969E-08  0.93827000000E+00  0.93827000000E+00 0. -1.
     999902    2    1    2    0    0 -0.63138993259E-02 -0.96017501613E-02  0.19999030210E-01  0.10208644382E+01  0.10206038316E+01 0.  0.
     999903    2    3    3    0    0  0.88029827264E-01 -0.94634241214E-01 -0.11103295006E-01  0.13120235748E+00  0.19643964692E-01 0.  0.
         14    1    1    2    0    0  0.63138993259E-02  0.96017501613E-02 -0.19999030210E-01  0.23065561780E-01  0.00000000000E+00 0. -1.
     999901    1    3    3    0    0 -0.94343726590E-01  0.85032491052E-01  0.31102325216E-01  0.88966208074E+00  0.88000000000E+00 0. -1.
        -11    1    4    4    0    0  0.33355215796E-01 -0.48532219795E-01 -0.44261995094E-03  0.58893155905E-01  0.51100000000E-03 0.  1.
         11    1    4    4    0    0  0.54674611469E-01 -0.46102021419E-01 -0.10660675055E-01  0.72309201571E-01  0.51100000000E-03 0. -1.
</event>
<event>
 8    1  0.1137518E+005  0.1043930E+01  0.7957747E-01            NaN
         13   -1    0    0    0    0  0.00000000000E+00  0.00000000000E+00  0.74505805969E-08  0.10566000000E+00  0.10566000000E+00 0. -1.
     999900   -1    0    0    0    0 -0.00000000000E+00 -0.00000000000E+00 -0.74505805969E-08  0.93827000000E+00  0.93827000000E+00 0. -1.
     999902    2    1    2    0    0 -0.86387710300E-02 -0.65897200956E-03 -0.22199238340E-01  0.10201000023E+01  0.10198216245E+01 0.  0.
     999903    2    3    3    0    0 -0.11774791450E+00  0.59455943635E-02  0.51729208353E-01  0.13026078043E+00  0.19799961104E-01 0.  0.
         14    1    1    2    0    0  0.86387710300E-02  0.65897200956E-03  0.22199238340E-01  0.23829997731E-01  0.00000000000E+00 0. -1.
     999901    1    3    3    0    0  0.10910914347E+00 -0.66045663731E-02 -0.73928446693E-01  0.88983922184E+00  0.88000000000E+00 0. -1.
        -11    1    4    4    0    0 -0.87169717531E-01  0.21082959888E-02  0.28745822300E-01  0.91812787710E-01  0.51100000000E-03 0.  1.
         11    1    4    4    0    0 -0.30578196973E-01  0.38372983747E-02  0.22983386053E-01  0.38447992723E-01  0.51100000000E-03 0. -1.
</event>
<event>
 8    1  0.1202831E+005  0.1043930E+01  0.7957747E-01            NaN
         13   -1    0    0    0    0  0.00000000000E+00  0.00000000000E+00  0.74505805969E-08  0.10566000000E+00  0.10566000000E+00 0. -1.
     999900   -1    0    0    0    0 -0.00000000000E+00 -0.00000000000E+00 -0.74505805969E-08  0.93827000000E+00  0.93827000000E+00 0.  1.
     999902    2    1    2    0    0 -0.37261618744E-02 -0.23522799147E-01 -0.40810049213E-03  0.10201104092E+01  0.10198322774E+01 0.  0.
     999903    2    3    3    0    0  0.14826243534E-01 -0.98239900286E-02 -0.12776052910E+00  0.13064400159E+00  0.20706860667E-01 0.  0.
         14    1    1    2    0    0  0.37261618744E-02  0.23522799147E-01  0.40810049213E-03  0.23819590845E-01  0.00000000000E+00 0. -1.
     999901    1    3    3    0    0 -0.18552405408E-01 -0.13698809118E-01  0.12735242860E+00  0.88946640757E+00  0.88000000000E+00 0. -1.
        -11    1    4    4    0    0  0.69539198647E-02  0.61856571146E-02 -0.38021112267E-01  0.39146972481E-01  0.51100000000E-03 0. -1.
         11    1    4    4    0    0  0.78723236690E-02 -0.16009647143E-01 -0.89739416830E-01  0.91497029108E-01  0.51100000000E-03 0.  1.
</event>
<event>
 8    1  0.1137518E+005  0.1043930E+01  0.7957747E-01            NaN
         13   -1    0    0    0    0  0.00000000000E+00  0.00000000000E+00  0.74505805969E-08  0.10566000000E+00  0.10566000000E+00 0. -1.
     999900   -1    0    0    0    0 -0.00000000000E+00 -0.00000000000E+00 -0.74505805969E-08  0.93827000000E+00  0.93827000000E+00 0.  1.
     999902    2    1    2    0    0  0.44336450597E-02 -0.22143537024E-01  0.55602793795E-02  0.10206725249E+01  0.10204075132E+01 0.  0.
     999903    2    3    3    0    0  0.66053015335E-01 -0.72250759426E-01  0.88238621412E-01  0.13323611099E+00  0.19561029866E-01 0.  0.
         14    1    1    2    0    0 -0.44336450597E-02  0.22143537024E-01 -0.55602793795E-02  0.23257475083E-01  0.00000000000E+00 0.  1.
     999901    1    3    3    0    0 -0.61619370275E-01  0.50107222402E-01 -0.82678342033E-01  0.88743641393E+00  0.88000000000E+00 0. -1.
        -11    1    4    4    0    0  0.22500812665E-01 -0.39002501364E-01  0.40345563557E-01  0.60460791452E-01  0.51100000000E-03 0. -1.
         11    1    4    4    0    0  0.43552202670E-01 -0.33248258062E-01  0.47893057855E-01  0.72775319534E-01  0.51100000000E-03 0.  1.
</event>
<event>
 8    1  0.1137518E+005  0.1043930E+01  0.7957747E-01            NaN
         13   -1    0    0    0    0  0.00000000000E+00  0.00000000000E+00  0.74505805969E-08  0.10566000000E+00  0.10566000000E+00 0. -1.
     999900   -1    0    0    0    0 -0.00000000000E+00 -0.00000000000E+00 -0.74505805969E-08  0.93827000000E+00  0.93827000000E+00 0.  1.
     999902    2    1    2    0    0  0.64308754717E-02 -0.22461307812E-01  0.54721465450E-03  0.10205598063E+01  0.10202921897E+01 0.  0.
     999903    2    3    3    0    0  0.48671618034E-01  0.18767453091E-01 -0.11808656006E+00  0.13063954948E+00  0.20027793774E-01 0.  0.
         14    1    1    2    0    0 -0.64308754717E-02  0.22461307812E-01 -0.54721465450E-03  0.23370193663E-01  0.00000000000E+00 0.  1.
     999901    1    3    3    0    0 -0.42240742563E-01 -0.41228760903E-01  0.11863377472E+00  0.88992025686E+00  0.88000000000E+00 0. -1.
        -11    1    4    4    0    0  0.13313870322E-01 -0.17974440614E-02 -0.44022378521E-01  0.46029565279E-01  0.51100000000E-03 0. -1.
         11    1    4    4    0    0  0.35357747713E-01  0.20564897152E-01 -0.74064181542E-01  0.84609984202E-01  0.51100000000E-03 0.  1.
</event>
<event>
 8    1  0.1137518E+005  0.1043930E+01  0.7957747E-01            NaN
         13   -1    0    0    0    0  0.00000000000E+00  0.00000000000E+00  0.74505805969E-08  0.10566000000E+00  0.10566000000E+00 0.  1.
     999900   -1    0    0    0    0 -0.00000000000E+00 -0.00000000000E+00 -0.74505805969E-08  0.93827000000E+00  0.93827000000E+00 0. -1.
     999902    2    1    2    0    0 -0.79689121857E-02 -0.19480053497E-01 -0.38259431518E-02  0.10225380883E+01  0.10223143001E+01 0.  0.
     999903    2    3    3    0    0 -0.71847900470E-01  0.10688618097E+00 -0.58872328936E-02  0.13121704665E+00  0.24422885470E-01 0.  0.
         14    1    1    2    0    0  0.79689121857E-02  0.19480053497E-01  0.38259431518E-02  0.21391911711E-01  0.00000000000E+00 0.  1.
     999901    1    3    3    0    0  0.63878988284E-01 -0.12636623447E+00  0.20612897418E-02  0.89132104164E+00  0.88000000000E+00 0. -1.
        -11    1    4    4    0    0 -0.56830705968E-01  0.64098613304E-01 -0.18098057077E-02  0.85684875480E-01  0.51100000000E-03 0.  1.
         11    1    4    4    0    0 -0.15017194502E-01  0.42787567669E-01 -0.40774271859E-02  0.45532171167E-01  0.51100000000E-03 0. -1.
</event>
<event>
 8    1  0.1137518E+005  0.1043930E+01  0.7957747E-01            NaN
         13   -1    0    0    0    0  0.00000000000E+00  0.00000000000E+00  0.74505805969E-08  0.10566000000E+00  0.10566000000E+00 0.  1.
     999900   -1    0    0    0    0 -0.00000000000E+00 -0.00000000000E+00 -0.74505805969E-08  0.93827000000E+00  0.93827000000E+00 0.  1.
     999902    2    1    2    0    0 -0.26793646018E-02  0.49952514926E-02  0.22147558974E-01  0.10210685499E+01  0.10208125870E+01 0.  0.
     999903    2    3    3    0    0  0.11131802788E+00 -0.61978821609E-01 -0.18415828558E-01  0.13026760672E+00  0.19935620380E-01 0.  0.
         14    1    1    2    0    0  0.26793646018E-02 -0.49952514926E-02 -0.22147558974E-01  0.22861450099E-01  0.00000000000E+00 0. -1.
     999901    1    3    3    0    0 -0.11399739248E+00  0.66974073102E-01  0.40563387532E-01  0.89080094318E+00  0.88000000000E+00 0. -1.
        -11    1    4    4    0    0  0.85422232876E-01 -0.56479408944E-01 -0.16413542794E-01  0.10371377446E+00  0.51100000000E-03 0. -1.
         11    1    4    4    0    0  0.25895795005E-01 -0.54994126658E-02 -0.20022857646E-02  0.26553832264E-01  0.51100000000E-03 0.  1.
</event>
<event>
 8    1  0.1137518E+005  0.1043930E+01  0.7957747E-01            NaN
         13   -1    0    0    0    0  0.00000000000E+00  0.00000000000E+00  0.74505805969E-08  0.10566000000E+00  0.10566000000E+00 0.  1.
     999900   -1    0    0    0    0 -0.00000000000E+00 -0.00000000000E+00 -0.74505805969E-08  0.93827000000E+00  0.93827000000E+00 0. -1.
     999902    2    1    2    0    0 -0.16515596240E-01 -0.12902171564E-01 -0.66070664648E-02  0.10219553720E+01  0.10217190896E+01 0.  0.
     999903    2    3    3    0    0  0.36125983114E-01 -0.38241075493E-01 -0.12099461081E+00  0.13263107440E+00  0.13558744090E-01 0.  0.
         14    1    1    2    0    0  0.16515596240E-01  0.12902171564E-01  0.66070664648E-02  0.21974628040E-01  0.00000000000E+00 0. -1.
     999901    1    3    3    0    0 -0.52641579354E-01  0.25338903929E-01  0.11438754434E+00  0.88932429756E+00  0.88000000000E+00 0.  1.
        -11    1    4    4    0    0  0.24568097583E-01 -0.18865791236E-01 -0.80789145910E-01  0.86525468596E-01  0.51100000000E-03 0. -1.
         11    1    4    4    0    0  0.11557885531E-01 -0.19375284257E-01 -0.40205464897E-01  0.46105605804E-01  0.51100000000E-03 0.  1.
</event>
<event>
 8    1  0.1137518E+005  0.1043930E+01  0.7957747E-01            NaN
         13   -1    0    0    0    0  0.00000000000E+00  0.00000000000E+00  0.74505805969E-08  0.10566000000E+00  0.10566000000E+00 0. -1.
     999900   -1    0    0    0    0 -0.00000000000E+00 -0.00000000000E+00 -0.74505805969E-08  0.93827000000E+00  0.93827000000E+00 0.  1.
     999902    2    1    2    0    0 -0.19598348118E-01  0.22319724655E-02  0.14321564588E-01  0.10195541069E+01  0.10192626712E+01 0.  0.
     999903    2    3    3    0    0  0.52220377230E-01 -0.51947648110E-02  0.11781930278E+00  0.13055193172E+00  0.20210526684E-01 0.  0.
         14    1    1    2    0    0  0.19598348118E-01 -0.22319724655E-02 -0.14321564588E-01  0.24375893056E-01  0.00000000000E+00 0.  1.
     999901    1    3    3    0    0 -0.71818725348E-01  0.74267372765E-02 -0.10349773819E+00  0.88900217522E+00  0.88000000000E+00 0.  1.
        -11    1    4    4    0    0  0.33505895539E-01  0.63533831012E-03  0.51926259393E-01  0.61803286533E-01  0.51100000000E-03 0. -1.
         11    1    4    4    0    0  0.18714481691E-01 -0.58301031211E-02  0.65893043389E-01  0.68748645190E-01  0.51100000000E-03 0.  1.
</event>
<event>
 8    1  0.1137518E+005  0.1043930E+01  0.7957747E-01            NaN
         13   -1    0    0    0    0  0.00000000000E+00  0.00000000000E+00  0.74505805969E-08  0.10566000000E+00  0.10566000000E+00 0.  1.
     999900   -1    0    0    0    0 -0.00000000000E+00 -0.00000000000E+00 -0.74505805969E-08  0.93827000000E+00  0.93827000000E+00 0.  1.
     999902    2    1    2    0    0 -0.13004332048E-02 -0.17921294042E-01 -0.15441924433E-01  0.10202378718E+01  0.10199627435E+01 0.  0.
     999903    2    3    3    0    0 -0.85325014965E-02  0.31366146085E-01  0.12242366824E+00  0.12811205324E+00  0.19196482402E-01 0.  0.
         14    1    1    2    0    0  0.13004332048E-02  0.17921294042E-01  0.15441924433E-01  0.23692128162E-01  0.00000000000E+00 0.  1.
     999901    1    3    3    0    0  0.72320682916E-02 -0.49287440127E-01 -0.13786559268E+00  0.89212581860E+00  0.88000000000E+00 0.  1.
        -11    1    4    4    0    0 -0.86168493969E-02  0.33849324347E-02  0.40226529265E-01  0.41281262563E-01  0.51100000000E-03 0. -1.
         11    1    4    4    0    0  0.84347900405E-04  0.27981213650E-01  0.82197138979E-01  0.86830790675E-01  0.51100000000E-03 0.  1.
</event>
<event>
 8    1  0.1137518E+005  0.1043930E+01  0.7957747E-01            NaN
         13   -1    0    0    0    0  0.00000000000E+00  0.00000000000E+00  0.74505805969E-08  0.10566000000E+00  0.10566000000E+00 0.  1.
     999900   -1    0    0    0    0 -0.00000000000E+00 -0.00000000000E+00 -0.74505805969E-08  0.93827000000E+00  0.93827000000E+00 0.  1.
     999902    2    1    2    0    0 -0.71102934010E-02 -0.10962984459E-01  0.18832471995E-01  0.10210082788E+01  0.10207509491E+01 0.  0.
     999903    2    3    3    0    0 -0.78277851241E-01  0.80370938021E-01 -0.62149662272E-01  0.12973682031E+00  0.19548717343E-01 0.  0.
         14    1    1    2    0    0  0.71102934010E-02  0.10962984459E-01 -0.18832471995E-01  0.22921721182E-01  0.00000000000E+00 0. -1.
     999901    1    3    3    0    0  0.71167557840E-01 -0.91333922480E-01  0.80982134267E-01  0.89127145851E+00  0.88000000000E+00 0. -1.
        -11    1    4    4    0    0 -0.28862230293E-01  0.37679787923E-01 -0.35181168658E-01  0.59082742866E-01  0.51100000000E-03 0.  1.
         11    1    4    4    0    0 -0.49415620948E-01  0.42691150097E-01 -0.26968493614E-01  0.70654077441E-01  0.51100000000E-03 0. -1.
</event>
<event>
 8    1  0.1137518E+005  0.1043930E+01  0.7957747E-01            NaN
         13   -1    0    0    0    0  0.00000000000E+00  0.00000000000E+00  0.74505805969E-08  0.10566000000E+00  0.10566000000E+00 0.  1.
     999900   -1    0    0    0    0 -0.00000000000E+00 -0.00000000000E+00 -0.74505805969E-08  0.93827000000E+00  0.93827000000E+00 0.  1.
     999902    2    1    2    0    0 -0.13954482262E-01  0.87700045348E-02  0.17279827074E-01  0.10200504485E+01  0.10197708981E+01 0.  0.
     999903    2    3    3    0    0 -0.35717586911E-01 -0.63082332508E-01  0.10833832680E+00  0.13217205515E+00  0.21843360994E-01 0.  0.
         14    1    1    2    0    0  0.13954482262E-01 -0.87700045348E-02 -0.17279827074E-01  0.23879551471E-01  0.00000000000E+00 0. -1.
     999901    1    3    3    0    0  0.21763104649E-01  0.71852337043E-01 -0.91058499722E-01  0.88787839338E+00  0.88000000000E+00 0.  1.
        -11    1    4    4    0    0 -0.21835104826E-01 -0.31965176368E-01  0.75501071233E-01  0.84848200814E-01  0.51100000000E-03 0. -1.
         11    1    4    4    0    0 -0.13882482085E-01 -0.31117156140E-01  0.32837255563E-01  0.47323854333E-01  0.51100000000E-03 0.  1.
</event>
<event>
 8    1  0.1137518E+005  0.1043930E+01  0.7957747E-01            NaN
         13   -1    0    0    0    0  0.00000000000E+00  0.00000000000E+00  0.74505805969E-08  0.10566000000E+00  0.10566000000E+00 0.  1.
     999900   -1    0    0    0    0 -0.00000000000E+00 -0.00000000000E+00 -0.74505805969E-08  0.93827000000E+00  0.93827000000E+00 0. -1.
     999902    2    1    2    0    0 -0.71407503443E-03 -0.20275828261E-01  0.13010199998E-01  0.10198284561E+01  0.10195436212E+01 0.  0.
     999903    2    3    3    0    0 -0.20764299497E-01 -0.11477055170E+00  0.61122876557E-01  0.13323605036E+00  0.20307717874E-01 0.  0.
         14    1    1    2    0    0  0.71407503443E-03  0.20275828261E-01 -0.13010199998E-01  0.24101543909E-01  0.00000000000E+00 0. -1.
     999901    1    3    3    0    0  0.20050224462E-01  0.94494723438E-01 -0.48112676559E-01  0.88659240573E+00  0.88000000000E+00 0. -1.
        -11    1    4    4    0    0 -0.15745647660E-01 -0.36837417632E-01  0.16853017903E-01  0.43464998464E-01  0.51100000000E-03 0.  1.
         11    1    4    4    0    0 -0.50186518370E-02 -0.77933134067E-01  0.44269858654E-01  0.89771051893E-01  0.51100000000E-03 0. -1.
</event>
<event>
 8    1  0.1137518E+005  0.1043930E+01  0.7957747E-01            NaN
         13   -1    0    0    0    0  0.00000000000E+00  0.00000000000E+00  0.74505805969E-08  0.10566000000E+00  0.10566000000E+00 0.  1.
     999900   -1    0    0    0    0 -0.00000000000E+00 -0.00000000000E+00 -0.74505805969E-08  0.93827000000E+00  0.93827000000E+00 0.  1.
     999902    2    1    2    0    0  0.70592700626E-02 -0.16856731879E-01  0.22636991872E-01  0.10148367688E+01  0.10144196622E+01 0.  0.
     999903    2    3    3    0    0  0.89522306887E-01 -0.79607622770E-01  0.41968350746E-01  0.12854588637E+00  0.20275241206E-01 0.  0.
         14    1    1    2    0    0 -0.70592700626E-02  0.16856731879E-01 -0.22636991872E-01  0.29093231248E-01  0.00000000000E+00 0. -1.
     999901    1    3    3    0    0 -0.82463036824E-01  0.62750890891E-01 -0.19331358875E-01  0.88629088238E+00  0.88000000000E+00 0. -1.
        -11    1    4    4    0    0  0.35081007655E-01 -0.41743021480E-01  0.12318222764E-01  0.55903100750E-01  0.51100000000E-03 0. -1.
         11    1    4    4    0    0  0.54441299232E-01 -0.37864601289E-01  0.29650127983E-01  0.72642785624E-01  0.51100000000E-03 0.  1.
</event>
<event>
 8    1  0.1137518E+005  0.1043930E+01  0.7957747E-01            NaN
         13   -1    0    0    0    0  0.00000000000E+00  0.00000000000E+00  0.74505805969E-08  0.10566000000E+00  0.10566000000E+00 0.  1.
     999900   -1    0    0    0    0 -0.00000000000E+00 -0.00000000000E+00 -0.74505805969E-08  0.93827000000E+00  0.93827000000E+00 0. -1.
     999902    2    1    2    0    0 -0.16452290064E-01  0.55579170269E-02  0.16009641089E-01  0.10203105822E+01  0.10200371597E+01 0.  0.
     999903    2    3    3    0    0  0.51056836250E-01  0.10800740806E+00  0.50265272420E-01  0.13113859172E+00  0.19958254028E-01 0.  0.
         14    1    1    2    0    0  0.16452290064E-01 -0.55579170269E-02 -0.16009641089E-01  0.23619417813E-01  0.00000000000E+00 0. -1.
     999901    1    3    3    0    0 -0.67509126314E-01 -0.10244949103E+00 -0.34255631331E-01  0.88917199046E+00  0.88000000000E+00 0.  1.
        -11    1    4    4    0    0  0.27238573709E-01  0.44310196482E-01  0.13101813801E-01  0.53640022892E-01  0.51100000000E-03 0.  1.
         11    1    4    4    0    0  0.23818262541E-01  0.63697211578E-01  0.37163458619E-01  0.77498568831E-01  0.51100000000E-03 0. -1.
</event>
<event>
 8    1  0.1137518E+005  0.1043930E+01  0.7957747E-01            NaN
         13   -1    0    0    0    0  0.00000000000E+00  0.00000000000E+00  0.74505805969E-08  0.10566000000E+00  0.10566000000E+00 0.  1.
     999900   -1    0    0    0    0 -0.00000000000E+00 -0.00000000000E+00 -0.74505805969E-08  0.93827000000E+00  0.93827000000E+00 0. -1.
     999902    2    1    2    0    0 -0.13543889187E-01  0.18538046904E-01  0.63979728393E-02  0.10200966164E+01  0.10198181586E+01 0.  0.
     999903    2    3    3    0    0 -0.38675323027E-01  0.91673984643E-01 -0.84436714805E-01  0.13204740896E+00  0.20175711502E-01 0.  0.
         14    1    1    2    0    0  0.13543889187E-01 -0.18538046904E-01 -0.63979728393E-02  0.23833383599E-01  0.00000000000E+00 0. -1.
     999901    1    3    3    0    0  0.25131433840E-01 -0.73135937739E-01  0.90834687644E-01  0.88804920744E+00  0.88000000000E+00 0.  1.
        -11    1    4    4    0    0 -0.38760286815E-01  0.74610293607E-01 -0.74225761373E-01  0.11215516269E+00  0.51100000000E-03 0. -1.
         11    1    4    4    0    0  0.84963787675E-04  0.17063691036E-01 -0.10210953432E-01  0.19892246269E-01  0.51100000000E-03 0.  1.
</event>
<event>
 8    1  0.1137518E+005  0.1043930E+01  0.7957747E-01            NaN
         13   -1    0    0    0    0  0.00000000000E+00  0.00000000000E+00  0.74505805969E-08  0.10566000000E+00  0.10566000000E+00 0. -1.
     999900   -1    0    0    0    0 -0.00000000000E+00 -0.00000000000E+00 -0.74505805969E-08  0.93827000000E+00  0.93827000000E+00 0. -1.
     999902    2    1    2    0    0 -0.17193028486E-01  0.10397113363E-01 -0.11085704394E-01  0.10209823849E+01  0.10207244669E+01 0.  0.
     999903    2    3    3    0    0  0.72925421381E-01  0.10949019019E-01 -0.10657433311E+00  0.13124100802E+00  0.20690954693E-01 0.  0.
         14    1    1    2    0    0  0.17193028486E-01 -0.10397113363E-01  0.11085704394E-01  0.22947615055E-01  0.00000000000E+00 0.  1.
     999901    1    3    3    0    0 -0.90118449867E-01 -0.55190565611E-03  0.95488628715E-01  0.88974137693E+00  0.88000000000E+00 0.  1.
        -11    1    4    4    0    0  0.52988125360E-01 -0.14530854353E-02 -0.76811097489E-01  0.93327695272E-01  0.51100000000E-03 0. -1.
         11    1    4    4    0    0  0.19937296021E-01  0.12402104454E-01 -0.29763235621E-01  0.37913312743E-01  0.51100000000E-03 0.  1.
</event>
<event>
 8    1  0.1137518E+005  0.1043930E+01  0.7957747E-01            NaN
         13   -1    0    0    0    0  0.00000000000E+00  0.00000000000E+00  0.74505805969E-08  0.10566000000E+00  0.10566000000E+00 0.  1.
     999900   -1    0    0    0    0 -0.00000000000E+00 -0.00000000000E+00 -0.74505805969E-08  0.93827000000E+00  0.93827000000E+00 0. -1.
     999902    2    1    2    0    0 -0.14959190494E-01  0.19246526895E-01 -0.50128629871E-02  0.10190435584E+01  0.10187396326E+01 0.  0.
     999903    2    3    3    0    0 -0.38126242709E-01 -0.65196037621E-01 -0.10307660945E+00  0.12927743335E+00  0.19589120769E-01 0.  0.
         14    1    1    2    0    0  0.14959190494E-01 -0.19246526895E-01  0.50128629871E-02  0.24886441551E-01  0.00000000000E+00 0. -1.
     999901    1    3    3    0    0  0.23167052215E-01  0.84442564517E-01  0.98063746461E-01  0.88976612510E+00  0.88000000000E+00 0. -1.
        -11    1    4    4    0    0 -0.17501647876E-02 -0.17304114573E-01 -0.29483931118E-01  0.34235343917E-01  0.51100000000E-03 0. -1.
         11    1    4    4    0    0 -0.36376077921E-01 -0.47891923048E-01 -0.73592678331E-01  0.95042089429E-01  0.51100000000E-03 0.  1.
</event>
<event>
 8    1  0.1137518E+005  0.1043930E+01  0.7957747E-01            NaN
         13   -1    0    0    0    0  0.00000000000E+00  0.00000000000E+00  0.74505805969E-08  0.10566000000E+00  0.10566000000E+00 0.  1.
     999900   -1    0    0    0    0 -0.00000000000E+00 -0.00000000000E+00 -0.74505805969E-08  0.93827000000E+00  0.93827000000E+00 0.  1.
     999902    2    1    2    0    0  0.58449482812E-02  0.22809168856E-01  0.36929309111E-02  0.10200960045E+01  0.10198175322E+01 0.  0.
     999903    2    3    3    0    0 -0.49896058880E-01  0.29417795998E-01  0.11579161400E+00  0.13121083270E+00  0.21296979456E-01 0.  0.
         14    1    1    2    0    0 -0.58449482812E-02 -0.22809168856E-01 -0.36929309111E-02  0.23833995532E-01  0.00000000000E+00 0. -1.
     999901    1    3    3    0    0  0.55741007161E-01 -0.66086271423E-02 -0.11209868309E+00  0.88888517176E+00  0.88000000000E+00 0. -1.
        -11    1    4    4    0    0 -0.11881339937E-01 -0.21411798418E-02  0.27412797347E-01  0.29957861559E-01  0.51100000000E-03 0. -1.
         11    1    4    4    0    0 -0.38014718942E-01  0.31558975840E-01  0.88378816650E-01  0.10125297115E+00  0.51100000000E-03 0.  1.
</event>
<event>
 8    1  0.1137518E+005  0.1043930E+01  0.7957747E-01            NaN
         13   -1    0    0    0    0  0.00000000000E+00  0.00000000000E+00  0.74505805969E-08  0.10566000000E+00  0.10566000000E+00 0.  1.
     999900   -1    0    0    0    0 -0.00000000000E+00 -0.00000000000E+00 -0.74505805969E-08  0.93827000000E+00  0.93827000000E+00 0.  1.
     999902    2    1    2    0    0 -0.68130854635E-02  0.71305692497E-02  0.22416987703E-01  0.10194395021E+01  0.10191452860E+01 0.  0.
     999903    2    3    3    0    0 -0.99286552708E-01 -0.58275390847E-01 -0.54173933417E-01  0.12888043555E+00  0.20530730093E-01 0.  0.
         14    1    1    2    0    0  0.68130854635E-02 -0.71305692497E-02 -0.22416987703E-01  0.24490497933E-01  0.00000000000E+00 0.  1.
     999901    1    3    3    0    0  0.92473467245E-01  0.65405960097E-01  0.76590921120E-01  0.89055906652E+00  0.88000000000E+00 0. -1.
        -11    1    4    4    0    0 -0.19559553016E-01 -0.86884036477E-02 -0.18978461322E-01  0.28609571602E-01  0.51100000000E-03 0. -1.
         11    1    4    4    0    0 -0.79726999692E-01 -0.49586987199E-01 -0.35195472095E-01  0.10027086395E+00  0.51100000000E-03 0.  1.
</event>
<event>
 8    1  0.1137518E+005  0.1043930E+01  0.7957747E-01            NaN
         13   -1    0    0    0    0  0.00000000000E+00  0.00000000000E+00  0.74505805969E-08  0.10566000000E+00  0.10566000000E+00 0.  1.
     999900   -1    0    0    0    0 -0.00000000000E+00 -0.00000000000E+00 -0.74505805969E-08  0.93827000000E+00  0.93827000000E+00 0. -1.
     999902    2    1    2    0    0 -0.35154704886E-02  0.25820518585E-02  0.25919574144E-01  0.10176459773E+01  0.10173064854E+01 0.  0.
     999903    2    3    3    0    0  0.11762906789E+00  0.43725167605E-01  0.18359634855E-01  0.12836204750E+00  0.19780069570E-01 0.  0.
         14    1    1    2    0    0  0.35154704886E-02 -0.25820518585E-02 -0.25919574144E-01  0.26284022682E-01  0.00000000000E+00 0. -1.
     999901    1    3    3    0    0 -0.12114453838E+00 -0.41143115746E-01  0.75599392887E-02  0.88928392982E+00  0.88000000000E+00 0. -1.
        -11    1    4    4    0    0  0.55890434226E-01  0.31311319899E-01  0.91181774212E-02  0.64711217515E-01  0.51100000000E-03 0. -1.
         11    1    4    4    0    0  0.61738633661E-01  0.12413847705E-01  0.92414574338E-02  0.63650829984E-01  0.51100000000E-03 0.  1.
</event>
<event>
 8    1  0.1137518E+005  0.1043930E+01  0.7957747E-01            NaN
         13   -1    0    0    0    0  0.00000000000E+00  0.00000000000E+00  0.74505805969E-08  0.10566000000E+00  0.10566000000E+00 0.  1.
     999900   -1    0    0    0    0 -0.00000000000E+00 -0.00000000000E+00 -0.74505805969E-08  0.93827000000E+00  0.93827000000E+00 0. -1.
     999902    2    1    2    0    0 -0.11878287034E-01 -0.44555693210E-02 -0.99580375176E-02  0.10278021262E+01  0.10276755823E+01 0.  0.
     999903    2    3    3    0    0 -0.68600430784E-01 -0.12295243813E-01 -0.11888284131E+00  0.13923953701E+00  0.19933052607E-01 0.  0.
         14    1    1    2    0    0  0.11878287034E-01  0.44555693210E-02  0.99580375176E-02  0.16127873761E-01  0.00000000000E+00 0.  1.
     999901    1    3    3    0    0  0.56722143749E-01  0.78396744923E-02  0.10892480379E+00  0.88856258922E+00  0.88000000000E+00 0.  1.
        -11    1    4    4    0    0 -0.21278721503E-01  0.20879610126E-02 -0.50512556532E-01  0.54853651277E-01  0.51100000000E-03 0. -1.
         11    1    4    4    0    0 -0.47321709281E-01 -0.14383204826E-01 -0.68370284777E-01  0.84385885738E-01  0.51100000000E-03 0.  1.
</event>
<event>
 8    1  0.1137518E+005  0.1043930E+01  0.7957747E-01            NaN
         13   -1    0    0    0    0  0.00000000000E+00  0.00000000000E+00  0.74505805969E-08  0.10566000000E+00  0.10566000000E+00 0. -1.
     999900   -1    0    0    0    0 -0.00000000000E+00 -0.00000000000E+00 -0.74505805969E-08  0.93827000000E+00  0.93827000000E+00 0.  1.
     999902    2    1    2    0    0  0.21427710604E-02  0.89376987727E-02 -0.21349745420E-01  0.10206859565E+01  0.10204212543E+01 0.  0.
     999903    2    3    3    0    0  0.17731703849E-01 -0.10382288894E+00  0.66113105361E-01  0.12905390505E+00  0.34501624866E-01 0.  0.
         14    1    1    2    0    0 -0.21427710604E-02 -0.89376987727E-02  0.21349745420E-01  0.23244043466E-01  0.00000000000E+00 0. -1.
     999901    1    3    3    0    0 -0.15588932788E-01  0.11276058771E+00 -0.87462850782E-01  0.89163205148E+00  0.88000000000E+00 0.  1.
        -11    1    4    4    0    0  0.26984746545E-01 -0.89455880168E-01  0.59191930836E-01  0.11060956939E+00  0.51100000000E-03 0.  1.
         11    1    4    4    0    0 -0.92530426964E-02 -0.14367008774E-01  0.69211745256E-02  0.18444335663E-01  0.51100000000E-03 0. -1.
</event>
<event>
 8    1  0.1137518E+005  0.1043930E+01  0.7957747E-01            NaN
         13   -1    0    0    0    0  0.00000000000E+00  0.00000000000E+00  0.74505805969E-08  0.10566000000E+00  0.10566000000E+00 0. -1.
     999900   -1    0    0    0    0 -0.00000000000E+00 -0.00000000000E+00 -0.74505805969E-08  0.93827000000E+00  0.93827000000E+00 0. -1.
     999902    2    1    2    0    0  0.18317416199E-01 -0.14394547769E-01 -0.39304062647E-02  0.10203041913E+01  0.10200306192E+01 0.  0.
     999903    2    3    3    0    0 -0.16794477272E-01  0.82765417839E-01  0.95080523057E-01  0.12874596659E+00  0.20076085077E-01 0.  0.
         14    1    1    2    0    0 -0.18317416199E-01  0.14394547769E-01  0.39304062647E-02  0.23625808666E-01  0.00000000000E+00 0. -1.
     999901    1    3    3    0    0  0.35111893472E-01 -0.97159965608E-01 -0.99010929322E-01  0.89155822474E+00  0.88000000000E+00 0. -1.
        -11    1    4    4    0    0 -0.12687482858E-02  0.56757060016E-02  0.16804689601E-01  0.17789943069E-01  0.51100000000E-03 0.  1.
         11    1    4    4    0    0 -0.15525728986E-01  0.77089711837E-01  0.78275833457E-01  0.11095602352E+00  0.51100000000E-03 0. -1.
</event>
<event>
 8    1  0.1137518E+005  0.1043930E+01  0.7957747E-01            NaN
         13   -1    0    0    0    0  0.00000000000E+00  0.00000000000E+00  0.74505805969E-08  0.10566000000E+00  0.10566000000E+00 0. -1.
     999900   -1    0    0    0    0 -0.00000000000E+00 -0.00000000000E+00 -0.74505805969E-08  0.93827000000E+00  0.93827000000E+00 0.  1.
     999902    2    1    2    0    0 -0.12734704822E-01 -0.18574177994E-01 -0.85113544965E-02  0.10198547856E+01  0.10195705800E+01 0.  0.
     999903    2    3    3    0    0 -0.41235557874E-01 -0.41566946972E-01 -0.11705456820E+00  0.13243008718E+00  0.20193408322E-01 0.  0.
         14    1    1    2    0    0  0.12734704822E-01  0.18574177994E-01  0.85113544965E-02  0.24075214442E-01  0.00000000000E+00 0. -1.
     999901    1    3    3    0    0  0.28500853052E-01  0.22992768978E-01  0.10854321371E+00  0.88742469838E+00  0.88000000000E+00 0. -1.
        -11    1    4    4    0    0 -0.23152016079E-01 -0.11702618230E-01 -0.38060429573E-01  0.46063266735E-01  0.51100000000E-03 0.  1.
         11    1    4    4    0    0 -0.18083541795E-01 -0.29864328742E-01 -0.78994138629E-01  0.86366820445E-01  0.51100000000E-03 0. -1.
</event>
<event>
 8    1  0.1137518E+005  0.1043930E+01  0.7957747E-01            NaN
         13   -1    0    0    0    0  0.00000000000E+00  0.00000000000E+00  0.74505805969E-08  0.10566000000E+00  0.10566000000E+00 0. -1.
     999900   -1    0    0    0    0 -0.00000000000E+00 -0.00000000000E+00 -0.74505805969E-08  0.93827000000E+00  0.93827000000E+00 0.  1.
     999902    2    1    2    0    0  0.10066904599E-01  0.20480376281E-01 -0.59201151244E-02  0.10203538225E+01  0.10200814120E+01 0.  0.
     999903    2    3    3    0    0 -0.96922697402E-01 -0.80345098956E-01  0.14631632177E-01  0.12792179391E+00  0.17336565394E-01 0.  0.
         14    1    1    2    0    0 -0.10066904599E-01 -0.20480376281E-01  0.59201151244E-02  0.23576177465E-01  0.00000000000E+00 0. -1.
     999901    1    3    3    0    0  0.10698960200E+00  0.10082547524E+00 -0.20551747301E-01  0.89243202862E+00  0.88000000000E+00 0.  1.
        -11    1    4    4    0    0 -0.23236888087E-01 -0.10626672615E-01  0.10910590553E-02  0.25579887992E-01  0.51100000000E-03 0.  1.
         11    1    4    4    0    0 -0.73685809315E-01 -0.69718426342E-01  0.13540573121E-01  0.10234190592E+00  0.51100000000E-03 0. -1.
</event>
<event>
 8    1  0.1137518E+005  0.1043930E+01  0.7957747E-01            NaN
         13   -1    0    0    0    0  0.00000000000E+00  0.00000000000E+00  0.74505805969E-08  0.10566000000E+00  0.10566000000E+00 0.  1.
     999900   -1    0    0    0    0 -0.00000000000E+00 -0.00000000000E+00 -0.74505805969E-08  0.93827000000E+00  0.93827000000E+00 0. -1.
     999902    2    1    2    0    0  0.22823641427E-01  0.27955969949E-05  0.36525844090E-02  0.10208159353E+01  0.10205542189E+01 0.  0.
     999903    2    3    3    0    0  0.11807364701E+00 -0.54134592690E-01  0.24710608480E-01  0.13377204641E+00  0.20307781389E-01 0.  0.
         14    1    1    2    0    0 -0.22823641427E-01 -0.27955969949E-05 -0.36525844090E-02  0.23114064737E-01  0.00000000000E+00 0.  1.
     999901    1    3    3    0    0 -0.95250005584E-01  0.54137388287E-01 -0.21058024071E-01  0.88704388885E+00  0.88000000000E+00 0.  1.
        -11    1    4    4    0    0  0.22511281706E-01 -0.19323506802E-01  0.35032105207E-02  0.29877906957E-01  0.51100000000E-03 0. -1.
         11    1    4    4    0    0  0.95562365305E-01 -0.34811085888E-01  0.21207397960E-01  0.10389413945E+00  0.51100000000E-03 0.  1.
</event>
<event>
 8    1  0.1137518E+005  0.1043930E+01  0.7957747E-01            NaN
         13   -1    0    0    0    0  0.00000000000E+00  0.00000000000E+00  0.74505805969E-08  0.10566000000E+00  0.10566000000E+00 0. -1.
     999900   -1    0    0    0    0 -0.00000000000E+00 -0.00000000000E+00 -0.74505805969E-08  0.93827000000E+00  0.93827000000E+00 0.  1.
     999902    2    1    2    0    0 -0.18272802089E-01 -0.18145528094E-01 -0.10116439776E-01  0.10162623684E+01  0.10158856744E+01 0.  0.
     999903    2    3    3    0    0  0.25117000970E-01  0.65915320960E-01 -0.10256777010E+00  0.12637689831E+00  0.21800910245E-01 0.  0.
         14    1    1    2    0    0  0.18272802089E-01  0.18145528094E-01  0.10116439776E-01  0.27667631625E-01  0.00000000000E+00 0.  1.
     999901    1    3    3    0    0 -0.43389803060E-01 -0.84060849054E-01  0.92451330328E-01  0.88988547006E+00  0.88000000000E+00 0.  1.
        -11    1    4    4    0    0  0.24392730321E-02  0.33015095978E-01 -0.37570717395E-01  0.50077605194E-01  0.51100000000E-03 0.  1.
         11    1    4    4    0    0  0.22677727938E-01  0.32900224982E-01 -0.64997052708E-01  0.76299293116E-01  0.51100000000E-03 0. -1.
</event>
<event>
 8    1  0.1137518E+005  0.1043930E+01  0.7957747E-01            NaN
         13   -1    0    0    0    0  0.00000000000E+00  0.00000000000E+00  0.74505805969E-08  0.10566000000E+00  0.10566000000E+00 0.  1.
     999900   -1    0    0    0    0 -0.00000000000E+00 -0.00000000000E+00 -0.74505805969E-08  0.93827000000E+00  0.93827000000E+00 0.  1.
     999902    2    1    2    0    0 -0.22635259723E-01 -0.63553901008E-02  0.24937765986E-03  0.10204181274E+01  0.10201472180E+01 0.  0.
     999903    2    3    3    0    0  0.59523553153E-01  0.98452549063E-01  0.54762401994E-01  0.12873071325E+00  0.18349879173E-01 0.  0.
         14    1    1    2    0    0  0.22635259723E-01  0.63553901008E-02 -0.24937765986E-03  0.23511872645E-01  0.00000000000E+00 0. -1.
     999901    1    3    3    0    0 -0.82158812875E-01 -0.10480793916E+00 -0.54513024334E-01  0.89168741410E+00  0.88000000000E+00 0. -1.
        -11    1    4    4    0    0  0.57167106820E-01  0.84701624503E-01  0.51317834057E-01  0.11435132054E+00  0.51100000000E-03 0.  1.
         11    1    4    4    0    0  0.23564463329E-02  0.13750924560E-01  0.34445679364E-02  0.14379392715E-01  0.51100000000E-03 0. -1.
</event>
<event>
 8    1  0.1137518E+005  0.1043930E+01  0.7957747E-01            NaN
         13   -1    0    0    0    0  0.00000000000E+00  0.00000000000E+00  0.74505805969E-08  0.10566000000E+00  0.10566000000E+00 0. -1.
     999900   -1    0    0    0    0 -0.00000000000E+00 -0.00000000000E+00 -0.74505805969E-08  0.93827000000E+00  0.93827000000E+00 0.  1.
     999902    2    1    2    0    0  0.14046184668E-01 -0.19140426957E-01  0.47166409901E-02  0.10197246710E+01  0.10194373481E+01 0.  0.
     999903    2    3    3    0    0 -0.29593051299E-01 -0.38235683991E-02 -0.12404417255E+00  0.12915275582E+00  0.20077580362E-01 0.  0.
         14    1    1    2    0    0 -0.14046184668E-01  0.19140426957E-01 -0.47166409901E-02  0.24205328960E-01  0.00000000000E+00 0. -1.
     999901    1    3    3    0    0  0.43639235967E-01 -0.15316858558E-01  0.12876081354E+00  0.89057191522E+00  0.88000000000E+00 0. -1.
        -11    1    4    4    0    0  0.34140765695E-03 -0.52863085485E-02 -0.29321908435E-01  0.29800957242E-01  0.51100000000E-03 0. -1.
         11    1    4    4    0    0 -0.29934458956E-01  0.14627401494E-02 -0.94722264111E-01  0.99351798580E-01  0.51100000000E-03 0.  1.
</event>
<event>
 8    1  0.1137518E+005  0.1043930E+01  0.7957747E-01            NaN
         13   -1    0    0    0    0  0.00000000000E+00  0.00000000000E+00  0.74505805969E-08  0.10566000000E+00  0.10566000000E+00 0. -1.
     999900   -1    0    0    0    0 -0.00000000000E+00 -0.00000000000E+00 -0.74505805969E-08  0.93827000000E+00  0.93827000000E+00 0.  1.
     999902    2    1    2    0    0 -0.16666459113E-01  0.13515772876E-01 -0.98070986976E-02  0.10203370739E+01  0.10200642716E+01 0.  0.
     999903    2    3    3    0    0  0.11546344470E+00 -0.13122850046E-01  0.50049209431E-01  0.12806429874E+00  0.19786990460E-01 0.  0.
         14    1    1    2    0    0  0.16666459113E-01 -0.13515772876E-01  0.98070986976E-02  0.23592926072E-01  0.00000000000E+00 0.  1.
     999901    1    3    3    0    0 -0.13212990382E+00  0.26638622921E-01 -0.59856308129E-01  0.89227277519E+00  0.88000000000E+00 0. -1.
        -11    1    4    4    0    0  0.37443267381E-01 -0.13631981042E-01  0.17478575154E-01  0.43515409796E-01  0.51100000000E-03 0. -1.
         11    1    4    4    0    0  0.78020177323E-01  0.50913099586E-03  0.32570634277E-01  0.84548888947E-01  0.51100000000E-03 0.  1.
</event>
<event>
 8    1  0.1137518E+005  0.1043930E+01  0.7957747E-01            NaN
         13   -1    0    0    0    0  0.00000000000E+00  0.00000000000E+00  0.74505805969E-08  0.10566000000E+00  0.10566000000E+00 0.  1.
     999900   -1    0    0    0    0 -0.00000000000E+00 -0.00000000000E+00 -0.74505805969E-08  0.93827000000E+00  0.93827000000E+00 0. -1.
     999902    2    1    2    0    0  0.12231994508E-01  0.18333814708E-01  0.28714805632E-02  0.10217039825E+01  0.10214622030E+01 0.  0.
     999903    2    3    3    0    0 -0.19758562316E-01  0.11830415996E+00  0.56150783398E-01  0.13386607517E+00  0.19517698567E-01 0.  0.
         14    1    1    2    0    0 -0.12231994508E-01 -0.18333814708E-01 -0.28714805632E-02  0.22226017457E-01  0.00000000000E+00 0. -1.
     999901    1    3    3    0    0  0.31990556824E-01 -0.99970345250E-01 -0.53279302835E-01  0.88783790737E+00  0.88000000000E+00 0. -1.
        -11    1    4    4    0    0 -0.91999162330E-02  0.99522292389E-01  0.47115624247E-01  0.11049646289E+00  0.51100000000E-03 0. -1.
         11    1    4    4    0    0 -0.10558646083E-01  0.18781867569E-01  0.90351591513E-02  0.23369612285E-01  0.51100000000E-03 0.  1.
</event>
<event>
 8    1  0.1137518E+005  0.1043930E+01  0.7957747E-01            NaN
         13   -1    0    0    0    0  0.00000000000E+00  0.00000000000E+00  0.74505805969E-08  0.10566000000E+00  0.10566000000E+00 0. -1.
     999900   -1    0    0    0    0 -0.00000000000E+00 -0.00000000000E+00 -0.74505805969E-08  0.93827000000E+00  0.93827000000E+00 0.  1.
     999902    2    1    2    0    0  0.16997780921E-01  0.66897555041E-02  0.14956509779E-01  0.10203212184E+01  0.10200480450E+01 0.  0.
     999903    2    3    3    0    0  0.10779640742E+00  0.38511246501E-01 -0.62008676760E-01  0.13173771763E+00  0.20163548635E-01 0.  0.
         14    1    1    2    0    0 -0.16997780921E-01 -0.66897555041E-02 -0.14956509779E-01  0.23608781623E-01  0.00000000000E+00 0. -1.
     999901    1    3    3    0    0 -0.90798626496E-01 -0.31821490997E-01  0.76965186539E-01  0.88858350075E+00  0.88000000000E+00 0. -1.
        -11    1    4    4    0    0  0.10676298625E+00  0.40162850974E-01 -0.59971465543E-01  0.12887291272E+00  0.51100000000E-03 0. -1.
         11    1    4    4    0    0  0.10334211642E-02 -0.16516044730E-02 -0.20372112171E-02  0.28648049115E-02  0.51100000000E-03 0.  1.
</event>
<event>
 8    1  0.1137518E+005  0.1043930E+01  0.7957747E-01            NaN
         13   -1    0    0    0    0  0.00000000000E+00  0.00000000000E+00  0.74505805969E-08  0.10566000000E+00  0.10566000000E+00 0.  1.
     999900   -1    0    0    0    0 -0.00000000000E+00 -0.00000000000E+00 -0.74505805969E-08  0.93827000000E+00  0.93827000000E+00 0. -1.
     999902    2    1    2    0    0 -0.26369157171E-02 -0.65233297240E-02  0.22612538473E-01  0.10202480649E+01  0.10199731760E+01 0.  0.
     999903    2    3    3    0    0 -0.17749374303E-01 -0.12858305394E+00  0.92875682522E-02  0.13159486057E+00  0.19552655965E-01 0.  0.
         14    1    1    2    0    0  0.26369157171E-02  0.65233297240E-02 -0.22612538473E-01  0.23681935128E-01  0.00000000000E+00 0. -1.
     999901    1    3    3    0    0  0.15112458586E-01  0.12205972422E+00  0.13324970221E-01  0.88865320430E+00  0.88000000000E+00 0. -1.
        -11    1    4    4    0    0  0.69219431789E-03 -0.53110373398E-01  0.91517427511E-02  0.53899966714E-01  0.51100000000E-03 0. -1.
         11    1    4    4    0    0 -0.18441568621E-01 -0.75472680547E-01  0.13582550111E-03  0.77694893858E-01  0.51100000000E-03 0.  1.
</event>
<event>
 8    1  0.1137518E+005  0.1043930E+01  0.7957747E-01            NaN
         13   -1    0    0    0    0  0.00000000000E+00  0.00000000000E+00  0.74505805969E-08  0.10566000000E+00  0.10566000000E+00 0.  1.
     999900   -1    0    0    0    0 -0.00000000000E+00 -0.00000000000E+00 -0.74505805969E-08  0.93827000000E+00  0.93827000000E+00 0.  1.
     999902    2    1    2    0    0  0.81303378794E-02 -0.23548756484E-02  0.23971094896E-01  0.10185083316E+01  0.10181910235E+01 0.  0.
     999903    2    3    3    0    0 -0.81743757067E-01 -0.53100597329E-01 -0.78454639538E-01  0.12657587212E+00  0.19094650615E-01 0.  0.
         14    1    1    2    0    0 -0.81303378794E-02  0.23548756484E-02 -0.23971094896E-01  0.25421668392E-01  0.00000000000E+00 0. -1.
     999901    1    3    3    0    0  0.89874094946E-01  0.50745721680E-01  0.10242573443E+00  0.89193245949E+00  0.88000000000E+00 0. -1.
        -11    1    4    4    0    0 -0.18207599710E-01 -0.11535137871E-01 -0.28311333296E-01  0.35586076026E-01  0.51100000000E-03 0. -1.
         11    1    4    4    0    0 -0.63536157357E-01 -0.41565459458E-01 -0.50143306242E-01  0.90989796096E-01  0.51100000000E-03 0.  1.
</event>
<event>
 8    1  0.1137518E+005  0.1043930E+01  0.7957747E-01            NaN
         13   -1    0    0    0    0  0.00000000000E+00  0.00000000000E+00  0.74505805969E-08  0.10566000000E+00  0.10566000000E+00 0. -1.
     999900   -1    0    0    0    0 -0.00000000000E+00 -0.00000000000E+00 -0.74505805969E-08  0.93827000000E+00  0.93827000000E+00 0.  1.
     999902    2    1    2    0    0 -0.29073469716E-02 -0.21989791222E-01  0.90858249735E-02  0.10199601064E+01  0.10196784115E+01 0.  0.
     999903    2    3    3    0    0 -0.39014107025E-01 -0.12157580110E+00 -0.26113066641E-01  0.13290879251E+00  0.26078322706E-01 0.  0.
         14    1    1    2    0    0  0.29073469716E-02  0.21989791222E-01 -0.90858249735E-02  0.23969893614E-01  0.00000000000E+00 0.  1.
     999901    1    3    3    0    0  0.36106760054E-01  0.99586009881E-01  0.35198891614E-01  0.88705131388E+00  0.88000000000E+00 0. -1.
        -11    1    4    4    0    0 -0.39475112181E-01 -0.10380555659E+00 -0.15332015733E-01  0.11211248765E+00  0.51100000000E-03 0. -1.
         11    1    4    4    0    0  0.46100515503E-03 -0.17770244516E-01 -0.10781050908E-01  0.20796304855E-01  0.51100000000E-03 0.  1.
</event>
<event>
 8    1  0.1137518E+005  0.1043930E+01  0.7957747E-01            NaN
         13   -1    0    0    0    0  0.00000000000E+00  0.00000000000E+00  0.74505805969E-08  0.10566000000E+00  0.10566000000E+00 0. -1.
     999900   -1    0    0    0    0 -0.00000000000E+00 -0.00000000000E+00 -0.74505805969E-08  0.93827000000E+00  0.93827000000E+00 0.  1.
     999902    2    1    2    0    0  0.15320705038E-02 -0.23546139717E-01 -0.16528565681E-02  0.10202762504E+01  0.10200020232E+01 0.  0.
     999903    2    3    3    0    0 -0.97283413880E-01  0.81065475113E-01 -0.66520769673E-04  0.12858650257E+00  0.22334062482E-01 0.  0.
         14    1    1    2    0    0 -0.15320705038E-02  0.23546139717E-01  0.16528565681E-02  0.23653749606E-01  0.00000000000E+00 0. -1.
     999901    1    3    3    0    0  0.98815484383E-01 -0.10461161483E+00 -0.15863357985E-02  0.89168974782E+00  0.88000000000E+00 0.  1.
        -11    1    4    4    0    0 -0.75168344873E-01  0.73596817315E-01 -0.12716910868E-02  0.10520765138E+00  0.51100000000E-03 0.  1.
         11    1    4    4    0    0 -0.22115069007E-01  0.74686577986E-02  0.12051703171E-02  0.23378851190E-01  0.51100000000E-03 0. -1.
</event>
<event>
 8    1  0.1137518E+005  0.1043930E+01  0.7957747E-01            NaN
         13   -1    0    0    0    0  0.00000000000E+00  0.00000000000E+00  0.74505805969E-08  0.10566000000E+00  0.10566000000E+00 0. -1.
     999900   -1    0    0    0    0 -0.00000000000E+00 -0.00000000000E+00 -0.74505805969E-08  0.93827000000E+00  0.93827000000E+00 0. -1.
     999902    2    1    2    0    0 -0.16047351694E-01  0.45047336337E-02  0.16302212118E-01  0.10206153642E+01  0.10203490331E+01 0.  0.
     999903    2    3    3    0    0  0.44101964581E-01 -0.44146238101E-01  0.11433518236E+00  0.13179855489E+00  0.20110980266E-01 0.  0.
         14    1    1    2    0    0  0.16047351694E-01 -0.45047336337E-02 -0.16302212118E-01  0.23314635777E-01  0.00000000000E+00 0.  1.
     999901    1    3    3    0    0 -0.60149316275E-01  0.48650971735E-01 -0.98032970242E-01  0.88881680933E+00  0.88000000000E+00 0. -1.
        -11    1    4    4    0    0  0.14101705590E-01 -0.65257226955E-02  0.43233329863E-01  0.45943716537E-01  0.51100000000E-03 0.  1.
         11    1    4    4    0    0  0.30000258991E-01 -0.37620515405E-01  0.71101852497E-01  0.85854838352E-01  0.51100000000E-03 0. -1.
</event>
<event>
 8    1  0.1137518E+005  0.1043930E+01  0.7957747E-01            NaN
         13   -1    0    0    0    0  0.00000000000E+00  0.00000000000E+00  0.74505805969E-08  0.10566000000E+00  0.10566000000E+00 0. -1.
     999900   -1    0    0    0    0 -0.00000000000E+00 -0.00000000000E+00 -0.74505805969E-08  0.93827000000E+00  0.93827000000E+00 0. -1.
     999902    2    1    2    0    0  0.16274535479E-01 -0.32416985447E-02  0.17540619528E-01  0.10197837281E+01  0.10194978223E+01 0.  0.
     999903    2    3    3    0    0  0.25045267237E-01  0.12239159289E+00  0.32535928057E-01  0.13069120818E+00  0.20362658452E-01 0.  0.
         14    1    1    2    0    0 -0.16274535479E-01  0.32416985447E-02 -0.17540619528E-01  0.24146271926E-01  0.00000000000E+00 0.  1.
     999901    1    3    3    0    0 -0.87707317574E-02 -0.12563329144E+00 -0.14995308529E-01  0.88909251989E+00  0.88000000000E+00 0.  1.
        -11    1    4    4    0    0  0.25182106050E-01  0.88233919305E-01  0.17714687291E-01  0.93452845049E-01  0.51100000000E-03 0.  1.
         11    1    4    4    0    0 -0.13683881346E-03  0.34157673588E-01  0.14821240766E-01  0.37238363131E-01  0.51100000000E-03 0. -1.
</event>
<event>
 8    1  0.1137518E+005  0.1043930E+01  0.7957747E-01            NaN
         13   -1    0    0    0    0  0.00000000000E+00  0.00000000000E+00  0.74505805969E-08  0.10566000000E+00  0.10566000000E+00 0.  1.
     999900   -1    0    0    0    0 -0.00000000000E+00 -0.00000000000E+00 -0.74505805969E-08  0.93827000000E+00  0.93827000000E+00 0. -1.
     999902    2    1    2    0    0 -0.58242541020E-02  0.17283417768E-01 -0.14340884971E-01  0.10207287188E+01  0.10204650009E+01 0.  0.
     999903    2    3    3    0    0  0.10837610032E+00 -0.55663311276E-01 -0.40804723515E-01  0.12996315991E+00  0.19534946410E-01 0.  0.
         14    1    1    2    0    0  0.58242541020E-02 -0.17283417768E-01  0.14340884971E-01  0.23201281157E-01  0.00000000000E+00 0. -1.
     999901    1    3    3    0    0 -0.11420035442E+00  0.72946729044E-01  0.26463838544E-01  0.89076555893E+00  0.88000000000E+00 0.  1.
        -11    1    4    4    0    0  0.84499352852E-01 -0.52012173296E-01 -0.32296590889E-01  0.10434911455E+00  0.51100000000E-03 0.  1.
         11    1    4    4    0    0  0.23876747464E-01 -0.36511379803E-02 -0.85081326257E-02  0.25614045362E-01  0.51100000000E-03 0. -1.
</event>
<event>
 8    1  0.1137518E+005  0.1043930E+01  0.7957747E-01            NaN
         13   -1    0    0    0    0  0.00000000000E+00  0.00000000000E+00  0.74505805969E-08  0.10566000000E+00  0.10566000000E+00 0. -1.
     999900   -1    0    0    0    0 -0.00000000000E+00 -0.00000000000E+00 -0.74505805969E-08  0.93827000000E+00  0.93827000000E+00 0. -1.
     999902    2    1    2    0    0 -0.17344807742E-01  0.37573750227E-03  0.16409338080E-01  0.10200500940E+01  0.10197705352E+01 0.  0.
     999903    2    3    3    0    0 -0.23570500990E-01  0.43005066994E-01 -0.11755037797E+00  0.12887041262E+00  0.19608354916E-01 0.  0.
         14    1    1    2    0    0  0.17344807742E-01 -0.37573750227E-03 -0.16409338080E-01  0.23879905998E-01  0.00000000000E+00 0.  1.
     999901    1    3    3    0    0  0.62256932481E-02 -0.42629329492E-01  0.13395971605E+00  0.89117968139E+00  0.88000000000E+00 0.  1.
        -11    1    4    4    0    0 -0.97516304003E-02  0.11536068943E-01 -0.59655497212E-01  0.61540349777E-01  0.51100000000E-03 0. -1.
         11    1    4    4    0    0 -0.13818870590E-01  0.31468998051E-01 -0.57894880760E-01  0.67330062839E-01  0.51100000000E-03 0.  1.
</event>
<event>
 8    1  0.1137518E+005  0.1043930E+01  0.7957747E-01            NaN
         13   -1    0    0    0    0  0.00000000000E+00  0.00000000000E+00  0.74505805969E-08  0.10566000000E+00  0.10566000000E+00 0.  1.
     999900   -1    0    0    0    0 -0.00000000000E+00 -0.00000000000E+00 -0.74505805969E-08  0.93827000000E+00  0.93827000000E+00 0. -1.
     999902    2    1    2    0    0  0.13333079243E-02  0.18466822594E-01  0.88145727080E-02  0.10234239536E+01  0.10232184962E+01 0.  0.
     999903    2    3    3    0    0 -0.43174452745E-01 -0.11493790712E+00 -0.40359343999E-01  0.13090177643E+00  0.20776009237E-01 0.  0.
         14    1    1    2    0    0 -0.13333079243E-02 -0.18466822594E-01 -0.88145727080E-02  0.20506046395E-01  0.00000000000E+00 0. -1.
     999901    1    3    3    0    0  0.44507760669E-01  0.13340472972E+00  0.49173916707E-01  0.89252217718E+00  0.88000000000E+00 0. -1.
        -11    1    4    4    0    0 -0.19888280557E-01 -0.72226747732E-01 -0.16479769133E-01  0.76707826871E-01  0.51100000000E-03 0.  1.
         11    1    4    4    0    0 -0.23286172188E-01 -0.42711159391E-01 -0.23879574866E-01  0.54193949556E-01  0.51100000000E-03 0. -1.
</event>
<event>
 8    1  0.1137518E+005  0.1043930E+01  0.7957747E-01            NaN
         13   -1    0    0    0    0  0.00000000000E+00  0.00000000000E+00  0.74505805969E-08  0.10566000000E+00  0.10566000000E+00 0.  1.
     999900   -1    0    0    0    0 -0.00000000000E+00 -0.00000000000E+00 -0.74505805969E-08  0.93827000000E+00  0.93827000000E+00 0.  1.
     999902    2    1    2    0    0 -0.15784848069E-02 -0.14271503948E-01 -0.18369597762E-01  0.10206145639E+01  0.10203482143E+01 0.  0.
     999903    2    3    3    0    0  0.98105524718E-01 -0.25259277886E-01 -0.83136032886E-01  0.13255357271E+00  0.19902878552E-01 0.  0.
         14    1    1    2    0    0  0.15784848069E-02  0.14271503948E-01  0.18369597762E-01  0.23315436114E-01  0.00000000000E+00 0.  1.
     999901    1    3    3    0    0 -0.99684009525E-01  0.10987773938E-01  0.64766435123E-01  0.88806099118E+00  0.88000000000E+00 0. -1.
        -11    1    4    4    0    0  0.54143436008E-01 -0.23501388079E-01 -0.51838283432E-01  0.78557594506E-01  0.51100000000E-03 0.  1.
         11    1    4    4    0    0  0.43962088710E-01 -0.17578898066E-02 -0.31297749453E-01  0.53995978203E-01  0.51100000000E-03 0. -1.
</event>
<event>
 8    1  0.1137518E+005  0.1043930E+01  0.7957747E-01            NaN
         13   -1    0    0    0    0  0.00000000000E+00  0.00000000000E+00  0.74505805969E-08  0.10566000000E+00  0.10566000000E+00 0.  1.
     999900   -1    0    0    0    0 -0.00000000000E+00 -0.00000000000E+00 -0.74505805969E-08  0.93827000000E+00  0.93827000000E+00 0.  1.
     999902    2    1    2    0    0  0.14549147132E-01  0.18147218862E-01 -0.56471848172E-02  0.10199948808E+01  0.10197140123E+01 0.  0.
     999903    2    3    3    0    0  0.75308035307E-03 -0.12621274504E+00  0.94669883982E-02  0.12799792516E+00  0.19068844636E-01 0.  0.
         14    1    1    2    0    0 -0.14549147132E-01 -0.18147218862E-01  0.56471848172E-02  0.23935119198E-01  0.00000000000E+00 0. -1.
     999901    1    3    3    0    0  0.13796066779E-01  0.14435996390E+00 -0.15114173215E-01  0.89199695564E+00  0.88000000000E+00 0.  1.
        -11    1    4    4    0    0  0.80884623347E-03 -0.33690748202E-01 -0.58708464510E-02  0.34211821140E-01  0.51100000000E-03 0.  1.
         11    1    4    4    0    0 -0.55765880398E-04 -0.92521996839E-01  0.15337834849E-01  0.93786104023E-01  0.51100000000E-03 0. -1.
</event>
<event>
 8    1  0.1137518E+005  0.1043930E+01  0.7957747E-01            NaN
         13   -1    0    0    0    0  0.00000000000E+00  0.00000000000E+00  0.74505805969E-08  0.10566000000E+00  0.10566000000E+00 0. -1.
     999900   -1    0    0    0    0 -0.00000000000E+00 -0.00000000000E+00 -0.74505805969E-08  0.93827000000E+00  0.93827000000E+00 0. -1.
     999902    2    1    2    0    0  0.15425243090E-03  0.63195752269E-02  0.24024779126E-01  0.10190874793E+01  0.10187846384E+01 0.  0.
     999903    2    3    3    0    0 -0.87342852995E-01 -0.26095355056E-01 -0.86504191105E-01  0.12727857348E+00  0.20177181741E-01 0.  0.
         14    1    1    2    0    0 -0.15425243090E-03 -0.63195752269E-02 -0.24024779126E-01  0.24842520744E-01  0.00000000000E+00 0.  1.
     999901    1    3    3    0    0  0.87497105426E-01  0.32414930283E-01  0.11052897023E+00  0.89180890578E+00  0.88000000000E+00 0. -1.
        -11    1    4    4    0    0 -0.70995837767E-01 -0.13226118311E-01 -0.62493652108E-01  0.95504224307E-01  0.51100000000E-03 0.  1.
         11    1    4    4    0    0 -0.16347015229E-01 -0.12869236745E-01 -0.24010538997E-01  0.31774349171E-01  0.51100000000E-03 0. -1.
</event>
<event>
 8    1  0.1137518E+005  0.1043930E+01  0.7957747E-01            NaN
         13   -1    0    0    0    0  0.00000000000E+00  0.00000000000E+00  0.74505805969E-08  0.10566000000E+00  0.10566000000E+00 0. -1.
     999900   -1    0    0    0    0 -0.00000000000E+00 -0.00000000000E+00 -0.74505805969E-08  0.93827000000E+00  0.93827000000E+00 0.  1.
     999902    2    1    2    0    0  0.48895805600E-02  0.20341877014E-01  0.10321086982E-01  0.10206013739E+01  0.10203347194E+01 0.  0.
     999903    2    3    3    0    0  0.10000452764E+00 -0.20315672317E-01 -0.78250196788E-01  0.13012691511E+00  0.19906999982E-01 0.  0.
         14    1    1    2    0    0 -0.48895805600E-02 -0.20341877014E-01 -0.10321086982E-01  0.23328626085E-01  0.00000000000E+00 0. -1.
     999901    1    3    3    0    0 -0.95114947081E-01  0.40657549331E-01  0.88571283770E-01  0.89047445881E+00  0.88000000000E+00 0. -1.
        -11    1    4    4    0    0  0.40036843868E-01  0.68453796778E-03 -0.24871997390E-01  0.47141222240E-01  0.51100000000E-03 0. -1.
         11    1    4    4    0    0  0.59967683774E-01 -0.21000210285E-01 -0.53378199397E-01  0.82985692870E-01  0.51100000000E-03 0.  1.
</event>
<event>
 8    1  0.1137518E+005  0.1043930E+01  0.7957747E-01            NaN
         13   -1    0    0    0    0  0.00000000000E+00  0.00000000000E+00  0.74505805969E-08  0.10566000000E+00  0.10566000000E+00 0.  1.
     999900   -1    0    0    0    0 -0.00000000000E+00 -0.00000000000E+00 -0.74505805969E-08  0.93827000000E+00  0.93827000000E+00 0.  1.
     999902    2    1    2    0    0 -0.13466153690E-01  0.15135919475E-01 -0.36581984715E-02  0.10233432137E+01  0.10231361186E+01 0.  0.
     999903    2    3    3    0    0  0.43790789981E-01 -0.74547866070E-01  0.96656824781E-01  0.13127559134E+00  0.20389249210E-01 0.  0.
         14    1    1    2    0    0  0.13466153690E-01 -0.15135919475E-01  0.36581984715E-02  0.20586786287E-01  0.00000000000E+00 0.  1.
     999901    1    3    3    0    0 -0.57256943671E-01  0.89683785545E-01 -0.10031502325E+00  0.89206762237E+00  0.88000000000E+00 0.  1.
        -11    1    4    4    0    0  0.33481784842E-02 -0.18851698216E-01  0.29038517822E-01  0.34786397673E-01  0.51100000000E-03 0.  1.
         11    1    4    4    0    0  0.40442611497E-01 -0.55696167854E-01  0.67618306959E-01  0.96489193671E-01  0.51100000000E-03 0. -1.
</event>
<event>
 8    1  0.1137518E+005  0.1043930E+01  0.7957747E-01            NaN
         13   -1    0    0    0    0  0.00000000000E+00  0.00000000000E+00  0.74505805969E-08  0.10566000000E+00  0.10566000000E+00 0.  1.
     999900   -1    0    0    0    0 -0.00000000000E+00 -0.00000000000E+00 -0.74505805969E-08  0.93827000000E+00  0.93827000000E+00 0.  1.
     999902    2    1    2    0    0 -0.11159833940E-01 -0.21658875494E-02 -0.20464194755E-01  0.10205202535E+01  0.10202517197E+01 0.  0.
     999903    2    3    3    0    0 -0.22009969876E-01  0.47707293174E-01  0.11563828134E+00  0.12859596101E+00  0.20106826692E-01 0.  0.
         14    1    1    2    0    0  0.11159833940E-01  0.21658875494E-02  0.20464194755E-01  0.23409746462E-01  0.00000000000E+00 0.  1.
     999901    1    3    3    0    0  0.10850135936E-01 -0.49873180724E-01 -0.13610247610E+00  0.89192429253E+00  0.88000000000E+00 0.  1.
        -11    1    4    4    0    0 -0.97578741483E-02  0.11719905430E-01  0.54540747212E-01  0.56635029078E-01  0.51100000000E-03 0. -1.
         11    1    4    4    0    0 -0.12252095728E-01  0.35987387744E-01  0.61097534131E-01  0.71960931930E-01  0.51100000000E-03 0.  1.
</event>
<event>
 8    1  0.1137518E+005  0.1043930E+01  0.7957747E-01            NaN
         13   -1    0    0    0    0  0.00000000000E+00  0.00000000000E+00  0.74505805969E-08  0.10566000000E+00  0.10566000000E+00 0.  1.
     999900   -1    0    0    0    0 -0.00000000000E+00 -0.00000000000E+00 -0.74505805969E-08  0.93827000000E+00  0.93827000000E+00 0.  1.
     999902    2    1    2    0    0  0.23493634205E-01 -0.19577558602E-02 -0.14285782077E-02  0.10203116916E+01  0.10200382951E+01 0.  0.
     999903    2    3    3    0    0 -0.10994628359E+00  0.49860668013E-01  0.36722805107E-01  0.12792898851E+00  0.21047332299E-01 0.  0.
         14    1    1    2    0    0 -0.23493634205E-01  0.19577558602E-02  0.14285782077E-02  0.23618308404E-01  0.00000000000E+00 0.  1.
     999901    1    3    3    0    0  0.13343991780E+00 -0.51818423874E-01 -0.38151383314E-01  0.89238270308E+00  0.88000000000E+00 0.  1.
        -11    1    4    4    0    0 -0.58801342534E-01  0.15489697150E-01  0.20975991532E-01  0.64325593222E-01  0.51100000000E-03 0.  1.
         11    1    4    4    0    0 -0.51144941056E-01  0.34370970863E-01  0.15746813575E-01  0.63603395291E-01  0.51100000000E-03 0. -1.
</event>
<event>
 8    1  0.1137518E+005  0.1043930E+01  0.7957747E-01            NaN
         13   -1    0    0    0    0  0.00000000000E+00  0.00000000000E+00  0.74505805969E-08  0.10566000000E+00  0.10566000000E+00 0. -1.
     999900   -1    0    0    0    0 -0.00000000000E+00 -0.00000000000E+00 -0.74505805969E-08  0.93827000000E+00  0.93827000000E+00 0. -1.
     999902    2    1    2    0    0  0.19039875061E-01 -0.74506537399E-02 -0.80133514462E-02  0.10219699707E+01  0.10217340056E+01 0.  0.
     999903    2    3    3    0    0  0.12148761176E+00  0.54149896079E-01  0.45213206197E-02  0.13379921886E+00  0.13796288314E-01 0.  0.
         14    1    1    2    0    0 -0.19039875061E-01  0.74506537399E-02  0.80133514462E-02  0.21960029255E-01  0.00000000000E+00 0. -1.
     999901    1    3    3    0    0 -0.10244773670E+00 -0.61600549819E-01 -0.12534672066E-01  0.88817075188E+00  0.88000000000E+00 0. -1.
        -11    1    4    4    0    0  0.41335447255E-01  0.14407169948E-01 -0.38305513269E-02  0.43944510353E-01  0.51100000000E-03 0.  1.
         11    1    4    4    0    0  0.80152164508E-01  0.39742726130E-01  0.83518719466E-02  0.89854708511E-01  0.51100000000E-03 0. -1.
</event>
<event>
 7    1  0.1137518E+005  0.1043930E+01  0.7957747E-01            NaN
         13   -1    0    0    0    0  0.00000000000E+00  0.00000000000E+00  0.74505805969E-08  0.10566000000E+00  0.10566000000E+00 0.  1.
     999900   -1    0    0    0    0 -0.00000000000E+00 -0.00000000000E+00 -0.74505805969E-08  0.93827000000E+00  0.93827000000E+00 0.  1.
     999903    2    1    2    0    0  0.90222065211E-01 -0.26204921545E-01  0.46761555540E-01  0.10672667790E+00  0.19422196953E-01 0.  0.
         14    1    1    2    0    0 -0.16508425725E-01  0.16355932259E-01  0.43649912960E-01  0.49450576754E-01  0.00000000000E+00 0.  1.
     999901    1    1    2    0    0 -0.73713639486E-01  0.98489892868E-02 -0.90411468499E-01  0.88775274535E+00  0.88000000000E+00 0.  1.
        -11    1    3    3    0    0  0.52072443580E-01 -0.58016257166E-02  0.21587746971E-01  0.56670011308E-01  0.51100000000E-03 0. -1.
         11    1    3    3    0    0  0.38149621631E-01 -0.20403295829E-01  0.25173808568E-01  0.50056666590E-01  0.51100000000E-03 0.  1.
</event>
<event>
 8    1  0.1137518E+005  0.1043930E+01  0.7957747E-01            NaN
         13   -1    0    0    0    0  0.00000000000E+00  0.00000000000E+00  0.74505805969E-08  0.10566000000E+00  0.10566000000E+00 0. -1.
     999900   -1    0    0    0    0 -0.00000000000E+00 -0.00000000000E+00 -0.74505805969E-08  0.93827000000E+00  0.93827000000E+00 0. -1.
     999902    2    1    2    0    0  0.33975190837E-02 -0.15618050637E-01  0.16396432663E-01  0.10210321912E+01  0.10207754042E+01 0.  0.
     999903    2    3    3    0    0 -0.10561428488E+00 -0.11575460967E-01  0.76531349451E-01  0.13225993462E+00  0.18635299569E-01 0.  0.
         14    1    1    2    0    0 -0.33975190837E-02  0.15618050637E-01 -0.16396432663E-01  0.22897808753E-01  0.00000000000E+00 0. -1.
     999901    1    3    3    0    0  0.10901180396E+00 -0.40425896695E-02 -0.60134916789E-01  0.88877225663E+00  0.88000000000E+00 0. -1.
        -11    1    4    4    0    0 -0.65076098925E-01 -0.99391035491E-02  0.36557075124E-01  0.75301827954E-01  0.51100000000E-03 0. -1.
         11    1    4    4    0    0 -0.40538185952E-01 -0.16363574181E-02  0.39974274327E-01  0.56958106665E-01  0.51100000000E-03 0.  1.
</event>
<event>
 8    1  0.1137518E+005  0.1043930E+01  0.7957747E-01            NaN
         13   -1    0    0    0    0  0.00000000000E+00  0.00000000000E+00  0.74505805969E-08  0.10566000000E+00  0.10566000000E+00 0.  1.
     999900   -1    0    0    0    0 -0.00000000000E+00 -0.00000000000E+00 -0.74505805969E-08  0.93827000000E+00  0.93827000000E+00 0. -1.
     999902    2    1    2    0    0  0.47626091818E-02 -0.16011617649E-01  0.16134542094E-01  0.10207054915E+01  0.10204412392E+01 0.  0.
     999903    2    3    3    0    0  0.54780763197E-01 -0.11476873282E+00 -0.30537515123E-01  0.13254274491E+00  0.21499891839E-01 0.  0.
         14    1    1    2    0    0 -0.47626091818E-02  0.16011617649E-01 -0.16134542094E-01  0.23224508488E-01  0.00000000000E+00 0. -1.
     999901    1    3    3    0    0 -0.50018154015E-01  0.98757115170E-01  0.46672057217E-01  0.88816274660E+00  0.88000000000E+00 0. -1.
        -11    1    4    4    0    0  0.55429910859E-01 -0.10612623300E+00 -0.25208997671E-01  0.12235606660E+00  0.51100000000E-03 0.  1.
         11    1    4    4    0    0 -0.64914766199E-03 -0.86424998170E-02 -0.53285174522E-02  0.10186678311E-01  0.51100000000E-03 0. -1.
</event>
<event>
 8    1  0.1137518E+005  0.1043930E+01  0.7957747E-01            NaN
         13   -1    0    0    0    0  0.00000000000E+00  0.00000000000E+00  0.74505805969E-08  0.10566000000E+00  0.10566000000E+00 0.  1.
     999900   -1    0    0    0    0 -0.00000000000E+00 -0.00000000000E+00 -0.74505805969E-08  0.93827000000E+00  0.93827000000E+00 0.  1.
     999902    2    1    2    0    0  0.28377921942E-02 -0.16463892843E-01  0.16690788460E-01  0.10203144278E+01  0.10200410954E+01 0.  0.
     999903    2    3    3    0    0  0.11025056263E+00 -0.63405568646E-01 -0.26400977032E-01  0.13149615364E+00  0.20463971738E-01 0.  0.
         14    1    1    2    0    0 -0.28377921942E-02  0.16463892843E-01 -0.16690788460E-01  0.23615572225E-01  0.00000000000E+00 0. -1.
     999901    1    3    3    0    0 -0.10741277043E+00  0.46941675803E-01  0.43091765492E-01  0.88881827413E+00  0.88000000000E+00 0. -1.
        -11    1    4    4    0    0  0.86501041284E-01 -0.47327887899E-01 -0.11792261277E-01  0.99305979997E-01  0.51100000000E-03 0. -1.
         11    1    4    4    0    0  0.23749521344E-01 -0.16077680747E-01 -0.14608715755E-01  0.32190173645E-01  0.51100000000E-03 0.  1.
</event>
<event>
 8    1  0.1137518E+005  0.1043930E+01  0.7957747E-01            NaN
         13   -1    0    0    0    0  0.00000000000E+00  0.00000000000E+00  0.74505805969E-08  0.10566000000E+00  0.10566000000E+00 0. -1.
     999900   -1    0    0    0    0 -0.00000000000E+00 -0.00000000000E+00 -0.74505805969E-08  0.93827000000E+00  0.93827000000E+00 0.  1.
     999902    2    1    2    0    0 -0.15520813880E-01 -0.13985251056E-02 -0.20489001824E-01  0.10181879967E+01  0.10178625379E+01 0.  0.
     999903    2    3    3    0    0  0.33969251848E-01 -0.13647450073E-01 -0.12390455981E+00  0.13066668410E+00  0.19526377710E-01 0.  0.
         14    1    1    2    0    0  0.15520813880E-01  0.13985251056E-02  0.20489001824E-01  0.25742003257E-01  0.00000000000E+00 0.  1.
     999901    1    3    3    0    0 -0.49490065728E-01  0.12248924967E-01  0.10341555799E+00  0.88752131265E+00  0.88000000000E+00 0. -1.
        -11    1    4    4    0    0  0.54922054947E-02  0.45590927796E-02 -0.30654379718E-01  0.31478592171E-01  0.51100000000E-03 0.  1.
         11    1    4    4    0    0  0.28477046353E-01 -0.18206542852E-01 -0.93250180091E-01  0.99188091925E-01  0.51100000000E-03 0. -1.
</event>
<event>
 8    1  0.1137518E+005  0.1043930E+01  0.7957747E-01            NaN
         13   -1    0    0    0    0  0.00000000000E+00  0.00000000000E+00  0.74505805969E-08  0.10566000000E+00  0.10566000000E+00 0.  1.
     999900   -1    0    0    0    0 -0.00000000000E+00 -0.00000000000E+00 -0.74505805969E-08  0.93827000000E+00  0.93827000000E+00 0.  1.
     999902    2    1    2    0    0  0.20576053365E-01  0.12945646889E-01 -0.74148304480E-02  0.10185145823E+01  0.10181974322E+01 0.  0.
     999903    2    3    3    0    0 -0.47194633699E-01  0.57549655888E-01  0.10241381377E+00  0.12798400186E+00  0.18762173066E-01 0.  0.
         14    1    1    2    0    0 -0.20576053365E-01 -0.12945646889E-01  0.74148304480E-02  0.25415417683E-01  0.00000000000E+00 0. -1.
     999901    1    3    3    0    0  0.67770687064E-01 -0.44604009000E-01 -0.10982864422E+00  0.89053058046E+00  0.88000000000E+00 0. -1.
        -11    1    4    4    0    0 -0.76773082722E-02  0.19308971499E-01  0.19567669219E-01  0.28547018099E-01  0.51100000000E-03 0.  1.
         11    1    4    4    0    0 -0.39517325427E-01  0.38240684389E-01  0.82846144548E-01  0.99436983758E-01  0.51100000000E-03 0. -1.
</event>
<event>
 8    1  0.1137518E+005  0.1043930E+01  0.7957747E-01            NaN
         13   -1    0    0    0    0  0.00000000000E+00  0.00000000000E+00  0.74505805969E-08  0.10566000000E+00  0.10566000000E+00 0.  1.
     999900   -1    0    0    0    0 -0.00000000000E+00 -0.00000000000E+00 -0.74505805969E-08  0.93827000000E+00  0.93827000000E+00 0.  1.
     999902    2    1    2    0    0  0.79077304194E-03 -0.10643619194E-01 -0.21568699813E-01  0.10198650719E+01  0.10195811121E+01 0.  0.
     999903    2    3    3    0    0 -0.11258124443E-02 -0.12980315108E+00  0.12770965248E-02  0.13153821893E+00  0.21226082522E-01 0.  0.
         14    1    1    2    0    0 -0.79077304194E-03  0.10643619194E-01  0.21568699813E-01  0.24064928073E-01  0.00000000000E+00 0.  1.
     999901    1    3    3    0    0  0.19165854862E-02  0.11915953189E+00 -0.22845796338E-01  0.88832685299E+00  0.88000000000E+00 0.  1.
        -11    1    4    4    0    0  0.21191442831E-02 -0.54442335409E-01  0.10677600989E-01  0.55522346322E-01  0.51100000000E-03 0.  1.
         11    1    4    4    0    0 -0.32449567274E-02 -0.75360815676E-01 -0.94005044643E-02  0.76015872610E-01  0.51100000000E-03 0. -1.
</event>
<event>
 8    1  0.1137518E+005  0.1043930E+01  0.7957747E-01            NaN
         13   -1    0    0    0    0  0.00000000000E+00  0.00000000000E+00  0.74505805969E-08  0.10566000000E+00  0.10566000000E+00 0. -1.
     999900   -1    0    0    0    0 -0.00000000000E+00 -0.00000000000E+00 -0.74505805969E-08  0.93827000000E+00  0.93827000000E+00 0. -1.
     999902    2    1    2    0    0 -0.18008711460E-01  0.20255687409E-01 -0.17318989858E-01  0.10117655169E+01  0.10112541260E+01 0.  0.
     999903    2    3    3    0    0 -0.71163058553E-01 -0.96210198959E-01  0.19088183677E-01  0.12175699474E+00  0.11824708275E-01 0.  0.
         14    1    1    2    0    0  0.18008711460E-01 -0.20255687409E-01  0.17318989858E-01  0.32164483061E-01  0.00000000000E+00 0.  1.
     999901    1    3    3    0    0  0.53154347093E-01  0.11646588637E+00 -0.36407173535E-01  0.89000852220E+00  0.88000000000E+00 0.  1.
        -11    1    4    4    0    0 -0.50798967471E-01 -0.69978133427E-01  0.84671090221E-02  0.86887440463E-01  0.51100000000E-03 0.  1.
         11    1    4    4    0    0 -0.20364091082E-01 -0.26232065532E-01  0.10621074655E-01  0.34869554277E-01  0.51100000000E-03 0. -1.
</event>
<event>
 8    1  0.1137518E+005  0.1043930E+01  0.7957747E-01            NaN
         13   -1    0    0    0    0  0.00000000000E+00  0.00000000000E+00  0.74505805969E-08  0.10566000000E+00  0.10566000000E+00 0. -1.
     999900   -1    0    0    0    0 -0.00000000000E+00 -0.00000000000E+00 -0.74505805969E-08  0.93827000000E+00  0.93827000000E+00 0. -1.
     999902    2    1    2    0    0  0.12035499721E-01 -0.32705849532E-02 -0.14864718544E-01  0.10245261386E+01  0.10243423738E+01 0.  0.
     999903    2    3    3    0    0  0.98638368236E-01 -0.16089976701E-01  0.86971300824E-01  0.13433797396E+00  0.22232162342E-01 0.  0.
         14    1    1    2    0    0 -0.12035499721E-01  0.32705849532E-02  0.14864718544E-01  0.19403861390E-01  0.00000000000E+00 0. -1.
     999901    1    3    3    0    0 -0.86602868516E-01  0.12819391748E-01 -0.10183601937E+00  0.89018816465E+00  0.88000000000E+00 0. -1.
        -11    1    4    4    0    0  0.30148760930E-01 -0.88271228479E-02  0.40470580952E-01  0.51234704322E-01  0.51100000000E-03 0. -1.
         11    1    4    4    0    0  0.68489607307E-01 -0.72628538529E-02  0.46500719872E-01  0.83103269639E-01  0.51100000000E-03 0.  1.
</event>
<event>
 8    1  0.1137518E+005  0.1043930E+01  0.7957747E-01            NaN
         13   -1    0    0    0    0  0.00000000000E+00  0.00000000000E+00  0.74505805969E-08  0.10566000000E+00  0.10566000000E+00 0.  1.
     999900   -1    0    0    0    0 -0.00000000000E+00 -0.00000000000E+00 -0.74505805969E-08  0.93827000000E+00  0.93827000000E+00 0.  1.
     999902    2    1    2    0    0  0.18328728670E-01 -0.12317784362E-01 -0.10546766305E-01  0.10194574769E+01  0.10191636978E+01 0.  0.
     999903    2    3    3    0    0 -0.12374599746E+00  0.21534381159E-01  0.15326729436E-02  0.12733802877E+00  0.20876374821E-01 0.  0.
         14    1    1    2    0    0 -0.18328728670E-01  0.12317784362E-01  0.10546766305E-01  0.24472523077E-01  0.00000000000E+00 0. -1.
     999901    1    3    3    0    0  0.14207472613E+00 -0.33852165521E-01 -0.12079439249E-01  0.89211944815E+00  0.88000000000E+00 0.  1.
        -11    1    4    4    0    0 -0.41037542767E-01  0.16966754381E-02 -0.76703929687E-02  0.41785819044E-01  0.51100000000E-03 0.  1.
         11    1    4    4    0    0 -0.82708454695E-01  0.19837705720E-01  0.92030659122E-02  0.85552209729E-01  0.51100000000E-03 0. -1.
</event>
<event>
 8    1  0.1137518E+005  0.1043930E+01  0.7957747E-01            NaN
         13   -1    0    0    0    0  0.00000000000E+00  0.00000000000E+00  0.74505805969E-08  0.10566000000E+00  0.10566000000E+00 0. -1.
     999900   -1    0    0    0    0 -0.00000000000E+00 -0.00000000000E+00 -0.74505805969E-08  0.93827000000E+00  0.93827000000E+00 0.  1.
     999902    2    1    2    0    0 -0.21568458074E-02  0.25293547566E-01 -0.10300391862E-02  0.10185237702E+01  0.10182068522E+01 0.  0.
     999903    2    3    3    0    0 -0.53161652143E-01 -0.11250999507E+00  0.85093409651E-02  0.12628932432E+00  0.19797078134E-01 0.  0.
         14    1    1    2    0    0  0.21568458074E-02 -0.25293547566E-01  0.10300391862E-02  0.25406229807E-01  0.00000000000E+00 0. -1.
     999901    1    3    3    0    0  0.51004806336E-01  0.13780354264E+00 -0.95393801514E-02  0.89223444588E+00  0.88000000000E+00 0. -1.
        -11    1    4    4    0    0 -0.28240547309E-01 -0.73221432234E-01  0.12979570209E-01  0.79546445644E-01  0.51100000000E-03 0. -1.
         11    1    4    4    0    0 -0.24921104834E-01 -0.39288562840E-01 -0.44702292440E-02  0.46742878673E-01  0.51100000000E-03 0.  1.
</event>
<event>
 8    1  0.1137518E+005  0.1043930E+01  0.7957747E-01            NaN
         13   -1    0    0    0    0  0.00000000000E+00  0.00000000000E+00  0.74505805969E-08  0.10566000000E+00  0.10566000000E+00 0. -1.
     999900   -1    0    0    0    0 -0.00000000000E+00 -0.00000000000E+00 -0.74505805969E-08  0.93827000000E+00  0.93827000000E+00 0.  1.
     999902    2    1    2    0    0  0.28633656605E-02  0.23479312678E-01  0.21480543496E-02  0.10201793974E+01  0.10199028933E+01 0.  0.
     999903    2    3    3    0    0 -0.11905333006E+00 -0.39010481422E-01  0.24572249644E-01  0.12929696991E+00  0.20454777373E-01 0.  0.
         14    1    1    2    0    0 -0.28633656605E-02 -0.23479312678E-01 -0.21480543496E-02  0.23750602608E-01  0.00000000000E+00 0.  1.
     999901    1    3    3    0    0  0.12191669572E+00  0.62489794100E-01 -0.22424195295E-01  0.89088242748E+00  0.88000000000E+00 0.  1.
        -11    1    4    4    0    0 -0.72732204667E-01 -0.16672949236E-01  0.69944207488E-02  0.74947607530E-01  0.51100000000E-03 0. -1.
         11    1    4    4    0    0 -0.46321125389E-01 -0.22337532186E-01  0.17577828895E-01  0.54349362381E-01  0.51100000000E-03 0.  1.
</event>
<event>
 8    1  0.1137518E+005  0.1043930E+01  0.7957747E-01            NaN
         13   -1    0    0    0    0  0.00000000000E+00  0.00000000000E+00  0.74505805969E-08  0.10566000000E+00  0.10566000000E+00 0.  1.
     999900   -1    0    0    0    0 -0.00000000000E+00 -0.00000000000E+00 -0.74505805969E-08  0.93827000000E+00  0.93827000000E+00 0. -1.
     999902    2    1    2    0    0 -0.10070277987E-01  0.12835275971E-01 -0.24984365153E-01  0.10140908762E+01  0.10136517804E+01 0.  0.
     999903    2    3    3    0    0  0.87540726534E-02 -0.12031050872E+00 -0.19915255358E-01  0.12386177532E+00  0.19846150544E-01 0.  0.
         14    1    1    2    0    0  0.10070277987E-01 -0.12835275971E-01  0.24984365153E-01  0.29839123816E-01  0.00000000000E+00 0.  1.
     999901    1    3    3    0    0 -0.18824350640E-01  0.13314578469E+00 -0.50691097949E-02  0.89022910087E+00  0.88000000000E+00 0.  1.
        -11    1    4    4    0    0  0.94655899459E-02 -0.91913563329E-01 -0.70366697613E-02  0.92668637409E-01  0.51100000000E-03 0. -1.
         11    1    4    4    0    0 -0.71151729254E-03 -0.28396945393E-01 -0.12878585597E-01  0.31193137907E-01  0.51100000000E-03 0.  1.
</event>
<event>
 8    1  0.1137518E+005  0.1043930E+01  0.7957747E-01            NaN
         13   -1    0    0    0    0  0.00000000000E+00  0.00000000000E+00  0.74505805969E-08  0.10566000000E+00  0.10566000000E+00 0. -1.
     999900   -1    0    0    0    0 -0.00000000000E+00 -0.00000000000E+00 -0.74505805969E-08  0.93827000000E+00  0.93827000000E+00 0. -1.
     999902    2    1    2    0    0 -0.21187637361E-01  0.18111591453E-01 -0.36417492760E-02  0.10158193604E+01  0.10154303348E+01 0.  0.
     999903    2    3    3    0    0  0.86079794352E-01 -0.49120489887E-02 -0.88244189127E-01  0.12498045084E+00  0.19980414326E-01 0.  0.
         14    1    1    2    0    0  0.21187637361E-01 -0.18111591453E-01  0.36417492760E-02  0.28110639617E-01  0.00000000000E+00 0. -1.
     999901    1    3    3    0    0 -0.10726743171E+00  0.23023640442E-01  0.84602439851E-01  0.89083890954E+00  0.88000000000E+00 0.  1.
        -11    1    4    4    0    0  0.18029010167E-01  0.16794043160E-02 -0.30564083568E-01  0.35528719817E-01  0.51100000000E-03 0.  1.
         11    1    4    4    0    0  0.68050784185E-01 -0.65914533048E-02 -0.57680105560E-01  0.89451731024E-01  0.51100000000E-03 0. -1.
</event>
<event>
 8    1  0.1137518E+005  0.1043930E+01  0.7957747E-01            NaN
         13   -1    0    0    0    0  0.00000000000E+00  0.00000000000E+00  0.74505805969E-08  0.10566000000E+00  0.10566000000E+00 0. -1.
     999900   -1    0    0    0    0 -0.00000000000E+00 -0.00000000000E+00 -0.74505805969E-08  0.93827000000E+00  0.93827000000E+00 0.  1.
     999902    2    1    2    0    0  0.15230323803E-01 -0.17224437530E-01 -0.65756491473E-02  0.10200159210E+01  0.10197355520E+01 0.  0.
     999903    2    3    3    0    0 -0.80551015348E-01 -0.92307968698E-02 -0.99597906524E-01  0.12990856594E+00  0.19565756704E-01 0.  0.
         14    1    1    2    0    0 -0.15230323803E-01  0.17224437530E-01  0.65756491473E-02  0.23914078972E-01  0.00000000000E+00 0. -1.
     999901    1    3    3    0    0  0.95781339151E-01 -0.79936406600E-02  0.93022257376E-01  0.89010735509E+00  0.88000000000E+00 0. -1.
        -11    1    4    4    0    0 -0.46994672415E-01 -0.14887524055E-01 -0.61574593945E-01  0.78878573442E-01  0.51100000000E-03 0. -1.
         11    1    4    4    0    0 -0.33556342933E-01  0.56567271847E-02 -0.38023312579E-01  0.51029992494E-01  0.51100000000E-03 0.  1.
</event>
<event>
 8    1  0.1137518E+005  0.1043930E+01  0.7957747E-01            NaN
         13   -1    0    0    0    0  0.00000000000E+00  0.00000000000E+00  0.74505805969E-08  0.10566000000E+00  0.10566000000E+00 0. -1.
     999900   -1    0    0    0    0 -0.00000000000E+00 -0.00000000000E+00 -0.74505805969E-08  0.93827000000E+00  0.93827000000E+00 0.  1.
     999902    2    1    2    0    0  0.15050040597E-01 -0.17217696286E-01 -0.51354402055E-02  0.10204923053E+01  0.10202231225E+01 0.  0.
     999903    2    3    3    0    0  0.91831550663E-01  0.56182808576E-01  0.71800441900E-01  0.13077203219E+00  0.18880658606E-01 0.  0.
         14    1    1    2    0    0 -0.15050040597E-01  0.17217696286E-01  0.51354402055E-02  0.23437694714E-01  0.00000000000E+00 0. -1.
     999901    1    3    3    0    0 -0.76781510066E-01 -0.73400504863E-01 -0.76935882106E-01  0.88972027310E+00  0.88000000000E+00 0.  1.
        -11    1    4    4    0    0  0.20255688942E-01  0.40670403082E-02  0.15716624333E-01  0.25963573576E-01  0.51100000000E-03 0.  1.
         11    1    4    4    0    0  0.71575861721E-01  0.52115768268E-01  0.56083817567E-01  0.10480845861E+00  0.51100000000E-03 0. -1.
</event>
<event>
 7    1  0.1137518E+005  0.1043930E+01  0.7957747E-01            NaN
         13   -1    0    0    0    0  0.00000000000E+00  0.00000000000E+00  0.74505805969E-08  0.10566000000E+00  0.10566000000E+00 0.  1.
     999900   -1    0    0    0    0 -0.00000000000E+00 -0.00000000000E+00 -0.74505805969E-08  0.93827000000E+00  0.93827000000E+00 0. -1.
     999903    2    1    2    0    0 -0.65268471655E-01  0.19550528297E-01  0.47407871554E-01  0.85193894607E-01  0.19191061573E-01 0.  0.
         14    1    1    2    0    0 -0.24404281416E-01 -0.31699440953E-01  0.55191929064E-01  0.68165772511E-01  0.00000000000E+00 0.  1.
     999901    1    1    2    0    0  0.89672753071E-01  0.12148912656E-01 -0.10259980062E+00  0.89057033288E+00  0.88000000000E+00 0. -1.
        -11    1    3    3    0    0 -0.12062781892E-01 -0.10207142944E-02  0.16008680743E-01  0.20077139856E-01  0.51100000000E-03 0. -1.
         11    1    3    3    0    0 -0.53205689762E-01  0.20571242591E-01  0.31399190811E-01  0.65116754752E-01  0.51100000000E-03 0.  1.
</event>
<event>
 8    1  0.1137518E+005  0.1043930E+01  0.7957747E-01            NaN
         13   -1    0    0    0    0  0.00000000000E+00  0.00000000000E+00  0.74505805969E-08  0.10566000000E+00  0.10566000000E+00 0.  1.
     999900   -1    0    0    0    0 -0.00000000000E+00 -0.00000000000E+00 -0.74505805969E-08  0.93827000000E+00  0.93827000000E+00 0. -1.
     999902    2    1    2    0    0 -0.13363771987E-01  0.17045168582E-01  0.98925464184E-02  0.10201184346E+01  0.10198404924E+01 0.  0.
     999903    2    3    3    0    0  0.10122514339E-02 -0.11085934699E+00  0.60464136136E-01  0.12931895049E+00  0.27868615473E-01 0.  0.
         14    1    1    2    0    0  0.13363771987E-01 -0.17045168582E-01 -0.98925464184E-02  0.23811565432E-01  0.00000000000E+00 0.  1.
     999901    1    3    3    0    0 -0.14376023421E-01  0.12790451557E+00 -0.50571589718E-01  0.89079948408E+00  0.88000000000E+00 0. -1.
        -11    1    4    4    0    0  0.49815763775E-02 -0.73692953873E-01  0.25517569095E-01  0.78146497088E-01  0.51100000000E-03 0.  1.
         11    1    4    4    0    0 -0.39693249436E-02 -0.37166393117E-01  0.34946567041E-01  0.51172453398E-01  0.51100000000E-03 0. -1.
</event>
<event>
 8    1  0.1137518E+005  0.1043930E+01  0.7957747E-01            NaN
         13   -1    0    0    0    0  0.00000000000E+00  0.00000000000E+00  0.74505805969E-08  0.10566000000E+00  0.10566000000E+00 0. -1.
     999900   -1    0    0    0    0 -0.00000000000E+00 -0.00000000000E+00 -0.74505805969E-08  0.93827000000E+00  0.93827000000E+00 0.  1.
     999902    2    1    2    0    0  0.13719713031E-01 -0.11165004373E-01  0.16661819541E-01  0.10196297103E+01  0.10193401013E+01 0.  0.
     999903    2    3    3    0    0  0.10483443820E+00 -0.11996325022E-01  0.78133072555E-01  0.13279190148E+00  0.19868085569E-01 0.  0.
         14    1    1    2    0    0 -0.13719713031E-01  0.11165004373E-01 -0.16661819541E-01  0.24300289684E-01  0.00000000000E+00 0.  1.
     999901    1    3    3    0    0 -0.91114725171E-01  0.83132064910E-03 -0.61471253014E-01  0.88683780884E+00  0.88000000000E+00 0.  1.
        -11    1    4    4    0    0  0.60947692651E-01 -0.13329286139E-01  0.36502027537E-01  0.72283817302E-01  0.51100000000E-03 0. -1.
         11    1    4    4    0    0  0.43886745551E-01  0.13329611168E-02  0.41631045018E-01  0.60508084176E-01  0.51100000000E-03 0.  1.
</event>
<event>
 8    1  0.1137518E+005  0.1043930E+01  0.7957747E-01            NaN
         13   -1    0    0    0    0  0.00000000000E+00  0.00000000000E+00  0.74505805969E-08  0.10566000000E+00  0.10566000000E+00 0. -1.
     999900   -1    0    0    0    0 -0.00000000000E+00 -0.00000000000E+00 -0.74505805969E-08  0.93827000000E+00  0.93827000000E+00 0.  1.
     999902    2    1    2    0    0 -0.21600501329E-01  0.23422514199E-02  0.92509002584E-02  0.10203154504E+01  0.10200421419E+01 0.  0.
     999903    2    3    3    0    0  0.10490782704E+00 -0.70923564736E-01 -0.28062793416E-02  0.12817330218E+00  0.19614178046E-01 0.  0.
         14    1    1    2    0    0  0.21600501329E-01 -0.23422514199E-02 -0.92509002584E-02  0.23614549645E-01  0.00000000000E+00 0.  1.
     999901    1    3    3    0    0 -0.12650832837E+00  0.73265816156E-01  0.12057179600E-01  0.89214214817E+00  0.88000000000E+00 0.  1.
        -11    1    4    4    0    0  0.45038294774E-01 -0.26686322281E-01  0.79673981214E-02  0.52956098297E-01  0.51100000000E-03 0.  1.
         11    1    4    4    0    0  0.59869532262E-01 -0.44237242456E-01 -0.10773677463E-01  0.75217203886E-01  0.51100000000E-03 0. -1.
</event>
<event>
 8    1  0.1137518E+005  0.1043930E+01  0.7957747E-01            NaN
         13   -1    0    0    0    0  0.00000000000E+00  0.00000000000E+00  0.74505805969E-08  0.10566000000E+00  0.10566000000E+00 0.  1.
     999900   -1    0    0    0    0 -0.00000000000E+00 -0.00000000000E+00 -0.74505805969E-08  0.93827000000E+00  0.93827000000E+00 0.  1.
     999902    2    1    2    0    0 -0.17645010720E-01  0.15413593246E-01  0.38775261573E-02  0.10201821481E+01  0.10199057088E+01 0.  0.
     999903    2    3    3    0    0 -0.69045040555E-01 -0.43792104112E-01 -0.99896159432E-01  0.13062256299E+00  0.19951072272E-01 0.  0.
         14    1    1    2    0    0  0.17645010720E-01 -0.15413593246E-01 -0.38775261573E-02  0.23747851886E-01  0.00000000000E+00 0.  1.
     999901    1    3    3    0    0  0.51400029835E-01  0.59205697359E-01  0.10377368559E+00  0.88955958512E+00  0.88000000000E+00 0. -1.
        -11    1    4    4    0    0 -0.22583137397E-01 -0.18573504387E-01 -0.50017538346E-01  0.57939523842E-01  0.51100000000E-03 0. -1.
         11    1    4    4    0    0 -0.46461903158E-01 -0.25218599726E-01 -0.49878621086E-01  0.72683039147E-01  0.51100000000E-03 0.  1.
</event>
<event>
 8    1  0.1137518E+005  0.1043930E+01  0.7957747E-01            NaN
         13   -1    0    0    0    0  0.00000000000E+00  0.00000000000E+00  0.74505805969E-08  0.10566000000E+00  0.10566000000E+00 0. -1.
     999900   -1    0    0    0    0 -0.00000000000E+00 -0.00000000000E+00 -0.74505805969E-08  0.93827000000E+00  0.93827000000E+00 0. -1.
     999902    2    1    2    0    0  0.21204784590E-01 -0.92637117552E-02  0.41807460526E-02  0.10204153688E+01  0.10201443951E+01 0.  0.
     999903    2    3    3    0    0 -0.61069452636E-01  0.17047394480E-01 -0.11029754535E+00  0.12880637170E+00  0.20135569942E-01 0.  0.
         14    1    1    2    0    0 -0.21204784590E-01  0.92637117552E-02 -0.41807460526E-02  0.23514631244E-01  0.00000000000E+00 0.  1.
     999901    1    3    3    0    0  0.82274237226E-01 -0.26311106235E-01  0.11447829140E+00  0.89160899705E+00  0.88000000000E+00 0.  1.
        -11    1    4    4    0    0 -0.54390103860E-01  0.19133159589E-01 -0.86187523374E-01  0.10369624632E+00  0.51100000000E-03 0.  1.
         11    1    4    4    0    0 -0.66793487755E-02 -0.20857651092E-02 -0.24110021978E-01  0.25110125386E-01  0.51100000000E-03 0. -1.
</event>
<event>
 7    1  0.1137518E+005  0.1043930E+01  0.7957747E-01            NaN
         13   -1    0    0    0    0  0.00000000000E+00  0.00000000000E+00  0.74505805969E-08  0.10566000000E+00  0.10566000000E+00 0.  1.
     999900   -1    0    0    0    0 -0.00000000000E+00 -0.00000000000E+00 -0.74505805969E-08  0.93827000000E+00  0.93827000000E+00 0. -1.
     999903    2    1    2    0    0 -0.30889766600E-01 -0.51096544436E-01 -0.58584716718E-01  0.85935893473E-01  0.19691983651E-01 0.  0.
         14    1    1    2    0    0 -0.26690375673E-01  0.36559416749E-01 -0.52165215881E-01  0.69066466932E-01  0.00000000000E+00 0. -1.
     999901    1    1    2    0    0  0.57580142273E-01  0.14537127686E-01  0.11074993260E+00  0.88892763960E+00  0.88000000000E+00 0.  1.
        -11    1    3    3    0    0 -0.32771684879E-01 -0.46283025932E-01 -0.48629369640E-01  0.74707285668E-01  0.51100000000E-03 0. -1.
         11    1    3    3    0    0  0.18819182791E-02 -0.48135185039E-02 -0.99553470780E-02  0.11228607805E-01  0.51100000000E-03 0.  1.
</event>
<event>
 8    1  0.1137518E+005  0.1043930E+01  0.7957747E-01            NaN
         13   -1    0    0    0    0  0.00000000000E+00  0.00000000000E+00  0.74505805969E-08  0.10566000000E+00  0.10566000000E+00 0.  1.
     999900   -1    0    0    0    0 -0.00000000000E+00 -0.00000000000E+00 -0.74505805969E-08  0.93827000000E+00  0.93827000000E+00 0. -1.
     999902    2    1    2    0    0 -0.72447072763E-02 -0.11869170177E-01 -0.21036971552E-01  0.10187126021E+01  0.10184004362E+01 0.  0.
     999903    2    3    3    0    0  0.48360851751E-02  0.12066741148E+00 -0.38763138707E-01  0.12852941421E+00  0.20813877155E-01 0.  0.
         14    1    1    2    0    0  0.72447072763E-02  0.11869170177E-01  0.21036971552E-01  0.25217397889E-01  0.00000000000E+00 0. -1.
     999901    1    3    3    0    0 -0.12080792451E-01 -0.13253658165E+00  0.17726167155E-01  0.89018318790E+00  0.88000000000E+00 0.  1.
        -11    1    4    4    0    0  0.12551144394E-01  0.85944567413E-01 -0.24970263970E-01  0.90375743965E-01  0.51100000000E-03 0. -1.
         11    1    4    4    0    0 -0.77150592188E-02  0.34722844063E-01 -0.13792874737E-01  0.38153670244E-01  0.51100000000E-03 0.  1.
</event>
<event>
 8    1  0.1216340E+005  0.1043930E+01  0.7957747E-01            NaN
         13   -1    0    0    0    0  0.00000000000E+00  0.00000000000E+00  0.74505805969E-08  0.10566000000E+00  0.10566000000E+00 0.  1.
     999900   -1    0    0    0    0 -0.00000000000E+00 -0.00000000000E+00 -0.74505805969E-08  0.93827000000E+00  0.93827000000E+00 0.  1.
     999902    2    1    2    0    0  0.47264551484E-02  0.22679512730E-01  0.46212810051E-02  0.10203067929E+01  0.10200332817E+01 0.  0.
     999903    2    3    3    0    0  0.12769579560E+00 -0.19082718581E-01 -0.12915336316E-02  0.13075606132E+00  0.20618272244E-01 0.  0.
         14    1    1    2    0    0 -0.47264551484E-02 -0.22679512730E-01 -0.46212810051E-02  0.23623207108E-01  0.00000000000E+00 0. -1.
     999901    1    3    3    0    0 -0.12296934046E+00  0.41762231311E-01  0.59128146367E-02  0.88955073157E+00  0.88000000000E+00 0. -1.
        -11    1    4    4    0    0  0.44223102830E-01  0.11931743167E-02  0.55188820183E-02  0.44585038618E-01  0.51100000000E-03 0. -1.
         11    1    4    4    0    0  0.83472692775E-01 -0.20275892897E-01 -0.68104156499E-02  0.86171022706E-01  0.51100000000E-03 0.  1.
</event>
<event>
 8    1  0.1137518E+005  0.1043930E+01  0.7957747E-01            NaN
         13   -1    0    0    0    0  0.00000000000E+00  0.00000000000E+00  0.74505805969E-08  0.10566000000E+00  0.10566000000E+00 0.  1.
     999900   -1    0    0    0    0 -0.00000000000E+00 -0.00000000000E+00 -0.74505805969E-08  0.93827000000E+00  0.93827000000E+00 0. -1.
     999902    2    1    2    0    0 -0.23488405070E-01  0.40237186245E-02  0.24970661026E-02  0.10199689728E+01  0.10196874887E+01 0.  0.
     999903    2    3    3    0    0  0.61711508984E-01 -0.25427006408E-02 -0.11103330214E+00  0.12857047174E+00  0.19677305475E-01 0.  0.
         14    1    1    2    0    0  0.23488405070E-01 -0.40237186245E-02 -0.24970661026E-02  0.23961027178E-01  0.00000000000E+00 0. -1.
     999901    1    3    3    0    0 -0.85199914055E-01  0.65664192653E-02  0.11353036825E+00  0.89139850108E+00  0.88000000000E+00 0.  1.
        -11    1    4    4    0    0  0.35641865668E-01 -0.47367061621E-02 -0.45414659821E-01  0.57926949007E-01  0.51100000000E-03 0. -1.
         11    1    4    4    0    0  0.26069643316E-01  0.21940055213E-02 -0.65618642323E-01  0.70643522733E-01  0.51100000000E-03 0.  1.
</event>
<event>
 8    1  0.1137518E+005  0.1043930E+01  0.7957747E-01            NaN
         13   -1    0    0    0    0  0.00000000000E+00  0.00000000000E+00  0.74505805969E-08  0.10566000000E+00  0.10566000000E+00 0. -1.
     999900   -1    0    0    0    0 -0.00000000000E+00 -0.00000000000E+00 -0.74505805969E-08  0.93827000000E+00  0.93827000000E+00 0. -1.
     999902    2    1    2    0    0  0.14909001270E-01 -0.15571831595E-01 -0.96136216681E-02  0.10203252975E+01  0.10200522196E+01 0.  0.
     999903    2    3    3    0    0  0.51956532317E-01  0.40598670374E-01  0.10960545664E+00  0.12974075156E+00  0.21715736321E-01 0.  0.
         14    1    1    2    0    0 -0.14909001270E-01  0.15571831595E-01  0.96136216681E-02  0.23604702491E-01  0.00000000000E+00 0. -1.
     999901    1    3    3    0    0 -0.37047531047E-01 -0.56170501969E-01 -0.11921907831E+00  0.89058454595E+00  0.88000000000E+00 0. -1.
        -11    1    4    4    0    0  0.34385069934E-01  0.16316716157E-01  0.73844497946E-01  0.83077308927E-01  0.51100000000E-03 0.  1.
         11    1    4    4    0    0  0.17571462383E-01  0.24281954217E-01  0.35760958694E-01  0.46663442635E-01  0.51100000000E-03 0. -1.
</event>
<event>
 8    1  0.1137518E+005  0.1043930E+01  0.7957747E-01            NaN
         13   -1    0    0    0    0  0.00000000000E+00  0.00000000000E+00  0.74505805969E-08  0.10566000000E+00  0.10566000000E+00 0.  1.
     999900   -1    0    0    0    0 -0.00000000000E+00 -0.00000000000E+00 -0.74505805969E-08  0.93827000000E+00  0.93827000000E+00 0. -1.
     999902    2    1    2    0    0  0.12255391852E-01 -0.17766341818E-01 -0.96730633270E-02  0.10202782414E+01  0.10200040609E+01 0.  0.
     999903    2    3    3    0    0  0.13392135857E-01  0.10630610364E+00  0.67610599990E-01  0.12821993135E+00  0.19718534176E-01 0.  0.
         14    1    1    2    0    0 -0.12255391852E-01  0.17766341818E-01  0.96730633270E-02  0.23651758607E-01  0.00000000000E+00 0.  1.
     999901    1    3    3    0    0 -0.11367440051E-02 -0.12407244546E+00 -0.77283663317E-01  0.89205831005E+00  0.88000000000E+00 0. -1.
        -11    1    4    4    0    0  0.10189533084E-02  0.52759066140E-01  0.23591860376E-01  0.57804794981E-01  0.51100000000E-03 0.  1.
         11    1    4    4    0    0  0.12373182549E-01  0.53547037498E-01  0.44018739614E-01  0.70415136365E-01  0.51100000000E-03 0. -1.
</event>
<event>
 8    1  0.1137518E+005  0.1043930E+01  0.7957747E-01            NaN
         13   -1    0    0    0    0  0.00000000000E+00  0.00000000000E+00  0.74505805969E-08  0.10566000000E+00  0.10566000000E+00 0.  1.
     999900   -1    0    0    0    0 -0.00000000000E+00 -0.00000000000E+00 -0.74505805969E-08  0.93827000000E+00  0.93827000000E+00 0. -1.
     999902    2    1    2    0    0 -0.20620106011E-02 -0.44937056857E-02  0.23640960313E-01  0.10197775616E+01  0.10194915079E+01 0.  0.
     999903    2    3    3    0    0  0.34754559629E-01 -0.59630857231E-01 -0.10570496130E+00  0.12785495686E+00  0.20239382442E-01 0.  0.
         14    1    1    2    0    0  0.20620106011E-02  0.44937056857E-02 -0.23640960313E-01  0.24152438449E-01  0.00000000000E+00 0. -1.
     999901    1    3    3    0    0 -0.36816570230E-01  0.55137151546E-01  0.12934592161E+00  0.89192260469E+00  0.88000000000E+00 0.  1.
        -11    1    4    4    0    0  0.21887279239E-01 -0.28899260492E-01 -0.71131835809E-01  0.79838708882E-01  0.51100000000E-03 0. -1.
         11    1    4    4    0    0  0.12867280390E-01 -0.30731596739E-01 -0.34573125487E-01  0.48016247976E-01  0.51100000000E-03 0.  1.
</event>
<event>
 8    1  0.1137518E+005  0.1043930E+01  0.7957747E-01            NaN
         13   -1    0    0    0    0  0.00000000000E+00  0.00000000000E+00  0.74505805969E-08  0.10566000000E+00  0.10566000000E+00 0.  1.
     999900   -1    0    0    0    0 -0.00000000000E+00 -0.00000000000E+00 -0.74505805969E-08  0.93827000000E+00  0.93827000000E+00 0.  1.
     999902    2    1    2    0    0 -0.88792554789E-02 -0.51291171408E-02  0.20747498402E-01  0.10207867999E+01  0.10205244158E+01 0.  0.
     999903    2    3    3    0    0 -0.56426954194E-01 -0.99920823910E-01 -0.59406216212E-01  0.13080316563E+00  0.20302645212E-01 0.  0.
         14    1    1    2    0    0  0.88792554789E-02  0.51291171408E-02 -0.20747498402E-01  0.23143200091E-01  0.00000000000E+00 0. -1.
     999901    1    3    3    0    0  0.47547698715E-01  0.94791706769E-01  0.80153714615E-01  0.88998363428E+00  0.88000000000E+00 0.  1.
        -11    1    4    4    0    0 -0.38646726729E-01 -0.55542888623E-01 -0.43381384969E-01  0.80379024915E-01  0.51100000000E-03 0.  1.
         11    1    4    4    0    0 -0.17780227465E-01 -0.44377935287E-01 -0.16024831243E-01  0.50424140711E-01  0.51100000000E-03 0. -1.
</event>
<event>
 8    1  0.1355292E+005  0.1043930E+01  0.7957747E-01            NaN
         13   -1    0    0    0    0  0.00000000000E+00  0.00000000000E+00  0.74505805969E-08  0.10566000000E+00  0.10566000000E+00 0.  1.
     999900   -1    0    0    0    0 -0.00000000000E+00 -0.00000000000E+00 -0.74505805969E-08  0.93827000000E+00  0.93827000000E+00 0. -1.
     999902    2    1    2    0    0  0.51525815467E-02 -0.21770951011E-01 -0.68459972640E-02  0.10205336096E+01  0.10202653857E+01 0.  0.
     999903    2    3    3    0    0  0.12514439698E+00  0.25072995988E-01 -0.21771986174E-01  0.13103084049E+00  0.20131730040E-01 0.  0.
         14    1    1    2    0    0 -0.51525815467E-02  0.21770951011E-01  0.68459972640E-02  0.23396390385E-01  0.00000000000E+00 0.  1.
     999901    1    3    3    0    0 -0.11999181543E+00 -0.46843946999E-01  0.14925988910E-01  0.88950276913E+00  0.88000000000E+00 0. -1.
        -11    1    4    4    0    0  0.63791939527E-01  0.22618724340E-01 -0.14241006634E-01  0.69167084877E-01  0.51100000000E-03 0. -1.
         11    1    4    4    0    0  0.61352457449E-01  0.24542716480E-02 -0.75309795403E-02  0.61863755611E-01  0.51100000000E-03 0.  1.
</event>
<event>
 8    1  0.1137518E+005  0.1043930E+01  0.7957747E-01            NaN
         13   -1    0    0    0    0  0.00000000000E+00  0.00000000000E+00  0.74505805969E-08  0.10566000000E+00  0.10566000000E+00 0.  1.
     999900   -1    0    0    0    0 -0.00000000000E+00 -0.00000000000E+00 -0.74505805969E-08  0.93827000000E+00  0.93827000000E+00 0.  1.
     999902    2    1    2    0    0 -0.54269218631E-02  0.22805272461E-01 -0.49439919089E-02  0.10199722249E+01  0.10196908181E+01 0.  0.
     999903    2    3    3    0    0 -0.12783023482E+00 -0.91269242897E-02 -0.17663322422E-01  0.13083555508E+00  0.19546862491E-01 0.  0.
         14    1    1    2    0    0  0.54269218631E-02 -0.22805272461E-01  0.49439919089E-02  0.23957775124E-01  0.00000000000E+00 0. -1.
     999901    1    3    3    0    0  0.12240331295E+00  0.31932196750E-01  0.12719330513E-01  0.88913666980E+00  0.88000000000E+00 0. -1.
        -11    1    4    4    0    0 -0.10644905726E+00 -0.11094062137E-01 -0.81236505200E-02  0.10733468603E+00  0.51100000000E-03 0.  1.
         11    1    4    4    0    0 -0.21381177553E-01  0.19671378476E-02 -0.95396719018E-02  0.23500869045E-01  0.51100000000E-03 0. -1.
</event>
<event>
 8    1  0.1137518E+005  0.1043930E+01  0.7957747E-01            NaN
         13   -1    0    0    0    0  0.00000000000E+00  0.00000000000E+00  0.74505805969E-08  0.10566000000E+00  0.10566000000E+00 0.  1.
     999900   -1    0    0    0    0 -0.00000000000E+00 -0.00000000000E+00 -0.74505805969E-08  0.93827000000E+00  0.93827000000E+00 0. -1.
     999902    2    1    2    0    0  0.17931509924E-02 -0.23345481528E-01 -0.14940667146E-01  0.10161550035E+01  0.10157753396E+01 0.  0.
     999903    2    3    3    0    0  0.45359851046E-02 -0.20456482616E-01  0.12208482098E+00  0.12554181365E+00  0.20420593024E-01 0.  0.
         14    1    1    2    0    0 -0.17931509924E-02  0.23345481528E-01  0.14940667146E-01  0.27774996544E-01  0.00000000000E+00 0.  1.
     999901    1    3    3    0    0 -0.27428341122E-02 -0.28889989126E-02 -0.13702548813E+00  0.89061318980E+00  0.88000000000E+00 0. -1.
        -11    1    4    4    0    0 -0.44940801115E-03  0.41187350564E-02  0.18019145304E-01  0.18496395987E-01  0.51100000000E-03 0. -1.
         11    1    4    4    0    0  0.49853931157E-02 -0.24575217672E-01  0.10406567568E+00  0.10704541767E+00  0.51100000000E-03 0.  1.
</event>
<event>
 8    1  0.1137518E+005  0.1043930E+01  0.7957747E-01            NaN
         13   -1    0    0    0    0  0.00000000000E+00  0.00000000000E+00  0.74505805969E-08  0.10566000000E+00  0.10566000000E+00 0. -1.
     999900   -1    0    0    0    0 -0.00000000000E+00 -0.00000000000E+00 -0.74505805969E-08  0.93827000000E+00  0.93827000000E+00 0.  1.
     999902    2    1    2    0    0  0.12671024919E-01 -0.21962666950E-01 -0.24425854125E-01  0.10087229558E+01  0.10081083600E+01 0.  0.
     999903    2    3    3    0    0 -0.17316194281E-01 -0.78173791742E-01  0.86850252609E-01  0.11943037413E+00  0.17597033487E-01 0.  0.
         14    1    1    2    0    0 -0.12671024919E-01  0.21962666950E-01  0.24425854125E-01  0.35207044207E-01  0.00000000000E+00 0. -1.
     999901    1    3    3    0    0  0.29987219200E-01  0.56211124791E-01 -0.11127610673E+00  0.88929258166E+00  0.88000000000E+00 0.  1.
        -11    1    4    4    0    0 -0.12926800381E-01 -0.61373132079E-01  0.77502826127E-01  0.99703122759E-01  0.51100000000E-03 0.  1.
         11    1    4    4    0    0 -0.43893939005E-02 -0.16800659663E-01  0.93474264825E-02  0.19727251374E-01  0.51100000000E-03 0. -1.
</event>
<event>
 8    1  0.1137518E+005  0.1043930E+01  0.7957747E-01            NaN
         13   -1    0    0    0    0  0.00000000000E+00  0.00000000000E+00  0.74505805969E-08  0.10566000000E+00  0.10566000000E+00 0.  1.
     999900   -1    0    0    0    0 -0.00000000000E+00 -0.00000000000E+00 -0.74505805969E-08  0.93827000000E+00  0.93827000000E+00 0. -1.
     999902    2    1    2    0    0  0.33953581154E-02 -0.21275387644E-01  0.99435499745E-02  0.10202014357E+01  0.10199254506E+01 0.  0.
     999903    2    3    3    0    0  0.50162697302E-01  0.10820377833E+00  0.44095884736E-01  0.12884380806E+00  0.20782828958E-01 0.  0.
         14    1    1    2    0    0 -0.33953581154E-02  0.21275387644E-01 -0.99435499745E-02  0.23728564268E-01  0.00000000000E+00 0.  1.
     999901    1    3    3    0    0 -0.46767339187E-01 -0.12947916597E+00 -0.34152334762E-01  0.89135762767E+00  0.88000000000E+00 0.  1.
        -11    1    4    4    0    0  0.77789730137E-02  0.16162806810E-01 -0.90804150770E-03  0.17967593202E-01  0.51100000000E-03 0.  1.
         11    1    4    4    0    0  0.42383724289E-01  0.92040971521E-01  0.45003926244E-01  0.11087621486E+00  0.51100000000E-03 0. -1.
</event>
<event>
 8    1  0.1137518E+005  0.1043930E+01  0.7957747E-01            NaN
         13   -1    0    0    0    0  0.00000000000E+00  0.00000000000E+00  0.74505805969E-08  0.10566000000E+00  0.10566000000E+00 0.  1.
     999900   -1    0    0    0    0 -0.00000000000E+00 -0.00000000000E+00 -0.74505805969E-08  0.93827000000E+00  0.93827000000E+00 0.  1.
     999902    2    1    2    0    0 -0.14033968718E-02  0.24205498337E-01  0.76688878149E-02  0.10184999486E+01  0.10181824286E+01 0.  0.
     999903    2    3    3    0    0  0.93534720939E-01 -0.81736482105E-01  0.38801498584E-02  0.12706778409E+00  0.26487160339E-01 0.  0.
         14    1    1    2    0    0  0.14033968718E-02 -0.24205498337E-01 -0.76688878149E-02  0.25430051373E-01  0.00000000000E+00 0. -1.
     999901    1    3    3    0    0 -0.94938117811E-01  0.10594198044E+00  0.37887379565E-02  0.89143216454E+00  0.88000000000E+00 0. -1.
        -11    1    4    4    0    0  0.46754602372E-01 -0.23568144834E-01  0.15566445491E-02  0.52384487753E-01  0.51100000000E-03 0. -1.
         11    1    4    4    0    0  0.46780118567E-01 -0.58168337271E-01  0.23235053092E-02  0.74683296338E-01  0.51100000000E-03 0.  1.
</event>
<event>
 8    1  0.1137518E+005  0.1043930E+01  0.7957747E-01            NaN
         13   -1    0    0    0    0  0.00000000000E+00  0.00000000000E+00  0.74505805969E-08  0.10566000000E+00  0.10566000000E+00 0.  1.
     999900   -1    0    0    0    0 -0.00000000000E+00 -0.00000000000E+00 -0.74505805969E-08  0.93827000000E+00  0.93827000000E+00 0. -1.
     999902    2    1    2    0    0 -0.21201998953E-01 -0.68790666104E-02  0.79687995750E-02  0.10202583274E+01  0.10199836795E+01 0.  0.
     999903    2    3    3    0    0 -0.44350268525E-01  0.81183690215E-01  0.91473788473E-01  0.13162793478E+00  0.20018025892E-01 0.  0.
         14    1    1    2    0    0  0.21201998953E-01  0.68790666104E-02 -0.79687995750E-02  0.23671672600E-01  0.00000000000E+00 0. -1.
     999901    1    3    3    0    0  0.23148269572E-01 -0.88062756825E-01 -0.83504988898E-01  0.88863039262E+00  0.88000000000E+00 0. -1.
        -11    1    4    4    0    0 -0.19015711550E-01  0.47882010766E-01  0.39615922171E-01  0.64992050677E-01  0.51100000000E-03 0.  1.
         11    1    4    4    0    0 -0.25334556975E-01  0.33301679449E-01  0.51857866302E-01  0.66635884099E-01  0.51100000000E-03 0. -1.
</event>
<event>
 8    1  0.1137518E+005  0.1043930E+01  0.7957747E-01            NaN
         13   -1    0    0    0    0  0.00000000000E+00  0.00000000000E+00  0.74505805969E-08  0.10566000000E+00  0.10566000000E+00 0. -1.
     999900   -1    0    0    0    0 -0.00000000000E+00 -0.00000000000E+00 -0.74505805969E-08  0.93827000000E+00  0.93827000000E+00 0.  1.
     999902    2    1    2    0    0  0.19564801274E-01 -0.84778310749E-02 -0.92073951913E-02  0.10207043419E+01  0.10204400631E+01 0.  0.
     999903    2    3    3    0    0 -0.10930663028E+00  0.61268531999E-01  0.17328568834E-01  0.12819296469E+00  0.20769796880E-01 0.  0.
         14    1    1    2    0    0 -0.19564801274E-01  0.84778310749E-02  0.92073951913E-02  0.23225658114E-01  0.00000000000E+00 0.  1.
     999901    1    3    3    0    0  0.12887143155E+00 -0.69746363073E-01 -0.26535964025E-01  0.89251137719E+00  0.88000000000E+00 0. -1.
        -11    1    4    4    0    0 -0.70618406317E-01  0.49349939077E-01  0.16368553971E-01  0.87695874918E-01  0.51100000000E-03 0. -1.
         11    1    4    4    0    0 -0.38688223963E-01  0.11918592922E-01  0.96001486293E-03  0.40497089774E-01  0.51100000000E-03 0.  1.
</event>
<event>
 8    1  0.1137518E+005  0.1043930E+01  0.7957747E-01            NaN
         13   -1    0    0    0    0  0.00000000000E+00  0.00000000000E+00  0.74505805969E-08  0.10566000000E+00  0.10566000000E+00 0. -1.
     999900   -1    0    0    0    0 -0.00000000000E+00 -0.00000000000E+00 -0.74505805969E-08  0.93827000000E+00  0.93827000000E+00 0. -1.
     999902    2    1    2    0    0 -0.10792070816E-01 -0.13928134106E-02 -0.20657307164E-01  0.10205819153E+01  0.10203148106E+01 0.  0.
     999903    2    3    3    0    0 -0.11923345277E+00 -0.23666205214E-01  0.47085430541E-01  0.13106254177E+00  0.13551625657E-01 0.  0.
         14    1    1    2    0    0  0.10792070816E-01  0.13928134106E-02  0.20657307164E-01  0.23348084739E-01  0.00000000000E+00 0. -1.
     999901    1    3    3    0    0  0.10844138195E+00  0.22273391804E-01 -0.67742737705E-01  0.88951937349E+00  0.88000000000E+00 0.  1.
        -11    1    4    4    0    0 -0.14372002362E-01 -0.62622406058E-02  0.93800076443E-02  0.18276098426E-01  0.51100000000E-03 0.  1.
         11    1    4    4    0    0 -0.10486145041E+00 -0.17403964609E-01  0.37705422896E-01  0.11278644334E+00  0.51100000000E-03 0. -1.
</event>
<event>
 8    1  0.1137518E+005  0.1043930E+01  0.7957747E-01            NaN
         13   -1    0    0    0    0  0.00000000000E+00  0.00000000000E+00  0.74505805969E-08  0.10566000000E+00  0.10566000000E+00 0.  1.
     999900   -1    0    0    0    0 -0.00000000000E+00 -0.00000000000E+00 -0.74505805969E-08  0.93827000000E+00  0.93827000000E+00 0. -1.
     999902    2    1    2    0    0 -0.10403005037E-01  0.15339032444E-01 -0.16156446156E-01  0.10193426215E+01  0.10190460445E+01 0.  0.
     999903    2    3    3    0    0  0.96483300613E-01 -0.15330288512E-01 -0.83129884476E-01  0.12981986684E+00  0.19964345470E-01 0.  0.
         14    1    1    2    0    0  0.10403005037E-01 -0.15339032444E-01  0.16156446156E-01  0.24587378520E-01  0.00000000000E+00 0.  1.
     999901    1    3    3    0    0 -0.10688630565E+00  0.30669320956E-01  0.66973438319E-01  0.88952275464E+00  0.88000000000E+00 0. -1.
        -11    1    4    4    0    0  0.58691612369E-01 -0.18678640991E-01 -0.47669979968E-01  0.77886360185E-01  0.51100000000E-03 0. -1.
         11    1    4    4    0    0  0.37791688244E-01  0.33483524788E-02 -0.35459904507E-01  0.51933506653E-01  0.51100000000E-03 0.  1.
</event>
<event>
 8    1  0.1137518E+005  0.1043930E+01  0.7957747E-01            NaN
         13   -1    0    0    0    0  0.00000000000E+00  0.00000000000E+00  0.74505805969E-08  0.10566000000E+00  0.10566000000E+00 0.  1.
     999900   -1    0    0    0    0 -0.00000000000E+00 -0.00000000000E+00 -0.74505805969E-08  0.93827000000E+00  0.93827000000E+00 0. -1.
     999902    2    1    2    0    0 -0.26799013649E-02 -0.81273571837E-02  0.22259188877E-01  0.10200824153E+01  0.10198036216E+01 0.  0.
     999903    2    3    3    0    0  0.12383428717E+00  0.24771403161E-01 -0.21457917940E-01  0.12935274040E+00  0.17975987108E-01 0.  0.
         14    1    1    2    0    0  0.26799013649E-02  0.81273571837E-02 -0.22259188877E-01  0.23847584691E-01  0.00000000000E+00 0. -1.
     999901    1    3    3    0    0 -0.12651418854E+00 -0.32898760345E-01  0.43717106818E-01  0.89072967491E+00  0.88000000000E+00 0. -1.
        -11    1    4    4    0    0  0.44934070664E-01  0.10681217500E-01  0.70682691991E-03  0.46194370209E-01  0.51100000000E-03 0. -1.
         11    1    4    4    0    0  0.78900216509E-01  0.14090185661E-01 -0.22164744860E-01  0.83158370191E-01  0.51100000000E-03 0.  1.
</event>
<event>
 8    1  0.1137518E+005  0.1043930E+01  0.7957747E-01            NaN
         13   -1    0    0    0    0  0.00000000000E+00  0.00000000000E+00  0.74505805969E-08  0.10566000000E+00  0.10566000000E+00 0.  1.
     999900   -1    0    0    0    0 -0.00000000000E+00 -0.00000000000E+00 -0.74505805969E-08  0.93827000000E+00  0.93827000000E+00 0. -1.
     999902    2    1    2    0    0  0.62836586949E-02  0.19732617992E-01 -0.11015100260E-01  0.10204738065E+01  0.10202041937E+01 0.  0.
     999903    2    3    3    0    0 -0.93633633574E-02 -0.11739304692E+00  0.46093767733E-01  0.12788784421E+00  0.19022755705E-01 0.  0.
         14    1    1    2    0    0 -0.62836586949E-02 -0.19732617992E-01  0.11015100260E-01  0.23456193493E-01  0.00000000000E+00 0. -1.
     999901    1    3    3    0    0  0.15647022052E-01  0.13712566492E+00 -0.57108867993E-01  0.89258596229E+00  0.88000000000E+00 0. -1.
        -11    1    4    4    0    0 -0.11534320517E-01 -0.56474395333E-01  0.29276562868E-01  0.64651188175E-01  0.51100000000E-03 0. -1.
         11    1    4    4    0    0  0.21709571599E-02 -0.60918651591E-01  0.16817204865E-01  0.63236656040E-01  0.51100000000E-03 0.  1.
</event>
<event>
 8    1  0.1137518E+005  0.1043930E+01  0.7957747E-01            NaN
         13   -1    0    0    0    0  0.00000000000E+00  0.00000000000E+00  0.74505805969E-08  0.10566000000E+00  0.10566000000E+00 0. -1.
     999900   -1    0    0    0    0 -0.00000000000E+00 -0.00000000000E+00 -0.74505805969E-08  0.93827000000E+00  0.93827000000E+00 0. -1.
     999902    2    1    2    0    0  0.22263156849E-01  0.41950175760E-02  0.59903603807E-02  0.10204964612E+01  0.10202273749E+01 0.  0.
     999903    2    3    3    0    0 -0.21014788353E-01 -0.32172173831E-01  0.12349777873E+00  0.13088781320E+00  0.20081040659E-01 0.  0.
         14    1    1    2    0    0 -0.22263156849E-01 -0.41950175760E-02 -0.59903603807E-02  0.23433538846E-01  0.00000000000E+00 0.  1.
     999901    1    3    3    0    0  0.43277945203E-01  0.36367191407E-01 -0.11750741835E+00  0.88960864796E+00  0.88000000000E+00 0. -1.
        -11    1    4    4    0    0 -0.23618241107E-01 -0.20229313085E-01  0.86709725068E-01  0.92118857805E-01  0.51100000000E-03 0.  1.
         11    1    4    4    0    0  0.26034527539E-02 -0.11942860746E-01  0.36788053661E-01  0.38768955393E-01  0.51100000000E-03 0. -1.
</event>
<event>
 8    1  0.1137518E+005  0.1043930E+01  0.7957747E-01            NaN
         13   -1    0    0    0    0  0.00000000000E+00  0.00000000000E+00  0.74505805969E-08  0.10566000000E+00  0.10566000000E+00 0. -1.
     999900   -1    0    0    0    0 -0.00000000000E+00 -0.00000000000E+00 -0.74505805969E-08  0.93827000000E+00  0.93827000000E+00 0. -1.
     999902    2    1    2    0    0  0.59849647000E-02  0.17967328282E-01 -0.12040212432E-01  0.10214887121E+01  0.10212421738E+01 0.  0.
     999903    2    3    3    0    0 -0.11848635320E+00 -0.47988563094E-01  0.11831705432E-01  0.12996576955E+00  0.20228542197E-01 0.  0.
         14    1    1    2    0    0 -0.59849647000E-02 -0.17967328282E-01  0.12040212432E-01  0.22441287919E-01  0.00000000000E+00 0. -1.
     999901    1    3    3    0    0  0.12447131790E+00  0.65955891377E-01 -0.23871917864E-01  0.89152294253E+00  0.88000000000E+00 0. -1.
        -11    1    4    4    0    0 -0.44956681702E-01 -0.11517042353E-01 -0.31989027317E-02  0.46521388564E-01  0.51100000000E-03 0.  1.
         11    1    4    4    0    0 -0.73529671501E-01 -0.36471520741E-01  0.15030608164E-01  0.83444380991E-01  0.51100000000E-03 0. -1.
</event>
<event>
 8    1  0.1137518E+005  0.1043930E+01  0.7957747E-01            NaN
         13   -1    0    0    0    0  0.00000000000E+00  0.00000000000E+00  0.74505805969E-08  0.10566000000E+00  0.10566000000E+00 0.  1.
     999900   -1    0    0    0    0 -0.00000000000E+00 -0.00000000000E+00 -0.74505805969E-08  0.93827000000E+00  0.93827000000E+00 0.  1.
     999902    2    1    2    0    0  0.51785419066E-02 -0.13044977872E-01 -0.19744373577E-01  0.10197054457E+01  0.10194176607E+01 0.  0.
     999903    2    3    3    0    0 -0.11565174849E+00 -0.39618184086E-01 -0.41312399647E-01  0.13078965995E+00  0.21314158359E-01 0.  0.
         14    1    1    2    0    0 -0.51785419066E-02  0.13044977872E-01  0.19744373577E-01  0.24224554318E-01  0.00000000000E+00 0.  1.
     999901    1    3    3    0    0  0.12083029040E+00  0.26573206215E-01  0.21568026070E-01  0.88891578573E+00  0.88000000000E+00 0. -1.
        -11    1    4    4    0    0 -0.44166707418E-01 -0.22583305927E-01 -0.85948822888E-02  0.50347163508E-01  0.51100000000E-03 0. -1.
         11    1    4    4    0    0 -0.71485041076E-01 -0.17034878159E-01 -0.32717517358E-01  0.80442496447E-01  0.51100000000E-03 0.  1.
</event>
<event>
 8    1  0.1137518E+005  0.1043930E+01  0.7957747E-01            NaN
         13   -1    0    0    0    0  0.00000000000E+00  0.00000000000E+00  0.74505805969E-08  0.10566000000E+00  0.10566000000E+00 0.  1.
     999900   -1    0    0    0    0 -0.00000000000E+00 -0.00000000000E+00 -0.74505805969E-08  0.93827000000E+00  0.93827000000E+00 0. -1.
     999902    2    1    2    0    0  0.25803125600E-02 -0.63017667294E-02  0.22721975701E-01  0.10202095772E+01  0.10199337836E+01 0.  0.
     999903    2    3    3    0    0 -0.11022490551E+00  0.30193644318E-01  0.61572009051E-01  0.13140911742E+00  0.20397497201E-01 0.  0.
         14    1    1    2    0    0 -0.25803125600E-02  0.63017667294E-02 -0.22721975701E-01  0.23720422774E-01  0.00000000000E+00 0. -1.
     999901    1    3    3    0    0  0.11280521807E+00 -0.36495411047E-01 -0.38850033350E-01  0.88880045980E+00  0.88000000000E+00 0. -1.
        -11    1    4    4    0    0 -0.56594440429E-01  0.49440638376E-02  0.30139045628E-01  0.64311722470E-01  0.51100000000E-03 0. -1.
         11    1    4    4    0    0 -0.53630465081E-01  0.25249580480E-01  0.31432963423E-01  0.67097394955E-01  0.51100000000E-03 0.  1.
</event>
<event>
 8    1  0.1137518E+005  0.1043930E+01  0.7957747E-01            NaN
         13   -1    0    0    0    0  0.00000000000E+00  0.00000000000E+00  0.74505805969E-08  0.10566000000E+00  0.10566000000E+00 0.  1.
     999900   -1    0    0    0    0 -0.00000000000E+00 -0.00000000000E+00 -0.74505805969E-08  0.93827000000E+00  0.93827000000E+00 0. -1.
     999902    2    1    2    0    0 -0.10484111832E-01  0.18879559092E-01 -0.10973498603E-01  0.10197066224E+01  0.10194188657E+01 0.  0.
     999903    2    3    3    0    0 -0.75214551655E-02  0.94437840225E-01 -0.90976776050E-01  0.13284792134E+00  0.19917792797E-01 0.  0.
         14    1    1    2    0    0  0.10484111832E-01 -0.18879559092E-01  0.10973498603E-01  0.24223377634E-01  0.00000000000E+00 0. -1.
     999901    1    3    3    0    0 -0.29626566664E-02 -0.75558281133E-01  0.80003277447E-01  0.88685870103E+00  0.88000000000E+00 0.  1.
        -11    1    4    4    0    0 -0.78716745857E-02  0.36583146116E-01 -0.24555035940E-01  0.44760482030E-01  0.51100000000E-03 0. -1.
         11    1    4    4    0    0  0.35021942022E-03  0.57854694109E-01 -0.66421740110E-01  0.88087439311E-01  0.51100000000E-03 0.  1.
</event>
<event>
 8    1  0.1137518E+005  0.1043930E+01  0.7957747E-01            NaN
         13   -1    0    0    0    0  0.00000000000E+00  0.00000000000E+00  0.74505805969E-08  0.10566000000E+00  0.10566000000E+00 0. -1.
     999900   -1    0    0    0    0 -0.00000000000E+00 -0.00000000000E+00 -0.74505805969E-08  0.93827000000E+00  0.93827000000E+00 0. -1.
     999902    2    1    2    0    0  0.12252850031E-01 -0.18084850107E-01  0.93419007262E-02  0.10201715226E+01  0.10198948330E+01 0.  0.
     999903    2    3    3    0    0 -0.71490767261E-01 -0.40214732247E-01 -0.98138811370E-01  0.12941070817E+00  0.19691383876E-01 0.  0.
         14    1    1    2    0    0 -0.12252850031E-01  0.18084850107E-01 -0.93419007262E-02  0.23758477360E-01  0.00000000000E+00 0.  1.
     999901    1    3    3    0    0  0.83743617292E-01  0.22129882140E-01  0.10748071210E+00  0.89076081447E+00  0.88000000000E+00 0.  1.
        -11    1    4    4    0    0 -0.15978921253E-01 -0.19227047674E-01 -0.28745369475E-01  0.38099378918E-01  0.51100000000E-03 0. -1.
         11    1    4    4    0    0 -0.55511846008E-01 -0.20987684573E-01 -0.69393441895E-01  0.91311329253E-01  0.51100000000E-03 0.  1.
</event>
<event>
 8    1  0.1137518E+005  0.1043930E+01  0.7957747E-01            NaN
         13   -1    0    0    0    0  0.00000000000E+00  0.00000000000E+00  0.74505805969E-08  0.10566000000E+00  0.10566000000E+00 0.  1.
     999900   -1    0    0    0    0 -0.00000000000E+00 -0.00000000000E+00 -0.74505805969E-08  0.93827000000E+00  0.93827000000E+00 0. -1.
     999902    2    1    2    0    0  0.36864652892E-01  0.27665703006E-02  0.91449329913E-02  0.10058473748E+01  0.10051261886E+01 0.  0.
     999903    2    3    3    0    0 -0.33845009530E-01  0.10392555661E+00  0.34430861437E-01  0.11687472332E+00  0.22982835886E-01 0.  0.
         14    1    1    2    0    0 -0.36864652892E-01 -0.27665703006E-02 -0.91449329913E-02  0.38082625218E-01  0.00000000000E+00 0. -1.
     999901    1    3    3    0    0  0.70709662421E-01 -0.10115898631E+00 -0.25285928445E-01  0.88897265146E+00  0.88000000000E+00 0.  1.
        -11    1    4    4    0    0 -0.20814028584E-01  0.43447840037E-01  0.52298457072E-02  0.48461850944E-01  0.51100000000E-03 0. -1.
         11    1    4    4    0    0 -0.13030980945E-01  0.60477716572E-01  0.29201015730E-01  0.68412872376E-01  0.51100000000E-03 0.  1.
</event>
<event>
 8    1  0.1137518E+005  0.1043930E+01  0.7957747E-01            NaN
         13   -1    0    0    0    0  0.00000000000E+00  0.00000000000E+00  0.74505805969E-08  0.10566000000E+00  0.10566000000E+00 0.  1.
     999900   -1    0    0    0    0 -0.00000000000E+00 -0.00000000000E+00 -0.74505805969E-08  0.93827000000E+00  0.93827000000E+00 0.  1.
     999902    2    1    2    0    0  0.81218689572E-02  0.19423990795E-01 -0.11135105423E-01  0.10201130576E+01  0.10198349884E+01 0.  0.
     999903    2    3    3    0    0  0.14163703002E-01 -0.90810121692E-01 -0.89413735642E-01  0.12976727797E+00  0.19940953468E-01 0.  0.
         14    1    1    2    0    0 -0.81218689572E-02 -0.19423990795E-01  0.11135105423E-01  0.23816942426E-01  0.00000000000E+00 0. -1.
     999901    1    3    3    0    0 -0.60418340453E-02  0.11023411249E+00  0.78278630219E-01  0.89034577961E+00  0.88000000000E+00 0. -1.
        -11    1    4    4    0    0  0.68913303866E-03 -0.61174643084E-01 -0.63256567413E-01  0.88002649407E-01  0.51100000000E-03 0.  1.
         11    1    4    4    0    0  0.13474569964E-01 -0.29635478608E-01 -0.26157168228E-01  0.41764628560E-01  0.51100000000E-03 0. -1.
</event>
<event>
 8    1  0.1137518E+005  0.1043930E+01  0.7957747E-01            NaN
         13   -1    0    0    0    0  0.00000000000E+00  0.00000000000E+00  0.74505805969E-08  0.10566000000E+00  0.10566000000E+00 0.  1.
     999900   -1    0    0    0    0 -0.00000000000E+00 -0.00000000000E+00 -0.74505805969E-08  0.93827000000E+00  0.93827000000E+00 0. -1.
     999902    2    1    2    0    0 -0.20762577714E-01  0.54001824096E-02 -0.48613498200E-02  0.10219327428E+01  0.10216959682E+01 0.  0.
     999903    2    3    3    0    0 -0.69001926750E-01  0.83147787559E-01  0.75611044596E-01  0.13353669868E+00  0.20980928432E-01 0.  0.
         14    1    1    2    0    0  0.20762577714E-01 -0.54001824096E-02  0.48613498200E-02  0.21997257226E-01  0.00000000000E+00 0.  1.
     999901    1    3    3    0    0  0.48239349036E-01 -0.77747605149E-01 -0.80472394416E-01  0.88839604410E+00  0.88000000000E+00 0. -1.
        -11    1    4    4    0    0 -0.49860474727E-01  0.48981560360E-01  0.56910832721E-01  0.90135255019E-01  0.51100000000E-03 0.  1.
         11    1    4    4    0    0 -0.19141452023E-01  0.34166227199E-01  0.18700211875E-01  0.43401443660E-01  0.51100000000E-03 0. -1.
</event>
<event>
 8    1  0.1137518E+005  0.1043930E+01  0.7957747E-01            NaN
         13   -1    0    0    0    0  0.00000000000E+00  0.00000000000E+00  0.74505805969E-08  0.10566000000E+00  0.10566000000E+00 0. -1.
     999900   -1    0    0    0    0 -0.00000000000E+00 -0.00000000000E+00 -0.74505805969E-08  0.93827000000E+00  0.93827000000E+00 0.  1.
     999902    2    1    2    0    0 -0.17109074362E-01  0.61302653287E-02 -0.14271499006E-01  0.10208220736E+01  0.10205604978E+01 0.  0.
     999903    2    3    3    0    0  0.50358126906E-01 -0.47490517144E-01 -0.11007065590E+00  0.13143774159E+00  0.19210425869E-01 0.  0.
         14    1    1    2    0    0  0.17109074362E-01 -0.61302653287E-02  0.14271499006E-01  0.23107926398E-01  0.00000000000E+00 0. -1.
     999901    1    3    3    0    0 -0.67467201268E-01  0.53620782473E-01  0.95799156890E-01  0.88938433201E+00  0.88000000000E+00 0. -1.
        -11    1    4    4    0    0  0.47697740786E-01 -0.49263577423E-01 -0.10435373836E+00  0.12486768343E+00  0.51100000000E-03 0.  1.
         11    1    4    4    0    0  0.26603861201E-02  0.17730602789E-02 -0.57169175405E-02  0.65700581600E-02  0.51100000000E-03 0. -1.
</event>
<event>
 8    1  0.1137518E+005  0.1043930E+01  0.7957747E-01            NaN
         13   -1    0    0    0    0  0.00000000000E+00  0.00000000000E+00  0.74505805969E-08  0.10566000000E+00  0.10566000000E+00 0. -1.
     999900   -1    0    0    0    0 -0.00000000000E+00 -0.00000000000E+00 -0.74505805969E-08  0.93827000000E+00  0.93827000000E+00 0.  1.
     999902    2    1    2    0    0 -0.82257639916E-02 -0.27620335446E-02  0.22791848512E-01  0.10195422904E+01  0.10192505685E+01 0.  0.
     999903    2    3    3    0    0  0.19692785367E-01  0.11641086124E+00 -0.46592860304E-01  0.12836561761E+00  0.19171404266E-01 0.  0.
         14    1    1    2    0    0  0.82257639916E-02  0.27620335446E-02 -0.22791848512E-01  0.24387709633E-01  0.00000000000E+00 0.  1.
     999901    1    3    3    0    0 -0.27918549359E-01 -0.11917289479E+00  0.69384708816E-01  0.89117667276E+00  0.88000000000E+00 0. -1.
        -11    1    4    4    0    0 -0.56620484856E-03  0.23014369961E-01 -0.26553299992E-02  0.23179596870E-01  0.51100000000E-03 0. -1.
         11    1    4    4    0    0  0.20258990216E-01  0.93396491284E-01 -0.43937530305E-01  0.10518602074E+00  0.51100000000E-03 0.  1.
</event>
<event>
 8    1  0.1137518E+005  0.1043930E+01  0.7957747E-01            NaN
         13   -1    0    0    0    0  0.00000000000E+00  0.00000000000E+00  0.74505805969E-08  0.10566000000E+00  0.10566000000E+00 0.  1.
     999900   -1    0    0    0    0 -0.00000000000E+00 -0.00000000000E+00 -0.74505805969E-08  0.93827000000E+00  0.93827000000E+00 0. -1.
     999902    2    1    2    0    0 -0.16620701615E-01  0.78978074231E-02  0.14615730693E-01  0.10204301560E+01  0.10201595270E+01 0.  0.
     999903    2    3    3    0    0 -0.12713500531E+00  0.12030875612E-01  0.33325188079E-01  0.13331092085E+00  0.18793134758E-01 0.  0.
         14    1    1    2    0    0  0.16620701615E-01 -0.78978074231E-02 -0.14615730693E-01  0.23499843999E-01  0.00000000000E+00 0. -1.
     999901    1    3    3    0    0  0.11051430370E+00 -0.41330681888E-02 -0.18709457386E-01  0.88711923515E+00  0.88000000000E+00 0. -1.
        -11    1    4    4    0    0 -0.60225460268E-01  0.79403159956E-02  0.64586028236E-02  0.61091156103E-01  0.51100000000E-03 0. -1.
         11    1    4    4    0    0 -0.66909545046E-01  0.40905596163E-02  0.26866585256E-01  0.72219764750E-01  0.51100000000E-03 0.  1.
</event>
<event>
 8    1  0.1137518E+005  0.1043930E+01  0.7957747E-01            NaN
         13   -1    0    0    0    0  0.00000000000E+00  0.00000000000E+00  0.74505805969E-08  0.10566000000E+00  0.10566000000E+00 0.  1.
     999900   -1    0    0    0    0 -0.00000000000E+00 -0.00000000000E+00 -0.74505805969E-08  0.93827000000E+00  0.93827000000E+00 0. -1.
     999902    2    1    2    0    0 -0.54783066142E-02  0.17962473673E-01  0.13957596219E-01  0.10205317779E+01  0.10202635115E+01 0.  0.
     999903    2    3    3    0    0 -0.93947004648E-01 -0.84063915176E-01  0.22995594778E-01  0.13018477818E+00  0.22945534916E-01 0.  0.
         14    1    1    2    0    0  0.54783066142E-02 -0.17962473673E-01 -0.13957596219E-01  0.23398222070E-01  0.00000000000E+00 0.  1.
     999901    1    3    3    0    0  0.88468698034E-01  0.10202638885E+00 -0.90379985590E-02  0.89034699975E+00  0.88000000000E+00 0. -1.
        -11    1    4    4    0    0 -0.71958148998E-01 -0.74831012512E-01  0.22984755001E-01  0.10633069042E+00  0.51100000000E-03 0.  1.
         11    1    4    4    0    0 -0.21988855650E-01 -0.92329026641E-02  0.10839776270E-04  0.23854087761E-01  0.51100000000E-03 0. -1.
</event>
<event>
 8    1  0.1137518E+005  0.1043930E+01  0.7957747E-01            NaN
         13   -1    0    0    0    0  0.00000000000E+00  0.00000000000E+00  0.74505805969E-08  0.10566000000E+00  0.10566000000E+00 0.  1.
     999900   -1    0    0    0    0 -0.00000000000E+00 -0.00000000000E+00 -0.74505805969E-08  0.93827000000E+00  0.93827000000E+00 0. -1.
     999902    2    1    2    0    0 -0.46432884968E-02  0.22496400017E-01 -0.49953383509E-02  0.10204225215E+01  0.10201517146E+01 0.  0.
     999903    2    3    3    0    0 -0.78098129073E-01  0.97995842942E-01  0.40003851405E-01  0.13299888725E+00  0.19644156477E-01 0.  0.
         14    1    1    2    0    0  0.46432884968E-02 -0.22496400017E-01  0.49953383509E-02  0.23507478534E-01  0.00000000000E+00 0.  1.
     999901    1    3    3    0    0  0.73454840577E-01 -0.75499442925E-01 -0.44999189756E-01  0.88742363422E+00  0.88000000000E+00 0. -1.
        -11    1    4    4    0    0 -0.25908981557E-01  0.38023634861E-01  0.55359544849E-02  0.46346305639E-01  0.51100000000E-03 0.  1.
         11    1    4    4    0    0 -0.52189147517E-01  0.59972208082E-01  0.34467896920E-01  0.86652581611E-01  0.51100000000E-03 0. -1.
</event>
<event>
 8    1  0.1137518E+005  0.1043930E+01  0.7957747E-01            NaN
         13   -1    0    0    0    0  0.00000000000E+00  0.00000000000E+00  0.74505805969E-08  0.10566000000E+00  0.10566000000E+00 0.  1.
     999900   -1    0    0    0    0 -0.00000000000E+00 -0.00000000000E+00 -0.74505805969E-08  0.93827000000E+00  0.93827000000E+00 0. -1.
     999902    2    1    2    0    0 -0.94993648839E-02 -0.23028439221E-01  0.11018743483E-01  0.10166910636E+01  0.10163261087E+01 0.  0.
     999903    2    3    3    0    0  0.27576633358E-02 -0.89339670317E-01 -0.89906361056E-01  0.12835931770E+00  0.20094259965E-01 0.  0.
         14    1    1    2    0    0  0.94993648839E-02  0.23028439221E-01 -0.11018743483E-01  0.27238936361E-01  0.00000000000E+00 0.  1.
     999901    1    3    3    0    0 -0.12257028220E-01  0.66311231096E-01  0.10092510454E+00  0.88833174594E+00  0.88000000000E+00 0.  1.
        -11    1    4    4    0    0  0.56378430810E-02 -0.58445676459E-01 -0.45991767009E-01  0.74586769101E-01  0.51100000000E-03 0. -1.
         11    1    4    4    0    0 -0.28801797452E-02 -0.30893993858E-01 -0.43914594047E-01  0.53772548603E-01  0.51100000000E-03 0.  1.
</event>
<event>
 8    1  0.1137518E+005  0.1043930E+01  0.7957747E-01            NaN
         13   -1    0    0    0    0  0.00000000000E+00  0.00000000000E+00  0.74505805969E-08  0.10566000000E+00  0.10566000000E+00 0. -1.
     999900   -1    0    0    0    0 -0.00000000000E+00 -0.00000000000E+00 -0.74505805969E-08  0.93827000000E+00  0.93827000000E+00 0.  1.
     999902    2    1    2    0    0  0.25928523977E-02  0.22876433820E-01  0.79774961610E-02  0.10195641519E+01  0.10192729592E+01 0.  0.
     999903    2    3    3    0    0  0.97842034962E-01  0.84556714989E-01 -0.16133570181E-01  0.13195038040E+00  0.20681125343E-01 0.  0.
         14    1    1    2    0    0 -0.25928523977E-02 -0.22876433820E-01 -0.79774961610E-02  0.24365848085E-01  0.00000000000E+00 0.  1.
     999901    1    3    3    0    0 -0.95249182564E-01 -0.61680281169E-01  0.24111066342E-01  0.88761377152E+00  0.88000000000E+00 0. -1.
        -11    1    4    4    0    0  0.75416582547E-01  0.68913067226E-01 -0.20663903854E-01  0.10423017702E+00  0.51100000000E-03 0. -1.
         11    1    4    4    0    0  0.22425452415E-01  0.15643647764E-01  0.45303336728E-02  0.27720203382E-01  0.51100000000E-03 0.  1.
</event>
<event>
 8    1  0.1137518E+005  0.1043930E+01  0.7957747E-01            NaN
         13   -1    0    0    0    0  0.00000000000E+00  0.00000000000E+00  0.74505805969E-08  0.10566000000E+00  0.10566000000E+00 0.  1.
     999900   -1    0    0    0    0 -0.00000000000E+00 -0.00000000000E+00 -0.74505805969E-08  0.93827000000E+00  0.93827000000E+00 0. -1.
     999902    2    1    2    0    0  0.44718434538E-02  0.14526778003E-01 -0.16465883276E-01  0.10215212969E+01  0.10212754819E+01 0.  0.
     999903    2    3    3    0    0 -0.96087794098E-01  0.88347795164E-01 -0.13287852718E-01  0.13271767226E+00  0.19980400770E-01 0.  0.
         14    1    1    2    0    0 -0.44718434538E-02 -0.14526778003E-01  0.16465883276E-01  0.22408703110E-01  0.00000000000E+00 0.  1.
     999901    1    3    3    0    0  0.10055963755E+00 -0.73821017161E-01 -0.31780305586E-02  0.88880362463E+00  0.88000000000E+00 0.  1.
        -11    1    4    4    0    0 -0.38428923659E-01  0.22539053176E-01 -0.46734352353E-02  0.44798361684E-01  0.51100000000E-03 0. -1.
         11    1    4    4    0    0 -0.57658870439E-01  0.65808741988E-01 -0.86144174824E-02  0.87919310574E-01  0.51100000000E-03 0.  1.
</event>
<event>
 8    1  0.1137518E+005  0.1043930E+01  0.7957747E-01            NaN
         13   -1    0    0    0    0  0.00000000000E+00  0.00000000000E+00  0.74505805969E-08  0.10566000000E+00  0.10566000000E+00 0. -1.
     999900   -1    0    0    0    0 -0.00000000000E+00 -0.00000000000E+00 -0.74505805969E-08  0.93827000000E+00  0.93827000000E+00 0.  1.
     999902    2    1    2    0    0  0.36786978805E-02  0.14352157539E-01 -0.15730790081E-01  0.10223203956E+01  0.10220919804E+01 0.  0.
     999903    2    3    3    0    0  0.45039914414E-01  0.10940988287E+00  0.57772599958E-01  0.13319190676E+00  0.20082190166E-01 0.  0.
         14    1    1    2    0    0 -0.36786978805E-02 -0.14352157539E-01  0.15730790081E-01  0.21609604362E-01  0.00000000000E+00 0. -1.
     999901    1    3    3    0    0 -0.41361216534E-01 -0.95057725331E-01 -0.73503390039E-01  0.88912848887E+00  0.88000000000E+00 0.  1.
        -11    1    4    4    0    0  0.24187548652E-01  0.52423172271E-01  0.38985900618E-01  0.69666262055E-01  0.51100000000E-03 0. -1.
         11    1    4    4    0    0  0.20852365762E-01  0.56986710598E-01  0.18786699340E-01  0.63525644710E-01  0.51100000000E-03 0.  1.
</event>
<event>
 8    1  0.1137518E+005  0.1043930E+01  0.7957747E-01            NaN
         13   -1    0    0    0    0  0.00000000000E+00  0.00000000000E+00  0.74505805969E-08  0.10566000000E+00  0.10566000000E+00 0.  1.
     999900   -1    0    0    0    0 -0.00000000000E+00 -0.00000000000E+00 -0.74505805969E-08  0.93827000000E+00  0.93827000000E+00 0. -1.
     999902    2    1    2    0    0  0.13737585816E-01  0.11079823301E-01  0.14654171057E-01  0.10209903296E+01  0.10207325921E+01 0.  0.
     999903    2    3    3    0    0 -0.17830446905E-02  0.15177982975E-01 -0.12702093649E+00  0.12951429460E+00  0.20151520671E-01 0.  0.
         14    1    1    2    0    0 -0.13737585816E-01 -0.11079823301E-01 -0.14654171057E-01  0.22939670394E-01  0.00000000000E+00 0. -1.
     999901    1    3    3    0    0  0.15520630506E-01 -0.40981596745E-02  0.14167510754E+00  0.89147603500E+00  0.88000000000E+00 0.  1.
        -11    1    4    4    0    0 -0.69510414133E-02  0.24145347410E-02 -0.84389138975E-01  0.84710889811E-01  0.51100000000E-03 0. -1.
         11    1    4    4    0    0  0.51679967227E-02  0.12763448234E-01 -0.42631797512E-01  0.44803404793E-01  0.51100000000E-03 0.  1.
</event>
<event>
 8    1  0.1137518E+005  0.1043930E+01  0.7957747E-01            NaN
         13   -1    0    0    0    0  0.00000000000E+00  0.00000000000E+00  0.74505805969E-08  0.10566000000E+00  0.10566000000E+00 0.  1.
     999900   -1    0    0    0    0 -0.00000000000E+00 -0.00000000000E+00 -0.74505805969E-08  0.93827000000E+00  0.93827000000E+00 0.  1.
     999902    2    1    2    0    0 -0.22405998147E-01 -0.59260369431E-03 -0.74416335515E-02  0.10203131026E+01  0.10200397392E+01 0.  0.
     999903    2    3    3    0    0  0.14300270150E-03  0.13384072087E-01  0.12739280820E+00  0.12964810859E+00  0.20013761346E-01 0.  0.
         14    1    1    2    0    0  0.22405998147E-01  0.59260369431E-03  0.74416335515E-02  0.23616897383E-01  0.00000000000E+00 0.  1.
     999901    1    3    3    0    0 -0.22549000848E-01 -0.13976675781E-01 -0.13483444175E+00  0.89066499403E+00  0.88000000000E+00 0.  1.
        -11    1    4    4    0    0  0.47072737665E-02  0.74776458758E-02  0.18600929555E-01  0.20599255217E-01  0.51100000000E-03 0. -1.
         11    1    4    4    0    0 -0.45642710650E-02  0.59064262113E-02  0.10879187865E+00  0.10904885337E+00  0.51100000000E-03 0.  1.
</event>
<event>
 8    1  0.1137518E+005  0.1043930E+01  0.7957747E-01            NaN
         13   -1    0    0    0    0  0.00000000000E+00  0.00000000000E+00  0.74505805969E-08  0.10566000000E+00  0.10566000000E+00 0. -1.
     999900   -1    0    0    0    0 -0.00000000000E+00 -0.00000000000E+00 -0.74505805969E-08  0.93827000000E+00  0.93827000000E+00 0. -1.
     999902    2    1    2    0    0 -0.24433839679E-01 -0.78117070439E-02  0.55854298430E-02  0.10176767656E+01  0.10173380790E+01 0.  0.
     999903    2    3    3    0    0  0.10371957184E+00  0.15707427140E-01  0.67112022585E-01  0.12595821801E+00  0.18893815366E-01 0.  0.
         14    1    1    2    0    0  0.24433839679E-01  0.78117070439E-02 -0.55854298430E-02  0.26253234371E-01  0.00000000000E+00 0. -1.
     999901    1    3    3    0    0 -0.12815341152E+00 -0.23519134184E-01 -0.61526592742E-01  0.89171854762E+00  0.88000000000E+00 0. -1.
        -11    1    4    4    0    0  0.68999734432E-01  0.12424594427E-01  0.34219998155E-01  0.78016685992E-01  0.51100000000E-03 0.  1.
         11    1    4    4    0    0  0.34719837404E-01  0.32828327130E-02  0.32892024430E-01  0.47941532017E-01  0.51100000000E-03 0. -1.
</event>
<event>
 8    1  0.1137518E+005  0.1043930E+01  0.7957747E-01            NaN
         13   -1    0    0    0    0  0.00000000000E+00  0.00000000000E+00  0.74505805969E-08  0.10566000000E+00  0.10566000000E+00 0.  1.
     999900   -1    0    0    0    0 -0.00000000000E+00 -0.00000000000E+00 -0.74505805969E-08  0.93827000000E+00  0.93827000000E+00 0.  1.
     999902    2    1    2    0    0  0.15798199542E-01  0.52086386753E-02  0.16705173078E-01  0.10203551016E+01  0.10200827210E+01 0.  0.
     999903    2    3    3    0    0  0.12464087921E+00  0.30717300900E-01  0.29171504898E-01  0.13319512158E+00  0.20274673167E-01 0.  0.
         14    1    1    2    0    0 -0.15798199542E-01 -0.52086386753E-02 -0.16705173078E-01  0.23574898371E-01  0.00000000000E+00 0. -1.
     999901    1    3    3    0    0 -0.10884267966E+00 -0.25508662225E-01 -0.12466331820E-01  0.88715998005E+00  0.88000000000E+00 0.  1.
        -11    1    4    4    0    0  0.70036763985E-01  0.12008220389E-01  0.71691505426E-02  0.71421309894E-01  0.51100000000E-03 0.  1.
         11    1    4    4    0    0  0.54604115220E-01  0.18709080511E-01  0.22002354356E-01  0.61773811690E-01  0.51100000000E-03 0. -1.
</event>
<event>
 8    1  0.1137518E+005  0.1043930E+01  0.7957747E-01            NaN
         13   -1    0    0    0    0  0.00000000000E+00  0.00000000000E+00  0.74505805969E-08  0.10566000000E+00  0.10566000000E+00 0. -1.
     999900   -1    0    0    0    0 -0.00000000000E+00 -0.00000000000E+00 -0.74505805969E-08  0.93827000000E+00  0.93827000000E+00 0. -1.
     999902    2    1    2    0    0  0.17681990843E-01  0.26062028280E-02  0.15856657447E-01  0.10200369324E+01  0.10197570617E+01 0.  0.
     999903    2    3    3    0    0 -0.26973234774E-01 -0.52706819540E-02  0.12734036661E+00  0.13184508833E+00  0.20303272297E-01 0.  0.
         14    1    1    2    0    0 -0.17681990843E-01 -0.26062028280E-02 -0.15856657447E-01  0.23893067588E-01  0.00000000000E+00 0.  1.
     999901    1    3    3    0    0  0.44655225617E-01  0.78768847820E-02 -0.11148370916E+00  0.88819184408E+00  0.88000000000E+00 0. -1.
        -11    1    4    4    0    0 -0.61708812502E-02 -0.10607169698E-01  0.56480712821E-01  0.57800725481E-01  0.51100000000E-03 0.  1.
         11    1    4    4    0    0 -0.20802353524E-01  0.53364877440E-02  0.70859653787E-01  0.74044362847E-01  0.51100000000E-03 0. -1.
</event>
<event>
 8    1  0.1137518E+005  0.1043930E+01  0.7957747E-01            NaN
         13   -1    0    0    0    0  0.00000000000E+00  0.00000000000E+00  0.74505805969E-08  0.10566000000E+00  0.10566000000E+00 0. -1.
     999900   -1    0    0    0    0 -0.00000000000E+00 -0.00000000000E+00 -0.74505805969E-08  0.93827000000E+00  0.93827000000E+00 0. -1.
     999902    2    1    2    0    0  0.28531204641E-03  0.17123522586E-01 -0.16755427470E-01  0.10199708519E+01  0.10196894125E+01 0.  0.
     999903    2    3    3    0    0 -0.20398474934E-01  0.12231476981E+00 -0.44096096870E-01  0.13304327325E+00  0.19469106419E-01 0.  0.
         14    1    1    2    0    0 -0.28531204641E-03 -0.17123522586E-01  0.16755427470E-01  0.23959148116E-01  0.00000000000E+00 0. -1.
     999901    1    3    3    0    0  0.20683786980E-01 -0.10519124723E+00  0.27340669400E-01  0.88692757863E+00  0.88000000000E+00 0.  1.
        -11    1    4    4    0    0  0.76792918865E-03  0.20589758084E-01 -0.13827891963E-01  0.24819338636E-01  0.51100000000E-03 0. -1.
         11    1    4    4    0    0 -0.21166404123E-01  0.10172501173E+00 -0.30268204907E-01  0.10822393461E+00  0.51100000000E-03 0.  1.
</event>
<event>
 8    1  0.1137518E+005  0.1043930E+01  0.7957747E-01            NaN
         13   -1    0    0    0    0  0.00000000000E+00  0.00000000000E+00  0.74505805969E-08  0.10566000000E+00  0.10566000000E+00 0. -1.
     999900   -1    0    0    0    0 -0.00000000000E+00 -0.00000000000E+00 -0.74505805969E-08  0.93827000000E+00  0.93827000000E+00 0. -1.
     999902    2    1    2    0    0 -0.60402688458E-02 -0.10920477443E-01  0.20192774635E-01  0.10201920594E+01  0.10199158535E+01 0.  0.
     999903    2    3    3    0    0  0.98680166032E-01  0.25273618930E-01  0.80283212958E-01  0.13121104564E+00  0.19859839697E-01 0.  0.
         14    1    1    2    0    0  0.60402688458E-02  0.10920477443E-01 -0.20192774635E-01  0.23737940575E-01  0.00000000000E+00 0.  1.
     999901    1    3    3    0    0 -0.10472043488E+00 -0.36194096374E-01 -0.60090438323E-01  0.88898101379E+00  0.88000000000E+00 0. -1.
        -11    1    4    4    0    0  0.72158545892E-01  0.24009798355E-01  0.67726342475E-01  0.10183538063E+00  0.51100000000E-03 0. -1.
         11    1    4    4    0    0  0.26521620140E-01  0.12638205759E-02  0.12556870483E-01  0.29375665008E-01  0.51100000000E-03 0.  1.
</event>
<event>
 8    1  0.1137518E+005  0.1043930E+01  0.7957747E-01            NaN
         13   -1    0    0    0    0  0.00000000000E+00  0.00000000000E+00  0.74505805969E-08  0.10566000000E+00  0.10566000000E+00 0.  1.
     999900   -1    0    0    0    0 -0.00000000000E+00 -0.00000000000E+00 -0.74505805969E-08  0.93827000000E+00  0.93827000000E+00 0.  1.
     999902    2    1    2    0    0 -0.11011375523E-01 -0.12147446698E-01  0.17335675365E-01  0.10200692269E+01  0.10197901211E+01 0.  0.
     999903    2    3    3    0    0 -0.35294869726E-01 -0.84539319069E-02 -0.12193312412E+00  0.12877851751E+00  0.19975560577E-01 0.  0.
         14    1    1    2    0    0  0.11011375523E-01  0.12147446698E-01 -0.17335675365E-01  0.23860773092E-01  0.00000000000E+00 0. -1.
     999901    1    3    3    0    0  0.24283494203E-01 -0.36935147914E-02  0.13926879949E+00  0.89129070939E+00  0.88000000000E+00 0. -1.
        -11    1    4    4    0    0 -0.13996284874E-01 -0.12976938381E-01 -0.67542512628E-01  0.70189379918E-01  0.51100000000E-03 0. -1.
         11    1    4    4    0    0 -0.21298584852E-01  0.45230064744E-02 -0.54390611496E-01  0.58589137595E-01  0.51100000000E-03 0.  1.
</event>
<event>
 8    1  0.1137518E+005  0.1043930E+01  0.7957747E-01            NaN
         13   -1    0    0    0    0  0.00000000000E+00  0.00000000000E+00  0.74505805969E-08  0.10566000000E+00  0.10566000000E+00 0.  1.
     999900   -1    0    0    0    0 -0.00000000000E+00 -0.00000000000E+00 -0.74505805969E-08  0.93827000000E+00  0.93827000000E+00 0.  1.
     999902    2    1    2    0    0 -0.11898140157E-01  0.19008038085E-01  0.85832492854E-02  0.10199186814E+01  0.10196360004E+01 0.  0.
     999903    2    3    3    0    0  0.12630419968E+00 -0.73683807027E-02 -0.11236132946E-01  0.12852179445E+00  0.19610126809E-01 0.  0.
         14    1    1    2    0    0  0.11898140157E-01 -0.19008038085E-01 -0.85832492854E-02  0.24011318567E-01  0.00000000000E+00 0.  1.
     999901    1    3    3    0    0 -0.13820233984E+00  0.26376418788E-01  0.19819382231E-01  0.89139688698E+00  0.88000000000E+00 0. -1.
        -11    1    4    4    0    0  0.35267246962E-01  0.54890463796E-02  0.13583773641E-02  0.35721347238E-01  0.51100000000E-03 0.  1.
         11    1    4    4    0    0  0.91036952723E-01 -0.12857427082E-01 -0.12594510310E-01  0.92800447215E-01  0.51100000000E-03 0. -1.
</event>
<event>
 8    1  0.1137518E+005  0.1043930E+01  0.7957747E-01            NaN
         13   -1    0    0    0    0  0.00000000000E+00  0.00000000000E+00  0.74505805969E-08  0.10566000000E+00  0.10566000000E+00 0. -1.
     999900   -1    0    0    0    0 -0.00000000000E+00 -0.00000000000E+00 -0.74505805969E-08  0.93827000000E+00  0.93827000000E+00 0.  1.
     999902    2    1    2    0    0 -0.14275451843E-01 -0.17211582774E-01 -0.82795941235E-02  0.10200851099E+01  0.10198063799E+01 0.  0.
     999903    2    3    3    0    0  0.12585916830E+00  0.12000962776E-01  0.75937430325E-02  0.12837717146E+00  0.20939910849E-01 0.  0.
         14    1    1    2    0    0  0.14275451843E-01  0.17211582774E-01  0.82795941235E-02  0.23844890139E-01  0.00000000000E+00 0. -1.
     999901    1    3    3    0    0 -0.14013462014E+00 -0.29212545550E-01 -0.15873337156E-01  0.89170793840E+00  0.88000000000E+00 0.  1.
        -11    1    4    4    0    0  0.20365305523E-01  0.38486964173E-02 -0.62788339854E-02  0.21662017689E-01  0.51100000000E-03 0. -1.
         11    1    4    4    0    0  0.10549386277E+00  0.81522663585E-02  0.13872577018E-01  0.10671515377E+00  0.51100000000E-03 0.  1.
</event>
<event>
 8    1  0.1137518E+005  0.1043930E+01  0.7957747E-01            NaN
         13   -1    0    0    0    0  0.00000000000E+00  0.00000000000E+00  0.74505805969E-08  0.10566000000E+00  0.10566000000E+00 0. -1.
     999900   -1    0    0    0    0 -0.00000000000E+00 -0.00000000000E+00 -0.74505805969E-08  0.93827000000E+00  0.93827000000E+00 0.  1.
     999902    2    1    2    0    0  0.24242646587E-01 -0.23258717482E-03 -0.20738788576E-02  0.10195976967E+01  0.10193073149E+01 0.  0.
     999903    2    3    3    0    0  0.85390667318E-01 -0.73643003300E-01 -0.65801334571E-01  0.13213538300E+00  0.20373654756E-01 0.  0.
         14    1    1    2    0    0 -0.24242646587E-01  0.23258717482E-03  0.20738788576E-02  0.24332303299E-01  0.00000000000E+00 0. -1.
     999901    1    3    3    0    0 -0.61148020731E-01  0.73410416125E-01  0.63727455713E-01  0.88746231371E+00  0.88000000000E+00 0. -1.
        -11    1    4    4    0    0  0.26645269065E-01 -0.20679051383E-01 -0.30655359351E-01  0.45580760278E-01  0.51100000000E-03 0. -1.
         11    1    4    4    0    0  0.58745398253E-01 -0.52963951917E-01 -0.35145975220E-01  0.86554622718E-01  0.51100000000E-03 0.  1.
</event>
<event>
 8    1  0.1137518E+005  0.1043930E+01  0.7957747E-01            NaN
         13   -1    0    0    0    0  0.00000000000E+00  0.00000000000E+00  0.74505805969E-08  0.10566000000E+00  0.10566000000E+00 0.  1.
     999900   -1    0    0    0    0 -0.00000000000E+00 -0.00000000000E+00 -0.74505805969E-08  0.93827000000E+00  0.93827000000E+00 0.  1.
     999902    2    1    2    0    0 -0.22413223737E-02 -0.17574669499E-01 -0.17629413281E-01  0.10189362258E+01  0.10186296401E+01 0.  0.
     999903    2    3    3    0    0 -0.13525486189E-01  0.95807691247E-01  0.78947732596E-01  0.12635007471E+00  0.19223538158E-01 0.  0.
         14    1    1    2    0    0  0.22413223737E-02  0.17574669499E-01  0.17629413281E-01  0.24993774157E-01  0.00000000000E+00 0.  1.
     999901    1    3    3    0    0  0.11284163815E-01 -0.11338236075E+00 -0.96577145878E-01  0.89258615113E+00  0.88000000000E+00 0. -1.
        -11    1    4    4    0    0 -0.71197888126E-03  0.13572526743E-01  0.20680806596E-01  0.24752318651E-01  0.51100000000E-03 0. -1.
         11    1    4    4    0    0 -0.12813507307E-01  0.82235164504E-01  0.58266926000E-01  0.10159775606E+00  0.51100000000E-03 0.  1.
</event>
<event>
 7    1  0.1691790E+005  0.1043930E+01  0.7957747E-01            NaN
         13   -1    0    0    0    0  0.00000000000E+00  0.00000000000E+00  0.74505805969E-08  0.10566000000E+00  0.10566000000E+00 0.  1.
     999900   -1    0    0    0    0 -0.00000000000E+00 -0.00000000000E+00 -0.74505805969E-08  0.93827000000E+00  0.93827000000E+00 0. -1.
     999903    2    1    2    0    0  0.91321551485E-01 -0.17237741860E-01  0.16167844449E-01  0.96554937175E-01  0.20608036997E-01 0.  0.
         14    1    1    2    0    0  0.52247735429E-01  0.19002405606E-01 -0.16575927543E-02  0.55620723566E-01  0.00000000000E+00 0. -1.
     999901    1    1    2    0    0 -0.14356928691E+00 -0.17646637455E-02 -0.14510251694E-01  0.89175433926E+00  0.88000000000E+00 0.  1.
        -11    1    3    3    0    0  0.34282319369E-01  0.35644674758E-02  0.63057267919E-02  0.35042918844E-01  0.51100000000E-03 0.  1.
         11    1    3    3    0    0  0.57039232115E-01 -0.20802209336E-01  0.98621176569E-02  0.61512018332E-01  0.51100000000E-03 0. -1.
</event>
<event>
 8    1  0.1137518E+005  0.1043930E+01  0.7957747E-01            NaN
         13   -1    0    0    0    0  0.00000000000E+00  0.00000000000E+00  0.74505805969E-08  0.10566000000E+00  0.10566000000E+00 0.  1.
     999900   -1    0    0    0    0 -0.00000000000E+00 -0.00000000000E+00 -0.74505805969E-08  0.93827000000E+00  0.93827000000E+00 0.  1.
     999902    2    1    2    0    0  0.61615289281E-02  0.18411457931E-01 -0.13215041925E-01  0.10204441840E+01  0.10201738818E+01 0.  0.
     999903    2    3    3    0    0  0.10863557532E-01  0.63639063877E-01 -0.11503608153E+00  0.13340688513E+00  0.19903507583E-01 0.  0.
         14    1    1    2    0    0 -0.61615289281E-02 -0.18411457931E-01  0.13215041925E-01  0.23485816038E-01  0.00000000000E+00 0.  1.
     999901    1    3    3    0    0 -0.47020286034E-02 -0.45227605946E-01  0.10182103960E+00  0.88703729883E+00  0.88000000000E+00 0. -1.
        -11    1    4    4    0    0  0.15996377218E-01  0.42509120329E-01 -0.70891984392E-01  0.84195272832E-01  0.51100000000E-03 0.  1.
         11    1    4    4    0    0 -0.51328196865E-02  0.21129943548E-01 -0.44144097134E-01  0.49211612299E-01  0.51100000000E-03 0. -1.
</event>
<event>
 8    1  0.1137518E+005  0.1043930E+01  0.7957747E-01            NaN
         13   -1    0    0    0    0  0.00000000000E+00  0.00000000000E+00  0.74505805969E-08  0.10566000000E+00  0.10566000000E+00 0.  1.
     999900   -1    0    0    0    0 -0.00000000000E+00 -0.00000000000E+00 -0.74505805969E-08  0.93827000000E+00  0.93827000000E+00 0. -1.
     999902    2    1    2    0    0  0.23534426427E-01  0.40790733468E-02  0.21865533038E-02  0.10199448154E+01  0.10196627567E+01 0.  0.
     999903    2    3    3    0    0  0.74091660606E-01  0.10103707079E+00 -0.37575600330E-01  0.13228614445E+00  0.19739159754E-01 0.  0.
         14    1    1    2    0    0 -0.23534426427E-01 -0.40790733468E-02 -0.21865533038E-02  0.23985184635E-01  0.00000000000E+00 0. -1.
     999901    1    3    3    0    0 -0.50557234179E-01 -0.96957997441E-01  0.39762153633E-01  0.88765867092E+00  0.88000000000E+00 0.  1.
        -11    1    4    4    0    0  0.24382776829E-01  0.26123870099E-01 -0.19020051557E-01  0.40484563442E-01  0.51100000000E-03 0.  1.
         11    1    4    4    0    0  0.49708883777E-01  0.74913200689E-01 -0.18555548772E-01  0.91801581005E-01  0.51100000000E-03 0. -1.
</event>
<event>
 8    1  0.1137518E+005  0.1043930E+01  0.7957747E-01            NaN
         13   -1    0    0    0    0  0.00000000000E+00  0.00000000000E+00  0.74505805969E-08  0.10566000000E+00  0.10566000000E+00 0. -1.
     999900   -1    0    0    0    0 -0.00000000000E+00 -0.00000000000E+00 -0.74505805969E-08  0.93827000000E+00  0.93827000000E+00 0.  1.
     999902    2    1    2    0    0  0.18573128895E-01  0.15920043837E-01  0.37098219806E-02  0.10191878964E+01  0.10188875288E+01 0.  0.
     999903    2    3    3    0    0  0.44879362597E-01 -0.11818639003E+00  0.14442015980E-01  0.12857477412E+00  0.18458622405E-01 0.  0.
         14    1    1    2    0    0 -0.18573128895E-01 -0.15920043837E-01 -0.37098219806E-02  0.24742103626E-01  0.00000000000E+00 0.  1.
     999901    1    3    3    0    0 -0.26306233702E-01  0.13410643386E+00 -0.10732193999E-01  0.89061312225E+00  0.88000000000E+00 0.  1.
        -11    1    4    4    0    0  0.10708687916E-01 -0.15679917093E-01 -0.26485820287E-02  0.19178422894E-01  0.51100000000E-03 0.  1.
         11    1    4    4    0    0  0.34170674681E-01 -0.10250647293E+00  0.17090598008E-01  0.10939635123E+00  0.51100000000E-03 0. -1.
</event>
<event>
 8    1  0.1137518E+005  0.1043930E+01  0.7957747E-01            NaN
         13   -1    0    0    0    0  0.00000000000E+00  0.00000000000E+00  0.74505805969E-08  0.10566000000E+00  0.10566000000E+00 0. -1.
     999900   -1    0    0    0    0 -0.00000000000E+00 -0.00000000000E+00 -0.74505805969E-08  0.93827000000E+00  0.93827000000E+00 0.  1.
     999902    2    1    2    0    0 -0.18449272513E-01 -0.53829381204E-02  0.11425403612E-01  0.10215717459E+01  0.10213270487E+01 0.  0.
     999903    2    3    3    0    0  0.11919969425E+00  0.45401035464E-01  0.77998687118E-02  0.12941739012E+00  0.20449982471E-01 0.  0.
         14    1    1    2    0    0  0.18449272513E-01  0.53829381204E-02 -0.11425403612E-01  0.22358254108E-01  0.00000000000E+00 0. -1.
     999901    1    3    3    0    0 -0.13764896676E+00 -0.50783973585E-01  0.36255349006E-02  0.89215435577E+00  0.88000000000E+00 0. -1.
        -11    1    4    4    0    0  0.10674570257E+00  0.46479951647E-01  0.46703035598E-02  0.11652082980E+00  0.51100000000E-03 0.  1.
         11    1    4    4    0    0  0.12453991682E-01 -0.10789161831E-02  0.31295651520E-02  0.12896560316E-01  0.51100000000E-03 0. -1.
</event>
<event>
 8    1  0.1137518E+005  0.1043930E+01  0.7957747E-01            NaN
         13   -1    0    0    0    0  0.00000000000E+00  0.00000000000E+00  0.74505805969E-08  0.10566000000E+00  0.10566000000E+00 0. -1.
     999900   -1    0    0    0    0 -0.00000000000E+00 -0.00000000000E+00 -0.74505805969E-08  0.93827000000E+00  0.93827000000E+00 0.  1.
     999902    2    1    2    0    0 -0.19235360068E-01 -0.86087050930E-03  0.15495689900E-01  0.10192144870E+01  0.10189147727E+01 0.  0.
     999903    2    3    3    0    0  0.89534344263E-02 -0.12740531167E+00  0.11573202519E-01  0.12970704490E+00  0.19434532415E-01 0.  0.
         14    1    1    2    0    0  0.19235360068E-01  0.86087050930E-03 -0.15495689900E-01  0.24715512952E-01  0.00000000000E+00 0.  1.
     999901    1    3    3    0    0 -0.28188794494E-01  0.12654444116E+00  0.39224873818E-02  0.88950744215E+00  0.88000000000E+00 0. -1.
        -11    1    4    4    0    0  0.45331970897E-02 -0.86224153185E-01  0.16780264151E-01  0.87960177662E-01  0.51100000000E-03 0.  1.
         11    1    4    4    0    0  0.44202373366E-02 -0.41181158489E-01 -0.52070616326E-02  0.41746867241E-01  0.51100000000E-03 0. -1.
</event>
<event>
 7    1  0.1137518E+005  0.1043930E+01  0.7957747E-01            NaN
         13   -1    0    0    0    0  0.00000000000E+00  0.00000000000E+00  0.74505805969E-08  0.10566000000E+00  0.10566000000E+00 0.  1.
     999900   -1    0    0    0    0 -0.00000000000E+00 -0.00000000000E+00 -0.74505805969E-08  0.93827000000E+00  0.93827000000E+00 0. -1.
     999903    2    1    2    0    0  0.76445246626E-01  0.37321993200E-03 -0.67788525197E-01  0.10409089515E+00  0.19890079944E-01 0.  0.
         14    1    1    2    0    0 -0.48982164153E-01 -0.63110952501E-02 -0.23458013338E-01  0.54675046576E-01  0.00000000000E+00 0. -1.
     999901    1    1    2    0    0 -0.27463082474E-01  0.59378753181E-02  0.91246538536E-01  0.88516405827E+00  0.88000000000E+00 0.  1.
        -11    1    3    3    0    0  0.51782382335E-01  0.16454491285E-02 -0.57313225740E-01  0.77260530602E-01  0.51100000000E-03 0.  1.
         11    1    3    3    0    0  0.24662864291E-01 -0.12722291965E-02 -0.10475299458E-01  0.26830364550E-01  0.51100000000E-03 0. -1.
</event>
<event>
 8    1  0.1137518E+005  0.1043930E+01  0.7957747E-01            NaN
         13   -1    0    0    0    0  0.00000000000E+00  0.00000000000E+00  0.74505805969E-08  0.10566000000E+00  0.10566000000E+00 0. -1.
     999900   -1    0    0    0    0 -0.00000000000E+00 -0.00000000000E+00 -0.74505805969E-08  0.93827000000E+00  0.93827000000E+00 0. -1.
     999902    2    1    2    0    0 -0.22767032942E-02 -0.20465297266E-01  0.10498570388E-01  0.10208165461E+01  0.10205548437E+01 0.  0.
     999903    2    3    3    0    0 -0.10059035532E+00 -0.75965402753E-01  0.38042355198E-01  0.13317670026E+00  0.19991265650E-01 0.  0.
         14    1    1    2    0    0  0.22767032942E-02  0.20465297266E-01 -0.10498570388E-01  0.23113453880E-01  0.00000000000E+00 0.  1.
     999901    1    3    3    0    0  0.98313652030E-01  0.55500105486E-01 -0.27543784810E-01  0.88763984586E+00  0.88000000000E+00 0. -1.
        -11    1    4    4    0    0 -0.53722844128E-01 -0.32580495468E-01  0.10854039154E-01  0.63762872842E-01  0.51100000000E-03 0. -1.
         11    1    4    4    0    0 -0.46867511196E-01 -0.43384907285E-01  0.27188316044E-01  0.69413827413E-01  0.51100000000E-03 0.  1.
</event>
<event>
 8    1  0.1137518E+005  0.1043930E+01  0.7957747E-01            NaN
         13   -1    0    0    0    0  0.00000000000E+00  0.00000000000E+00  0.74505805969E-08  0.10566000000E+00  0.10566000000E+00 0.  1.
     999900   -1    0    0    0    0 -0.00000000000E+00 -0.00000000000E+00 -0.74505805969E-08  0.93827000000E+00  0.93827000000E+00 0.  1.
     999902    2    1    2    0    0  0.42051351714E-03  0.22935375745E-01  0.58272299029E-02  0.10202621970E+01  0.10199876400E+01 0.  0.
     999903    2    3    3    0    0 -0.10297469655E+00 -0.84353466717E-02 -0.76002546746E-01  0.12988542052E+00  0.20466854889E-01 0.  0.
         14    1    1    2    0    0 -0.42051351714E-03 -0.22935375745E-01 -0.58272299029E-02  0.23667803035E-01  0.00000000000E+00 0.  1.
     999901    1    3    3    0    0  0.10339521006E+00  0.31370722416E-01  0.81829776649E-01  0.89037677645E+00  0.88000000000E+00 0. -1.
        -11    1    4    4    0    0 -0.72854224670E-01 -0.14712171866E-01 -0.49785435391E-01  0.89459693445E-01  0.51100000000E-03 0.  1.
         11    1    4    4    0    0 -0.30120471877E-01  0.62768251941E-02 -0.26217111355E-01  0.40425727073E-01  0.51100000000E-03 0. -1.
</event>
<event>
 8    1  0.1137518E+005  0.1043930E+01  0.7957747E-01            NaN
         13   -1    0    0    0    0  0.00000000000E+00  0.00000000000E+00  0.74505805969E-08  0.10566000000E+00  0.10566000000E+00 0. -1.
     999900   -1    0    0    0    0 -0.00000000000E+00 -0.00000000000E+00 -0.74505805969E-08  0.93827000000E+00  0.93827000000E+00 0. -1.
     999902    2    1    2    0    0 -0.10573014040E-01 -0.19414481300E-01  0.83586761140E-02  0.10202957415E+01  0.10200219713E+01 0.  0.
     999903    2    3    3    0    0  0.79764418933E-01  0.79554145156E-01 -0.56331339084E-01  0.12780459928E+00  0.21669593778E-01 0.  0.
         14    1    1    2    0    0  0.10573014040E-01  0.19414481300E-01 -0.83586761140E-02  0.23634258533E-01  0.00000000000E+00 0.  1.
     999901    1    3    3    0    0 -0.90337432973E-01 -0.98968626456E-01  0.64690015198E-01  0.89249114219E+00  0.88000000000E+00 0.  1.
        -11    1    4    4    0    0  0.25957841033E-01  0.12811980564E-01 -0.12823145135E-01  0.31664657415E-01  0.51100000000E-03 0. -1.
         11    1    4    4    0    0  0.53806577900E-01  0.66742164592E-01 -0.43508193949E-01  0.96139941863E-01  0.51100000000E-03 0.  1.
</event>
<event>
 8    1  0.1137518E+005  0.1043930E+01  0.7957747E-01            NaN
         13   -1    0    0    0    0  0.00000000000E+00  0.00000000000E+00  0.74505805969E-08  0.10566000000E+00  0.10566000000E+00 0. -1.
     999900   -1    0    0    0    0 -0.00000000000E+00 -0.00000000000E+00 -0.74505805969E-08  0.93827000000E+00  0.93827000000E+00 0. -1.
     999902    2    1    2    0    0 -0.13222807595E-01 -0.42767340029E-02 -0.19894044347E-01  0.10196626125E+01  0.10193737966E+01 0.  0.
     999903    2    3    3    0    0  0.88088630902E-01 -0.65910835688E-01  0.61985019552E-01  0.12794127087E+00  0.20566501581E-01 0.  0.
         14    1    1    2    0    0  0.13222807595E-01  0.42767340029E-02  0.19894044347E-01  0.24267387476E-01  0.00000000000E+00 0. -1.
     999901    1    3    3    0    0 -0.10131143850E+00  0.61634101685E-01 -0.81879063899E-01  0.89172134166E+00  0.88000000000E+00 0.  1.
        -11    1    4    4    0    0  0.52996906992E-01 -0.50976340629E-01  0.36746175240E-01  0.82205851193E-01  0.51100000000E-03 0. -1.
         11    1    4    4    0    0  0.35091723910E-01 -0.14934495059E-01  0.25238844312E-01  0.45735419675E-01  0.51100000000E-03 0.  1.
</event>
<event>
 8    1  0.1137518E+005  0.1043930E+01  0.7957747E-01            NaN
         13   -1    0    0    0    0  0.00000000000E+00  0.00000000000E+00  0.74505805969E-08  0.10566000000E+00  0.10566000000E+00 0.  1.
     999900   -1    0    0    0    0 -0.00000000000E+00 -0.00000000000E+00 -0.74505805969E-08  0.93827000000E+00  0.93827000000E+00 0. -1.
     999902    2    1    2    0    0  0.78548087376E-04  0.83463929164E-02 -0.22298017750E-01  0.10201209673E+01  0.10198430849E+01 0.  0.
     999903    2    3    3    0    0 -0.11191672117E+00  0.84670654739E-02  0.60410155767E-01  0.12917562838E+00  0.20974088111E-01 0.  0.
         14    1    1    2    0    0 -0.78548087376E-04 -0.83463929164E-02  0.22298017750E-01  0.23809032742E-01  0.00000000000E+00 0.  1.
     999901    1    3    3    0    0  0.11199526926E+00 -0.12067255746E-03 -0.82708173517E-01  0.89094533888E+00  0.88000000000E+00 0.  1.
        -11    1    4    4    0    0 -0.23017263237E-01  0.10277069407E-01  0.14906141612E-01  0.29289362255E-01  0.51100000000E-03 0. -1.
         11    1    4    4    0    0 -0.88899457936E-01 -0.18100039334E-02  0.45504014155E-01  0.99886266127E-01  0.51100000000E-03 0.  1.
</event>
<event>
 8    1  0.1137518E+005  0.1043930E+01  0.7957747E-01            NaN
         13   -1    0    0    0    0  0.00000000000E+00  0.00000000000E+00  0.74505805969E-08  0.10566000000E+00  0.10566000000E+00 0. -1.
     999900   -1    0    0    0    0 -0.00000000000E+00 -0.00000000000E+00 -0.74505805969E-08  0.93827000000E+00  0.93827000000E+00 0.  1.
     999902    2    1    2    0    0  0.62896948633E-02  0.18502965296E-01  0.13658584435E-01  0.10200872461E+01  0.10198085667E+01 0.  0.
     999903    2    3    3    0    0  0.24582659029E-01 -0.74461999216E-02  0.12800703960E+00  0.13212127774E+00  0.20260227726E-01 0.  0.
         14    1    1    2    0    0 -0.62896948633E-02 -0.18502965296E-01 -0.13658584435E-01  0.23842753930E-01  0.00000000000E+00 0.  1.
     999901    1    3    3    0    0 -0.18292964166E-01  0.25949165217E-01 -0.11434845516E+00  0.88796596833E+00  0.88000000000E+00 0.  1.
        -11    1    4    4    0    0 -0.19458003112E-02 -0.17289035136E-02  0.38453156156E-01  0.38544540283E-01  0.51100000000E-03 0.  1.
         11    1    4    4    0    0  0.26528459340E-01 -0.57172964080E-02  0.89553883440E-01  0.93576737458E-01  0.51100000000E-03 0. -1.
</event>
<event>
 7    1  0.1277420E+005  0.1043930E+01  0.7957747E-01            NaN
         13   -1    0    0    0    0  0.00000000000E+00  0.00000000000E+00  0.74505805969E-08  0.10566000000E+00  0.10566000000E+00 0. -1.
     999900   -1    0    0    0    0 -0.00000000000E+00 -0.00000000000E+00 -0.74505805969E-08  0.93827000000E+00  0.93827000000E+00 0.  1.
     999903    2    1    2    0    0 -0.80383201278E-01  0.37252018683E-01  0.85488411177E-02  0.89574677512E-01  0.10068178747E-01 0.  0.
         14    1    1    2    0    0 -0.14525146989E-02  0.24286153042E-01  0.61019783504E-01  0.65691255182E-01  0.00000000000E+00 0. -1.
     999901    1    1    2    0    0  0.81835715977E-01 -0.61538171725E-01 -0.69568624622E-01  0.88866406731E+00  0.88000000000E+00 0. -1.
        -11    1    3    3    0    0 -0.40152017166E-01  0.22443479774E-01  0.80372582916E-02  0.46698532190E-01  0.51100000000E-03 0.  1.
         11    1    3    3    0    0 -0.40231184112E-01  0.14808538908E-01  0.51158282611E-03  0.42876145322E-01  0.51100000000E-03 0. -1.
</event>
<event>
 8    1  0.1666222E+005  0.1043930E+01  0.7957747E-01            NaN
         13   -1    0    0    0    0  0.00000000000E+00  0.00000000000E+00  0.74505805969E-08  0.10566000000E+00  0.10566000000E+00 0.  1.
     999900   -1    0    0    0    0 -0.00000000000E+00 -0.00000000000E+00 -0.74505805969E-08  0.93827000000E+00  0.93827000000E+00 0.  1.
     999902    2    1    2    0    0  0.18340889360E-02  0.21953086334E-02 -0.23270231130E-01  0.10204845971E+01  0.10202152351E+01 0.  0.
     999903    2    3    3    0    0  0.50982402556E-01  0.71867708117E-01 -0.96029471814E-01  0.13337484788E+00  0.28337567824E-01 0.  0.
         14    1    1    2    0    0 -0.18340889360E-02 -0.21953086334E-02  0.23270231130E-01  0.23445402941E-01  0.00000000000E+00 0.  1.
     999901    1    3    3    0    0 -0.49148313620E-01 -0.69672399484E-01  0.72759240684E-01  0.88710974918E+00  0.88000000000E+00 0. -1.
        -11    1    4    4    0    0  0.39825660317E-01  0.32026440599E-01 -0.50407818908E-01  0.71784298041E-01  0.51100000000E-03 0. -1.
         11    1    4    4    0    0  0.11156742239E-01  0.39841267518E-01 -0.45621652906E-01  0.61590549841E-01  0.51100000000E-03 0.  1.
</event>
<event>
 8    1  0.1137518E+005  0.1043930E+01  0.7957747E-01            NaN
         13   -1    0    0    0    0  0.00000000000E+00  0.00000000000E+00  0.74505805969E-08  0.10566000000E+00  0.10566000000E+00 0. -1.
     999900   -1    0    0    0    0 -0.00000000000E+00 -0.00000000000E+00 -0.74505805969E-08  0.93827000000E+00  0.93827000000E+00 0. -1.
     999902    2    1    2    0    0  0.21548761874E-01 -0.80448982906E-02  0.58720978803E-02  0.10201907696E+01  0.10199145333E+01 0.  0.
     999903    2    3    3    0    0  0.44704339924E-01  0.16132915288E-01  0.12145451446E+00  0.13200157663E+00  0.20358491758E-01 0.  0.
         14    1    1    2    0    0 -0.21548761874E-01  0.80448982906E-02 -0.58720978803E-02  0.23739230407E-01  0.00000000000E+00 0.  1.
     999901    1    3    3    0    0 -0.23155578050E-01 -0.24177813579E-01 -0.11558241658E+00  0.88818919296E+00  0.88000000000E+00 0. -1.
        -11    1    4    4    0    0  0.15521334460E-02  0.74403799214E-02  0.20343342608E-01  0.21722823967E-01  0.51100000000E-03 0.  1.
         11    1    4    4    0    0  0.43152206478E-01  0.86925353667E-02  0.10111117186E+00  0.11027875267E+00  0.51100000000E-03 0. -1.
</event>
<event>
 8    1  0.1137518E+005  0.1043930E+01  0.7957747E-01            NaN
         13   -1    0    0    0    0  0.00000000000E+00  0.00000000000E+00  0.74505805969E-08  0.10566000000E+00  0.10566000000E+00 0. -1.
     999900   -1    0    0    0    0 -0.00000000000E+00 -0.00000000000E+00 -0.74505805969E-08  0.93827000000E+00  0.93827000000E+00 0. -1.
     999902    2    1    2    0    0 -0.50711558449E-02  0.26106398602E-02 -0.20624969822E-01  0.10225309009E+01  0.10223069607E+01 0.  0.
     999903    2    3    3    0    0  0.77604365187E-01 -0.61966702928E-01  0.81966830561E-01  0.13038150058E+00  0.20456407670E-01 0.  0.
         14    1    1    2    0    0  0.50711558449E-02 -0.26106398602E-02  0.20624969822E-01  0.21399099099E-01  0.00000000000E+00 0. -1.
     999901    1    3    3    0    0 -0.82675521031E-01  0.64577342788E-01 -0.10259180038E+00  0.89214940032E+00  0.88000000000E+00 0. -1.
        -11    1    4    4    0    0  0.67716067795E-01 -0.49418316273E-01  0.59469555863E-01  0.10278387527E+00  0.51100000000E-03 0.  1.
         11    1    4    4    0    0  0.98882973917E-02 -0.12548386655E-01  0.22497274698E-01  0.27597625310E-01  0.51100000000E-03 0. -1.
</event>
<event>
 8    1  0.1137518E+005  0.1043930E+01  0.7957747E-01            NaN
         13   -1    0    0    0    0  0.00000000000E+00  0.00000000000E+00  0.74505805969E-08  0.10566000000E+00  0.10566000000E+00 0. -1.
     999900   -1    0    0    0    0 -0.00000000000E+00 -0.00000000000E+00 -0.74505805969E-08  0.93827000000E+00  0.93827000000E+00 0. -1.
     999902    2    1    2    0    0  0.14684874489E-01  0.50365849738E-02 -0.19758755900E-01  0.10188019049E+01  0.10184919736E+01 0.  0.
     999903    2    3    3    0    0 -0.11907908253E+00 -0.80513370932E-02 -0.43124751297E-01  0.12829078224E+00  0.18818307763E-01 0.  0.
         14    1    1    2    0    0 -0.14684874489E-01 -0.50365849738E-02  0.19758755900E-01  0.25128095066E-01  0.00000000000E+00 0. -1.
     999901    1    3    3    0    0  0.13376395702E+00  0.13087922067E-01  0.23365995397E-01  0.89051112269E+00  0.88000000000E+00 0. -1.
        -11    1    4    4    0    0 -0.59076365314E-01 -0.67046004320E-02 -0.11909616371E-01  0.60638838122E-01  0.51100000000E-03 0. -1.
         11    1    4    4    0    0 -0.60002717219E-01 -0.13467366612E-02 -0.31215134926E-01  0.67651944116E-01  0.51100000000E-03 0.  1.
</event>
<event>
 8    1  0.1137518E+005  0.1043930E+01  0.7957747E-01            NaN
         13   -1    0    0    0    0  0.00000000000E+00  0.00000000000E+00  0.74505805969E-08  0.10566000000E+00  0.10566000000E+00 0.  1.
     999900   -1    0    0    0    0 -0.00000000000E+00 -0.00000000000E+00 -0.74505805969E-08  0.93827000000E+00  0.93827000000E+00 0. -1.
     999902    2    1    2    0    0  0.12031410305E-01 -0.15101695498E-01  0.11131448538E-01  0.10216426676E+01  0.10213995374E+01 0.  0.
     999903    2    3    3    0    0  0.23008563375E-01  0.11940841496E+00 -0.41278818909E-01  0.12981291708E+00  0.18965468611E-01 0.  0.
         14    1    1    2    0    0 -0.12031410305E-01  0.15101695498E-01 -0.11131448538E-01  0.22287332442E-01  0.00000000000E+00 0. -1.
     999901    1    3    3    0    0 -0.10977153070E-01 -0.13451011045E+00  0.52410267447E-01  0.89182975048E+00  0.88000000000E+00 0.  1.
        -11    1    4    4    0    0  0.17271980829E-01  0.64998062565E-01 -0.14090951289E-01  0.68715976950E-01  0.51100000000E-03 0.  1.
         11    1    4    4    0    0  0.57365825459E-02  0.54410352390E-01 -0.27187867620E-01  0.61096940130E-01  0.51100000000E-03 0. -1.
</event>
<event>
 8    1  0.1137518E+005  0.1043930E+01  0.7957747E-01            NaN
         13   -1    0    0    0    0  0.00000000000E+00  0.00000000000E+00  0.74505805969E-08  0.10566000000E+00  0.10566000000E+00 0.  1.
     999900   -1    0    0    0    0 -0.00000000000E+00 -0.00000000000E+00 -0.74505805969E-08  0.93827000000E+00  0.93827000000E+00 0.  1.
     999902    2    1    2    0    0 -0.25826848265E-01  0.79427080305E-02 -0.42943669295E-02  0.10165702798E+01  0.10162020367E+01 0.  0.
     999903    2    3    3    0    0  0.61286904572E-02  0.28819134510E-01 -0.12022292148E+00  0.12814672575E+00  0.33165179177E-01 0.  0.
         14    1    1    2    0    0  0.25826848265E-01 -0.79427080305E-02  0.42943669295E-02  0.27359720201E-01  0.00000000000E+00 0. -1.
     999901    1    3    3    0    0 -0.31955538722E-01 -0.20876426480E-01  0.11592855455E+00  0.88842355405E+00  0.88000000000E+00 0. -1.
        -11    1    4    4    0    0 -0.47609774130E-02 -0.47761532803E-02 -0.38921074164E-01  0.39504299527E-01  0.51100000000E-03 0.  1.
         11    1    4    4    0    0  0.10889667870E-01  0.33595287791E-01 -0.81301847315E-01  0.88642426218E-01  0.51100000000E-03 0. -1.
</event>
<event>
 8    1  0.1137518E+005  0.1043930E+01  0.7957747E-01            NaN
         13   -1    0    0    0    0  0.00000000000E+00  0.00000000000E+00  0.74505805969E-08  0.10566000000E+00  0.10566000000E+00 0.  1.
     999900   -1    0    0    0    0 -0.00000000000E+00 -0.00000000000E+00 -0.74505805969E-08  0.93827000000E+00  0.93827000000E+00 0. -1.
     999902    2    1    2    0    0  0.81772199782E-02 -0.91471136454E-02 -0.20570740531E-01  0.10199781320E+01  0.10196968656E+01 0.  0.
     999903    2    3    3    0    0 -0.29032156679E-01  0.36784319499E-01 -0.12192806657E+00  0.13219012701E+00  0.20293446716E-01 0.  0.
         14    1    1    2    0    0 -0.81772199782E-02  0.91471136454E-02  0.20570740531E-01  0.23951867998E-01  0.00000000000E+00 0.  1.
     999901    1    3    3    0    0  0.37209376658E-01 -0.45931433145E-01  0.10135732604E+00  0.88778800499E+00  0.88000000000E+00 0.  1.
        -11    1    4    4    0    0 -0.22573214945E-01  0.19694083806E-01 -0.95255031853E-01  0.99855842014E-01  0.51100000000E-03 0.  1.
         11    1    4    4    0    0 -0.64589417346E-02  0.17090235693E-01 -0.26673034716E-01  0.32334284999E-01  0.51100000000E-03 0. -1.
</event>
<event>
 8    1  0.1137518E+005  0.1043930E+01  0.7957747E-01            NaN
         13   -1    0    0    0    0  0.00000000000E+00  0.00000000000E+00  0.74505805969E-08  0.10566000000E+00  0.10566000000E+00 0.  1.
     999900   -1    0    0    0    0 -0.00000000000E+00 -0.00000000000E+00 -0.74505805969E-08  0.93827000000E+00  0.93827000000E+00 0.  1.
     999902    2    1    2    0    0  0.17690140795E-01 -0.12036906998E-01  0.10275911554E-01  0.10201934760E+01  0.10199173035E+01 0.  0.
     999903    2    3    3    0    0  0.58820432181E-01 -0.90301771090E-01  0.75691896837E-01  0.13334718668E+00  0.20927394608E-01 0.  0.
         14    1    1    2    0    0 -0.17690140795E-01  0.12036906998E-01 -0.10275911554E-01  0.23736523959E-01  0.00000000000E+00 0. -1.
     999901    1    3    3    0    0 -0.41130291386E-01  0.78264864092E-01 -0.65415985283E-01  0.88684628936E+00  0.88000000000E+00 0. -1.
        -11    1    4    4    0    0  0.22756318711E-02  0.32766352645E-03  0.41764178207E-02  0.47947315474E-02  0.51100000000E-03 0. -1.
         11    1    4    4    0    0  0.56544800310E-01 -0.90629434616E-01  0.71515479016E-01  0.12855245513E+00  0.51100000000E-03 0.  1.
</event>
<event>
 8    1  0.1137518E+005  0.1043930E+01  0.7957747E-01            NaN
         13   -1    0    0    0    0  0.00000000000E+00  0.00000000000E+00  0.74505805969E-08  0.10566000000E+00  0.10566000000E+00 0. -1.
     999900   -1    0    0    0    0 -0.00000000000E+00 -0.00000000000E+00 -0.74505805969E-08  0.93827000000E+00  0.93827000000E+00 0.  1.
     999902    2    1    2    0    0  0.15658022927E-01 -0.17357047420E-01  0.58002318303E-02  0.10198450780E+01  0.10195606405E+01 0.  0.
     999903    2    3    3    0    0 -0.64945285518E-01 -0.11177849484E+00  0.96601834999E-02  0.13112284792E+00  0.19686545666E-01 0.  0.
         14    1    1    2    0    0 -0.15658022927E-01  0.17357047420E-01 -0.58002318303E-02  0.24084921972E-01  0.00000000000E+00 0.  1.
     999901    1    3    3    0    0  0.80603308445E-01  0.94421447423E-01 -0.38599516696E-02  0.88872223011E+00  0.88000000000E+00 0. -1.
        -11    1    4    4    0    0 -0.19111677868E-01 -0.18165151773E-01  0.45768133194E-02  0.26766346613E-01  0.51100000000E-03 0.  1.
         11    1    4    4    0    0 -0.45833607650E-01 -0.93613343071E-01  0.50833701806E-02  0.10435650130E+00  0.51100000000E-03 0. -1.
</event>
<event>
 8    1  0.1137518E+005  0.1043930E+01  0.7957747E-01            NaN
         13   -1    0    0    0    0  0.00000000000E+00  0.00000000000E+00  0.74505805969E-08  0.10566000000E+00  0.10566000000E+00 0. -1.
     999900   -1    0    0    0    0 -0.00000000000E+00 -0.00000000000E+00 -0.74505805969E-08  0.93827000000E+00  0.93827000000E+00 0. -1.
     999902    2    1    2    0    0  0.16570535025E-01  0.12818675555E-01 -0.10810014473E-01  0.10203554907E+01  0.10200831192E+01 0.  0.
     999903    2    3    3    0    0 -0.11678605113E+00  0.44482434298E-01 -0.27666025237E-01  0.12958576865E+00  0.20233481814E-01 0.  0.
         14    1    1    2    0    0 -0.16570535025E-01 -0.12818675555E-01  0.10810014473E-01  0.23574509261E-01  0.00000000000E+00 0. -1.
     999901    1    3    3    0    0  0.13335658615E+00 -0.31663758743E-01  0.16856010764E-01  0.89076972209E+00  0.88000000000E+00 0. -1.
        -11    1    4    4    0    0 -0.59287671140E-01  0.32644814464E-01 -0.18521212662E-01  0.70171278313E-01  0.51100000000E-03 0.  1.
         11    1    4    4    0    0 -0.57498379986E-01  0.11837619833E-01 -0.91448125752E-02  0.59414490340E-01  0.51100000000E-03 0. -1.
</event>
<event>
 7    1  0.1137518E+005  0.1043930E+01  0.7957747E-01            NaN
         13   -1    0    0    0    0  0.00000000000E+00  0.00000000000E+00  0.74505805969E-08  0.10566000000E+00  0.10566000000E+00 0.  1.
     999900   -1    0    0    0    0 -0.00000000000E+00 -0.00000000000E+00 -0.74505805969E-08  0.93827000000E+00  0.93827000000E+00 0.  1.
     999903    2    1    2    0    0 -0.35146298224E-01 -0.39810789459E-01  0.93791967417E-01  0.10972652684E+00  0.20562497496E-01 0.  0.
         14    1    1    2    0    0  0.32207903774E-01 -0.32449730770E-01  0.37061882956E-02  0.45870141969E-01  0.00000000000E+00 0.  1.
     999901    1    1    2    0    0  0.29383944507E-02  0.72260520229E-01 -0.97498155712E-01  0.88833333120E+00  0.88000000000E+00 0.  1.
        -11    1    3    3    0    0 -0.24656120156E-01 -0.17935775671E-01  0.36857922372E-01  0.47837055434E-01  0.51100000000E-03 0.  1.
         11    1    3    3    0    0 -0.10490178068E-01 -0.21875013788E-01  0.56934045045E-01  0.61889471401E-01  0.51100000000E-03 0. -1.
</event>
<event>
 8    1  0.1137518E+005  0.1043930E+01  0.7957747E-01            NaN
         13   -1    0    0    0    0  0.00000000000E+00  0.00000000000E+00  0.74505805969E-08  0.10566000000E+00  0.10566000000E+00 0.  1.
     999900   -1    0    0    0    0 -0.00000000000E+00 -0.00000000000E+00 -0.74505805969E-08  0.93827000000E+00  0.93827000000E+00 0. -1.
     999902    2    1    2    0    0  0.43050164284E-02 -0.20214751662E-01  0.11453761028E-01  0.10203004001E+01  0.10200267391E+01 0.  0.
     999903    2    3    3    0    0  0.10102323967E+00  0.42428298381E-01 -0.66185688461E-01  0.12939835689E+00  0.18908568185E-01 0.  0.
         14    1    1    2    0    0 -0.43050164284E-02  0.20214751662E-01 -0.11453761028E-01  0.23629599931E-01  0.00000000000E+00 0. -1.
     999901    1    3    3    0    0 -0.96718223245E-01 -0.62643050043E-01  0.77639449489E-01  0.89090204318E+00  0.88000000000E+00 0.  1.
        -11    1    4    4    0    0  0.55516392159E-01  0.22922304396E-01 -0.47115933576E-01  0.76339204574E-01  0.51100000000E-03 0. -1.
         11    1    4    4    0    0  0.45506847514E-01  0.19505993985E-01 -0.19069754885E-01  0.53059152315E-01  0.51100000000E-03 0.  1.
</event>
<event>
 8    1  0.1137518E+005  0.1043930E+01  0.7957747E-01            NaN
         13   -1    0    0    0    0  0.00000000000E+00  0.00000000000E+00  0.74505805969E-08  0.10566000000E+00  0.10566000000E+00 0. -1.
     999900   -1    0    0    0    0 -0.00000000000E+00 -0.00000000000E+00 -0.74505805969E-08  0.93827000000E+00  0.93827000000E+00 0.  1.
     999902    2    1    2    0    0 -0.57463828898E-02  0.37547992474E-03 -0.24209332414E-01  0.10190451918E+01  0.10187413064E+01 0.  0.
     999903    2    3    3    0    0  0.12374698640E+00 -0.23985329567E-01  0.13946438066E-01  0.12841741069E+00  0.20196919471E-01 0.  0.
         14    1    1    2    0    0  0.57463828898E-02 -0.37547992474E-03  0.24209332414E-01  0.24884808166E-01  0.00000000000E+00 0. -1.
     999901    1    3    3    0    0 -0.12949336929E+00  0.24360809491E-01 -0.38155770481E-01  0.89062778115E+00  0.88000000000E+00 0.  1.
        -11    1    4    4    0    0  0.82059641637E-01 -0.23418119346E-01  0.15314842362E-01  0.86700626393E-01  0.51100000000E-03 0. -1.
         11    1    4    4    0    0  0.41687344761E-01 -0.56721022076E-03 -0.13684042951E-02  0.41716784296E-01  0.51100000000E-03 0.  1.
</event>
<event>
 8    1  0.1137518E+005  0.1043930E+01  0.7957747E-01            NaN
         13   -1    0    0    0    0  0.00000000000E+00  0.00000000000E+00  0.74505805969E-08  0.10566000000E+00  0.10566000000E+00 0.  1.
     999900   -1    0    0    0    0 -0.00000000000E+00 -0.00000000000E+00 -0.74505805969E-08  0.93827000000E+00  0.93827000000E+00 0.  1.
     999902    2    1    2    0    0 -0.30240944658E-02 -0.21286995784E-01  0.79179095659E-02  0.10210176752E+01  0.10207605588E+01 0.  0.
     999903    2    3    3    0    0 -0.34667042703E-01 -0.12526532799E+00  0.26383012562E-01  0.13413903085E+00  0.20099999931E-01 0.  0.
         14    1    1    2    0    0  0.30240944658E-02  0.21286995784E-01 -0.79179095659E-02  0.22912324822E-01  0.00000000000E+00 0. -1.
     999901    1    3    3    0    0  0.31642948238E-01  0.10397833221E+00 -0.18465102996E-01  0.88687864433E+00  0.88000000000E+00 0.  1.
        -11    1    4    4    0    0 -0.25553903130E-01 -0.10903391021E+00  0.28031531101E-01  0.11544446023E+00  0.51100000000E-03 0.  1.
         11    1    4    4    0    0 -0.91131395728E-02 -0.16231417785E-01 -0.16485185391E-02  0.18694570617E-01  0.51100000000E-03 0. -1.
</event>
<event>
 8    1  0.1137518E+005  0.1043930E+01  0.7957747E-01            NaN
         13   -1    0    0    0    0  0.00000000000E+00  0.00000000000E+00  0.74505805969E-08  0.10566000000E+00  0.10566000000E+00 0. -1.
     999900   -1    0    0    0    0 -0.00000000000E+00 -0.00000000000E+00 -0.74505805969E-08  0.93827000000E+00  0.93827000000E+00 0.  1.
     999902    2    1    2    0    0  0.19068556728E-02  0.23594909411E-01 -0.13136962281E-02  0.10202217389E+01  0.10199462313E+01 0.  0.
     999903    2    3    3    0    0 -0.10612541612E+00  0.45628577147E-02  0.72683291742E-01  0.13032919199E+00  0.20479593983E-01 0.  0.
         14    1    1    2    0    0 -0.19068556728E-02 -0.23594909411E-01  0.13136962281E-02  0.23708261144E-01  0.00000000000E+00 0.  1.
     999901    1    3    3    0    0  0.10803227179E+00  0.19032051697E-01 -0.73996987970E-01  0.88989254687E+00  0.88000000000E+00 0. -1.
        -11    1    4    4    0    0 -0.92903655987E-01  0.63680075883E-02  0.54938997875E-01  0.10812120710E+00  0.51100000000E-03 0.  1.
         11    1    4    4    0    0 -0.13221760130E-01 -0.18051498736E-02  0.17744293867E-01  0.22207984889E-01  0.51100000000E-03 0. -1.
</event>
<event>
 8    1  0.1137518E+005  0.1043930E+01  0.7957747E-01            NaN
         13   -1    0    0    0    0  0.00000000000E+00  0.00000000000E+00  0.74505805969E-08  0.10566000000E+00  0.10566000000E+00 0. -1.
     999900   -1    0    0    0    0 -0.00000000000E+00 -0.00000000000E+00 -0.74505805969E-08  0.93827000000E+00  0.93827000000E+00 0.  1.
     999902    2    1    2    0    0  0.11429681576E-01  0.17211653755E-01  0.11050454724E-01  0.10204994389E+01  0.10202304218E+01 0.  0.
     999903    2    3    3    0    0 -0.58102632432E-01 -0.11190456537E+00 -0.10300569475E-01  0.12810848923E+00  0.20177602344E-01 0.  0.
         14    1    1    2    0    0 -0.11429681576E-01 -0.17211653755E-01 -0.11050454724E-01  0.23430561144E-01  0.00000000000E+00 0.  1.
     999901    1    3    3    0    0  0.69532314008E-01  0.12911621912E+00  0.21351024199E-01  0.89239094962E+00  0.88000000000E+00 0.  1.
        -11    1    4    4    0    0 -0.36773142015E-01 -0.53760127923E-01  0.10366686806E-02  0.65144079784E-01  0.51100000000E-03 0. -1.
         11    1    4    4    0    0 -0.21329490416E-01 -0.58144437447E-01 -0.11337238156E-01  0.62964409451E-01  0.51100000000E-03 0.  1.
</event>
<event>
 8    1  0.1137518E+005  0.1043930E+01  0.7957747E-01            NaN
         13   -1    0    0    0    0  0.00000000000E+00  0.00000000000E+00  0.74505805969E-08  0.10566000000E+00  0.10566000000E+00 0. -1.
     999900   -1    0    0    0    0 -0.00000000000E+00 -0.00000000000E+00 -0.74505805969E-08  0.93827000000E+00  0.93827000000E+00 0. -1.
     999902    2    1    2    0    0 -0.22194778340E-01  0.85479450232E-02  0.52480994861E-02  0.10195739310E+01  0.10192829748E+01 0.  0.
     999903    2    3    3    0    0  0.85266837524E-01  0.48640046843E-01  0.81088985340E-01  0.12889597825E+00  0.20061453794E-01 0.  0.
         14    1    1    2    0    0  0.22194778340E-01 -0.85479450232E-02 -0.52480994861E-02  0.24356069016E-01  0.00000000000E+00 0.  1.
     999901    1    3    3    0    0 -0.10746161586E+00 -0.40092101820E-01 -0.75840885854E-01  0.89067795273E+00  0.88000000000E+00 0. -1.
        -11    1    4    4    0    0  0.75301379186E-01  0.37698763151E-01  0.75392052592E-01  0.11302971806E+00  0.51100000000E-03 0. -1.
         11    1    4    4    0    0  0.99654583380E-02  0.10941283691E-01  0.56969327486E-02  0.15866260191E-01  0.51100000000E-03 0.  1.
</event>
<event>
 8    1  0.1137518E+005  0.1043930E+01  0.7957747E-01            NaN
         13   -1    0    0    0    0  0.00000000000E+00  0.00000000000E+00  0.74505805969E-08  0.10566000000E+00  0.10566000000E+00 0. -1.
     999900   -1    0    0    0    0 -0.00000000000E+00 -0.00000000000E+00 -0.74505805969E-08  0.93827000000E+00  0.93827000000E+00 0.  1.
     999902    2    1    2    0    0 -0.23720118166E-01  0.23846120040E-02  0.14019563221E-02  0.10200491319E+01  0.10197695502E+01 0.  0.
     999903    2    3    3    0    0 -0.11157170999E-01 -0.92699732431E-01 -0.88568408257E-01  0.13027751698E+00  0.20252052520E-01 0.  0.
         14    1    1    2    0    0  0.23720118166E-01 -0.23846120040E-02 -0.14019563221E-02  0.23880868112E-01  0.00000000000E+00 0. -1.
     999901    1    3    3    0    0 -0.12562947168E-01  0.95084344435E-01  0.89970364579E-01  0.88977161491E+00  0.88000000000E+00 0. -1.
        -11    1    4    4    0    0 -0.13210852896E-01 -0.58733488868E-01 -0.45931302470E-01  0.75723807461E-01  0.51100000000E-03 0.  1.
         11    1    4    4    0    0  0.20536818973E-02 -0.33966243562E-01 -0.42637105787E-01  0.54553709516E-01  0.51100000000E-03 0. -1.
</event>
<event>
 7    1  0.1137518E+005  0.1043930E+01  0.7957747E-01            NaN
         13   -1    0    0    0    0  0.00000000000E+00  0.00000000000E+00  0.74505805969E-08  0.10566000000E+00  0.10566000000E+00 0. -1.
     999900   -1    0    0    0    0 -0.00000000000E+00 -0.00000000000E+00 -0.74505805969E-08  0.93827000000E+00  0.93827000000E+00 0. -1.
     999903    2    1    2    0    0  0.11091179463E-01  0.76807920943E-01 -0.78647252824E-01  0.11218326701E+00  0.19422256296E-01 0.  0.
         14    1    1    2    0    0 -0.16089918124E-01  0.33856296560E-01  0.20913900610E-01  0.42924649337E-01  0.00000000000E+00 0. -1.
     999901    1    1    2    0    0  0.49987386607E-02 -0.11066421750E+00  0.57733352214E-01  0.88882208365E+00  0.88000000000E+00 0.  1.
        -11    1    3    3    0    0 -0.26526980132E-02  0.41185058965E-01 -0.34336504927E-01  0.53688942812E-01  0.51100000000E-03 0. -1.
         11    1    3    3    0    0  0.13743877477E-01  0.35622861979E-01 -0.44310747897E-01  0.58494324202E-01  0.51100000000E-03 0.  1.
</event>
<event>
 8    1  0.1137518E+005  0.1043930E+01  0.7957747E-01            NaN
         13   -1    0    0    0    0  0.00000000000E+00  0.00000000000E+00  0.74505805969E-08  0.10566000000E+00  0.10566000000E+00 0. -1.
     999900   -1    0    0    0    0 -0.00000000000E+00 -0.00000000000E+00 -0.74505805969E-08  0.93827000000E+00  0.93827000000E+00 0. -1.
     999902    2    1    2    0    0  0.10800642933E-01  0.20259299361E-01 -0.26073904892E-02  0.10208239059E+01  0.10205623721E+01 0.  0.
     999903    2    3    3    0    0  0.12767352464E-01  0.28188375553E-01  0.12611032540E+00  0.13142242820E+00  0.20259581806E-01 0.  0.
         14    1    1    2    0    0 -0.10800642933E-01 -0.20259299361E-01  0.26073904892E-02  0.23106094078E-01  0.00000000000E+00 0.  1.
     999901    1    3    3    0    0 -0.19667095311E-02 -0.79290761921E-02 -0.12871771589E+00  0.88940147773E+00  0.88000000000E+00 0. -1.
        -11    1    4    4    0    0 -0.54738301720E-02  0.64189249824E-02  0.33780117573E-01  0.34821299214E-01  0.51100000000E-03 0. -1.
         11    1    4    4    0    0  0.18241182636E-01  0.21769450570E-01  0.92330207829E-01  0.96601128983E-01  0.51100000000E-03 0.  1.
</event>
<event>
 8    1  0.1137518E+005  0.1043930E+01  0.7957747E-01            NaN
         13   -1    0    0    0    0  0.00000000000E+00  0.00000000000E+00  0.74505805969E-08  0.10566000000E+00  0.10566000000E+00 0.  1.
     999900   -1    0    0    0    0 -0.00000000000E+00 -0.00000000000E+00 -0.74505805969E-08  0.93827000000E+00  0.93827000000E+00 0. -1.
     999902    2    1    2    0    0  0.42502262167E-02 -0.22077437154E-02 -0.23158838017E-01  0.10202811029E+01  0.10200069895E+01 0.  0.
     999903    2    3    3    0    0  0.28116806392E-01 -0.49270247388E-01  0.11274039264E+00  0.12828721628E+00  0.23002209653E-01 0.  0.
         14    1    1    2    0    0 -0.42502262167E-02  0.22077437154E-02  0.23158838017E-01  0.23648897088E-01  0.00000000000E+00 0.  1.
     999901    1    3    3    0    0 -0.23866580175E-01  0.47062503673E-01 -0.13589923065E+00  0.89199388663E+00  0.88000000000E+00 0. -1.
        -11    1    4    4    0    0  0.14052407696E-01 -0.31757509928E-01  0.89310616873E-01  0.95826181214E-01  0.51100000000E-03 0.  1.
         11    1    4    4    0    0  0.14064398696E-01 -0.17512737460E-01  0.23429775764E-01  0.32461035063E-01  0.51100000000E-03 0. -1.
</event>
<event>
 8    1  0.1137518E+005  0.1043930E+01  0.7957747E-01            NaN
         13   -1    0    0    0    0  0.00000000000E+00  0.00000000000E+00  0.74505805969E-08  0.10566000000E+00  0.10566000000E+00 0. -1.
     999900   -1    0    0    0    0 -0.00000000000E+00 -0.00000000000E+00 -0.74505805969E-08  0.93827000000E+00  0.93827000000E+00 0. -1.
     999902    2    1    2    0    0 -0.97848154708E-02  0.20602492657E-01 -0.11343843221E-03  0.10211217080E+01  0.10208669474E+01 0.  0.
     999903    2    3    3    0    0 -0.39499603353E-01  0.68004018302E-02 -0.12370038984E+00  0.13188203223E+00  0.22014082991E-01 0.  0.
         14    1    1    2    0    0  0.97848154708E-02 -0.20602492657E-01  0.11343843221E-03  0.22808292039E-01  0.00000000000E+00 0.  1.
     999901    1    3    3    0    0  0.29714787882E-01  0.13802090827E-01  0.12358695141E+00  0.88923967573E+00  0.88000000000E+00 0.  1.
        -11    1    4    4    0    0 -0.18655060458E-01  0.12653478039E-01 -0.79894848386E-01  0.83015478718E-01  0.51100000000E-03 0. -1.
         11    1    4    4    0    0 -0.20844542895E-01 -0.58530762084E-02 -0.43805541452E-01  0.48866553516E-01  0.51100000000E-03 0.  1.
</event>
<event>
 8    1  0.1137518E+005  0.1043930E+01  0.7957747E-01            NaN
         13   -1    0    0    0    0  0.00000000000E+00  0.00000000000E+00  0.74505805969E-08  0.10566000000E+00  0.10566000000E+00 0.  1.
     999900   -1    0    0    0    0 -0.00000000000E+00 -0.00000000000E+00 -0.74505805969E-08  0.93827000000E+00  0.93827000000E+00 0. -1.
     999902    2    1    2    0    0 -0.74604033190E-02 -0.22473170547E-01  0.92341320895E-03  0.10202328756E+01  0.10199576299E+01 0.  0.
     999903    2    3    3    0    0  0.70330772618E-01 -0.91414341484E-02 -0.10744685522E+00  0.13007933980E+00  0.18596358558E-01 0.  0.
         14    1    1    2    0    0  0.74604033190E-02  0.22473170547E-01 -0.92341320895E-03  0.23697124384E-01  0.00000000000E+00 0. -1.
     999901    1    3    3    0    0 -0.77791175937E-01 -0.13331736398E-01  0.10837026842E+00  0.89015353582E+00  0.88000000000E+00 0.  1.
        -11    1    4    4    0    0  0.29142905788E-01 -0.44898191048E-02 -0.29039980664E-01  0.41388996501E-01  0.51100000000E-03 0. -1.
         11    1    4    4    0    0  0.41187866830E-01 -0.46516150436E-02 -0.78406874551E-01  0.88690343299E-01  0.51100000000E-03 0.  1.
</event>
<event>
 8    1  0.1137518E+005  0.1043930E+01  0.7957747E-01            NaN
         13   -1    0    0    0    0  0.00000000000E+00  0.00000000000E+00  0.74505805969E-08  0.10566000000E+00  0.10566000000E+00 0.  1.
     999900   -1    0    0    0    0 -0.00000000000E+00 -0.00000000000E+00 -0.74505805969E-08  0.93827000000E+00  0.93827000000E+00 0.  1.
     999902    2    1    2    0    0 -0.19542679541E-01  0.22892216368E-02  0.12928686433E-01  0.10203862579E+01  0.10201146051E+01 0.  0.
     999903    2    3    3    0    0 -0.34661343465E-01  0.11788824303E+00 -0.40844269519E-01  0.13107009447E+00  0.20299476268E-01 0.  0.
         14    1    1    2    0    0  0.19542679541E-01 -0.22892216368E-02 -0.12928686433E-01  0.23543742103E-01  0.00000000000E+00 0. -1.
     999901    1    3    3    0    0  0.15118663924E-01 -0.11559902139E+00  0.53772955952E-01  0.88931616343E+00  0.88000000000E+00 0.  1.
        -11    1    4    4    0    0 -0.27860630901E-01  0.81019519440E-01 -0.37181108899E-01  0.93397394313E-01  0.51100000000E-03 0.  1.
         11    1    4    4    0    0 -0.68007125641E-02  0.36868723585E-01 -0.36631606196E-02  0.37672700154E-01  0.51100000000E-03 0. -1.
</event>
<event>
 8    1  0.1137518E+005  0.1043930E+01  0.7957747E-01            NaN
         13   -1    0    0    0    0  0.00000000000E+00  0.00000000000E+00  0.74505805969E-08  0.10566000000E+00  0.10566000000E+00 0.  1.
     999900   -1    0    0    0    0 -0.00000000000E+00 -0.00000000000E+00 -0.74505805969E-08  0.93827000000E+00  0.93827000000E+00 0. -1.
     999902    2    1    2    0    0  0.14517043433E-01 -0.11490804456E-02 -0.18143789901E-01  0.10206649608E+01  0.10203997747E+01 0.  0.
     999903    2    3    3    0    0  0.15955479173E-01 -0.12490558871E+00 -0.33751374537E-01  0.13186726779E+00  0.19845342705E-01 0.  0.
         14    1    1    2    0    0 -0.14517043433E-01  0.11490804456E-02  0.18143789901E-01  0.23265039177E-01  0.00000000000E+00 0. -1.
     999901    1    3    3    0    0 -0.14384357392E-02  0.12375650826E+00  0.15607584636E-01  0.88879769303E+00  0.88000000000E+00 0. -1.
        -11    1    4    4    0    0  0.10777369916E-02 -0.79102439306E-01 -0.17369082990E-01  0.80995701034E-01  0.51100000000E-03 0. -1.
         11    1    4    4    0    0  0.14877742181E-01 -0.45803149400E-01 -0.16382291547E-01  0.50871566760E-01  0.51100000000E-03 0.  1.
</event>
<event>
 8    1  0.1137518E+005  0.1043930E+01  0.7957747E-01            NaN
         13   -1    0    0    0    0  0.00000000000E+00  0.00000000000E+00  0.74505805969E-08  0.10566000000E+00  0.10566000000E+00 0. -1.
     999900   -1    0    0    0    0 -0.00000000000E+00 -0.00000000000E+00 -0.74505805969E-08  0.93827000000E+00  0.93827000000E+00 0. -1.
     999902    2    1    2    0    0 -0.16783380440E-01  0.64251671661E-02  0.16251101591E-01  0.10197006184E+01  0.10194127173E+01 0.  0.
     999903    2    3    3    0    0 -0.21539037937E-01 -0.53137989046E-01  0.11694355001E+00  0.13194538462E+00  0.21123792243E-01 0.  0.
         14    1    1    2    0    0  0.16783380440E-01 -0.64251671661E-02 -0.16251101591E-01  0.24229381648E-01  0.00000000000E+00 0.  1.
     999901    1    3    3    0    0  0.47556574969E-02  0.59563156212E-01 -0.10069244841E+00  0.88775523374E+00  0.88000000000E+00 0. -1.
        -11    1    4    4    0    0 -0.12297766867E-01 -0.20939185387E-01  0.71317250339E-01  0.75339869071E-01  0.51100000000E-03 0.  1.
         11    1    4    4    0    0 -0.92412710692E-02 -0.32198803659E-01  0.45626299666E-01  0.56605515547E-01  0.51100000000E-03 0. -1.
</event>
<event>
 8    1  0.1137518E+005  0.1043930E+01  0.7957747E-01            NaN
         13   -1    0    0    0    0  0.00000000000E+00  0.00000000000E+00  0.74505805969E-08  0.10566000000E+00  0.10566000000E+00 0.  1.
     999900   -1    0    0    0    0 -0.00000000000E+00 -0.00000000000E+00 -0.74505805969E-08  0.93827000000E+00  0.93827000000E+00 0.  1.
     999902    2    1    2    0    0  0.13894122305E-01 -0.11363699711E-01 -0.11877593139E-01  0.10224065820E+01  0.10221800043E+01 0.  0.
     999903    2    3    3    0    0 -0.22089747032E-01 -0.86726403114E-01  0.94919856484E-01  0.13202460147E+00  0.20280293827E-01 0.  0.
         14    1    1    2    0    0 -0.13894122305E-01  0.11363699711E-01  0.11877593139E-01  0.21523418049E-01  0.00000000000E+00 0.  1.
     999901    1    3    3    0    0  0.35983869337E-01  0.75362703403E-01 -0.10679744962E+00  0.89038198048E+00  0.88000000000E+00 0. -1.
        -11    1    4    4    0    0 -0.15156422584E-01 -0.23273137329E-01  0.32353210942E-01  0.42642085385E-01  0.51100000000E-03 0.  1.
         11    1    4    4    0    0 -0.69333244484E-02 -0.63453265784E-01  0.62566645542E-01  0.89382516087E-01  0.51100000000E-03 0. -1.
</event>
<event>
 8    1  0.1137518E+005  0.1043930E+01  0.7957747E-01            NaN
         13   -1    0    0    0    0  0.00000000000E+00  0.00000000000E+00  0.74505805969E-08  0.10566000000E+00  0.10566000000E+00 0.  1.
     999900   -1    0    0    0    0 -0.00000000000E+00 -0.00000000000E+00 -0.74505805969E-08  0.93827000000E+00  0.93827000000E+00 0. -1.
     999902    2    1    2    0    0 -0.65934544013E-02  0.22128029147E-01 -0.39188540207E-03  0.10208372113E+01  0.10205759820E+01 0.  0.
     999903    2    3    3    0    0 -0.64705649451E-02  0.21286368543E-01  0.12790799143E+00  0.13153322398E+00  0.21108222160E-01 0.  0.
         14    1    1    2    0    0  0.65934544013E-02 -0.22128029147E-01  0.39188540207E-03  0.23092788680E-01  0.00000000000E+00 0. -1.
     999901    1    3    3    0    0 -0.12288945620E-03  0.84166060421E-03 -0.12829987684E+00  0.88930398734E+00  0.88000000000E+00 0. -1.
        -11    1    4    4    0    0 -0.11657128876E-01  0.20959414144E-01  0.85382538495E-01  0.88688357160E-01  0.51100000000E-03 0. -1.
         11    1    4    4    0    0  0.51865639310E-02  0.32695439922E-03  0.42525452938E-01  0.42844866824E-01  0.51100000000E-03 0.  1.
</event>
<event>
 8    1  0.1137518E+005  0.1043930E+01  0.7957747E-01            NaN
         13   -1    0    0    0    0  0.00000000000E+00  0.00000000000E+00  0.74505805969E-08  0.10566000000E+00  0.10566000000E+00 0.  1.
     999900   -1    0    0    0    0 -0.00000000000E+00 -0.00000000000E+00 -0.74505805969E-08  0.93827000000E+00  0.93827000000E+00 0.  1.
     999902    2    1    2    0    0  0.19308296429E-01 -0.12302004144E-01 -0.33813462328E-02  0.10207873312E+01  0.10205249592E+01 0.  0.
     999903    2    3    3    0    0  0.10993774493E+00 -0.15075101992E-02 -0.72715306969E-01  0.13335428237E+00  0.20180892234E-01 0.  0.
         14    1    1    2    0    0 -0.19308296429E-01  0.12302004144E-01  0.33813462328E-02  0.23142668802E-01  0.00000000000E+00 0. -1.
     999901    1    3    3    0    0 -0.90629448504E-01 -0.10794493944E-01  0.69333960736E-01  0.88743304883E+00  0.88000000000E+00 0. -1.
        -11    1    4    4    0    0  0.41265609412E-01  0.15151958172E-02 -0.38956173087E-01  0.56771391397E-01  0.51100000000E-03 0. -1.
         11    1    4    4    0    0  0.68672135521E-01 -0.30227060164E-02 -0.33759133882E-01  0.76582890976E-01  0.51100000000E-03 0.  1.
</event>
<event>
 8    1  0.1137518E+005  0.1043930E+01  0.7957747E-01            NaN
         13   -1    0    0    0    0  0.00000000000E+00  0.00000000000E+00  0.74505805969E-08  0.10566000000E+00  0.10566000000E+00 0. -1.
     999900   -1    0    0    0    0 -0.00000000000E+00 -0.00000000000E+00 -0.74505805969E-08  0.93827000000E+00  0.93827000000E+00 0.  1.
     999902    2    1    2    0    0 -0.13583137317E-01  0.12241999053E-01 -0.15949759359E-01  0.10196655613E+01  0.10193768165E+01 0.  0.
     999903    2    3    3    0    0  0.38130962276E-01 -0.86652770548E-01 -0.86588759526E-01  0.12980917298E+00  0.19751840059E-01 0.  0.
         14    1    1    2    0    0  0.13583137317E-01 -0.12241999053E-01  0.15949759359E-01  0.24264438666E-01  0.00000000000E+00 0. -1.
     999901    1    3    3    0    0 -0.51714099592E-01  0.98894769600E-01  0.70639000166E-01  0.88985638835E+00  0.88000000000E+00 0. -1.
        -11    1    4    4    0    0 -0.50636348223E-03 -0.16955547495E-01 -0.16772283096E-01  0.23860377115E-01  0.51100000000E-03 0.  1.
         11    1    4    4    0    0  0.38637325758E-01 -0.69697223053E-01 -0.69816476430E-01  0.10594879586E+00  0.51100000000E-03 0. -1.
</event>
<event>
 7    1  0.1562864E+005  0.1043930E+01  0.7957747E-01            NaN
         13   -1    0    0    0    0  0.00000000000E+00  0.00000000000E+00  0.74505805969E-08  0.10566000000E+00  0.10566000000E+00 0. -1.
     999900   -1    0    0    0    0 -0.00000000000E+00 -0.00000000000E+00 -0.74505805969E-08  0.93827000000E+00  0.93827000000E+00 0.  1.
     999903    2    1    2    0    0  0.50712004048E-01  0.74689037823E-01  0.65843542262E-01  0.11362669920E+00  0.20627529834E-01 0.  0.
         14    1    1    2    0    0 -0.75865822777E-02 -0.86106875845E-02  0.38926219213E-01  0.40582640544E-01  0.00000000000E+00 0. -1.
     999901    1    1    2    0    0 -0.43125421770E-01 -0.66078350239E-01 -0.10476976148E+00  0.88972066026E+00  0.88000000000E+00 0.  1.
        -11    1    3    3    0    0  0.82263905634E-02  0.79854914461E-02  0.17524411866E-01  0.20947737529E-01  0.51100000000E-03 0.  1.
         11    1    3    3    0    0  0.42485613485E-01  0.66703546377E-01  0.48319130396E-01  0.92678961667E-01  0.51100000000E-03 0. -1.
</event>
<event>
 8    1  0.1137518E+005  0.1043930E+01  0.7957747E-01            NaN
         13   -1    0    0    0    0  0.00000000000E+00  0.00000000000E+00  0.74505805969E-08  0.10566000000E+00  0.10566000000E+00 0. -1.
     999900   -1    0    0    0    0 -0.00000000000E+00 -0.00000000000E+00 -0.74505805969E-08  0.93827000000E+00  0.93827000000E+00 0. -1.
     999902    2    1    2    0    0 -0.15951116833E-01  0.14669456213E-01 -0.12886824846E-01  0.10187168818E+01  0.10184048232E+01 0.  0.
     999903    2    3    3    0    0  0.34158576429E-01 -0.11764725906E+00  0.25315832895E-01  0.12659685763E+00  0.19447032108E-01 0.  0.
         14    1    1    2    0    0  0.15951116833E-01 -0.14669456213E-01  0.12886824846E-01  0.25213118181E-01  0.00000000000E+00 0. -1.
     999901    1    3    3    0    0 -0.50109693263E-01  0.13231671528E+00 -0.38202657741E-01  0.89212002419E+00  0.88000000000E+00 0.  1.
        -11    1    4    4    0    0  0.28256069418E-01 -0.64755901960E-01  0.11216541143E-01  0.71538830112E-01  0.51100000000E-03 0.  1.
         11    1    4    4    0    0  0.59025070117E-02 -0.52891357103E-01  0.14099291752E-01  0.55058027518E-01  0.51100000000E-03 0. -1.
</event>
<event>
 8    1  0.1137518E+005  0.1043930E+01  0.7957747E-01            NaN
         13   -1    0    0    0    0  0.00000000000E+00  0.00000000000E+00  0.74505805969E-08  0.10566000000E+00  0.10566000000E+00 0. -1.
     999900   -1    0    0    0    0 -0.00000000000E+00 -0.00000000000E+00 -0.74505805969E-08  0.93827000000E+00  0.93827000000E+00 0.  1.
     999902    2    1    2    0    0  0.10048888799E-01 -0.14496142996E-01  0.24590670192E-01  0.10136674920E+01  0.10132156557E+01 0.  0.
     999903    2    3    3    0    0  0.52103219614E-01  0.75044321088E-01  0.84908970228E-01  0.12607278792E+00  0.18396168285E-01 0.  0.
         14    1    1    2    0    0 -0.10048888799E-01  0.14496142996E-01 -0.24590670192E-01  0.30262507965E-01  0.00000000000E+00 0.  1.
     999901    1    3    3    0    0 -0.42054330815E-01 -0.89540464084E-01 -0.60318300036E-01  0.88759470411E+00  0.88000000000E+00 0.  1.
        -11    1    4    4    0    0  0.35893668531E-01  0.64356855974E-01  0.65053581261E-01  0.98297456261E-01  0.51100000000E-03 0.  1.
         11    1    4    4    0    0  0.16209551082E-01  0.10687465114E-01  0.19855388967E-01  0.27775331661E-01  0.51100000000E-03 0. -1.
</event>
<event>
 8    1  0.1137518E+005  0.1043930E+01  0.7957747E-01            NaN
         13   -1    0    0    0    0  0.00000000000E+00  0.00000000000E+00  0.74505805969E-08  0.10566000000E+00  0.10566000000E+00 0. -1.
     999900   -1    0    0    0    0 -0.00000000000E+00 -0.00000000000E+00 -0.74505805969E-08  0.93827000000E+00  0.93827000000E+00 0.  1.
     999902    2    1    2    0    0  0.13265239493E-01  0.11672847575E-01 -0.15971699432E-01  0.10201115800E+01  0.10198334759E+01 0.  0.
     999903    2    3    3    0    0  0.59171764648E-01  0.10900811774E+00  0.39721146267E-01  0.13180799622E+00  0.20285732476E-01 0.  0.
         14    1    1    2    0    0 -0.13265239493E-01 -0.11672847575E-01  0.15971699432E-01  0.23818420016E-01  0.00000000000E+00 0. -1.
     999901    1    3    3    0    0 -0.45906525155E-01 -0.97335270162E-01 -0.55692845699E-01  0.88830358377E+00  0.88000000000E+00 0.  1.
        -11    1    4    4    0    0  0.55083417906E-01  0.86651211017E-01  0.29144237297E-01  0.10673454449E+00  0.51100000000E-03 0. -1.
         11    1    4    4    0    0  0.40883467415E-02  0.22356906720E-01  0.10576908970E-01  0.25073451728E-01  0.51100000000E-03 0.  1.
</event>
<event>
 8    1  0.1137518E+005  0.1043930E+01  0.7957747E-01            NaN
         13   -1    0    0    0    0  0.00000000000E+00  0.00000000000E+00  0.74505805969E-08  0.10566000000E+00  0.10566000000E+00 0.  1.
     999900   -1    0    0    0    0 -0.00000000000E+00 -0.00000000000E+00 -0.74505805969E-08  0.93827000000E+00  0.93827000000E+00 0. -1.
     999902    2    1    2    0    0 -0.18751348183E-01  0.10090147929E-01 -0.96252777149E-02  0.10205618568E+01  0.10202942877E+01 0.  0.
     999903    2    3    3    0    0 -0.11575162583E+00  0.35768183237E-01  0.50567289636E-01  0.13281664534E+00  0.20134763090E-01 0.  0.
         14    1    1    2    0    0  0.18751348183E-01 -0.10090147929E-01  0.96252777149E-02  0.23368143165E-01  0.00000000000E+00 0.  1.
     999901    1    3    3    0    0  0.97000277647E-01 -0.25678035309E-01 -0.60192567351E-01  0.88774521149E+00  0.88000000000E+00 0. -1.
        -11    1    4    4    0    0 -0.95425438354E-01  0.21720758139E-01  0.37032087741E-01  0.10463958268E+00  0.51100000000E-03 0. -1.
         11    1    4    4    0    0 -0.20326187476E-01  0.14047425098E-01  0.13535201895E-01  0.28177062667E-01  0.51100000000E-03 0.  1.
</event>
<event>
 8    1  0.1137518E+005  0.1043930E+01  0.7957747E-01            NaN
         13   -1    0    0    0    0  0.00000000000E+00  0.00000000000E+00  0.74505805969E-08  0.10566000000E+00  0.10566000000E+00 0.  1.
     999900   -1    0    0    0    0 -0.00000000000E+00 -0.00000000000E+00 -0.74505805969E-08  0.93827000000E+00  0.93827000000E+00 0.  1.
     999902    2    1    2    0    0  0.16007009914E-01  0.31047406411E-02  0.16192413216E-01  0.10209504868E+01  0.10206918431E+01 0.  0.
     999903    2    3    3    0    0 -0.97928782318E-01  0.12933755253E-01 -0.79489740204E-01  0.12840746333E+00  0.20310820003E-01 0.  0.
         14    1    1    2    0    0 -0.16007009914E-01 -0.31047406411E-02 -0.16192413216E-01  0.22979513193E-01  0.00000000000E+00 0. -1.
     999901    1    3    3    0    0  0.11393579223E+00 -0.98290146118E-02  0.95682153421E-01  0.89254302348E+00  0.88000000000E+00 0.  1.
        -11    1    4    4    0    0 -0.41929999619E-01 -0.42396453386E-02 -0.36414133563E-01  0.55698740604E-01  0.51100000000E-03 0.  1.
         11    1    4    4    0    0 -0.55998782698E-01  0.17173400591E-01 -0.43075606641E-01  0.72708722723E-01  0.51100000000E-03 0. -1.
</event>
<event>
 8    1  0.1137518E+005  0.1043930E+01  0.7957747E-01            NaN
         13   -1    0    0    0    0  0.00000000000E+00  0.00000000000E+00  0.74505805969E-08  0.10566000000E+00  0.10566000000E+00 0.  1.
     999900   -1    0    0    0    0 -0.00000000000E+00 -0.00000000000E+00 -0.74505805969E-08  0.93827000000E+00  0.93827000000E+00 0. -1.
     999902    2    1    2    0    0  0.82223519589E-02 -0.10278920793E-01 -0.19463990601E-01  0.10204329743E+01  0.10201624111E+01 0.  0.
     999903    2    3    3    0    0  0.53681054956E-01 -0.10814847369E+00 -0.51793170185E-01  0.13325197877E+00  0.22266776738E-01 0.  0.
         14    1    1    2    0    0 -0.82223519589E-02  0.10278920793E-01  0.19463990601E-01  0.23497025653E-01  0.00000000000E+00 0.  1.
     999901    1    3    3    0    0 -0.45458702997E-01  0.97869552893E-01  0.32329179584E-01  0.88718099558E+00  0.88000000000E+00 0.  1.
        -11    1    4    4    0    0  0.44531314160E-01 -0.66790173840E-01 -0.30891190865E-01  0.86014487480E-01  0.51100000000E-03 0. -1.
         11    1    4    4    0    0  0.91497407955E-02 -0.41358299846E-01 -0.20901979320E-01  0.47237491289E-01  0.51100000000E-03 0.  1.
</event>
<event>
 8    1  0.1137518E+005  0.1043930E+01  0.7957747E-01            NaN
         13   -1    0    0    0    0  0.00000000000E+00  0.00000000000E+00  0.74505805969E-08  0.10566000000E+00  0.10566000000E+00 0. -1.
     999900   -1    0    0    0    0 -0.00000000000E+00 -0.00000000000E+00 -0.74505805969E-08  0.93827000000E+00  0.93827000000E+00 0. -1.
     999902    2    1    2    0    0 -0.44219939164E-02  0.39620565831E-02  0.23087991868E-01  0.10200908035E+01  0.10198122082E+01 0.  0.
     999903    2    3    3    0    0 -0.66261143811E-01 -0.94466962572E-01 -0.53493099353E-01  0.12914915791E+00  0.22437627168E-01 0.  0.
         14    1    1    2    0    0  0.44219939164E-02 -0.39620565831E-02 -0.23087991868E-01  0.23839196527E-01  0.00000000000E+00 0.  1.
     999901    1    3    3    0    0  0.61839149895E-01  0.98429019155E-01  0.76581091221E-01  0.89094164557E+00  0.88000000000E+00 0.  1.
        -11    1    4    4    0    0 -0.23343638302E-01 -0.51126627129E-01 -0.20702001820E-01  0.59897340935E-01  0.51100000000E-03 0.  1.
         11    1    4    4    0    0 -0.42917505510E-01 -0.43340335443E-01 -0.32791097532E-01  0.69251816971E-01  0.51100000000E-03 0. -1.
</event>
<event>
 8    1  0.1137518E+005  0.1043930E+01  0.7957747E-01            NaN
         13   -1    0    0    0    0  0.00000000000E+00  0.00000000000E+00  0.74505805969E-08  0.10566000000E+00  0.10566000000E+00 0. -1.
     999900   -1    0    0    0    0 -0.00000000000E+00 -0.00000000000E+00 -0.74505805969E-08  0.93827000000E+00  0.93827000000E+00 0. -1.
     999902    2    1    2    0    0 -0.89385517945E-02  0.15985720320E-01 -0.15401501225E-01  0.10199999519E+01  0.10197192038E+01 0.  0.
     999903    2    3    3    0    0  0.81955516403E-01 -0.96313194331E-01  0.23018045583E-02  0.12804357129E+00  0.19922845515E-01 0.  0.
         14    1    1    2    0    0  0.89385517945E-02 -0.15985720320E-01  0.15401501225E-01  0.23930048105E-01  0.00000000000E+00 0. -1.
     999901    1    3    3    0    0 -0.90894068198E-01  0.11229891465E+00 -0.17703305783E-01  0.89195638060E+00  0.88000000000E+00 0. -1.
        -11    1    4    4    0    0  0.59466390186E-01 -0.57771299100E-01  0.68165986246E-02  0.83189552825E-01  0.51100000000E-03 0.  1.
         11    1    4    4    0    0  0.22489126217E-01 -0.38541895231E-01 -0.45147940662E-02  0.44854018465E-01  0.51100000000E-03 0. -1.
</event>
<event>
 8    1  0.1137518E+005  0.1043930E+01  0.7957747E-01            NaN
         13   -1    0    0    0    0  0.00000000000E+00  0.00000000000E+00  0.74505805969E-08  0.10566000000E+00  0.10566000000E+00 0. -1.
     999900   -1    0    0    0    0 -0.00000000000E+00 -0.00000000000E+00 -0.74505805969E-08  0.93827000000E+00  0.93827000000E+00 0.  1.
     999902    2    1    2    0    0 -0.18174927132E-01 -0.19761392485E-01  0.23843615044E-02  0.10169758577E+01  0.10166185958E+01 0.  0.
     999903    2    3    3    0    0 -0.10297658480E+00  0.67777021281E-01 -0.28139996724E-01  0.12805177121E+00  0.20186506978E-01 0.  0.
         14    1    1    2    0    0  0.18174927132E-01  0.19761392485E-01 -0.23843615044E-02  0.26954142334E-01  0.00000000000E+00 0.  1.
     999901    1    3    3    0    0  0.84801657672E-01 -0.87538413766E-01  0.30524358228E-01  0.88892408645E+00  0.88000000000E+00 0.  1.
        -11    1    4    4    0    0 -0.30113354012E-01  0.96534770200E-02 -0.92175199056E-02  0.32942791361E-01  0.51100000000E-03 0.  1.
         11    1    4    4    0    0 -0.72863230791E-01  0.58123544261E-01 -0.18922476818E-01  0.95108979854E-01  0.51100000000E-03 0. -1.
</event>
<event>
 8    1  0.1137518E+005  0.1043930E+01  0.7957747E-01            NaN
         13   -1    0    0    0    0  0.00000000000E+00  0.00000000000E+00  0.74505805969E-08  0.10566000000E+00  0.10566000000E+00 0. -1.
     999900   -1    0    0    0    0 -0.00000000000E+00 -0.00000000000E+00 -0.74505805969E-08  0.93827000000E+00  0.93827000000E+00 0. -1.
     999902    2    1    2    0    0  0.18572575726E-01 -0.57291519710E-03  0.16288240317E-01  0.10192201725E+01  0.10189205978E+01 0.  0.
     999903    2    3    3    0    0  0.88243759221E-01  0.59664547981E-01 -0.71879513611E-01  0.13003167811E+00  0.19868404759E-01 0.  0.
         14    1    1    2    0    0 -0.18572575726E-01  0.57291519710E-03 -0.16288240317E-01  0.24709827469E-01  0.00000000000E+00 0. -1.
     999901    1    3    3    0    0 -0.69671183495E-01 -0.60237463178E-01  0.88167753928E-01  0.88918849442E+00  0.88000000000E+00 0.  1.
        -11    1    4    4    0    0  0.56237474806E-01  0.38329872351E-01 -0.34140954809E-01  0.76142620150E-01  0.51100000000E-03 0. -1.
         11    1    4    4    0    0  0.32006284415E-01  0.21334675630E-01 -0.37738558801E-01  0.53889057959E-01  0.51100000000E-03 0.  1.
</event>
<event>
 8    1  0.1137518E+005  0.1043930E+01  0.7957747E-01            NaN
         13   -1    0    0    0    0  0.00000000000E+00  0.00000000000E+00  0.74505805969E-08  0.10566000000E+00  0.10566000000E+00 0.  1.
     999900   -1    0    0    0    0 -0.00000000000E+00 -0.00000000000E+00 -0.74505805969E-08  0.93827000000E+00  0.93827000000E+00 0.  1.
     999902    2    1    2    0    0 -0.16490265288E-01 -0.59657036805E-02 -0.16671757791E-01  0.10197335958E+01  0.10194464873E+01 0.  0.
     999903    2    3    3    0    0 -0.99232389775E-01 -0.38246241426E-01  0.73492389461E-01  0.13067911728E+00  0.19132648024E-01 0.  0.
         14    1    1    2    0    0  0.16490265288E-01  0.59657036805E-02  0.16671757791E-01  0.24196404227E-01  0.00000000000E+00 0.  1.
     999901    1    3    3    0    0  0.82742124487E-01  0.32280537745E-01 -0.90164147252E-01  0.88905447849E+00  0.88000000000E+00 0.  1.
        -11    1    4    4    0    0 -0.60360823445E-01 -0.31732287466E-01  0.52187755187E-01  0.85873103980E-01  0.51100000000E-03 0. -1.
         11    1    4    4    0    0 -0.38871566330E-01 -0.65139539596E-02  0.21304634274E-01  0.44806013298E-01  0.51100000000E-03 0.  1.
</event>
<event>
 8    1  0.1137518E+005  0.1043930E+01  0.7957747E-01            NaN
         13   -1    0    0    0    0  0.00000000000E+00  0.00000000000E+00  0.74505805969E-08  0.10566000000E+00  0.10566000000E+00 0.  1.
     999900   -1    0    0    0    0 -0.00000000000E+00 -0.00000000000E+00 -0.74505805969E-08  0.93827000000E+00  0.93827000000E+00 0. -1.
     999902    2    1    2    0    0  0.16876780143E-01  0.10545731575E-01  0.13514132814E-01  0.10198744404E+01  0.10195907043E+01 0.  0.
     999903    2    3    3    0    0 -0.41587110161E-01 -0.86857644743E-01  0.84668326056E-01  0.12972368720E+00  0.19641064181E-01 0.  0.
         14    1    1    2    0    0 -0.16876780143E-01 -0.10545731575E-01 -0.13514132814E-01  0.24055559610E-01  0.00000000000E+00 0. -1.
     999901    1    3    3    0    0  0.58463890304E-01  0.97403376317E-01 -0.71154193242E-01  0.89015075319E+00  0.88000000000E+00 0. -1.
        -11    1    4    4    0    0 -0.15889681945E-01 -0.15019036265E-01  0.16313723540E-01  0.27284650253E-01  0.51100000000E-03 0.  1.
         11    1    4    4    0    0 -0.25697428216E-01 -0.71838608477E-01  0.68354602516E-01  0.10243903695E+00  0.51100000000E-03 0. -1.
</event>
<event>
 8    1  0.1137518E+005  0.1043930E+01  0.7957747E-01            NaN
         13   -1    0    0    0    0  0.00000000000E+00  0.00000000000E+00  0.74505805969E-08  0.10566000000E+00  0.10566000000E+00 0. -1.
     999900   -1    0    0    0    0 -0.00000000000E+00 -0.00000000000E+00 -0.74505805969E-08  0.93827000000E+00  0.93827000000E+00 0. -1.
     999902    2    1    2    0    0 -0.22631989455E-01  0.90536256600E-02  0.36683971931E-02  0.10192798028E+01  0.10189816898E+01 0.  0.
     999903    2    3    3    0    0  0.16994505952E-01  0.71801235302E-01 -0.10453653017E+00  0.12955185114E+00  0.20287073947E-01 0.  0.
         14    1    1    2    0    0  0.22631989455E-01 -0.90536256600E-02 -0.36683971931E-02  0.24650197205E-01  0.00000000000E+00 0. -1.
     999901    1    3    3    0    0 -0.39626495407E-01 -0.62747609642E-01  0.10820492736E+00  0.88972795166E+00  0.88000000000E+00 0.  1.
        -11    1    4    4    0    0  0.14022559841E-01  0.41530215314E-01 -0.76563725434E-01  0.88225031265E-01  0.51100000000E-03 0. -1.
         11    1    4    4    0    0  0.29719461116E-02  0.30271019989E-01 -0.27972804738E-01  0.41326819872E-01  0.51100000000E-03 0.  1.
</event>
