<event>
 8    1  0.1116619E+005  0.1043930E+01  0.7957747E-01            NaN
         13   -1    0    0    0    0  0.00000000000E+00  0.00000000000E+00  0.74505805969E-08  0.10566000000E+00  0.10566000000E+00 0. -1.
     999900   -1    0    0    0    0 -0.00000000000E+00 -0.00000000000E+00 -0.74505805969E-08  0.93827000000E+00  0.93827000000E+00 0. -1.
     999902    2    1    2    0    0  0.13904272573E-01  0.10657257697E-01 -0.15780325044E-01  0.10203519467E+01  0.10200794923E+01 0.  0.
     999903    2    3    3    0    0  0.99643475532E-01 -0.77217337930E-01 -0.32065529403E-01  0.13167969930E+00  0.20494036646E-01 0.  0.
         14    1    1    2    0    0 -0.13904272573E-01 -0.10657257697E-01  0.15780325044E-01  0.23578053267E-01  0.00000000000E+00 0.  1.
     999901    1    3    3    0    0 -0.85739202960E-01  0.87874595626E-01  0.16285204359E-01  0.88867224744E+00  0.88000000000E+00 0.  1.
        -11    1    4    4    0    0  0.57394903071E-01 -0.56872772561E-01 -0.21393864487E-01  0.83586157443E-01  0.51100000000E-03 0. -1.
         11    1    4    4    0    0  0.42248572461E-01 -0.20344565368E-01 -0.10671664915E-01  0.48093541855E-01  0.51100000000E-03 0.  1.
</event>
<event>
 8    1  0.1116619E+005  0.1043930E+01  0.7957747E-01            NaN
         13   -1    0    0    0    0  0.00000000000E+00  0.00000000000E+00  0.74505805969E-08  0.10566000000E+00  0.10566000000E+00 0. -1.
     999900   -1    0    0    0    0 -0.00000000000E+00 -0.00000000000E+00 -0.74505805969E-08  0.93827000000E+00  0.93827000000E+00 0.  1.
     999902    2    1    2    0    0  0.13564643368E-01  0.15060651199E-01 -0.12189865001E-01  0.10202780324E+01  0.10200038469E+01 0.  0.
     999903    2    3    3    0    0  0.77201843042E-01 -0.54508143828E-01  0.86654613625E-01  0.12973901504E+00  0.19797162638E-01 0.  0.
         14    1    1    2    0    0 -0.13564643368E-01 -0.15060651199E-01  0.12189865001E-01  0.23651967635E-01  0.00000000000E+00 0. -1.
     999901    1    3    3    0    0 -0.63637199674E-01  0.69568795027E-01 -0.98844478626E-01  0.89053901733E+00  0.88000000000E+00 0.  1.
        -11    1    4    4    0    0  0.44695509268E-01 -0.27387122223E-01  0.35376938968E-01  0.63241852789E-01  0.51100000000E-03 0. -1.
         11    1    4    4    0    0  0.32506333774E-01 -0.27121021605E-01  0.51277674657E-01  0.66497162251E-01  0.51100000000E-03 0.  1.
</event>
<event>
 8    1  0.1116619E+005  0.1043930E+01  0.7957747E-01            NaN
         13   -1    0    0    0    0  0.00000000000E+00  0.00000000000E+00  0.74505805969E-08  0.10566000000E+00  0.10566000000E+00 0. -1.
     999900   -1    0    0    0    0 -0.00000000000E+00 -0.00000000000E+00 -0.74505805969E-08  0.93827000000E+00  0.93827000000E+00 0. -1.
     999902    2    1    2    0    0 -0.63606458701E-02 -0.22065449122E-01  0.37566541608E-02  0.10206608292E+01  0.10203955478E+01 0.  0.
     999903    2    3    3    0    0  0.10587284161E+00  0.11961165701E-01 -0.71226790077E-01  0.12971937029E+00  0.20043236479E-01 0.  0.
         14    1    1    2    0    0  0.63606458701E-02  0.22065449122E-01 -0.37566541608E-02  0.23269170834E-01  0.00000000000E+00 0.  1.
     999901    1    3    3    0    0 -0.11223348748E+00 -0.34026614823E-01  0.74983444237E-01  0.89094145887E+00  0.88000000000E+00 0.  1.
        -11    1    4    4    0    0  0.58572032507E-01  0.11146029155E-01 -0.50212313595E-01  0.77951616503E-01  0.51100000000E-03 0. -1.
         11    1    4    4    0    0  0.47300809106E-01  0.81513654639E-03 -0.21014476482E-01  0.51767753790E-01  0.51100000000E-03 0.  1.
</event>
<event>
 8    1  0.1116619E+005  0.1043930E+01  0.7957747E-01            NaN
         13   -1    0    0    0    0  0.00000000000E+00  0.00000000000E+00  0.74505805969E-08  0.10566000000E+00  0.10566000000E+00 0.  1.
     999900   -1    0    0    0    0 -0.00000000000E+00 -0.00000000000E+00 -0.74505805969E-08  0.93827000000E+00  0.93827000000E+00 0.  1.
     999902    2    1    2    0    0 -0.13991467041E-01  0.15662296405E-02 -0.17128916246E-01  0.10217576299E+01  0.10215170288E+01 0.  0.
     999903    2    3    3    0    0 -0.61848980004E-01 -0.11000408042E+00  0.33569899682E-01  0.13197751908E+00  0.19103228553E-01 0.  0.
         14    1    1    2    0    0  0.13991467041E-01 -0.15662296405E-02  0.17128916246E-01  0.22172370126E-01  0.00000000000E+00 0.  1.
     999901    1    3    3    0    0  0.47857512963E-01  0.11157031006E+00 -0.50698815928E-01  0.88978011080E+00  0.88000000000E+00 0.  1.
        -11    1    4    4    0    0 -0.29398921448E-01 -0.51399595074E-01  0.59403016077E-02  0.59512715115E-01  0.51100000000E-03 0.  1.
         11    1    4    4    0    0 -0.32450058555E-01 -0.58604485343E-01  0.27629598074E-01  0.72464803962E-01  0.51100000000E-03 0. -1.
</event>
<event>
 8    1  0.1116619E+005  0.1043930E+01  0.7957747E-01            NaN
         13   -1    0    0    0    0  0.00000000000E+00  0.00000000000E+00  0.74505805969E-08  0.10566000000E+00  0.10566000000E+00 0. -1.
     999900   -1    0    0    0    0 -0.00000000000E+00 -0.00000000000E+00 -0.74505805969E-08  0.93827000000E+00  0.93827000000E+00 0. -1.
     999902    2    1    2    0    0 -0.12250263960E-01 -0.94435977425E-02  0.17778725291E-01  0.10203644833E+01  0.10200923219E+01 0.  0.
     999903    2    3    3    0    0  0.49234404658E-01  0.80978256336E-01 -0.83587454513E-01  0.12782228339E+00  0.19239775941E-01 0.  0.
         14    1    1    2    0    0  0.12250263960E-01  0.94435977425E-02 -0.17778725291E-01  0.23565516722E-01  0.00000000000E+00 0.  1.
     999901    1    3    3    0    0 -0.61484668617E-01 -0.90421854079E-01  0.10136617980E+00  0.89254219989E+00  0.88000000000E+00 0.  1.
        -11    1    4    4    0    0  0.44111836189E-01  0.56801498873E-01 -0.60134590762E-01  0.93748037277E-01  0.51100000000E-03 0. -1.
         11    1    4    4    0    0  0.51225684686E-02  0.24176757464E-01 -0.23452863751E-01  0.34074246115E-01  0.51100000000E-03 0.  1.
</event>
<event>
 8    1  0.1116619E+005  0.1043930E+01  0.7957747E-01            NaN
         13   -1    0    0    0    0  0.00000000000E+00  0.00000000000E+00  0.74505805969E-08  0.10566000000E+00  0.10566000000E+00 0. -1.
     999900   -1    0    0    0    0 -0.00000000000E+00 -0.00000000000E+00 -0.74505805969E-08  0.93827000000E+00  0.93827000000E+00 0. -1.
     999902    2    1    2    0    0 -0.19330444792E-01  0.13774908252E-01 -0.50603151391E-02  0.10196602455E+01  0.10193713726E+01 0.  0.
     999903    2    3    3    0    0  0.67323334241E-01  0.10944458439E+00 -0.73071341419E-02  0.13024098974E+00  0.19969296783E-01 0.  0.
         14    1    1    2    0    0  0.19330444792E-01 -0.13774908252E-01  0.50603151391E-02  0.24269754479E-01  0.00000000000E+00 0.  1.
     999901    1    3    3    0    0 -0.86653779033E-01 -0.95669676138E-01  0.22468190029E-02  0.88941925578E+00  0.88000000000E+00 0.  1.
        -11    1    4    4    0    0  0.40722867053E-01  0.74283459111E-01  0.36982091132E-02  0.84795766818E-01  0.51100000000E-03 0.  1.
         11    1    4    4    0    0  0.26600467188E-01  0.35161125279E-01 -0.11005343255E-01  0.45445222925E-01  0.51100000000E-03 0. -1.
</event>
<event>
 8    1  0.1116619E+005  0.1043930E+01  0.7957747E-01            NaN
         13   -1    0    0    0    0  0.00000000000E+00  0.00000000000E+00  0.74505805969E-08  0.10566000000E+00  0.10566000000E+00 0. -1.
     999900   -1    0    0    0    0 -0.00000000000E+00 -0.00000000000E+00 -0.74505805969E-08  0.93827000000E+00  0.93827000000E+00 0.  1.
     999902    2    1    2    0    0  0.10189105651E-01 -0.49950193953E-02 -0.13766827416E-01  0.10260892144E+01  0.10259341023E+01 0.  0.
     999903    2    3    3    0    0 -0.67374928335E-01 -0.66654773916E-01 -0.96269239744E-01  0.13669349107E+00  0.20859149664E-01 0.  0.
         14    1    1    2    0    0 -0.10189105651E-01  0.49950193953E-02  0.13766827416E-01  0.17840785572E-01  0.00000000000E+00 0. -1.
     999901    1    3    3    0    0  0.77564033986E-01  0.61659754521E-01  0.82502412329E-01  0.88939572336E+00  0.88000000000E+00 0. -1.
        -11    1    4    4    0    0 -0.31408941116E-01 -0.21626293222E-01 -0.27779131947E-01  0.47182194028E-01  0.51100000000E-03 0.  1.
         11    1    4    4    0    0 -0.35965987219E-01 -0.45028480694E-01 -0.68490107797E-01  0.89511297038E-01  0.51100000000E-03 0. -1.
</event>
<event>
 8    1  0.1116619E+005  0.1043930E+01  0.7957747E-01            NaN
         13   -1    0    0    0    0  0.00000000000E+00  0.00000000000E+00  0.74505805969E-08  0.10566000000E+00  0.10566000000E+00 0. -1.
     999900   -1    0    0    0    0 -0.00000000000E+00 -0.00000000000E+00 -0.74505805969E-08  0.93827000000E+00  0.93827000000E+00 0. -1.
     999902    2    1    2    0    0 -0.44214753110E-02 -0.11361449665E-01  0.20425416136E-01  0.10201428268E+01  0.10198654605E+01 0.  0.
     999903    2    3    3    0    0  0.12091524410E+00  0.14274732968E-01  0.43092969086E-01  0.13060343758E+00  0.19390452985E-01 0.  0.
         14    1    1    2    0    0  0.44214753110E-02  0.11361449665E-01 -0.20425416136E-01  0.23787173156E-01  0.00000000000E+00 0.  1.
     999901    1    3    3    0    0 -0.12533671941E+00 -0.25636182633E-01 -0.22667552951E-01  0.88953938926E+00  0.88000000000E+00 0.  1.
        -11    1    4    4    0    0  0.14868604912E-01  0.31703193286E-02 -0.94253804274E-03  0.15240598271E-01  0.51100000000E-03 0. -1.
         11    1    4    4    0    0  0.10604663919E+00  0.11104413640E-01  0.44035507129E-01  0.11536283931E+00  0.51100000000E-03 0.  1.
</event>
<event>
 8    1  0.1116619E+005  0.1043930E+01  0.7957747E-01            NaN
         13   -1    0    0    0    0  0.00000000000E+00  0.00000000000E+00  0.74505805969E-08  0.10566000000E+00  0.10566000000E+00 0.  1.
     999900   -1    0    0    0    0 -0.00000000000E+00 -0.00000000000E+00 -0.74505805969E-08  0.93827000000E+00  0.93827000000E+00 0.  1.
     999902    2    1    2    0    0  0.21464615655E-01 -0.76481053176E-02 -0.75787486559E-02  0.10199162400E+01  0.10196335008E+01 0.  0.
     999903    2    3    3    0    0  0.20613780186E-02  0.12025420091E+00 -0.44279155666E-01  0.12970143136E+00  0.19912196107E-01 0.  0.
         14    1    1    2    0    0 -0.21464615655E-01  0.76481053176E-02  0.75787486559E-02  0.24013760042E-01  0.00000000000E+00 0.  1.
     999901    1    3    3    0    0  0.19403237636E-01 -0.12790230623E+00  0.36700407011E-01  0.89021480860E+00  0.88000000000E+00 0.  1.
        -11    1    4    4    0    0 -0.42889568004E-03  0.53066004346E-01 -0.30010433856E-01  0.60967795023E-01  0.51100000000E-03 0.  1.
         11    1    4    4    0    0  0.24902736986E-02  0.67188196568E-01 -0.14268721810E-01  0.68733636338E-01  0.51100000000E-03 0. -1.
</event>
<event>
 8    1  0.1278094E+005  0.1043930E+01  0.7957747E-01            NaN
         13   -1    0    0    0    0  0.00000000000E+00  0.00000000000E+00  0.74505805969E-08  0.10566000000E+00  0.10566000000E+00 0. -1.
     999900   -1    0    0    0    0 -0.00000000000E+00 -0.00000000000E+00 -0.74505805969E-08  0.93827000000E+00  0.93827000000E+00 0. -1.
     999902    2    1    2    0    0 -0.17726508954E-01 -0.11930307136E-02 -0.21749198676E-01  0.10158465514E+01  0.10154582886E+01 0.  0.
     999903    2    3    3    0    0 -0.15821903978E-01 -0.10371984273E+00 -0.71480620890E-01  0.12849735911E+00  0.19848267279E-01 0.  0.
         14    1    1    2    0    0  0.17726508954E-01  0.11930307136E-02  0.21749198676E-01  0.28083448595E-01  0.00000000000E+00 0. -1.
     999901    1    3    3    0    0 -0.19046049757E-02  0.10252681202E+00  0.49731422215E-01  0.88734919229E+00  0.88000000000E+00 0. -1.
        -11    1    4    4    0    0  0.38504150327E-02 -0.32087338532E-01 -0.18359730609E-01  0.37172083867E-01  0.51100000000E-03 0.  1.
         11    1    4    4    0    0 -0.19672319011E-01 -0.71632504202E-01 -0.53120890282E-01  0.91325275247E-01  0.51100000000E-03 0. -1.
</event>
<event>
 8    1  0.1116619E+005  0.1043930E+01  0.7957747E-01            NaN
         13   -1    0    0    0    0  0.00000000000E+00  0.00000000000E+00  0.74505805969E-08  0.10566000000E+00  0.10566000000E+00 0.  1.
     999900   -1    0    0    0    0 -0.00000000000E+00 -0.00000000000E+00 -0.74505805969E-08  0.93827000000E+00  0.93827000000E+00 0.  1.
     999902    2    1    2    0    0 -0.14611954134E-01  0.11979177073E-01  0.14257235462E-01  0.10202597940E+01  0.10199851806E+01 0.  0.
     999903    2    3    3    0    0  0.84220698911E-01  0.75715609705E-01  0.62810068420E-01  0.13110986083E+00  0.20462434679E-01 0.  0.
         14    1    1    2    0    0  0.14611954134E-01 -0.11979177073E-01 -0.14257235462E-01  0.23670205956E-01  0.00000000000E+00 0. -1.
     999901    1    3    3    0    0 -0.98832653045E-01 -0.63736432631E-01 -0.48552832958E-01  0.88914993322E+00  0.88000000000E+00 0.  1.
        -11    1    4    4    0    0  0.18592700244E-01  0.19439401781E-01  0.25081085304E-01  0.36781799915E-01  0.51100000000E-03 0.  1.
         11    1    4    4    0    0  0.65627998668E-01  0.56276207923E-01  0.37728983116E-01  0.94328060912E-01  0.51100000000E-03 0. -1.
</event>
<event>
 8    1  0.1116619E+005  0.1043930E+01  0.7957747E-01            NaN
         13   -1    0    0    0    0  0.00000000000E+00  0.00000000000E+00  0.74505805969E-08  0.10566000000E+00  0.10566000000E+00 0.  1.
     999900   -1    0    0    0    0 -0.00000000000E+00 -0.00000000000E+00 -0.74505805969E-08  0.93827000000E+00  0.93827000000E+00 0. -1.
     999902    2    1    2    0    0 -0.15053205113E-01  0.19032853366E-01  0.44920350642E-02  0.10192515302E+01  0.10189527246E+01 0.  0.
     999903    2    3    3    0    0 -0.10663832821E+00 -0.42260129199E-01  0.59311394515E-01  0.13068536687E+00  0.20079144178E-01 0.  0.
         14    1    1    2    0    0  0.15053205113E-01 -0.19032853366E-01 -0.44920350642E-02  0.24678469775E-01  0.00000000000E+00 0. -1.
     999901    1    3    3    0    0  0.91585123101E-01  0.61292982565E-01 -0.54819359450E-01  0.88856616335E+00  0.88000000000E+00 0. -1.
        -11    1    4    4    0    0 -0.38503126127E-01 -0.25792668010E-01  0.24226924782E-01  0.52296820649E-01  0.51100000000E-03 0.  1.
         11    1    4    4    0    0 -0.68135202087E-01 -0.16467461189E-01  0.35084469733E-01  0.78388546223E-01  0.51100000000E-03 0. -1.
</event>
<event>
 8    1  0.1116619E+005  0.1043930E+01  0.7957747E-01            NaN
         13   -1    0    0    0    0  0.00000000000E+00  0.00000000000E+00  0.74505805969E-08  0.10566000000E+00  0.10566000000E+00 0. -1.
     999900   -1    0    0    0    0 -0.00000000000E+00 -0.00000000000E+00 -0.74505805969E-08  0.93827000000E+00  0.93827000000E+00 0. -1.
     999902    2    1    2    0    0  0.22698157487E-01  0.47452286547E-02 -0.44955770431E-02  0.10203093785E+01  0.10200359278E+01 0.  0.
     999903    2    3    3    0    0  0.46842066551E-01 -0.83594765427E-01 -0.87955813538E-01  0.13162918067E+00  0.20192871579E-01 0.  0.
         14    1    1    2    0    0 -0.22698157487E-01 -0.47452286547E-02  0.44955770431E-02  0.23620621525E-01  0.00000000000E+00 0.  1.
     999901    1    3    3    0    0 -0.24143909064E-01  0.88339994081E-01  0.83460236495E-01  0.88868019781E+00  0.88000000000E+00 0.  1.
        -11    1    4    4    0    0  0.38025638459E-02 -0.82379060740E-02 -0.17989372225E-01  0.20154434310E-01  0.51100000000E-03 0. -1.
         11    1    4    4    0    0  0.43039502705E-01 -0.75356859353E-01 -0.69966441313E-01  0.11147474636E+00  0.51100000000E-03 0.  1.
</event>
<event>
 8    1  0.1116619E+005  0.1043930E+01  0.7957747E-01            NaN
         13   -1    0    0    0    0  0.00000000000E+00  0.00000000000E+00  0.74505805969E-08  0.10566000000E+00  0.10566000000E+00 0. -1.
     999900   -1    0    0    0    0 -0.00000000000E+00 -0.00000000000E+00 -0.74505805969E-08  0.93827000000E+00  0.93827000000E+00 0. -1.
     999902    2    1    2    0    0  0.12427672382E-01 -0.23604194613E-01  0.11920247096E-01  0.10147119006E+01  0.10142911534E+01 0.  0.
     999903    2    3    3    0    0  0.90693829975E-01 -0.85710378908E-01 -0.22853038357E-01  0.12837564894E+00  0.19657213190E-01 0.  0.
         14    1    1    2    0    0 -0.12427672382E-01  0.23604194613E-01 -0.11920247096E-01  0.29218099442E-01  0.00000000000E+00 0. -1.
     999901    1    3    3    0    0 -0.78266157593E-01  0.62106184295E-01  0.34773285453E-01  0.88633625162E+00  0.88000000000E+00 0. -1.
        -11    1    4    4    0    0  0.43803545189E-01 -0.34968395315E-01 -0.18969061261E-01  0.59174535471E-01  0.51100000000E-03 0. -1.
         11    1    4    4    0    0  0.46890284786E-01 -0.50741983593E-01 -0.38839770962E-02  0.69201113469E-01  0.51100000000E-03 0.  1.
</event>
<event>
 8    1  0.1116619E+005  0.1043930E+01  0.7957747E-01            NaN
         13   -1    0    0    0    0  0.00000000000E+00  0.00000000000E+00  0.74505805969E-08  0.10566000000E+00  0.10566000000E+00 0. -1.
     999900   -1    0    0    0    0 -0.00000000000E+00 -0.00000000000E+00 -0.74505805969E-08  0.93827000000E+00  0.93827000000E+00 0. -1.
     999902    2    1    2    0    0 -0.37938372604E-02  0.20897545114E-01 -0.75634362842E-02  0.10213843538E+01  0.10211354915E+01 0.  0.
     999903    2    3    3    0    0  0.10527419337E+00 -0.67784905515E-01 -0.28310931629E-01  0.12998608654E+00  0.20430972556E-01 0.  0.
         14    1    1    2    0    0  0.37938372604E-02 -0.20897545114E-01  0.75634362842E-02  0.22545646174E-01  0.00000000000E+00 0.  1.
     999901    1    3    3    0    0 -0.10906803063E+00  0.88682450630E-01  0.20747495344E-01  0.89139826728E+00  0.88000000000E+00 0. -1.
        -11    1    4    4    0    0  0.57951077649E-01 -0.25181915137E-01 -0.13888546454E-01  0.64696283466E-01  0.51100000000E-03 0.  1.
         11    1    4    4    0    0  0.47323115719E-01 -0.42602990378E-01 -0.14422385175E-01  0.65289803076E-01  0.51100000000E-03 0. -1.
</event>
<event>
 8    1  0.1116619E+005  0.1043930E+01  0.7957747E-01            NaN
         13   -1    0    0    0    0  0.00000000000E+00  0.00000000000E+00  0.74505805969E-08  0.10566000000E+00  0.10566000000E+00 0.  1.
     999900   -1    0    0    0    0 -0.00000000000E+00 -0.00000000000E+00 -0.74505805969E-08  0.93827000000E+00  0.93827000000E+00 0. -1.
     999902    2    1    2    0    0 -0.91910067120E-02  0.21768957372E-01 -0.25714705589E-02  0.10201608063E+01  0.10198838640E+01 0.  0.
     999903    2    3    3    0    0 -0.12469357631E+00 -0.79467742807E-02 -0.35545175544E-01  0.13150387950E+00  0.20449245092E-01 0.  0.
         14    1    1    2    0    0  0.91910067120E-02 -0.21768957372E-01  0.25714705589E-02  0.23769193724E-01  0.00000000000E+00 0.  1.
     999901    1    3    3    0    0  0.11550256959E+00  0.29715731653E-01  0.32973704986E-01  0.88865692678E+00  0.88000000000E+00 0. -1.
        -11    1    4    4    0    0 -0.29631256532E-01  0.67889784509E-02 -0.91085808181E-02  0.31738446049E-01  0.51100000000E-03 0.  1.
         11    1    4    4    0    0 -0.95062319774E-01 -0.14735752732E-01 -0.26436594726E-01  0.99765433448E-01  0.51100000000E-03 0. -1.
</event>
<event>
 8    1  0.1116619E+005  0.1043930E+01  0.7957747E-01            NaN
         13   -1    0    0    0    0  0.00000000000E+00  0.00000000000E+00  0.74505805969E-08  0.10566000000E+00  0.10566000000E+00 0.  1.
     999900   -1    0    0    0    0 -0.00000000000E+00 -0.00000000000E+00 -0.74505805969E-08  0.93827000000E+00  0.93827000000E+00 0.  1.
     999902    2    1    2    0    0 -0.18104175652E-01  0.88146152917E-02 -0.11354992839E-01  0.10208130261E+01  0.10205512431E+01 0.  0.
     999903    2    3    3    0    0 -0.11003532237E+00 -0.37585540347E-01 -0.62055464072E-01  0.13335888761E+00  0.20328976164E-01 0.  0.
         14    1    1    2    0    0  0.18104175652E-01 -0.88146152917E-02  0.11354992839E-01  0.23116973876E-01  0.00000000000E+00 0.  1.
     999901    1    3    3    0    0  0.91931146716E-01  0.46400155639E-01  0.50700471233E-01  0.88745413851E+00  0.88000000000E+00 0. -1.
        -11    1    4    4    0    0 -0.81064821683E-01 -0.18309520059E-01 -0.46584140135E-01  0.95273748076E-01  0.51100000000E-03 0. -1.
         11    1    4    4    0    0 -0.28970500686E-01 -0.19276020288E-01 -0.15471323937E-01  0.38085139536E-01  0.51100000000E-03 0.  1.
</event>
<event>
 8    1  0.1116619E+005  0.1043930E+01  0.7957747E-01            NaN
         13   -1    0    0    0    0  0.00000000000E+00  0.00000000000E+00  0.74505805969E-08  0.10566000000E+00  0.10566000000E+00 0. -1.
     999900   -1    0    0    0    0 -0.00000000000E+00 -0.00000000000E+00 -0.74505805969E-08  0.93827000000E+00  0.93827000000E+00 0.  1.
     999902    2    1    2    0    0  0.13736040920E-01  0.17910268807E-01 -0.56648804138E-02  0.10206588286E+01  0.10203935010E+01 0.  0.
     999903    2    3    3    0    0 -0.16492502874E-01  0.12496306060E+00 -0.37867096160E-01  0.13307162285E+00  0.19656313750E-01 0.  0.
         14    1    1    2    0    0 -0.13736040920E-01 -0.17910268807E-01  0.56648804138E-02  0.23271171414E-01  0.00000000000E+00 0. -1.
     999901    1    3    3    0    0  0.30228543794E-01 -0.10705279179E+00  0.32202215746E-01  0.88758720574E+00  0.88000000000E+00 0.  1.
        -11    1    4    4    0    0 -0.18942233357E-01  0.97810027420E-01 -0.23993663298E-01  0.10247715193E+00  0.51100000000E-03 0. -1.
         11    1    4    4    0    0  0.24497304824E-02  0.27153033180E-01 -0.13873432862E-01  0.30594470917E-01  0.51100000000E-03 0.  1.
</event>
<event>
 8    1  0.1116619E+005  0.1043930E+01  0.7957747E-01            NaN
         13   -1    0    0    0    0  0.00000000000E+00  0.00000000000E+00  0.74505805969E-08  0.10566000000E+00  0.10566000000E+00 0. -1.
     999900   -1    0    0    0    0 -0.00000000000E+00 -0.00000000000E+00 -0.74505805969E-08  0.93827000000E+00  0.93827000000E+00 0.  1.
     999902    2    1    2    0    0  0.54833215234E-03  0.14001626698E-01 -0.18019764588E-01  0.10211033022E+01  0.10208481256E+01 0.  0.
     999903    2    3    3    0    0 -0.96691802218E-01 -0.41385274963E-01  0.72671266006E-01  0.12939246583E+00  0.19981283991E-01 0.  0.
         14    1    1    2    0    0 -0.54833215234E-03 -0.14001626698E-01  0.18019764588E-01  0.22826697837E-01  0.00000000000E+00 0. -1.
     999901    1    3    3    0    0  0.97240134370E-01  0.55386901661E-01 -0.90691030595E-01  0.89171083634E+00  0.88000000000E+00 0. -1.
        -11    1    4    4    0    0 -0.73629730981E-01 -0.25487458439E-01  0.61367691618E-01  0.99182672466E-01  0.51100000000E-03 0.  1.
         11    1    4    4    0    0 -0.23062071237E-01 -0.15897816523E-01  0.11303574388E-01  0.30209793361E-01  0.51100000000E-03 0. -1.
</event>
<event>
 8    1  0.1116619E+005  0.1043930E+01  0.7957747E-01            NaN
         13   -1    0    0    0    0  0.00000000000E+00  0.00000000000E+00  0.74505805969E-08  0.10566000000E+00  0.10566000000E+00 0. -1.
     999900   -1    0    0    0    0 -0.00000000000E+00 -0.00000000000E+00 -0.74505805969E-08  0.93827000000E+00  0.93827000000E+00 0.  1.
     999902    2    1    2    0    0  0.69119181892E-02  0.22375313987E-01 -0.69099727378E-02  0.10195132637E+01  0.10192208386E+01 0.  0.
     999903    2    3    3    0    0 -0.60866157153E-01  0.47736947285E-01  0.10215734691E+00  0.12983199483E+00  0.20897802050E-01 0.  0.
         14    1    1    2    0    0 -0.69119181892E-02 -0.22375313987E-01  0.69099727378E-02  0.24416736316E-01  0.00000000000E+00 0. -1.
     999901    1    3    3    0    0  0.67778075342E-01 -0.25361633298E-01 -0.10906731965E+00  0.88968126886E+00  0.88000000000E+00 0.  1.
        -11    1    4    4    0    0 -0.25605988727E-01  0.18442315990E-01  0.25775405806E-01  0.40748231167E-01  0.51100000000E-03 0.  1.
         11    1    4    4    0    0 -0.35260168426E-01  0.29294631296E-01  0.76381941103E-01  0.89083763660E-01  0.51100000000E-03 0. -1.
</event>
<event>
 8    1  0.1116619E+005  0.1043930E+01  0.7957747E-01            NaN
         13   -1    0    0    0    0  0.00000000000E+00  0.00000000000E+00  0.74505805969E-08  0.10566000000E+00  0.10566000000E+00 0. -1.
     999900   -1    0    0    0    0 -0.00000000000E+00 -0.00000000000E+00 -0.74505805969E-08  0.93827000000E+00  0.93827000000E+00 0. -1.
     999902    2    1    2    0    0  0.68991921753E-02 -0.11607984503E-01  0.12892049710E-01  0.10252605302E+01  0.10250905354E+01 0.  0.
     999903    2    3    3    0    0  0.23863956694E-01 -0.13041155119E+00  0.27939744454E-01  0.13698775464E+00  0.20207782852E-01 0.  0.
         14    1    1    2    0    0 -0.68991921753E-02  0.11607984503E-01 -0.12892049710E-01  0.18669469800E-01  0.00000000000E+00 0.  1.
     999901    1    3    3    0    0 -0.16964764519E-01  0.11880356668E+00 -0.15047694744E-01  0.88827277556E+00  0.88000000000E+00 0.  1.
        -11    1    4    4    0    0  0.16550497849E-01 -0.79255921038E-01  0.71423298780E-02  0.81281572301E-01  0.51100000000E-03 0. -1.
         11    1    4    4    0    0  0.73134588451E-02 -0.51155630148E-01  0.20797414576E-01  0.55706182334E-01  0.51100000000E-03 0.  1.
</event>
<event>
 8    1  0.1116619E+005  0.1043930E+01  0.7957747E-01            NaN
         13   -1    0    0    0    0  0.00000000000E+00  0.00000000000E+00  0.74505805969E-08  0.10566000000E+00  0.10566000000E+00 0.  1.
     999900   -1    0    0    0    0 -0.00000000000E+00 -0.00000000000E+00 -0.74505805969E-08  0.93827000000E+00  0.93827000000E+00 0. -1.
     999902    2    1    2    0    0  0.62387780471E-02  0.18855292676E-01 -0.13407901716E-01  0.10199671904E+01  0.10196856640E+01 0.  0.
     999903    2    3    3    0    0  0.63488350550E-01 -0.26209148021E-01 -0.11059193068E+00  0.13162432147E+00  0.19408677858E-01 0.  0.
         14    1    1    2    0    0 -0.62387780471E-02 -0.18855292676E-01  0.13407901716E-01  0.23962809557E-01  0.00000000000E+00 0.  1.
     999901    1    3    3    0    0 -0.57249572503E-01  0.45064440697E-01  0.97184028962E-01  0.88834286897E+00  0.88000000000E+00 0.  1.
        -11    1    4    4    0    0  0.37690631329E-01 -0.21527052524E-01 -0.82313025187E-01  0.93057471042E-01  0.51100000000E-03 0.  1.
         11    1    4    4    0    0  0.25797719221E-01 -0.46820954968E-02 -0.28278905491E-01  0.38566850429E-01  0.51100000000E-03 0. -1.
</event>
<event>
 8    1  0.1116619E+005  0.1043930E+01  0.7957747E-01            NaN
         13   -1    0    0    0    0  0.00000000000E+00  0.00000000000E+00  0.74505805969E-08  0.10566000000E+00  0.10566000000E+00 0.  1.
     999900   -1    0    0    0    0 -0.00000000000E+00 -0.00000000000E+00 -0.74505805969E-08  0.93827000000E+00  0.93827000000E+00 0. -1.
     999902    2    1    2    0    0 -0.23647463046E-01  0.17932592228E-01  0.23429862105E-02  0.10141597135E+01  0.10137226714E+01 0.  0.
     999903    2    3    3    0    0  0.65501656433E-03 -0.80423439964E-01  0.91944749797E-01  0.12382663224E+00  0.20269166116E-01 0.  0.
         14    1    1    2    0    0  0.23647463046E-01 -0.17932592228E-01 -0.23429862105E-02  0.29770286477E-01  0.00000000000E+00 0. -1.
     999901    1    3    3    0    0 -0.24302479610E-01  0.98356032192E-01 -0.89601763587E-01  0.89033308128E+00  0.88000000000E+00 0. -1.
        -11    1    4    4    0    0 -0.89483840087E-02 -0.26707579808E-01  0.27306528311E-01  0.39233608106E-01  0.51100000000E-03 0.  1.
         11    1    4    4    0    0  0.96034005731E-02 -0.53715860156E-01  0.64638221486E-01  0.84593024137E-01  0.51100000000E-03 0. -1.
</event>
<event>
 8    1  0.1116619E+005  0.1043930E+01  0.7957747E-01            NaN
         13   -1    0    0    0    0  0.00000000000E+00  0.00000000000E+00  0.74505805969E-08  0.10566000000E+00  0.10566000000E+00 0. -1.
     999900   -1    0    0    0    0 -0.00000000000E+00 -0.00000000000E+00 -0.74505805969E-08  0.93827000000E+00  0.93827000000E+00 0.  1.
     999902    2    1    2    0    0 -0.12899068034E-01 -0.16865265760E-01  0.65110093050E-02  0.10217215244E+01  0.10214801305E+01 0.  0.
     999903    2    3    3    0    0 -0.73976331284E-01 -0.39766379126E-01  0.10259032072E+00  0.13409202561E+00  0.20050808651E-01 0.  0.
         14    1    1    2    0    0  0.12899068034E-01  0.16865265760E-01 -0.65110093050E-02  0.22208475578E-01  0.00000000000E+00 0. -1.
     999901    1    3    3    0    0  0.61077263249E-01  0.22901113366E-01 -0.96079311416E-01  0.88762949881E+00  0.88000000000E+00 0.  1.
        -11    1    4    4    0    0 -0.32269395551E-01 -0.26717913814E-01  0.41437632506E-01  0.58927916275E-01  0.51100000000E-03 0. -1.
         11    1    4    4    0    0 -0.41706935733E-01 -0.13048465312E-01  0.61152688215E-01  0.75164109335E-01  0.51100000000E-03 0.  1.
</event>
<event>
 8    1  0.1116619E+005  0.1043930E+01  0.7957747E-01            NaN
         13   -1    0    0    0    0  0.00000000000E+00  0.00000000000E+00  0.74505805969E-08  0.10566000000E+00  0.10566000000E+00 0.  1.
     999900   -1    0    0    0    0 -0.00000000000E+00 -0.00000000000E+00 -0.74505805969E-08  0.93827000000E+00  0.93827000000E+00 0.  1.
     999902    2    1    2    0    0 -0.61399424958E-02  0.13728907489E-01 -0.18131993979E-01  0.10203726020E+01  0.10201006303E+01 0.  0.
     999903    2    3    3    0    0  0.87954744526E-01  0.62860299701E-01  0.68822249081E-01  0.12973870179E+00  0.20203326714E-01 0.  0.
         14    1    1    2    0    0  0.61399424958E-02 -0.13728907489E-01  0.18131993979E-01  0.23557397996E-01  0.00000000000E+00 0.  1.
     999901    1    3    3    0    0 -0.94094687021E-01 -0.49131392212E-01 -0.86954243059E-01  0.89063390022E+00  0.88000000000E+00 0.  1.
        -11    1    4    4    0    0  0.25846495739E-01  0.26243603947E-01  0.31919706654E-01  0.48743172691E-01  0.51100000000E-03 0.  1.
         11    1    4    4    0    0  0.62108248787E-01  0.36616695754E-01  0.36902542426E-01  0.80995529098E-01  0.51100000000E-03 0. -1.
</event>
<event>
 8    1  0.1116619E+005  0.1043930E+01  0.7957747E-01            NaN
         13   -1    0    0    0    0  0.00000000000E+00  0.00000000000E+00  0.74505805969E-08  0.10566000000E+00  0.10566000000E+00 0. -1.
     999900   -1    0    0    0    0 -0.00000000000E+00 -0.00000000000E+00 -0.74505805969E-08  0.93827000000E+00  0.93827000000E+00 0.  1.
     999902    2    1    2    0    0 -0.15669317918E-01  0.13264416093E-01  0.12082654601E-01  0.10201085223E+01  0.10198303459E+01 0.  0.
     999903    2    3    3    0    0 -0.53726386731E-02 -0.11188085108E+00  0.62362460252E-01  0.12977408043E+00  0.20150568662E-01 0.  0.
         14    1    1    2    0    0  0.15669317918E-01 -0.13264416093E-01 -0.12082654601E-01  0.23821477715E-01  0.00000000000E+00 0.  1.
     999901    1    3    3    0    0 -0.10296679245E-01  0.12514526717E+00 -0.50279805651E-01  0.89033444186E+00  0.88000000000E+00 0.  1.
        -11    1    4    4    0    0 -0.11727753343E-01 -0.84626339308E-01  0.42288481980E-01  0.95329608896E-01  0.51100000000E-03 0. -1.
         11    1    4    4    0    0  0.63551146701E-02 -0.27254511773E-01  0.20073978272E-01  0.34444471532E-01  0.51100000000E-03 0.  1.
</event>
<event>
 8    1  0.1116619E+005  0.1043930E+01  0.7957747E-01            NaN
         13   -1    0    0    0    0  0.00000000000E+00  0.00000000000E+00  0.74505805969E-08  0.10566000000E+00  0.10566000000E+00 0.  1.
     999900   -1    0    0    0    0 -0.00000000000E+00 -0.00000000000E+00 -0.74505805969E-08  0.93827000000E+00  0.93827000000E+00 0.  1.
     999902    2    1    2    0    0  0.22538967352E-01  0.47039209640E-02 -0.23146554645E-02  0.10207893528E+01  0.10205270272E+01 0.  0.
     999903    2    3    3    0    0  0.11835288224E-01  0.61386510780E-01  0.11380362315E+00  0.13128896532E+00  0.19420350663E-01 0.  0.
         14    1    1    2    0    0 -0.22538967352E-01 -0.47039209640E-02  0.23146554645E-02  0.23140647174E-01  0.00000000000E+00 0.  1.
     999901    1    3    3    0    0  0.10703679128E-01 -0.56682589816E-01 -0.11611827862E+00  0.88950038750E+00  0.88000000000E+00 0.  1.
        -11    1    4    4    0    0  0.32465029905E-02  0.44743686490E-01  0.93228661908E-01  0.10346198231E+00  0.51100000000E-03 0. -1.
         11    1    4    4    0    0  0.85887852337E-02  0.16642824290E-01  0.20574961247E-01  0.27826983010E-01  0.51100000000E-03 0.  1.
</event>
<event>
 8    1  0.1116619E+005  0.1043930E+01  0.7957747E-01            NaN
         13   -1    0    0    0    0  0.00000000000E+00  0.00000000000E+00  0.74505805969E-08  0.10566000000E+00  0.10566000000E+00 0.  1.
     999900   -1    0    0    0    0 -0.00000000000E+00 -0.00000000000E+00 -0.74505805969E-08  0.93827000000E+00  0.93827000000E+00 0.  1.
     999902    2    1    2    0    0 -0.19644597146E-01 -0.14817276010E-02 -0.13222979369E-01  0.10202033716E+01  0.10199274320E+01 0.  0.
     999903    2    3    3    0    0 -0.12792600439E+00  0.17145690691E-01 -0.26584716348E-01  0.13327023999E+00  0.19878944029E-01 0.  0.
         14    1    1    2    0    0  0.19644597146E-01  0.14817276010E-02  0.13222979369E-01  0.23726628439E-01  0.00000000000E+00 0.  1.
     999901    1    3    3    0    0  0.10828140724E+00 -0.18627418292E-01  0.13361736979E-01  0.88693313157E+00  0.88000000000E+00 0. -1.
        -11    1    4    4    0    0 -0.61169126481E-01  0.42530773404E-02 -0.33234635004E-02  0.61408934463E-01  0.51100000000E-03 0. -1.
         11    1    4    4    0    0 -0.66756877905E-01  0.12892613351E-01 -0.23261252848E-01  0.71861305525E-01  0.51100000000E-03 0.  1.
</event>
<event>
 8    1  0.1116619E+005  0.1043930E+01  0.7957747E-01            NaN
         13   -1    0    0    0    0  0.00000000000E+00  0.00000000000E+00  0.74505805969E-08  0.10566000000E+00  0.10566000000E+00 0. -1.
     999900   -1    0    0    0    0 -0.00000000000E+00 -0.00000000000E+00 -0.74505805969E-08  0.93827000000E+00  0.93827000000E+00 0. -1.
     999902    2    1    2    0    0  0.19504289778E-01 -0.80802003142E-02 -0.10042086474E-01  0.10205515814E+01  0.10202837741E+01 0.  0.
     999903    2    3    3    0    0 -0.21527128778E-01  0.12445347429E+00 -0.20993613467E-01  0.12961460933E+00  0.20177477735E-01 0.  0.
         14    1    1    2    0    0 -0.19504289778E-01  0.80802003142E-02  0.10042086474E-01  0.23378418629E-01  0.00000000000E+00 0. -1.
     999901    1    3    3    0    0  0.41031418556E-01 -0.13253367461E+00  0.10951526993E-01  0.89093697204E+00  0.88000000000E+00 0. -1.
        -11    1    4    4    0    0 -0.47119061087E-02  0.42720145582E-02 -0.25340364547E-02  0.68654664310E-02  0.51100000000E-03 0. -1.
         11    1    4    4    0    0 -0.16815222670E-01  0.12018145973E+00 -0.18459577012E-01  0.12274914289E+00  0.51100000000E-03 0.  1.
</event>
<event>
 8    1  0.1116619E+005  0.1043930E+01  0.7957747E-01            NaN
         13   -1    0    0    0    0  0.00000000000E+00  0.00000000000E+00  0.74505805969E-08  0.10566000000E+00  0.10566000000E+00 0.  1.
     999900   -1    0    0    0    0 -0.00000000000E+00 -0.00000000000E+00 -0.74505805969E-08  0.93827000000E+00  0.93827000000E+00 0. -1.
     999902    2    1    2    0    0 -0.18826416996E-01 -0.12815184738E-01 -0.10256599086E-01  0.10189527952E+01  0.10186466208E+01 0.  0.
     999903    2    3    3    0    0  0.10675226659E+00  0.17804381113E-02 -0.69631021251E-01  0.12793744177E+00  0.10967839466E-01 0.  0.
         14    1    1    2    0    0  0.18826416996E-01  0.12815184738E-01  0.10256599086E-01  0.24977204839E-01  0.00000000000E+00 0.  1.
     999901    1    3    3    0    0 -0.12557868359E+00 -0.14595622850E-01  0.59374422165E-01  0.89101535340E+00  0.88000000000E+00 0. -1.
        -11    1    4    4    0    0  0.51621761674E-01  0.16358584463E-02 -0.40130583147E-01  0.65408005137E-01  0.51100000000E-03 0. -1.
         11    1    4    4    0    0  0.55130504918E-01  0.14457966505E-03 -0.29500438103E-01  0.62529436629E-01  0.51100000000E-03 0.  1.
</event>
<event>
 8    1  0.1116619E+005  0.1043930E+01  0.7957747E-01            NaN
         13   -1    0    0    0    0  0.00000000000E+00  0.00000000000E+00  0.74505805969E-08  0.10566000000E+00  0.10566000000E+00 0. -1.
     999900   -1    0    0    0    0 -0.00000000000E+00 -0.00000000000E+00 -0.74505805969E-08  0.93827000000E+00  0.93827000000E+00 0.  1.
     999902    2    1    2    0    0 -0.24516877731E-02  0.22702922153E-01 -0.47307087404E-02  0.10206102004E+01  0.10203437500E+01 0.  0.
     999903    2    3    3    0    0  0.12040971313E+00  0.35867431712E-01 -0.33351451576E-01  0.13151663107E+00  0.19983324341E-01 0.  0.
         14    1    1    2    0    0  0.24516877731E-02 -0.22702922153E-01  0.47307087404E-02  0.23319799579E-01  0.00000000000E+00 0. -1.
     999901    1    3    3    0    0 -0.12286140090E+00 -0.13164509559E-01  0.28620742835E-01  0.88909356935E+00  0.88000000000E+00 0. -1.
        -11    1    4    4    0    0  0.64217009666E-01  0.25970485269E-01 -0.25977205629E-01  0.73982205758E-01  0.51100000000E-03 0.  1.
         11    1    4    4    0    0  0.56192703465E-01  0.98969464424E-02 -0.73742459468E-02  0.57534425311E-01  0.51100000000E-03 0. -1.
</event>
<event>
 8    1  0.1116619E+005  0.1043930E+01  0.7957747E-01            NaN
         13   -1    0    0    0    0  0.00000000000E+00  0.00000000000E+00  0.74505805969E-08  0.10566000000E+00  0.10566000000E+00 0.  1.
     999900   -1    0    0    0    0 -0.00000000000E+00 -0.00000000000E+00 -0.74505805969E-08  0.93827000000E+00  0.93827000000E+00 0.  1.
     999902    2    1    2    0    0 -0.54773634848E-02  0.38706149721E-02  0.21782538049E-01  0.10211382880E+01  0.10208839019E+01 0.  0.
     999903    2    3    3    0    0  0.58982232704E-01  0.38259997003E-01 -0.10597591840E+00  0.12891640288E+00  0.21114272538E-01 0.  0.
         14    1    1    2    0    0  0.54773634848E-02 -0.38706149721E-02 -0.21782538049E-01  0.22791711977E-01  0.00000000000E+00 0. -1.
     999901    1    3    3    0    0 -0.64459596189E-01 -0.34389382031E-01  0.12775845645E+00  0.89222188514E+00  0.88000000000E+00 0. -1.
        -11    1    4    4    0    0  0.22100754766E-01  0.13971924748E-01 -0.22590955059E-01  0.34558217747E-01  0.51100000000E-03 0. -1.
         11    1    4    4    0    0  0.36881477938E-01  0.24288072255E-01 -0.83384963341E-01  0.94358185131E-01  0.51100000000E-03 0.  1.
</event>
<event>
 8    1  0.1203345E+005  0.1043930E+01  0.7957747E-01            NaN
         13   -1    0    0    0    0  0.00000000000E+00  0.00000000000E+00  0.74505805969E-08  0.10566000000E+00  0.10566000000E+00 0.  1.
     999900   -1    0    0    0    0 -0.00000000000E+00 -0.00000000000E+00 -0.74505805969E-08  0.93827000000E+00  0.93827000000E+00 0. -1.
     999902    2    1    2    0    0  0.51935075123E-03  0.21972676846E-01  0.10694883852E-01  0.10194872343E+01  0.10191941779E+01 0.  0.
     999903    2    3    3    0    0  0.74467564801E-01 -0.74047254460E-01 -0.68942491735E-01  0.12761825451E+00  0.22470817031E-01 0.  0.
         14    1    1    2    0    0 -0.51935075123E-03 -0.21972676846E-01 -0.10694883852E-01  0.24442765670E-01  0.00000000000E+00 0. -1.
     999901    1    3    3    0    0 -0.73948214049E-01  0.96019931306E-01  0.79637375587E-01  0.89186897982E+00  0.88000000000E+00 0. -1.
        -11    1    4    4    0    0  0.45307050832E-01 -0.29348507920E-01 -0.32994851112E-01  0.63269148035E-01  0.51100000000E-03 0. -1.
         11    1    4    4    0    0  0.29160513969E-01 -0.44698746540E-01 -0.35947640622E-01  0.64349106478E-01  0.51100000000E-03 0.  1.
</event>
<event>
 8    1  0.1116619E+005  0.1043930E+01  0.7957747E-01            NaN
         13   -1    0    0    0    0  0.00000000000E+00  0.00000000000E+00  0.74505805969E-08  0.10566000000E+00  0.10566000000E+00 0. -1.
     999900   -1    0    0    0    0 -0.00000000000E+00 -0.00000000000E+00 -0.74505805969E-08  0.93827000000E+00  0.93827000000E+00 0. -1.
     999902    2    1    2    0    0  0.13668918134E-01 -0.12639353612E-01 -0.15055853515E-01  0.10199869152E+01  0.10197058576E+01 0.  0.
     999903    2    3    3    0    0 -0.65727773895E-01 -0.67915438758E-01 -0.89242324466E-01  0.13158221424E+00  0.20421546084E-01 0.  0.
         14    1    1    2    0    0 -0.13668918134E-01  0.12639353612E-01  0.15055853515E-01  0.23943084759E-01  0.00000000000E+00 0. -1.
     999901    1    3    3    0    0  0.79396692029E-01  0.55276085146E-01  0.74186470951E-01  0.88840470100E+00  0.88000000000E+00 0. -1.
        -11    1    4    4    0    0 -0.32310586066E-01 -0.32965177148E-01 -0.29762380514E-01  0.54924833101E-01  0.51100000000E-03 0. -1.
         11    1    4    4    0    0 -0.33417187829E-01 -0.34950261610E-01 -0.59479943953E-01  0.76657381136E-01  0.51100000000E-03 0.  1.
</event>
<event>
 8    1  0.1116619E+005  0.1043930E+01  0.7957747E-01            NaN
         13   -1    0    0    0    0  0.00000000000E+00  0.00000000000E+00  0.74505805969E-08  0.10566000000E+00  0.10566000000E+00 0.  1.
     999900   -1    0    0    0    0 -0.00000000000E+00 -0.00000000000E+00 -0.74505805969E-08  0.93827000000E+00  0.93827000000E+00 0.  1.
     999902    2    1    2    0    0  0.27383755186E-02 -0.16745323931E-01  0.14931031134E-01  0.10213282243E+01  0.10210781074E+01 0.  0.
     999903    2    3    3    0    0  0.12614647864E+00 -0.10068133979E-01  0.32948327590E-01  0.13250947576E+00  0.21421192337E-01 0.  0.
         14    1    1    2    0    0 -0.27383755186E-02  0.16745323931E-01 -0.14931031134E-01  0.22601775700E-01  0.00000000000E+00 0. -1.
     999901    1    3    3    0    0 -0.12340810312E+00 -0.66771899525E-02 -0.18017296456E-01  0.88881874854E+00  0.88000000000E+00 0. -1.
        -11    1    4    4    0    0  0.38051155536E-01 -0.17561535582E-02  0.20164660494E-01  0.43102774467E-01  0.51100000000E-03 0.  1.
         11    1    4    4    0    0  0.88095323102E-01 -0.83119804205E-02  0.12783667096E-01  0.89406701295E-01  0.51100000000E-03 0. -1.
</event>
<event>
 8    1  0.1116619E+005  0.1043930E+01  0.7957747E-01            NaN
         13   -1    0    0    0    0  0.00000000000E+00  0.00000000000E+00  0.74505805969E-08  0.10566000000E+00  0.10566000000E+00 0.  1.
     999900   -1    0    0    0    0 -0.00000000000E+00 -0.00000000000E+00 -0.74505805969E-08  0.93827000000E+00  0.93827000000E+00 0. -1.
     999902    2    1    2    0    0  0.51319394975E-02 -0.12981580439E-02  0.17911333426E-01  0.10252527978E+01  0.10250826608E+01 0.  0.
     999903    2    3    3    0    0  0.29692575526E-01  0.12625097091E+00  0.34056486748E-01  0.13557157897E+00  0.19971280316E-01 0.  0.
         14    1    1    2    0    0 -0.51319394975E-02  0.12981580439E-02 -0.17911333426E-01  0.18677202211E-01  0.00000000000E+00 0. -1.
     999901    1    3    3    0    0 -0.24560636028E-01 -0.12754912896E+00 -0.16145153322E-01  0.88968121882E+00  0.88000000000E+00 0.  1.
        -11    1    4    4    0    0  0.50469184073E-02  0.61242190763E-01  0.20129535363E-01  0.64664802094E-01  0.51100000000E-03 0. -1.
         11    1    4    4    0    0  0.24645657119E-01  0.65008780150E-01  0.13926951385E-01  0.70906776879E-01  0.51100000000E-03 0.  1.
</event>
<event>
 8    1  0.1116619E+005  0.1043930E+01  0.7957747E-01            NaN
         13   -1    0    0    0    0  0.00000000000E+00  0.00000000000E+00  0.74505805969E-08  0.10566000000E+00  0.10566000000E+00 0. -1.
     999900   -1    0    0    0    0 -0.00000000000E+00 -0.00000000000E+00 -0.74505805969E-08  0.93827000000E+00  0.93827000000E+00 0. -1.
     999902    2    1    2    0    0 -0.19645883365E-01 -0.29242431284E-02  0.15477241641E-01  0.10187495127E+01  0.10184382714E+01 0.  0.
     999903    2    3    3    0    0  0.30876084309E-01 -0.10860503811E+00  0.61095477458E-01  0.12981648763E+00  0.19268529040E-01 0.  0.
         14    1    1    2    0    0  0.19645883365E-01  0.29242431284E-02 -0.15477241641E-01  0.25180487284E-01  0.00000000000E+00 0.  1.
     999901    1    3    3    0    0 -0.50521967675E-01  0.10568079498E+00 -0.45618235817E-01  0.88893302508E+00  0.88000000000E+00 0.  1.
        -11    1    4    4    0    0  0.10830377255E-01 -0.24905984776E-01  0.23412575442E-01  0.35861050723E-01  0.51100000000E-03 0. -1.
         11    1    4    4    0    0  0.20045707055E-01 -0.83699053329E-01  0.37682902016E-01  0.93955436909E-01  0.51100000000E-03 0.  1.
</event>
<event>
 8    1  0.1116619E+005  0.1043930E+01  0.7957747E-01            NaN
         13   -1    0    0    0    0  0.00000000000E+00  0.00000000000E+00  0.74505805969E-08  0.10566000000E+00  0.10566000000E+00 0. -1.
     999900   -1    0    0    0    0 -0.00000000000E+00 -0.00000000000E+00 -0.74505805969E-08  0.93827000000E+00  0.93827000000E+00 0. -1.
     999902    2    1    2    0    0 -0.57778758683E-02  0.13466504205E-01 -0.16114672848E-01  0.10221489700E+01  0.10219168771E+01 0.  0.
     999903    2    3    3    0    0  0.10449400024E+00 -0.75833163829E-01  0.74676148441E-03  0.13062296070E+00  0.19802408608E-01 0.  0.
         14    1    1    2    0    0  0.57778758683E-02 -0.13466504205E-01  0.16114672848E-01  0.21781029958E-01  0.00000000000E+00 0. -1.
     999901    1    3    3    0    0 -0.11027187611E+00  0.89299668033E-01 -0.16861434332E-01  0.89152600934E+00  0.88000000000E+00 0.  1.
        -11    1    4    4    0    0  0.15248524406E-01 -0.19989192369E-01  0.29677860805E-02  0.25321022557E-01  0.51100000000E-03 0. -1.
         11    1    4    4    0    0  0.89245475832E-01 -0.55843971460E-01 -0.22210245961E-02  0.10530193814E+00  0.51100000000E-03 0.  1.
</event>
<event>
 8    1  0.1116619E+005  0.1043930E+01  0.7957747E-01            NaN
         13   -1    0    0    0    0  0.00000000000E+00  0.00000000000E+00  0.74505805969E-08  0.10566000000E+00  0.10566000000E+00 0.  1.
     999900   -1    0    0    0    0 -0.00000000000E+00 -0.00000000000E+00 -0.74505805969E-08  0.93827000000E+00  0.93827000000E+00 0.  1.
     999902    2    1    2    0    0 -0.12381042582E-01 -0.18820326251E-01  0.13453005695E-01  0.10176911308E+01  0.10173528195E+01 0.  0.
     999903    2    3    3    0    0 -0.38662687660E-01  0.57395368473E-01 -0.10372030442E+00  0.12627139710E+00  0.19938215546E-01 0.  0.
         14    1    1    2    0    0  0.12381042582E-01  0.18820326251E-01 -0.13453005695E-01  0.26238869218E-01  0.00000000000E+00 0. -1.
     999901    1    3    3    0    0  0.26281645078E-01 -0.76215694723E-01  0.11717331011E+00  0.89141973368E+00  0.88000000000E+00 0. -1.
        -11    1    4    4    0    0 -0.12178368664E-01  0.17032535596E-01 -0.16827526208E-01  0.26867204757E-01  0.51100000000E-03 0. -1.
         11    1    4    4    0    0 -0.26484318996E-01  0.40362832877E-01 -0.86892778207E-01  0.99404192346E-01  0.51100000000E-03 0.  1.
</event>
<event>
 8    1  0.1116619E+005  0.1043930E+01  0.7957747E-01            NaN
         13   -1    0    0    0    0  0.00000000000E+00  0.00000000000E+00  0.74505805969E-08  0.10566000000E+00  0.10566000000E+00 0. -1.
     999900   -1    0    0    0    0 -0.00000000000E+00 -0.00000000000E+00 -0.74505805969E-08  0.93827000000E+00  0.93827000000E+00 0. -1.
     999902    2    1    2    0    0  0.91950784912E-02  0.88242517775E-02 -0.19622164937E-01  0.10205324308E+01  0.10202641795E+01 0.  0.
     999903    2    3    3    0    0 -0.10368015530E+00 -0.26861350033E-01  0.67675435847E-01  0.12832441039E+00  0.20398111588E-01 0.  0.
         14    1    1    2    0    0 -0.91950784912E-02 -0.88242517775E-02  0.19622164937E-01  0.23397569205E-01  0.00000000000E+00 0. -1.
     999901    1    3    3    0    0  0.11287523379E+00  0.35685601811E-01 -0.87297600783E-01  0.89220802041E+00  0.88000000000E+00 0. -1.
        -11    1    4    4    0    0 -0.39815224020E-01 -0.20057119636E-01  0.23789660746E-01  0.50534633582E-01  0.51100000000E-03 0.  1.
         11    1    4    4    0    0 -0.63864931275E-01 -0.68042303970E-02  0.43885775101E-01  0.77789776805E-01  0.51100000000E-03 0. -1.
</event>
<event>
 8    1  0.1116619E+005  0.1043930E+01  0.7957747E-01            NaN
         13   -1    0    0    0    0  0.00000000000E+00  0.00000000000E+00  0.74505805969E-08  0.10566000000E+00  0.10566000000E+00 0.  1.
     999900   -1    0    0    0    0 -0.00000000000E+00 -0.00000000000E+00 -0.74505805969E-08  0.93827000000E+00  0.93827000000E+00 0.  1.
     999902    2    1    2    0    0 -0.22170500376E-01 -0.58208918142E-02  0.74357609715E-02  0.10198321908E+01  0.10195474452E+01 0.  0.
     999903    2    3    3    0    0 -0.24220375921E-02 -0.17195412846E-01 -0.12667158697E+00  0.12938052881E+00  0.19801055572E-01 0.  0.
         14    1    1    2    0    0  0.22170500376E-01  0.58208918142E-02 -0.74357609715E-02  0.24097809229E-01  0.00000000000E+00 0.  1.
     999901    1    3    3    0    0 -0.19748462784E-01  0.11374521032E-01  0.13410734794E+00  0.89045166196E+00  0.88000000000E+00 0. -1.
        -11    1    4    4    0    0 -0.68844486257E-02 -0.47460141164E-02 -0.90085459427E-01  0.90474147711E-01  0.51100000000E-03 0.  1.
         11    1    4    4    0    0  0.44624110336E-02 -0.12449398729E-01 -0.36586127542E-01  0.38906381103E-01  0.51100000000E-03 0. -1.
</event>
<event>
 8    1  0.1116619E+005  0.1043930E+01  0.7957747E-01            NaN
         13   -1    0    0    0    0  0.00000000000E+00  0.00000000000E+00  0.74505805969E-08  0.10566000000E+00  0.10566000000E+00 0.  1.
     999900   -1    0    0    0    0 -0.00000000000E+00 -0.00000000000E+00 -0.74505805969E-08  0.93827000000E+00  0.93827000000E+00 0. -1.
     999902    2    1    2    0    0 -0.19656318842E-01 -0.55838474401E-02  0.13757387864E-01  0.10192963656E+01  0.10189986580E+01 0.  0.
     999903    2    3    3    0    0  0.63148151541E-01  0.99325368749E-01  0.47761605392E-01  0.12855576882E+00  0.19803959863E-01 0.  0.
         14    1    1    2    0    0  0.19656318842E-01  0.55838474401E-02 -0.13757387864E-01  0.24633634395E-01  0.00000000000E+00 0. -1.
     999901    1    3    3    0    0 -0.82804470383E-01 -0.10490921619E+00 -0.34004217528E-01  0.89074059679E+00  0.88000000000E+00 0.  1.
        -11    1    4    4    0    0  0.73041175199E-02  0.79136928615E-02 -0.10608940513E-02  0.10833433650E-01  0.51100000000E-03 0. -1.
         11    1    4    4    0    0  0.55844034022E-01  0.91411675888E-01  0.48822499444E-01  0.11772233517E+00  0.51100000000E-03 0.  1.
</event>
<event>
 8    1  0.1116619E+005  0.1043930E+01  0.7957747E-01            NaN
         13   -1    0    0    0    0  0.00000000000E+00  0.00000000000E+00  0.74505805969E-08  0.10566000000E+00  0.10566000000E+00 0.  1.
     999900   -1    0    0    0    0 -0.00000000000E+00 -0.00000000000E+00 -0.74505805969E-08  0.93827000000E+00  0.93827000000E+00 0.  1.
     999902    2    1    2    0    0  0.16500573942E-01 -0.86958443273E-02 -0.18731661821E-01  0.10174958970E+01  0.10171524657E+01 0.  0.
     999903    2    3    3    0    0 -0.10914553035E+00  0.35559450535E-01  0.45467280477E-01  0.12515796835E+00  0.20494441408E-01 0.  0.
         14    1    1    2    0    0 -0.16500573942E-01  0.86958443273E-02  0.18731661821E-01  0.26434103040E-01  0.00000000000E+00 0.  1.
     999901    1    3    3    0    0  0.12564610429E+00 -0.44255294862E-01 -0.64198942298E-01  0.89233792861E+00  0.88000000000E+00 0.  1.
        -11    1    4    4    0    0 -0.94630611892E-01  0.32450549679E-01  0.46395665768E-01  0.11027606179E+00  0.51100000000E-03 0.  1.
         11    1    4    4    0    0 -0.14514918460E-01  0.31089008561E-02 -0.92838529109E-03  0.14881906554E-01  0.51100000000E-03 0. -1.
</event>
<event>
 8    1  0.1116619E+005  0.1043930E+01  0.7957747E-01            NaN
         13   -1    0    0    0    0  0.00000000000E+00  0.00000000000E+00  0.74505805969E-08  0.10566000000E+00  0.10566000000E+00 0. -1.
     999900   -1    0    0    0    0 -0.00000000000E+00 -0.00000000000E+00 -0.74505805969E-08  0.93827000000E+00  0.93827000000E+00 0.  1.
     999902    2    1    2    0    0 -0.77768226403E-02 -0.42150936493E-02 -0.18874772027E-01  0.10230852644E+01  0.10228728930E+01 0.  0.
     999903    2    3    3    0    0 -0.43267708985E-01  0.27105798466E-01  0.11904709533E+00  0.13108580091E+00  0.20111124841E-01 0.  0.
         14    1    1    2    0    0  0.77768226403E-02  0.42150936493E-02  0.18874772027E-01  0.20844735640E-01  0.00000000000E+00 0. -1.
     999901    1    3    3    0    0  0.35490886345E-01 -0.31320892115E-01 -0.13792186736E+00  0.89199946345E+00  0.88000000000E+00 0.  1.
        -11    1    4    4    0    0 -0.24965598238E-01  0.40312195638E-02  0.50613701496E-01  0.56582150248E-01  0.51100000000E-03 0. -1.
         11    1    4    4    0    0 -0.18302110747E-01  0.23074578902E-01  0.68433393835E-01  0.74503650663E-01  0.51100000000E-03 0.  1.
</event>
<event>
 8    1  0.1116619E+005  0.1043930E+01  0.7957747E-01            NaN
         13   -1    0    0    0    0  0.00000000000E+00  0.00000000000E+00  0.74505805969E-08  0.10566000000E+00  0.10566000000E+00 0. -1.
     999900   -1    0    0    0    0 -0.00000000000E+00 -0.00000000000E+00 -0.74505805969E-08  0.93827000000E+00  0.93827000000E+00 0.  1.
     999902    2    1    2    0    0 -0.14163802490E-02  0.16231869533E-01 -0.17135688769E-01  0.10202844602E+01  0.10200104255E+01 0.  0.
     999903    2    3    3    0    0 -0.16973824996E-01 -0.76542507111E-01  0.98897044656E-01  0.12769680948E+00  0.19467500580E-01 0.  0.
         14    1    1    2    0    0  0.14163802490E-02 -0.16231869533E-01  0.17135688769E-01  0.23645539773E-01  0.00000000000E+00 0. -1.
     999901    1    3    3    0    0  0.15557444747E-01  0.92774376644E-01 -0.11603273342E+00  0.89258765075E+00  0.88000000000E+00 0.  1.
        -11    1    4    4    0    0 -0.20031019603E-02 -0.46604053197E-01  0.49434429209E-01  0.67970391378E-01  0.51100000000E-03 0. -1.
         11    1    4    4    0    0 -0.14970723035E-01 -0.29938453914E-01  0.49462615447E-01  0.59726418098E-01  0.51100000000E-03 0.  1.
</event>
<event>
 8    1  0.1116619E+005  0.1043930E+01  0.7957747E-01            NaN
         13   -1    0    0    0    0  0.00000000000E+00  0.00000000000E+00  0.74505805969E-08  0.10566000000E+00  0.10566000000E+00 0. -1.
     999900   -1    0    0    0    0 -0.00000000000E+00 -0.00000000000E+00 -0.74505805969E-08  0.93827000000E+00  0.93827000000E+00 0.  1.
     999902    2    1    2    0    0  0.51915269802E-02  0.84163216840E-03  0.15880777982E-01  0.10272010010E+01  0.10270647677E+01 0.  0.
     999903    2    3    3    0    0  0.40327001333E-01  0.11630367742E+00 -0.54445575343E-01  0.13618372768E+00  0.20709287555E-01 0.  0.
         14    1    1    2    0    0 -0.51915269802E-02 -0.84163216840E-03 -0.15880777982E-01  0.16728998966E-01  0.00000000000E+00 0.  1.
     999901    1    3    3    0    0 -0.35135474353E-01 -0.11546204525E+00  0.70326353325E-01  0.89101727336E+00  0.88000000000E+00 0.  1.
        -11    1    4    4    0    0  0.20731558456E-01  0.78443791066E-01 -0.27148080003E-01  0.85559951155E-01  0.51100000000E-03 0. -1.
         11    1    4    4    0    0  0.19595442877E-01  0.37859886354E-01 -0.27297495339E-01  0.50623776520E-01  0.51100000000E-03 0.  1.
</event>
<event>
 8    1  0.1116619E+005  0.1043930E+01  0.7957747E-01            NaN
         13   -1    0    0    0    0  0.00000000000E+00  0.00000000000E+00  0.74505805969E-08  0.10566000000E+00  0.10566000000E+00 0. -1.
     999900   -1    0    0    0    0 -0.00000000000E+00 -0.00000000000E+00 -0.74505805969E-08  0.93827000000E+00  0.93827000000E+00 0. -1.
     999902    2    1    2    0    0  0.22034098265E-01 -0.62203693975E-02  0.57050658487E-02  0.10203346136E+01  0.10200617538E+01 0.  0.
     999903    2    3    3    0    0  0.13141217922E+00  0.11136080680E-02 -0.11430978368E-01  0.13336731105E+00  0.19641064635E-01 0.  0.
         14    1    1    2    0    0 -0.22034098265E-01  0.62203693975E-02 -0.57050658487E-02  0.23595386374E-01  0.00000000000E+00 0.  1.
     999901    1    3    3    0    0 -0.10937808096E+00 -0.73339774655E-02  0.17136044216E-01  0.88696730257E+00  0.88000000000E+00 0. -1.
        -11    1    4    4    0    0  0.42166422992E-01  0.62291868523E-04 -0.12910545429E-01  0.44101637299E-01  0.51100000000E-03 0.  1.
         11    1    4    4    0    0  0.89245756233E-01  0.10513161994E-02  0.14795670611E-02  0.89265673755E-01  0.51100000000E-03 0. -1.
</event>
<event>
 8    1  0.1116619E+005  0.1043930E+01  0.7957747E-01            NaN
         13   -1    0    0    0    0  0.00000000000E+00  0.00000000000E+00  0.74505805969E-08  0.10566000000E+00  0.10566000000E+00 0.  1.
     999900   -1    0    0    0    0 -0.00000000000E+00 -0.00000000000E+00 -0.74505805969E-08  0.93827000000E+00  0.93827000000E+00 0. -1.
     999902    2    1    2    0    0  0.66746994640E-02  0.10595429103E-01 -0.21050592758E-01  0.10194362827E+01  0.10191419883E+01 0.  0.
     999903    2    3    3    0    0 -0.10698185999E+00 -0.42656313306E-01 -0.56547319727E-01  0.12982199596E+00  0.19785647179E-01 0.  0.
         14    1    1    2    0    0 -0.66746994640E-02 -0.10595429103E-01  0.21050592758E-01  0.24493717282E-01  0.00000000000E+00 0.  1.
     999901    1    3    3    0    0  0.11365655946E+00  0.53251742409E-01  0.35496726970E-01  0.88961428676E+00  0.88000000000E+00 0. -1.
        -11    1    4    4    0    0 -0.20990492104E-01 -0.32300787469E-02 -0.17326735938E-01  0.27413702171E-01  0.51100000000E-03 0. -1.
         11    1    4    4    0    0 -0.85991367891E-01 -0.39426234559E-01 -0.39220583790E-01  0.10240829379E+00  0.51100000000E-03 0.  1.
</event>
<event>
 8    1  0.1116619E+005  0.1043930E+01  0.7957747E-01            NaN
         13   -1    0    0    0    0  0.00000000000E+00  0.00000000000E+00  0.74505805969E-08  0.10566000000E+00  0.10566000000E+00 0. -1.
     999900   -1    0    0    0    0 -0.00000000000E+00 -0.00000000000E+00 -0.74505805969E-08  0.93827000000E+00  0.93827000000E+00 0.  1.
     999902    2    1    2    0    0 -0.22025685060E-01 -0.18332808705E-02 -0.76050111606E-02  0.10205563414E+01  0.10202886445E+01 0.  0.
     999903    2    3    3    0    0  0.78286512866E-01 -0.92981190849E-01  0.38259910948E-01  0.12899923745E+00  0.20067449467E-01 0.  0.
         14    1    1    2    0    0  0.22025685060E-01  0.18332808705E-02  0.76050111606E-02  0.23373658590E-01  0.00000000000E+00 0.  1.
     999901    1    3    3    0    0 -0.10031219793E+00  0.91147909978E-01 -0.45864922108E-01  0.89155710396E+00  0.88000000000E+00 0.  1.
        -11    1    4    4    0    0  0.53173056896E-01 -0.75517570369E-01  0.25212979324E-01  0.95740445275E-01  0.51100000000E-03 0.  1.
         11    1    4    4    0    0  0.25113455969E-01 -0.17463620480E-01  0.13046931624E-01  0.33258792173E-01  0.51100000000E-03 0. -1.
</event>
<event>
 8    1  0.1116619E+005  0.1043930E+01  0.7957747E-01            NaN
         13   -1    0    0    0    0  0.00000000000E+00  0.00000000000E+00  0.74505805969E-08  0.10566000000E+00  0.10566000000E+00 0. -1.
     999900   -1    0    0    0    0 -0.00000000000E+00 -0.00000000000E+00 -0.74505805969E-08  0.93827000000E+00  0.93827000000E+00 0. -1.
     999902    2    1    2    0    0  0.18260433450E-01 -0.12161213826E-01 -0.78610746139E-02  0.10206247421E+01  0.10203586277E+01 0.  0.
     999903    2    3    3    0    0 -0.24039276796E-01 -0.10576590730E+00  0.72147647205E-01  0.13104478522E+00  0.14252675520E-01 0.  0.
         14    1    1    2    0    0 -0.18260433450E-01  0.12161213826E-01  0.78610746139E-02  0.23305257895E-01  0.00000000000E+00 0.  1.
     999901    1    3    3    0    0  0.42299710246E-01  0.93604693475E-01 -0.80008721819E-01  0.88957995689E+00  0.88000000000E+00 0. -1.
        -11    1    4    4    0    0 -0.19680215954E-01 -0.61366661266E-01  0.37569356087E-01  0.74598228215E-01  0.51100000000E-03 0.  1.
         11    1    4    4    0    0 -0.43590608423E-02 -0.44399246035E-01  0.34578291118E-01  0.56446557003E-01  0.51100000000E-03 0. -1.
</event>
<event>
 8    1  0.1116619E+005  0.1043930E+01  0.7957747E-01            NaN
         13   -1    0    0    0    0  0.00000000000E+00  0.00000000000E+00  0.74505805969E-08  0.10566000000E+00  0.10566000000E+00 0.  1.
     999900   -1    0    0    0    0 -0.00000000000E+00 -0.00000000000E+00 -0.74505805969E-08  0.93827000000E+00  0.93827000000E+00 0.  1.
     999902    2    1    2    0    0  0.50443259209E-02  0.20055807064E-01  0.11549015908E-01  0.10202432866E+01  0.10199682856E+01 0.  0.
     999903    2    3    3    0    0 -0.66246876617E-01 -0.85425302138E-01 -0.65159949220E-01  0.12777874097E+00  0.19886094517E-01 0.  0.
         14    1    1    2    0    0 -0.50443259209E-02 -0.20055807064E-01 -0.11549015908E-01  0.23686713352E-01  0.00000000000E+00 0. -1.
     999901    1    3    3    0    0  0.71291202538E-01  0.10548110920E+00  0.76708965128E-01  0.89246454568E+00  0.88000000000E+00 0. -1.
        -11    1    4    4    0    0 -0.46710651861E-01 -0.44882022570E-01 -0.35402305512E-01  0.73823203018E-01  0.51100000000E-03 0.  1.
         11    1    4    4    0    0 -0.19536224756E-01 -0.40543279568E-01 -0.29757643708E-01  0.53955537954E-01  0.51100000000E-03 0. -1.
</event>
<event>
 8    1  0.1116619E+005  0.1043930E+01  0.7957747E-01            NaN
         13   -1    0    0    0    0  0.00000000000E+00  0.00000000000E+00  0.74505805969E-08  0.10566000000E+00  0.10566000000E+00 0.  1.
     999900   -1    0    0    0    0 -0.00000000000E+00 -0.00000000000E+00 -0.74505805969E-08  0.93827000000E+00  0.93827000000E+00 0. -1.
     999902    2    1    2    0    0 -0.20386291817E-01 -0.70833901858E-02 -0.47499478052E-02  0.10218316445E+01  0.10215926646E+01 0.  0.
     999903    2    3    3    0    0  0.12511585272E+00 -0.23149631183E-01 -0.16620276145E-01  0.12966019079E+00  0.18591650552E-01 0.  0.
         14    1    1    2    0    0  0.20386291817E-01  0.70833901858E-02  0.47499478052E-02  0.22098355476E-01  0.00000000000E+00 0.  1.
     999901    1    3    3    0    0 -0.14550214454E+00  0.16066240997E-01  0.11870328340E-01  0.89217145374E+00  0.88000000000E+00 0.  1.
        -11    1    4    4    0    0  0.32860597680E-01 -0.12895000286E-02 -0.11007747752E-01  0.34683040838E-01  0.51100000000E-03 0. -1.
         11    1    4    4    0    0  0.92255255041E-01 -0.21860131154E-01 -0.56125283929E-02  0.94977149950E-01  0.51100000000E-03 0.  1.
</event>
<event>
 8    1  0.1116619E+005  0.1043930E+01  0.7957747E-01            NaN
         13   -1    0    0    0    0  0.00000000000E+00  0.00000000000E+00  0.74505805969E-08  0.10566000000E+00  0.10566000000E+00 0. -1.
     999900   -1    0    0    0    0 -0.00000000000E+00 -0.00000000000E+00 -0.74505805969E-08  0.93827000000E+00  0.93827000000E+00 0. -1.
     999902    2    1    2    0    0  0.11180596758E-01  0.20274775638E-01 -0.53359434366E-02  0.10201698535E+01  0.10198931245E+01 0.  0.
     999903    2    3    3    0    0  0.16469615698E-01  0.59543588793E-01  0.11414197948E+00  0.13121260619E+00  0.19278727568E-01 0.  0.
         14    1    1    2    0    0 -0.11180596758E-01 -0.20274775638E-01  0.53359434366E-02  0.23760146536E-01  0.00000000000E+00 0.  1.
     999901    1    3    3    0    0 -0.52890189400E-02 -0.39268813155E-01 -0.11947792292E+00  0.88895724727E+00  0.88000000000E+00 0. -1.
        -11    1    4    4    0    0  0.20004549496E-01  0.56540724614E-01  0.10416546441E+00  0.12019875472E+00  0.51100000000E-03 0. -1.
         11    1    4    4    0    0 -0.35349337977E-02  0.30028641791E-02  0.99765150743E-02  0.11013851473E-01  0.51100000000E-03 0.  1.
</event>
<event>
 8    1  0.1116619E+005  0.1043930E+01  0.7957747E-01            NaN
         13   -1    0    0    0    0  0.00000000000E+00  0.00000000000E+00  0.74505805969E-08  0.10566000000E+00  0.10566000000E+00 0. -1.
     999900   -1    0    0    0    0 -0.00000000000E+00 -0.00000000000E+00 -0.74505805969E-08  0.93827000000E+00  0.93827000000E+00 0.  1.
     999902    2    1    2    0    0 -0.86013345769E-02 -0.12626711712E-02  0.18934296668E-01  0.10230952961E+01  0.10228831312E+01 0.  0.
     999903    2    3    3    0    0 -0.75888920440E-01 -0.10791008921E+00 -0.78684453602E-02  0.13370242570E+00  0.20265996334E-01 0.  0.
         14    1    1    2    0    0  0.86013345769E-02  0.12626711712E-02 -0.18934296668E-01  0.20834703869E-01  0.00000000000E+00 0.  1.
     999901    1    3    3    0    0  0.67287585863E-01  0.10664741804E+00  0.26802742028E-01  0.88939287043E+00  0.88000000000E+00 0. -1.
        -11    1    4    4    0    0 -0.13572308085E-01 -0.28040247662E-01  0.50968579982E-02  0.31570589449E-01  0.51100000000E-03 0. -1.
         11    1    4    4    0    0 -0.62316612355E-01 -0.79869841551E-01 -0.12965303358E-01  0.10213183626E+00  0.51100000000E-03 0.  1.
</event>
<event>
 8    1  0.1116619E+005  0.1043930E+01  0.7957747E-01            NaN
         13   -1    0    0    0    0  0.00000000000E+00  0.00000000000E+00  0.74505805969E-08  0.10566000000E+00  0.10566000000E+00 0.  1.
     999900   -1    0    0    0    0 -0.00000000000E+00 -0.00000000000E+00 -0.74505805969E-08  0.93827000000E+00  0.93827000000E+00 0.  1.
     999902    2    1    2    0    0  0.96971864951E-02  0.10343009486E-02  0.20381454136E-01  0.10213355565E+01  0.10210856037E+01 0.  0.
     999903    2    3    3    0    0 -0.12611650274E+00  0.21240161257E-01 -0.12945557030E-01  0.13006437182E+00  0.19815061322E-01 0.  0.
         14    1    1    2    0    0 -0.96971864951E-02 -0.10343009486E-02 -0.20381454136E-01  0.22594443500E-01  0.00000000000E+00 0. -1.
     999901    1    3    3    0    0  0.13581368924E+00 -0.20205860309E-01  0.33327011167E-01  0.89127118468E+00  0.88000000000E+00 0. -1.
        -11    1    4    4    0    0 -0.93003822959E-01  0.23863607842E-01 -0.12608962328E-01  0.96842294046E-01  0.51100000000E-03 0. -1.
         11    1    4    4    0    0 -0.33112679782E-01 -0.26234465844E-02 -0.33659470240E-03  0.33222077770E-01  0.51100000000E-03 0.  1.
</event>
<event>
 8    1  0.1116619E+005  0.1043930E+01  0.7957747E-01            NaN
         13   -1    0    0    0    0  0.00000000000E+00  0.00000000000E+00  0.74505805969E-08  0.10566000000E+00  0.10566000000E+00 0.  1.
     999900   -1    0    0    0    0 -0.00000000000E+00 -0.00000000000E+00 -0.74505805969E-08  0.93827000000E+00  0.93827000000E+00 0. -1.
     999902    2    1    2    0    0  0.21748131693E-01  0.71608041867E-02 -0.86643922975E-02  0.10194487818E+01  0.10191547914E+01 0.  0.
     999903    2    3    3    0    0 -0.11840476309E+00  0.40324719327E-01 -0.16353025118E-01  0.12770790341E+00  0.19902669446E-01 0.  0.
         14    1    1    2    0    0 -0.21748131693E-01 -0.71608041867E-02  0.86643922975E-02  0.24481218161E-01  0.00000000000E+00 0.  1.
     999901    1    3    3    0    0  0.14015289479E+00 -0.33163915141E-01  0.76886328202E-02  0.89174087843E+00  0.88000000000E+00 0.  1.
        -11    1    4    4    0    0 -0.24856006278E-01  0.34923046518E-02  0.31236565148E-02  0.25298924698E-01  0.51100000000E-03 0. -1.
         11    1    4    4    0    0 -0.93548756816E-01  0.36832414675E-01 -0.19476681633E-01  0.10240897871E+00  0.51100000000E-03 0.  1.
</event>
<event>
 8    1  0.1116619E+005  0.1043930E+01  0.7957747E-01            NaN
         13   -1    0    0    0    0  0.00000000000E+00  0.00000000000E+00  0.74505805969E-08  0.10566000000E+00  0.10566000000E+00 0. -1.
     999900   -1    0    0    0    0 -0.00000000000E+00 -0.00000000000E+00 -0.74505805969E-08  0.93827000000E+00  0.93827000000E+00 0.  1.
     999902    2    1    2    0    0 -0.38517541476E-02 -0.98716196812E-02  0.20458952078E-01  0.10208897395E+01  0.10206297108E+01 0.  0.
     999903    2    3    3    0    0  0.27372275349E-01 -0.96512363767E-01  0.86095002941E-01  0.13365265181E+00  0.19667332964E-01 0.  0.
         14    1    1    2    0    0  0.38517541476E-02  0.98716196812E-02 -0.20458952078E-01  0.23040260529E-01  0.00000000000E+00 0.  1.
     999901    1    3    3    0    0 -0.31224029497E-01  0.86640744085E-01 -0.65636050863E-01  0.88723708766E+00  0.88000000000E+00 0.  1.
        -11    1    4    4    0    0  0.66060169653E-02 -0.55158038025E-01  0.41088452957E-01  0.69098268476E-01  0.51100000000E-03 0.  1.
         11    1    4    4    0    0  0.20766258384E-01 -0.41354325742E-01  0.45006549983E-01  0.64554383331E-01  0.51100000000E-03 0. -1.
</event>
<event>
 8    1  0.1116619E+005  0.1043930E+01  0.7957747E-01            NaN
         13   -1    0    0    0    0  0.00000000000E+00  0.00000000000E+00  0.74505805969E-08  0.10566000000E+00  0.10566000000E+00 0.  1.
     999900   -1    0    0    0    0 -0.00000000000E+00 -0.00000000000E+00 -0.74505805969E-08  0.93827000000E+00  0.93827000000E+00 0.  1.
     999902    2    1    2    0    0 -0.21122046592E-01 -0.11923308677E-02  0.18238319633E-01  0.10159979609E+01  0.10156139314E+01 0.  0.
     999903    2    3    3    0    0  0.61681845047E-01  0.97421658520E-01  0.47096144597E-01  0.12615866224E+00  0.20058206953E-01 0.  0.
         14    1    1    2    0    0  0.21122046592E-01  0.11923308677E-02 -0.18238319633E-01  0.27932039098E-01  0.00000000000E+00 0.  1.
     999901    1    3    3    0    0 -0.82803891640E-01 -0.98613989387E-01 -0.28857824964E-01  0.88983929866E+00  0.88000000000E+00 0.  1.
        -11    1    4    4    0    0  0.37971246975E-01  0.64300207619E-01  0.40306581651E-01  0.84859966662E-01  0.51100000000E-03 0. -1.
         11    1    4    4    0    0  0.23710598073E-01  0.33121450901E-01  0.67895629468E-02  0.41298695582E-01  0.51100000000E-03 0.  1.
</event>
<event>
 8    1  0.1528363E+005  0.1043930E+01  0.7957747E-01            NaN
         13   -1    0    0    0    0  0.00000000000E+00  0.00000000000E+00  0.74505805969E-08  0.10566000000E+00  0.10566000000E+00 0. -1.
     999900   -1    0    0    0    0 -0.00000000000E+00 -0.00000000000E+00 -0.74505805969E-08  0.93827000000E+00  0.93827000000E+00 0. -1.
     999902    2    1    2    0    0 -0.25529842563E-01 -0.48783161399E-02 -0.10864834262E-01  0.10157588187E+01  0.10153680921E+01 0.  0.
     999903    2    3    3    0    0  0.17679640041E-01 -0.20849945553E-01 -0.12278865568E+00  0.12747446443E+00  0.20625111302E-01 0.  0.
         14    1    1    2    0    0  0.25529842563E-01  0.48783161399E-02  0.10864834262E-01  0.28171181253E-01  0.00000000000E+00 0. -1.
     999901    1    3    3    0    0 -0.43209482603E-01  0.15971629413E-01  0.11192382141E+00  0.88828435432E+00  0.88000000000E+00 0.  1.
        -11    1    4    4    0    0  0.19797361385E-01 -0.11413754540E-01 -0.65517966409E-01  0.69390736801E-01  0.51100000000E-03 0.  1.
         11    1    4    4    0    0 -0.21177213440E-02 -0.94361910131E-02 -0.57270689268E-01  0.58083727624E-01  0.51100000000E-03 0. -1.
</event>
<event>
 8    1  0.1116619E+005  0.1043930E+01  0.7957747E-01            NaN
         13   -1    0    0    0    0  0.00000000000E+00  0.00000000000E+00  0.74505805969E-08  0.10566000000E+00  0.10566000000E+00 0. -1.
     999900   -1    0    0    0    0 -0.00000000000E+00 -0.00000000000E+00 -0.74505805969E-08  0.93827000000E+00  0.93827000000E+00 0. -1.
     999902    2    1    2    0    0  0.10627872633E-01 -0.14783097726E-01 -0.15493096768E-01  0.10200233544E+01  0.10197431617E+01 0.  0.
     999903    2    3    3    0    0 -0.89535524783E-01  0.89543295273E-01  0.17758260254E-03  0.12808037831E+00  0.19233820348E-01 0.  0.
         14    1    1    2    0    0 -0.10627872633E-01  0.14783097726E-01  0.15493096768E-01  0.23906645573E-01  0.00000000000E+00 0. -1.
     999901    1    3    3    0    0  0.10016339742E+00 -0.10432639300E+00 -0.15670679370E-01  0.89194297612E+00  0.88000000000E+00 0.  1.
        -11    1    4    4    0    0 -0.67375110406E-01  0.58378785316E-01 -0.59523284824E-02  0.89348639680E-01  0.51100000000E-03 0. -1.
         11    1    4    4    0    0 -0.22160414377E-01  0.31164509957E-01  0.61299110849E-02  0.38731738628E-01  0.51100000000E-03 0.  1.
</event>
<event>
 8    1  0.1116619E+005  0.1043930E+01  0.7957747E-01            NaN
         13   -1    0    0    0    0  0.00000000000E+00  0.00000000000E+00  0.74505805969E-08  0.10566000000E+00  0.10566000000E+00 0.  1.
     999900   -1    0    0    0    0 -0.00000000000E+00 -0.00000000000E+00 -0.74505805969E-08  0.93827000000E+00  0.93827000000E+00 0. -1.
     999902    2    1    2    0    0  0.23246839785E-01  0.54493020955E-02 -0.87460964942E-02  0.10185015778E+01  0.10181840989E+01 0.  0.
     999903    2    3    3    0    0  0.16435978751E-01 -0.12594946087E+00  0.36456502142E-02  0.12863328520E+00  0.19995579617E-01 0.  0.
         14    1    1    2    0    0 -0.23246839785E-01 -0.54493020955E-02  0.87460964942E-02  0.25428422232E-01  0.00000000000E+00 0. -1.
     999901    1    3    3    0    0  0.68108610346E-02  0.13139876296E+00 -0.12391746708E-01  0.88986829257E+00  0.88000000000E+00 0.  1.
        -11    1    4    4    0    0  0.35684185276E-02 -0.44095683480E-01  0.10557276205E-01  0.45484943819E-01  0.51100000000E-03 0. -1.
         11    1    4    4    0    0  0.12867560223E-01 -0.81853777390E-01 -0.69116259906E-02  0.83148341378E-01  0.51100000000E-03 0.  1.
</event>
<event>
 8    1  0.1116619E+005  0.1043930E+01  0.7957747E-01            NaN
         13   -1    0    0    0    0  0.00000000000E+00  0.00000000000E+00  0.74505805969E-08  0.10566000000E+00  0.10566000000E+00 0. -1.
     999900   -1    0    0    0    0 -0.00000000000E+00 -0.00000000000E+00 -0.74505805969E-08  0.93827000000E+00  0.93827000000E+00 0. -1.
     999902    2    1    2    0    0  0.93934618592E-02  0.19943774875E-01  0.78527841973E-02  0.10205279167E+01  0.10202595608E+01 0.  0.
     999903    2    3    3    0    0 -0.77695132786E-01 -0.15939861761E-01  0.10175457967E+00  0.13053375613E+00  0.19860869962E-01 0.  0.
         14    1    1    2    0    0 -0.93934618592E-02 -0.19943774875E-01 -0.78527841973E-02  0.23402083275E-01  0.00000000000E+00 0.  1.
     999901    1    3    3    0    0  0.87088594645E-01  0.35883636635E-01 -0.93901795469E-01  0.88999416059E+00  0.88000000000E+00 0. -1.
        -11    1    4    4    0    0 -0.64902826970E-01 -0.77808606663E-02  0.90480908800E-01  0.11162425686E+00  0.51100000000E-03 0.  1.
         11    1    4    4    0    0 -0.12792305816E-01 -0.81590010942E-02  0.11273670867E-01  0.18909499273E-01  0.51100000000E-03 0. -1.
</event>
<event>
 8    1  0.1116619E+005  0.1043930E+01  0.7957747E-01            NaN
         13   -1    0    0    0    0  0.00000000000E+00  0.00000000000E+00  0.74505805969E-08  0.10566000000E+00  0.10566000000E+00 0.  1.
     999900   -1    0    0    0    0 -0.00000000000E+00 -0.00000000000E+00 -0.74505805969E-08  0.93827000000E+00  0.93827000000E+00 0.  1.
     999902    2    1    2    0    0  0.92630258046E-02 -0.21215359164E-01  0.27186326125E-02  0.10206215021E+01  0.10203553128E+01 0.  0.
     999903    2    3    3    0    0 -0.37063777355E-01 -0.12053805888E+00  0.38030475566E-01  0.13312046118E+00  0.19276744614E-01 0.  0.
         14    1    1    2    0    0 -0.92630258046E-02  0.21215359164E-01 -0.27186326125E-02  0.23308497910E-01  0.00000000000E+00 0. -1.
     999901    1    3    3    0    0  0.46326803160E-01  0.99322699711E-01 -0.35311842953E-01  0.88750104091E+00  0.88000000000E+00 0.  1.
        -11    1    4    4    0    0 -0.26414939372E-01 -0.55763213170E-01  0.14515862065E-01  0.63389717917E-01  0.51100000000E-03 0. -1.
         11    1    4    4    0    0 -0.10648837983E-01 -0.64774845705E-01  0.23514613501E-01  0.69730743260E-01  0.51100000000E-03 0.  1.
</event>
<event>
 8    1  0.1116619E+005  0.1043930E+01  0.7957747E-01            NaN
         13   -1    0    0    0    0  0.00000000000E+00  0.00000000000E+00  0.74505805969E-08  0.10566000000E+00  0.10566000000E+00 0.  1.
     999900   -1    0    0    0    0 -0.00000000000E+00 -0.00000000000E+00 -0.74505805969E-08  0.93827000000E+00  0.93827000000E+00 0. -1.
     999902    2    1    2    0    0 -0.15759247889E-01  0.14443202057E-01 -0.18735525053E-01  0.10155050131E+01  0.10151071135E+01 0.  0.
     999903    2    3    3    0    0  0.96579663981E-02 -0.12194756056E+00  0.92510078065E-02  0.12419602017E+00  0.19354235652E-01 0.  0.
         14    1    1    2    0    0  0.15759247889E-01 -0.14443202057E-01  0.18735525053E-01  0.28424986872E-01  0.00000000000E+00 0.  1.
     999901    1    3    3    0    0 -0.25417214287E-01  0.13639076262E+00 -0.27986532860E-01  0.89130899296E+00  0.88000000000E+00 0.  1.
        -11    1    4    4    0    0 -0.42635203497E-03 -0.86598259991E-01  0.14427971328E-02  0.86612835042E-01  0.51100000000E-03 0. -1.
         11    1    4    4    0    0  0.10084318433E-01 -0.35349300573E-01  0.78082106737E-02  0.37583185126E-01  0.51100000000E-03 0.  1.
</event>
<event>
 8    1  0.1116619E+005  0.1043930E+01  0.7957747E-01            NaN
         13   -1    0    0    0    0  0.00000000000E+00  0.00000000000E+00  0.74505805969E-08  0.10566000000E+00  0.10566000000E+00 0. -1.
     999900   -1    0    0    0    0 -0.00000000000E+00 -0.00000000000E+00 -0.74505805969E-08  0.93827000000E+00  0.93827000000E+00 0. -1.
     999902    2    1    2    0    0  0.82149615494E-02  0.51728329031E-02 -0.21570545012E-01  0.10202755669E+01  0.10200013236E+01 0.  0.
     999903    2    3    3    0    0  0.53851106649E-01 -0.11640677429E+00  0.14005524002E-01  0.13003407420E+00  0.16193423449E-01 0.  0.
         14    1    1    2    0    0 -0.82149615494E-02 -0.51728329031E-02  0.21570545012E-01  0.23654433107E-01  0.00000000000E+00 0. -1.
     999901    1    3    3    0    0 -0.45636145100E-01  0.12157960719E+00 -0.35576069014E-01  0.89024149269E+00  0.88000000000E+00 0.  1.
        -11    1    4    4    0    0  0.82809196172E-02 -0.34962719604E-01  0.48224558295E-02  0.36255793924E-01  0.51100000000E-03 0.  1.
         11    1    4    4    0    0  0.45570187032E-01 -0.81444054684E-01  0.91830681723E-02  0.93778280276E-01  0.51100000000E-03 0. -1.
</event>
<event>
 8    1  0.1116619E+005  0.1043930E+01  0.7957747E-01            NaN
         13   -1    0    0    0    0  0.00000000000E+00  0.00000000000E+00  0.74505805969E-08  0.10566000000E+00  0.10566000000E+00 0.  1.
     999900   -1    0    0    0    0 -0.00000000000E+00 -0.00000000000E+00 -0.74505805969E-08  0.93827000000E+00  0.93827000000E+00 0.  1.
     999902    2    1    2    0    0 -0.92026469532E-02 -0.16912598498E-01 -0.14180734236E-01  0.10200172853E+01  0.10197369487E+01 0.  0.
     999903    2    3    3    0    0 -0.92131141929E-01 -0.58240519674E-02 -0.92614884143E-01  0.13257601573E+00  0.21836123430E-01 0.  0.
         14    1    1    2    0    0  0.92026469532E-02  0.16912598498E-01  0.14180734236E-01  0.23912714659E-01  0.00000000000E+00 0. -1.
     999901    1    3    3    0    0  0.82928494976E-01 -0.11088546531E-01  0.78434149908E-01  0.88744126961E+00  0.88000000000E+00 0. -1.
        -11    1    4    4    0    0 -0.18292546541E-01 -0.98829856806E-02 -0.17715139685E-01  0.27319918740E-01  0.51100000000E-03 0.  1.
         11    1    4    4    0    0 -0.73838595388E-01  0.40589337132E-02 -0.74899744458E-01  0.10525609699E+00  0.51100000000E-03 0. -1.
</event>
<event>
 8    1  0.1116619E+005  0.1043930E+01  0.7957747E-01            NaN
         13   -1    0    0    0    0  0.00000000000E+00  0.00000000000E+00  0.74505805969E-08  0.10566000000E+00  0.10566000000E+00 0. -1.
     999900   -1    0    0    0    0 -0.00000000000E+00 -0.00000000000E+00 -0.74505805969E-08  0.93827000000E+00  0.93827000000E+00 0.  1.
     999902    2    1    2    0    0  0.95018657047E-02  0.27173060959E-01  0.24321525260E-02  0.10150409699E+01  0.10146297820E+01 0.  0.
     999903    2    3    3    0    0  0.40072011575E-01 -0.36882029643E-01 -0.11074197514E+00  0.12495896716E+00  0.19619077247E-01 0.  0.
         14    1    1    2    0    0 -0.95018657047E-02 -0.27173060959E-01 -0.24321525260E-02  0.28889030092E-01  0.00000000000E+00 0.  1.
     999901    1    3    3    0    0 -0.30570145871E-01  0.64055090602E-01  0.11317412767E+00  0.89008200275E+00  0.88000000000E+00 0. -1.
        -11    1    4    4    0    0  0.30954017320E-01 -0.20908232749E-01 -0.56969724075E-01  0.68125736452E-01  0.51100000000E-03 0.  1.
         11    1    4    4    0    0  0.91179942555E-02 -0.15973796895E-01 -0.53772251066E-01  0.56833230704E-01  0.51100000000E-03 0. -1.
</event>
<event>
 8    1  0.1116619E+005  0.1043930E+01  0.7957747E-01            NaN
         13   -1    0    0    0    0  0.00000000000E+00  0.00000000000E+00  0.74505805969E-08  0.10566000000E+00  0.10566000000E+00 0.  1.
     999900   -1    0    0    0    0 -0.00000000000E+00 -0.00000000000E+00 -0.74505805969E-08  0.93827000000E+00  0.93827000000E+00 0. -1.
     999902    2    1    2    0    0  0.11518935896E-01 -0.64634587559E-02 -0.21225624426E-01  0.10189302137E+01  0.10186234786E+01 0.  0.
     999903    2    3    3    0    0 -0.98659775185E-01  0.43748012925E-02 -0.81995176653E-01  0.12991404132E+00  0.20038937399E-01 0.  0.
         14    1    1    2    0    0 -0.11518935896E-01  0.64634587559E-02  0.21225624426E-01  0.24999786310E-01  0.00000000000E+00 0. -1.
     999901    1    3    3    0    0  0.11017871108E+00 -0.10838260048E-01  0.60769552227E-01  0.88901617237E+00  0.88000000000E+00 0. -1.
        -11    1    4    4    0    0 -0.25465416010E-01 -0.75145867123E-02 -0.19702628883E-01  0.33066767788E-01  0.51100000000E-03 0.  1.
         11    1    4    4    0    0 -0.73194359175E-01  0.11889388005E-01 -0.62292547770E-01  0.96847273534E-01  0.51100000000E-03 0. -1.
</event>
<event>
 8    1  0.1116619E+005  0.1043930E+01  0.7957747E-01            NaN
         13   -1    0    0    0    0  0.00000000000E+00  0.00000000000E+00  0.74505805969E-08  0.10566000000E+00  0.10566000000E+00 0.  1.
     999900   -1    0    0    0    0 -0.00000000000E+00 -0.00000000000E+00 -0.74505805969E-08  0.93827000000E+00  0.93827000000E+00 0.  1.
     999902    2    1    2    0    0 -0.16783538553E-01  0.28451374601E-02  0.12177128800E-01  0.10230000110E+01  0.10227858809E+01 0.  0.
     999903    2    3    3    0    0 -0.89422204124E-01  0.29920633268E-01 -0.92217815236E-01  0.13344519957E+00  0.20295835915E-01 0.  0.
         14    1    1    2    0    0  0.16783538553E-01 -0.28451374601E-02 -0.12177128800E-01  0.20929988995E-01  0.00000000000E+00 0.  1.
     999901    1    3    3    0    0  0.72638665571E-01 -0.27075495808E-01  0.10439494404E+00  0.88955481144E+00  0.88000000000E+00 0. -1.
        -11    1    4    4    0    0 -0.68332696837E-01  0.31465359259E-01 -0.69813563778E-01  0.10263343071E+00  0.51100000000E-03 0.  1.
         11    1    4    4    0    0 -0.21089507287E-01 -0.15447259910E-02 -0.22404251459E-01  0.30811768862E-01  0.51100000000E-03 0. -1.
</event>
<event>
 8    1  0.1116619E+005  0.1043930E+01  0.7957747E-01            NaN
         13   -1    0    0    0    0  0.00000000000E+00  0.00000000000E+00  0.74505805969E-08  0.10566000000E+00  0.10566000000E+00 0. -1.
     999900   -1    0    0    0    0 -0.00000000000E+00 -0.00000000000E+00 -0.74505805969E-08  0.93827000000E+00  0.93827000000E+00 0.  1.
     999902    2    1    2    0    0  0.17086703838E-01 -0.15623255439E-01  0.71686654087E-02  0.10196930175E+01  0.10194049336E+01 0.  0.
     999903    2    3    3    0    0  0.68887339559E-01  0.10678809318E+00  0.12095549324E-01  0.12969744539E+00  0.22933875191E-01 0.  0.
         14    1    1    2    0    0 -0.17086703838E-01  0.15623255439E-01 -0.71686654087E-02  0.24236982533E-01  0.00000000000E+00 0.  1.
     999901    1    3    3    0    0 -0.51800635721E-01 -0.12241134862E+00 -0.49268839154E-02  0.88999557208E+00  0.88000000000E+00 0. -1.
        -11    1    4    4    0    0  0.23328141256E-01  0.25111285385E-01 -0.49406432608E-02  0.34633075303E-01  0.51100000000E-03 0.  1.
         11    1    4    4    0    0  0.45559198304E-01  0.81676807793E-01  0.17036192585E-01  0.95064370087E-01  0.51100000000E-03 0. -1.
</event>
<event>
 8    1  0.1116619E+005  0.1043930E+01  0.7957747E-01            NaN
         13   -1    0    0    0    0  0.00000000000E+00  0.00000000000E+00  0.74505805969E-08  0.10566000000E+00  0.10566000000E+00 0.  1.
     999900   -1    0    0    0    0 -0.00000000000E+00 -0.00000000000E+00 -0.74505805969E-08  0.93827000000E+00  0.93827000000E+00 0. -1.
     999902    2    1    2    0    0  0.70087376057E-02  0.15262672084E-01 -0.13851417393E-01  0.10221599902E+01  0.10219281346E+01 0.  0.
     999903    2    3    3    0    0  0.13118336486E+00 -0.96052340830E-02 -0.62328932604E-02  0.13306168704E+00  0.19110935670E-01 0.  0.
         14    1    1    2    0    0 -0.70087376057E-02 -0.15262672084E-01  0.13851417393E-01  0.21770009779E-01  0.00000000000E+00 0. -1.
     999901    1    3    3    0    0 -0.12417462725E+00  0.24867906167E-01 -0.76185241329E-02  0.88909830318E+00  0.88000000000E+00 0. -1.
        -11    1    4    4    0    0  0.45129392353E-01 -0.12403869262E-01 -0.29298589096E-02  0.46897369020E-01  0.51100000000E-03 0. -1.
         11    1    4    4    0    0  0.86053972505E-01  0.27986351790E-02 -0.33030343507E-02  0.86164318019E-01  0.51100000000E-03 0.  1.
</event>
<event>
 8    1  0.1116619E+005  0.1043930E+01  0.7957747E-01            NaN
         13   -1    0    0    0    0  0.00000000000E+00  0.00000000000E+00  0.74505805969E-08  0.10566000000E+00  0.10566000000E+00 0.  1.
     999900   -1    0    0    0    0 -0.00000000000E+00 -0.00000000000E+00 -0.74505805969E-08  0.93827000000E+00  0.93827000000E+00 0. -1.
     999902    2    1    2    0    0  0.14379065556E-01  0.17390403074E-01  0.80189938397E-02  0.10199823924E+01  0.10197012273E+01 0.  0.
     999903    2    3    3    0    0 -0.10018690703E+00  0.55997535467E-01 -0.57064854772E-01  0.12933556003E+00  0.17266995077E-01 0.  0.
         14    1    1    2    0    0 -0.14379065556E-01 -0.17390403074E-01 -0.80189938397E-02  0.23947607554E-01  0.00000000000E+00 0.  1.
     999901    1    3    3    0    0  0.11456597259E+00 -0.38607132394E-01  0.65083848612E-01  0.89064683242E+00  0.88000000000E+00 0.  1.
        -11    1    4    4    0    0 -0.17291735371E-01  0.57375409278E-02 -0.15227763344E-01  0.23750144958E-01  0.51100000000E-03 0.  1.
         11    1    4    4    0    0 -0.82895171659E-01  0.50259994540E-01 -0.41837091428E-01  0.10558541507E+00  0.51100000000E-03 0. -1.
</event>
<event>
 8    1  0.1116619E+005  0.1043930E+01  0.7957747E-01            NaN
         13   -1    0    0    0    0  0.00000000000E+00  0.00000000000E+00  0.74505805969E-08  0.10566000000E+00  0.10566000000E+00 0. -1.
     999900   -1    0    0    0    0 -0.00000000000E+00 -0.00000000000E+00 -0.74505805969E-08  0.93827000000E+00  0.93827000000E+00 0.  1.
     999902    2    1    2    0    0  0.21450265828E-01 -0.42056404322E-02 -0.95210357370E-02  0.10200877804E+01  0.10198091136E+01 0.  0.
     999903    2    3    3    0    0  0.83505162048E-02 -0.12643902885E+00 -0.28337205654E-01  0.13134335539E+00  0.19786880546E-01 0.  0.
         14    1    1    2    0    0 -0.21450265828E-01  0.42056404322E-02  0.95210357370E-02  0.23842219633E-01  0.00000000000E+00 0. -1.
     999901    1    3    3    0    0  0.13099749623E-01  0.12223338842E+00  0.18816169917E-01  0.88874442498E+00  0.88000000000E+00 0. -1.
        -11    1    4    4    0    0 -0.13333396258E-02 -0.57015002849E-01 -0.41259820869E-02  0.57181930657E-01  0.51100000000E-03 0. -1.
         11    1    4    4    0    0  0.96838558306E-02 -0.69424026003E-01 -0.24211223568E-01  0.74161424729E-01  0.51100000000E-03 0.  1.
</event>
<event>
 8    1  0.1116619E+005  0.1043930E+01  0.7957747E-01            NaN
         13   -1    0    0    0    0  0.00000000000E+00  0.00000000000E+00  0.74505805969E-08  0.10566000000E+00  0.10566000000E+00 0.  1.
     999900   -1    0    0    0    0 -0.00000000000E+00 -0.00000000000E+00 -0.74505805969E-08  0.93827000000E+00  0.93827000000E+00 0. -1.
     999902    2    1    2    0    0  0.16146512642E-01 -0.21427332610E-02  0.17537118363E-01  0.10199956795E+01  0.10197148300E+01 0.  0.
     999903    2    3    3    0    0 -0.35610762773E-01 -0.88097227229E-01  0.88288536635E-01  0.13147288647E+00  0.21471057350E-01 0.  0.
         14    1    1    2    0    0 -0.16146512642E-01  0.21427332610E-02 -0.17537118363E-01  0.23934320479E-01  0.00000000000E+00 0. -1.
     999901    1    3    3    0    0  0.51757275415E-01  0.85954493968E-01 -0.70751418272E-01  0.88852279306E+00  0.88000000000E+00 0. -1.
        -11    1    4    4    0    0 -0.22272564325E-01 -0.75210771458E-01  0.66334504289E-01  0.10272903604E+00  0.51100000000E-03 0.  1.
         11    1    4    4    0    0 -0.13338198448E-01 -0.12886455771E-01  0.21954032346E-01  0.28743850428E-01  0.51100000000E-03 0. -1.
</event>
<event>
 8    1  0.1116619E+005  0.1043930E+01  0.7957747E-01            NaN
         13   -1    0    0    0    0  0.00000000000E+00  0.00000000000E+00  0.74505805969E-08  0.10566000000E+00  0.10566000000E+00 0.  1.
     999900   -1    0    0    0    0 -0.00000000000E+00 -0.00000000000E+00 -0.74505805969E-08  0.93827000000E+00  0.93827000000E+00 0.  1.
     999902    2    1    2    0    0  0.15504588997E-01  0.18780208676E-01  0.75761641822E-03  0.10195648097E+01  0.10192736328E+01 0.  0.
     999903    2    3    3    0    0 -0.92373760854E-01  0.88919291309E-01  0.75551103470E-02  0.13018107065E+00  0.21224500058E-01 0.  0.
         14    1    1    2    0    0 -0.15504588997E-01 -0.18780208676E-01 -0.75761641822E-03  0.24365190344E-01  0.00000000000E+00 0.  1.
     999901    1    3    3    0    0  0.10787834985E+00 -0.70139082633E-01 -0.67974939287E-02  0.88938373900E+00  0.88000000000E+00 0.  1.
        -11    1    4    4    0    0 -0.81599760438E-01  0.71895783799E-01  0.28228060356E-03  0.10875599034E+00  0.51100000000E-03 0.  1.
         11    1    4    4    0    0 -0.10774000416E-01  0.17023507510E-01  0.72728297434E-02  0.21425080312E-01  0.51100000000E-03 0. -1.
</event>
<event>
 8    1  0.1116619E+005  0.1043930E+01  0.7957747E-01            NaN
         13   -1    0    0    0    0  0.00000000000E+00  0.00000000000E+00  0.74505805969E-08  0.10566000000E+00  0.10566000000E+00 0.  1.
     999900   -1    0    0    0    0 -0.00000000000E+00 -0.00000000000E+00 -0.74505805969E-08  0.93827000000E+00  0.93827000000E+00 0. -1.
     999902    2    1    2    0    0 -0.11567197583E-01  0.11286010280E-01 -0.17891657286E-01  0.10198201371E+01  0.10195351032E+01 0.  0.
     999903    2    3    3    0    0 -0.89246969517E-01 -0.61666843091E-01 -0.71721250195E-01  0.13175826379E+00  0.21177375714E-01 0.  0.
         14    1    1    2    0    0  0.11567197583E-01 -0.11286010280E-01  0.17891657286E-01  0.24109862886E-01  0.00000000000E+00 0.  1.
     999901    1    3    3    0    0  0.77679771933E-01  0.72952853371E-01  0.53829592909E-01  0.88806187333E+00  0.88000000000E+00 0.  1.
        -11    1    4    4    0    0 -0.82339080895E-01 -0.62251286517E-01 -0.69577334743E-01  0.12448378829E+00  0.51100000000E-03 0. -1.
         11    1    4    4    0    0 -0.69078886220E-02  0.58444342598E-03 -0.21439154518E-02  0.72744754997E-02  0.51100000000E-03 0.  1.
</event>
<event>
 8    1  0.1116619E+005  0.1043930E+01  0.7957747E-01            NaN
         13   -1    0    0    0    0  0.00000000000E+00  0.00000000000E+00  0.74505805969E-08  0.10566000000E+00  0.10566000000E+00 0.  1.
     999900   -1    0    0    0    0 -0.00000000000E+00 -0.00000000000E+00 -0.74505805969E-08  0.93827000000E+00  0.93827000000E+00 0.  1.
     999902    2    1    2    0    0 -0.12540155770E-01 -0.20250123929E-01 -0.21776889731E-02  0.10200121122E+01  0.10197316528E+01 0.  0.
     999903    2    3    3    0    0 -0.10858188923E+00  0.24197029354E-01  0.66536155380E-01  0.13101202427E+00  0.19014931778E-01 0.  0.
         14    1    1    2    0    0  0.12540155770E-01  0.20250123929E-01  0.21776889731E-02  0.23917887765E-01  0.00000000000E+00 0.  1.
     999901    1    3    3    0    0  0.96041733465E-01 -0.44447153283E-01 -0.68713844353E-01  0.88900008797E+00  0.88000000000E+00 0.  1.
        -11    1    4    4    0    0 -0.10433940664E+00  0.26207550182E-01  0.60770343512E-01  0.12355906780E+00  0.51100000000E-03 0.  1.
         11    1    4    4    0    0 -0.42424825917E-02 -0.20105208279E-02  0.57658118676E-02  0.74529564626E-02  0.51100000000E-03 0. -1.
</event>
<event>
 8    1  0.1116619E+005  0.1043930E+01  0.7957747E-01            NaN
         13   -1    0    0    0    0  0.00000000000E+00  0.00000000000E+00  0.74505805969E-08  0.10566000000E+00  0.10566000000E+00 0.  1.
     999900   -1    0    0    0    0 -0.00000000000E+00 -0.00000000000E+00 -0.74505805969E-08  0.93827000000E+00  0.93827000000E+00 0. -1.
     999902    2    1    2    0    0 -0.73100556580E-03 -0.26706535602E-03 -0.22664232051E-01  0.10212524096E+01  0.10210005930E+01 0.  0.
     999903    2    3    3    0    0 -0.46499446975E-01 -0.10082900069E+00  0.64627336188E-01  0.13005811485E+00  0.20241904720E-01 0.  0.
         14    1    1    2    0    0  0.73100556580E-03  0.26706535602E-03  0.22664232051E-01  0.22677590426E-01  0.00000000000E+00 0.  1.
     999901    1    3    3    0    0  0.45768441409E-01  0.10056193533E+00 -0.87291568239E-01  0.89119429473E+00  0.88000000000E+00 0. -1.
        -11    1    4    4    0    0 -0.31152117985E-01 -0.43713204894E-01  0.29011640519E-01  0.61018318099E-01  0.51100000000E-03 0.  1.
         11    1    4    4    0    0 -0.15347328990E-01 -0.57115795793E-01  0.35615695669E-01  0.69039796750E-01  0.51100000000E-03 0. -1.
</event>
<event>
 8    1  0.1116619E+005  0.1043930E+01  0.7957747E-01            NaN
         13   -1    0    0    0    0  0.00000000000E+00  0.00000000000E+00  0.74505805969E-08  0.10566000000E+00  0.10566000000E+00 0.  1.
     999900   -1    0    0    0    0 -0.00000000000E+00 -0.00000000000E+00 -0.74505805969E-08  0.93827000000E+00  0.93827000000E+00 0. -1.
     999902    2    1    2    0    0 -0.87830622787E-02 -0.91894788750E-02  0.20267866336E-01  0.10200056377E+01  0.10197250246E+01 0.  0.
     999903    2    3    3    0    0 -0.56039695672E-01 -0.27361517391E-01 -0.11103981072E+00  0.12882377163E+00  0.19406814440E-01 0.  0.
         14    1    1    2    0    0  0.87830622787E-02  0.91894788750E-02 -0.20267866336E-01  0.23924362286E-01  0.00000000000E+00 0.  1.
     999901    1    3    3    0    0  0.47256633393E-01  0.18172038516E-01  0.13130767706E+00  0.89118186608E+00  0.88000000000E+00 0.  1.
        -11    1    4    4    0    0 -0.15821446975E-01 -0.17856663059E-01 -0.44464713536E-01  0.50463357705E-01  0.51100000000E-03 0. -1.
         11    1    4    4    0    0 -0.40218248697E-01 -0.95048543321E-02 -0.66575097186E-01  0.78360413925E-01  0.51100000000E-03 0.  1.
</event>
<event>
 8    1  0.1116619E+005  0.1043930E+01  0.7957747E-01            NaN
         13   -1    0    0    0    0  0.00000000000E+00  0.00000000000E+00  0.74505805969E-08  0.10566000000E+00  0.10566000000E+00 0. -1.
     999900   -1    0    0    0    0 -0.00000000000E+00 -0.00000000000E+00 -0.74505805969E-08  0.93827000000E+00  0.93827000000E+00 0. -1.
     999902    2    1    2    0    0  0.11255229087E-01  0.17424432157E-01  0.55041582218E-02  0.10224687145E+01  0.10222434570E+01 0.  0.
     999903    2    3    3    0    0  0.71844504101E-01  0.65287794322E-01 -0.90456294752E-01  0.13389099127E+00  0.17897693280E-01 0.  0.
         14    1    1    2    0    0 -0.11255229087E-01 -0.17424432157E-01 -0.55041582218E-02  0.21461285505E-01  0.00000000000E+00 0.  1.
     999901    1    3    3    0    0 -0.60589275014E-01 -0.47863362164E-01  0.95960452974E-01  0.88857772323E+00  0.88000000000E+00 0.  1.
        -11    1    4    4    0    0  0.12364420354E-01  0.10092710987E-01 -0.24863733274E-01  0.29550094062E-01  0.51100000000E-03 0.  1.
         11    1    4    4    0    0  0.59480083747E-01  0.55195083335E-01 -0.65592561479E-01  0.10434089720E+00  0.51100000000E-03 0. -1.
</event>
<event>
 8    1  0.1116619E+005  0.1043930E+01  0.7957747E-01            NaN
         13   -1    0    0    0    0  0.00000000000E+00  0.00000000000E+00  0.74505805969E-08  0.10566000000E+00  0.10566000000E+00 0. -1.
     999900   -1    0    0    0    0 -0.00000000000E+00 -0.00000000000E+00 -0.74505805969E-08  0.93827000000E+00  0.93827000000E+00 0.  1.
     999902    2    1    2    0    0 -0.13312638285E-03 -0.28772367776E-02 -0.22859949571E-01  0.10208893076E+01  0.10206292690E+01 0.  0.
     999903    2    3    3    0    0 -0.23423670522E-01  0.91081440829E-01 -0.91762037466E-01  0.13290384581E+00  0.19966559732E-01 0.  0.
         14    1    1    2    0    0  0.13312638285E-03  0.28772367776E-02  0.22859949571E-01  0.23040692448E-01  0.00000000000E+00 0. -1.
     999901    1    3    3    0    0  0.23290544139E-01 -0.93958677607E-01  0.68902087895E-01  0.88798546174E+00  0.88000000000E+00 0.  1.
        -11    1    4    4    0    0 -0.21802031391E-01  0.52403723167E-01 -0.62101974615E-01  0.84133198837E-01  0.51100000000E-03 0. -1.
         11    1    4    4    0    0 -0.16216391315E-02  0.38677717662E-01 -0.29660062852E-01  0.48770646975E-01  0.51100000000E-03 0.  1.
</event>
<event>
 8    1  0.1116619E+005  0.1043930E+01  0.7957747E-01            NaN
         13   -1    0    0    0    0  0.00000000000E+00  0.00000000000E+00  0.74505805969E-08  0.10566000000E+00  0.10566000000E+00 0. -1.
     999900   -1    0    0    0    0 -0.00000000000E+00 -0.00000000000E+00 -0.74505805969E-08  0.93827000000E+00  0.93827000000E+00 0. -1.
     999902    2    1    2    0    0  0.16669944207E-01  0.38193497439E-02  0.16270800180E-01  0.10203246317E+01  0.10200515383E+01 0.  0.
     999903    2    3    3    0    0 -0.38455709583E-01  0.12412511277E-01 -0.12114189146E+00  0.12791501281E+00  0.73471491634E-02 0.  0.
         14    1    1    2    0    0 -0.16669944207E-01 -0.38193497439E-02 -0.16270800180E-01  0.23605368263E-01  0.00000000000E+00 0.  1.
     999901    1    3    3    0    0  0.55125653791E-01 -0.85931615335E-02  0.13741269164E+00  0.89240961893E+00  0.88000000000E+00 0.  1.
        -11    1    4    4    0    0 -0.10590107028E-01  0.17229769298E-02 -0.24087079839E-01  0.26373614703E-01  0.51100000000E-03 0.  1.
         11    1    4    4    0    0 -0.27865602555E-01  0.10689534348E-01 -0.97054811617E-01  0.10154139811E+00  0.51100000000E-03 0. -1.
</event>
<event>
 8    1  0.1116619E+005  0.1043930E+01  0.7957747E-01            NaN
         13   -1    0    0    0    0  0.00000000000E+00  0.00000000000E+00  0.74505805969E-08  0.10566000000E+00  0.10566000000E+00 0. -1.
     999900   -1    0    0    0    0 -0.00000000000E+00 -0.00000000000E+00 -0.74505805969E-08  0.93827000000E+00  0.93827000000E+00 0. -1.
     999902    2    1    2    0    0 -0.21915079139E-01  0.12936195982E-01  0.78967222009E-03  0.10184694532E+01  0.10181511615E+01 0.  0.
     999903    2    3    3    0    0  0.27883511575E-01  0.26970721741E-01  0.12113800430E+00  0.12877254495E+00  0.20075910858E-01 0.  0.
         14    1    1    2    0    0  0.21915079139E-01 -0.12936195982E-01 -0.78967222009E-03  0.25460546781E-01  0.00000000000E+00 0.  1.
     999901    1    3    3    0    0 -0.49798590714E-01 -0.14034525759E-01 -0.12034833208E+00  0.88969690827E+00  0.88000000000E+00 0. -1.
        -11    1    4    4    0    0  0.98019086689E-02 -0.94525334508E-03  0.37169910884E-01  0.38455614851E-01  0.51100000000E-03 0. -1.
         11    1    4    4    0    0  0.18081602906E-01  0.27915975086E-01  0.83968093421E-01  0.90316930098E-01  0.51100000000E-03 0.  1.
</event>
<event>
 8    1  0.1116619E+005  0.1043930E+01  0.7957747E-01            NaN
         13   -1    0    0    0    0  0.00000000000E+00  0.00000000000E+00  0.74505805969E-08  0.10566000000E+00  0.10566000000E+00 0.  1.
     999900   -1    0    0    0    0 -0.00000000000E+00 -0.00000000000E+00 -0.74505805969E-08  0.93827000000E+00  0.93827000000E+00 0.  1.
     999902    2    1    2    0    0  0.15546221559E-01 -0.10408973365E-01 -0.13891974345E-01  0.10206272387E+01  0.10203611820E+01 0.  0.
     999903    2    3    3    0    0 -0.47438172816E-01 -0.97196752842E-01  0.69699587682E-01  0.13018538109E+00  0.19814437268E-01 0.  0.
         14    1    1    2    0    0 -0.15546221559E-01  0.10408973365E-01  0.13891974345E-01  0.23302761263E-01  0.00000000000E+00 0.  1.
     999901    1    3    3    0    0  0.62984394375E-01  0.86787779476E-01 -0.83591562027E-01  0.89044185764E+00  0.88000000000E+00 0.  1.
        -11    1    4    4    0    0 -0.35315627149E-01 -0.68939487676E-01  0.59869849149E-01  0.97900492542E-01  0.51100000000E-03 0.  1.
         11    1    4    4    0    0 -0.12122545667E-01 -0.28257265166E-01  0.98297385329E-02  0.32284888551E-01  0.51100000000E-03 0. -1.
</event>
<event>
 8    1  0.1116619E+005  0.1043930E+01  0.7957747E-01            NaN
         13   -1    0    0    0    0  0.00000000000E+00  0.00000000000E+00  0.74505805969E-08  0.10566000000E+00  0.10566000000E+00 0. -1.
     999900   -1    0    0    0    0 -0.00000000000E+00 -0.00000000000E+00 -0.74505805969E-08  0.93827000000E+00  0.93827000000E+00 0. -1.
     999902    2    1    2    0    0  0.51624862035E-02 -0.22883305730E-01 -0.26351837086E-02  0.10203240444E+01  0.10200509372E+01 0.  0.
     999903    2    3    3    0    0 -0.33123335337E-01  0.15622648311E-02 -0.12488249513E+00  0.13071300853E+00  0.19765044767E-01 0.  0.
         14    1    1    2    0    0 -0.51624862035E-02  0.22883305730E-01  0.26351837086E-02  0.23605955565E-01  0.00000000000E+00 0.  1.
     999901    1    3    3    0    0  0.38285821540E-01 -0.24445570562E-01  0.12224731142E+00  0.88961103590E+00  0.88000000000E+00 0.  1.
        -11    1    4    4    0    0 -0.91825205083E-02  0.93337652792E-02 -0.35044843654E-01  0.37414436317E-01  0.51100000000E-03 0. -1.
         11    1    4    4    0    0 -0.23940814828E-01 -0.77715004481E-02 -0.89837651475E-01  0.93298572215E-01  0.51100000000E-03 0.  1.
</event>
<event>
 8    1  0.1116619E+005  0.1043930E+01  0.7957747E-01            NaN
         13   -1    0    0    0    0  0.00000000000E+00  0.00000000000E+00  0.74505805969E-08  0.10566000000E+00  0.10566000000E+00 0.  1.
     999900   -1    0    0    0    0 -0.00000000000E+00 -0.00000000000E+00 -0.74505805969E-08  0.93827000000E+00  0.93827000000E+00 0.  1.
     999902    2    1    2    0    0  0.20917644563E-01 -0.60908176426E-02 -0.57485383618E-02  0.10213979871E+01  0.10211494290E+01 0.  0.
     999903    2    3    3    0    0 -0.21180218483E-02 -0.12102950216E+00  0.48244229623E-01  0.13198426887E+00  0.20969385467E-01 0.  0.
         14    1    1    2    0    0 -0.20917644563E-01  0.60908176426E-02  0.57485383618E-02  0.22532012936E-01  0.00000000000E+00 0. -1.
     999901    1    3    3    0    0  0.23035666412E-01  0.11493868452E+00 -0.53992767984E-01  0.88941371820E+00  0.88000000000E+00 0.  1.
        -11    1    4    4    0    0 -0.56259836934E-02 -0.19674592295E-01  0.14560676972E-01  0.25120026062E-01  0.51100000000E-03 0. -1.
         11    1    4    4    0    0  0.35079618451E-02 -0.10135490986E+00  0.33683552650E-01  0.10686424280E+00  0.51100000000E-03 0.  1.
</event>
<event>
 8    1  0.1116619E+005  0.1043930E+01  0.7957747E-01            NaN
         13   -1    0    0    0    0  0.00000000000E+00  0.00000000000E+00  0.74505805969E-08  0.10566000000E+00  0.10566000000E+00 0.  1.
     999900   -1    0    0    0    0 -0.00000000000E+00 -0.00000000000E+00 -0.74505805969E-08  0.93827000000E+00  0.93827000000E+00 0. -1.
     999902    2    1    2    0    0  0.14300304498E-02  0.20693564053E-01  0.13937989961E-01  0.10189392788E+01  0.10186327689E+01 0.  0.
     999903    2    3    3    0    0 -0.66096621436E-01 -0.40788212010E-01 -0.98399042329E-01  0.12710999790E+00  0.21027088026E-01 0.  0.
         14    1    1    2    0    0 -0.14300304498E-02 -0.20693564053E-01 -0.13937989961E-01  0.24990721168E-01  0.00000000000E+00 0.  1.
     999901    1    3    3    0    0  0.67526651886E-01  0.61481776064E-01  0.11233703229E+00  0.89182928093E+00  0.88000000000E+00 0.  1.
        -11    1    4    4    0    0 -0.36271688652E-01 -0.10418091379E-01 -0.42330730071E-01  0.56712642814E-01  0.51100000000E-03 0.  1.
         11    1    4    4    0    0 -0.29824932785E-01 -0.30370120631E-01 -0.56068312257E-01  0.70397355086E-01  0.51100000000E-03 0. -1.
</event>
<event>
 8    1  0.1116619E+005  0.1043930E+01  0.7957747E-01            NaN
         13   -1    0    0    0    0  0.00000000000E+00  0.00000000000E+00  0.74505805969E-08  0.10566000000E+00  0.10566000000E+00 0. -1.
     999900   -1    0    0    0    0 -0.00000000000E+00 -0.00000000000E+00 -0.74505805969E-08  0.93827000000E+00  0.93827000000E+00 0.  1.
     999902    2    1    2    0    0 -0.13076066075E-01  0.12873126875E-01 -0.15956054629E-01  0.10196134094E+01  0.10193234070E+01 0.  0.
     999903    2    3    3    0    0  0.81290003476E-01  0.94483210607E-01  0.29743795765E-01  0.12963945630E+00  0.19660963663E-01 0.  0.
         14    1    1    2    0    0  0.13076066075E-01 -0.12873126875E-01  0.15956054629E-01  0.24316590610E-01  0.00000000000E+00 0. -1.
     999901    1    3    3    0    0 -0.94366069551E-01 -0.81610083732E-01 -0.45699850394E-01  0.88997395309E+00  0.88000000000E+00 0. -1.
        -11    1    4    4    0    0  0.15543365972E-01  0.19510871903E-01 -0.18946676891E-02  0.25022414648E-01  0.51100000000E-03 0. -1.
         11    1    4    4    0    0  0.65746637504E-01  0.74972338704E-01  0.31638463454E-01  0.10461704165E+00  0.51100000000E-03 0.  1.
</event>
<event>
 8    1  0.1116619E+005  0.1043930E+01  0.7957747E-01            NaN
         13   -1    0    0    0    0  0.00000000000E+00  0.00000000000E+00  0.74505805969E-08  0.10566000000E+00  0.10566000000E+00 0. -1.
     999900   -1    0    0    0    0 -0.00000000000E+00 -0.00000000000E+00 -0.74505805969E-08  0.93827000000E+00  0.93827000000E+00 0.  1.
     999902    2    1    2    0    0  0.79643247165E-02 -0.12179190876E-01 -0.19781279589E-01  0.10193726756E+01  0.10190768320E+01 0.  0.
     999903    2    3    3    0    0 -0.69041250132E-01  0.73630862022E-02 -0.10961109925E+00  0.13123915207E+00  0.19703113975E-01 0.  0.
         14    1    1    2    0    0 -0.79643247165E-02  0.12179190876E-01  0.19781279589E-01  0.24557324381E-01  0.00000000000E+00 0. -1.
     999901    1    3    3    0    0  0.77005574848E-01 -0.19542277078E-01  0.89829819656E-01  0.88813352355E+00  0.88000000000E+00 0. -1.
        -11    1    4    4    0    0 -0.55660538816E-01  0.39476271435E-02 -0.71489362975E-01  0.90689963508E-01  0.51100000000E-03 0.  1.
         11    1    4    4    0    0 -0.13380711315E-01  0.34154590587E-02 -0.38121736270E-01  0.40549188563E-01  0.51100000000E-03 0. -1.
</event>
<event>
 8    1  0.1116619E+005  0.1043930E+01  0.7957747E-01            NaN
         13   -1    0    0    0    0  0.00000000000E+00  0.00000000000E+00  0.74505805969E-08  0.10566000000E+00  0.10566000000E+00 0.  1.
     999900   -1    0    0    0    0 -0.00000000000E+00 -0.00000000000E+00 -0.74505805969E-08  0.93827000000E+00  0.93827000000E+00 0.  1.
     999902    2    1    2    0    0  0.10891628899E-02  0.23356485032E-01 -0.46610637070E-02  0.10200880793E+01  0.10198094196E+01 0.  0.
     999903    2    3    3    0    0 -0.96298503226E-02  0.10102764169E+00  0.79420354070E-01  0.13260997215E+00  0.31280883453E-01 0.  0.
         14    1    1    2    0    0 -0.10891628899E-02 -0.23356485032E-01  0.46610637070E-02  0.23841920723E-01  0.00000000000E+00 0.  1.
     999901    1    3    3    0    0  0.10719013212E-01 -0.77671156657E-01 -0.84081417777E-01  0.88747810713E+00  0.88000000000E+00 0. -1.
        -11    1    4    4    0    0 -0.20963090076E-01  0.62758471425E-01  0.52476021695E-01  0.84451588825E-01  0.51100000000E-03 0.  1.
         11    1    4    4    0    0  0.11333239753E-01  0.38269170265E-01  0.26944332375E-01  0.48158383322E-01  0.51100000000E-03 0. -1.
</event>
<event>
 8    1  0.1116619E+005  0.1043930E+01  0.7957747E-01            NaN
         13   -1    0    0    0    0  0.00000000000E+00  0.00000000000E+00  0.74505805969E-08  0.10566000000E+00  0.10566000000E+00 0.  1.
     999900   -1    0    0    0    0 -0.00000000000E+00 -0.00000000000E+00 -0.74505805969E-08  0.93827000000E+00  0.93827000000E+00 0. -1.
     999902    2    1    2    0    0 -0.17057874041E-01 -0.77641277810E-02 -0.14775399976E-01  0.10200644350E+01  0.10197852158E+01 0.  0.
     999903    2    3    3    0    0 -0.98924247295E-01  0.21184388528E-01 -0.84005063123E-01  0.13308480396E+00  0.20492178879E-01 0.  0.
         14    1    1    2    0    0  0.17057874041E-01  0.77641277810E-02  0.14775399976E-01  0.23865564972E-01  0.00000000000E+00 0.  1.
     999901    1    3    3    0    0  0.81866373254E-01 -0.28948516309E-01  0.69229663147E-01  0.88697963107E+00  0.88000000000E+00 0. -1.
        -11    1    4    4    0    0 -0.97563676181E-01  0.17783920848E-01 -0.78636261876E-01  0.12656564128E+00  0.51100000000E-03 0. -1.
         11    1    4    4    0    0 -0.13605711137E-02  0.34004676804E-02 -0.53688012466E-02  0.65191626783E-02  0.51100000000E-03 0.  1.
</event>
<event>
 8    1  0.1116619E+005  0.1043930E+01  0.7957747E-01            NaN
         13   -1    0    0    0    0  0.00000000000E+00  0.00000000000E+00  0.74505805969E-08  0.10566000000E+00  0.10566000000E+00 0. -1.
     999900   -1    0    0    0    0 -0.00000000000E+00 -0.00000000000E+00 -0.74505805969E-08  0.93827000000E+00  0.93827000000E+00 0. -1.
     999902    2    1    2    0    0 -0.20578291168E-01 -0.70709412602E-02 -0.74626867332E-02  0.10209266096E+01  0.10206674219E+01 0.  0.
     999903    2    3    3    0    0 -0.54506197128E-01 -0.11122233491E+00 -0.45192474995E-01  0.13333314829E+00  0.19850323106E-01 0.  0.
         14    1    1    2    0    0  0.20578291168E-01  0.70709412602E-02  0.74626867332E-02  0.23003390424E-01  0.00000000000E+00 0.  1.
     999901    1    3    3    0    0  0.33927905960E-01  0.10415139365E+00  0.37729788262E-01  0.88759346129E+00  0.88000000000E+00 0.  1.
        -11    1    4    4    0    0 -0.19402159860E-01 -0.42078567759E-01 -0.69076462387E-02  0.46851108519E-01  0.51100000000E-03 0. -1.
         11    1    4    4    0    0 -0.35104037268E-01 -0.69143767151E-01 -0.38284828756E-01  0.86482039767E-01  0.51100000000E-03 0.  1.
</event>
<event>
 8    1  0.1116619E+005  0.1043930E+01  0.7957747E-01            NaN
         13   -1    0    0    0    0  0.00000000000E+00  0.00000000000E+00  0.74505805969E-08  0.10566000000E+00  0.10566000000E+00 0.  1.
     999900   -1    0    0    0    0 -0.00000000000E+00 -0.00000000000E+00 -0.74505805969E-08  0.93827000000E+00  0.93827000000E+00 0.  1.
     999902    2    1    2    0    0 -0.41621101337E-02 -0.22822922163E-01  0.54500913806E-02  0.10200990866E+01  0.10198206872E+01 0.  0.
     999903    2    3    3    0    0  0.35746766244E-01  0.11840391071E+00  0.25410431690E-01  0.12772239938E+00  0.19235485288E-01 0.  0.
         14    1    1    2    0    0  0.41621101337E-02  0.22822922163E-01 -0.54500913806E-02  0.23830913388E-01  0.00000000000E+00 0.  1.
     999901    1    3    3    0    0 -0.39908876378E-01 -0.14122683288E+00 -0.19960340309E-01  0.89237668724E+00  0.88000000000E+00 0.  1.
        -11    1    4    4    0    0  0.28417337625E-01  0.61067891721E-01  0.13032507243E-01  0.68607141341E-01  0.51100000000E-03 0.  1.
         11    1    4    4    0    0  0.73294286187E-02  0.57336018993E-01  0.12377924447E-01  0.59115258034E-01  0.51100000000E-03 0. -1.
</event>
<event>
 8    1  0.1116619E+005  0.1043930E+01  0.7957747E-01            NaN
         13   -1    0    0    0    0  0.00000000000E+00  0.00000000000E+00  0.74505805969E-08  0.10566000000E+00  0.10566000000E+00 0. -1.
     999900   -1    0    0    0    0 -0.00000000000E+00 -0.00000000000E+00 -0.74505805969E-08  0.93827000000E+00  0.93827000000E+00 0. -1.
     999902    2    1    2    0    0  0.14987408661E-01 -0.85064892402E-02 -0.62941855291E-02  0.10255833505E+01  0.10254192358E+01 0.  0.
     999903    2    3    3    0    0  0.56324088721E-01  0.11836861932E+00  0.25131271749E-01  0.13496919515E+00  0.20039206784E-01 0.  0.
         14    1    1    2    0    0 -0.14987408661E-01  0.85064892402E-02  0.62941855291E-02  0.18346649531E-01  0.00000000000E+00 0.  1.
     999901    1    3    3    0    0 -0.41336680060E-01 -0.12687510856E+00 -0.31425457279E-01  0.89061415532E+00  0.88000000000E+00 0. -1.
        -11    1    4    4    0    0  0.20366406641E-02  0.69843299181E-02 -0.30319878299E-02  0.78982808762E-02  0.51100000000E-03 0.  1.
         11    1    4    4    0    0  0.54287448057E-01  0.11138428941E+00  0.28163259579E-01  0.12707091427E+00  0.51100000000E-03 0. -1.
</event>
<event>
 8    1  0.1116619E+005  0.1043930E+01  0.7957747E-01            NaN
         13   -1    0    0    0    0  0.00000000000E+00  0.00000000000E+00  0.74505805969E-08  0.10566000000E+00  0.10566000000E+00 0. -1.
     999900   -1    0    0    0    0 -0.00000000000E+00 -0.00000000000E+00 -0.74505805969E-08  0.93827000000E+00  0.93827000000E+00 0. -1.
     999902    2    1    2    0    0 -0.14806806254E-01 -0.16238187536E-01  0.88888378874E-02  0.10202249017E+01  0.10199494685E+01 0.  0.
     999903    2    3    3    0    0 -0.11582624857E+00  0.21387080213E-01 -0.54556938728E-01  0.13137960861E+00  0.20273503300E-01 0.  0.
         14    1    1    2    0    0  0.14806806254E-01  0.16238187536E-01 -0.88888378874E-02  0.23705098289E-01  0.00000000000E+00 0.  1.
     999901    1    3    3    0    0  0.10101944232E+00 -0.37625267749E-01  0.63445776615E-01  0.88884529310E+00  0.88000000000E+00 0.  1.
        -11    1    4    4    0    0 -0.63198461968E-01  0.55359814625E-02 -0.38098055432E-01  0.74002808288E-01  0.51100000000E-03 0. -1.
         11    1    4    4    0    0 -0.52627786606E-01  0.15851098751E-01 -0.16458883296E-01  0.57376800320E-01  0.51100000000E-03 0.  1.
</event>
<event>
 8    1  0.1116619E+005  0.1043930E+01  0.7957747E-01            NaN
         13   -1    0    0    0    0  0.00000000000E+00  0.00000000000E+00  0.74505805969E-08  0.10566000000E+00  0.10566000000E+00 0.  1.
     999900   -1    0    0    0    0 -0.00000000000E+00 -0.00000000000E+00 -0.74505805969E-08  0.93827000000E+00  0.93827000000E+00 0. -1.
     999902    2    1    2    0    0 -0.17334453019E-01  0.58724288243E-02  0.16568761148E-01  0.10192420975E+01  0.10189430607E+01 0.  0.
     999903    2    3    3    0    0  0.11193954833E-01  0.81834911089E-01 -0.96114459575E-01  0.12835395810E+00  0.20359074707E-01 0.  0.
         14    1    1    2    0    0  0.17334453019E-01 -0.58724288243E-02 -0.16568761148E-01  0.24687902457E-01  0.00000000000E+00 0. -1.
     999901    1    3    3    0    0 -0.28528407852E-01 -0.75962482264E-01  0.11268322072E+00  0.89088813944E+00  0.88000000000E+00 0.  1.
        -11    1    4    4    0    0  0.86680853146E-02  0.28866290021E-01 -0.22445804365E-01  0.37582890485E-01  0.51100000000E-03 0. -1.
         11    1    4    4    0    0  0.25258695182E-02  0.52968621068E-01 -0.73668655210E-01  0.90771067616E-01  0.51100000000E-03 0.  1.
</event>
<event>
 8    1  0.1116619E+005  0.1043930E+01  0.7957747E-01            NaN
         13   -1    0    0    0    0  0.00000000000E+00  0.00000000000E+00  0.74505805969E-08  0.10566000000E+00  0.10566000000E+00 0.  1.
     999900   -1    0    0    0    0 -0.00000000000E+00 -0.00000000000E+00 -0.74505805969E-08  0.93827000000E+00  0.93827000000E+00 0. -1.
     999902    2    1    2    0    0  0.12333352517E-01  0.19765483709E-01  0.36300538477E-02  0.10203511276E+01  0.10200786541E+01 0.  0.
     999903    2    3    3    0    0 -0.69854360742E-01 -0.71282814792E-03 -0.10704724913E+00  0.12938331293E+00  0.20019697314E-01 0.  0.
         14    1    1    2    0    0 -0.12333352517E-01 -0.19765483709E-01 -0.36300538477E-02  0.23578872354E-01  0.00000000000E+00 0.  1.
     999901    1    3    3    0    0  0.82187713259E-01  0.20478311857E-01  0.11067730297E+00  0.89096781472E+00  0.88000000000E+00 0.  1.
        -11    1    4    4    0    0 -0.20065858658E-01  0.80939210332E-02 -0.25667908476E-01  0.33574586936E-01  0.51100000000E-03 0.  1.
         11    1    4    4    0    0 -0.49788502083E-01 -0.88067491811E-02 -0.81379340650E-01  0.95808725993E-01  0.51100000000E-03 0. -1.
</event>
<event>
 8    1  0.1116619E+005  0.1043930E+01  0.7957747E-01            NaN
         13   -1    0    0    0    0  0.00000000000E+00  0.00000000000E+00  0.74505805969E-08  0.10566000000E+00  0.10566000000E+00 0. -1.
     999900   -1    0    0    0    0 -0.00000000000E+00 -0.00000000000E+00 -0.74505805969E-08  0.93827000000E+00  0.93827000000E+00 0. -1.
     999902    2    1    2    0    0 -0.22150497171E-02  0.10160060794E-01  0.20722391336E-01  0.10207448586E+01  0.10204815116E+01 0.  0.
     999903    2    3    3    0    0 -0.19835359081E-02 -0.97677455301E-01 -0.80595260019E-01  0.12839164938E+00  0.21071307585E-01 0.  0.
         14    1    1    2    0    0  0.22150497171E-02 -0.10160060794E-01 -0.20722391336E-01  0.23185141433E-01  0.00000000000E+00 0.  1.
     999901    1    3    3    0    0 -0.23151380894E-03  0.10783751610E+00  0.10131765135E+00  0.89235320919E+00  0.88000000000E+00 0.  1.
        -11    1    4    4    0    0 -0.30191736831E-02 -0.75264306587E-01 -0.49855070233E-01  0.90330617206E-01  0.51100000000E-03 0. -1.
         11    1    4    4    0    0  0.10356377749E-02 -0.22413148714E-01 -0.30740189786E-01  0.38061032171E-01  0.51100000000E-03 0.  1.
</event>
<event>
 8    1  0.1116619E+005  0.1043930E+01  0.7957747E-01            NaN
         13   -1    0    0    0    0  0.00000000000E+00  0.00000000000E+00  0.74505805969E-08  0.10566000000E+00  0.10566000000E+00 0.  1.
     999900   -1    0    0    0    0 -0.00000000000E+00 -0.00000000000E+00 -0.74505805969E-08  0.93827000000E+00  0.93827000000E+00 0.  1.
     999902    2    1    2    0    0 -0.16161634325E-01  0.15609041588E-01 -0.10289987971E-01  0.10192171601E+01  0.10189175114E+01 0.  0.
     999903    2    3    3    0    0  0.33023457677E-01  0.86971215511E-01 -0.90562546969E-01  0.13132335065E+00  0.19740983438E-01 0.  0.
         14    1    1    2    0    0  0.16161634325E-01 -0.15609041588E-01  0.10289987971E-01  0.24712839898E-01  0.00000000000E+00 0. -1.
     999901    1    3    3    0    0 -0.49185092002E-01 -0.71362173923E-01  0.80272558998E-01  0.88789380946E+00  0.88000000000E+00 0. -1.
        -11    1    4    4    0    0  0.14690234929E-01  0.23365159153E-01 -0.17269568939E-01  0.32561216145E-01  0.51100000000E-03 0. -1.
         11    1    4    4    0    0  0.18333222748E-01  0.63606056358E-01 -0.73292978030E-01  0.98762134501E-01  0.51100000000E-03 0.  1.
</event>
<event>
 8    1  0.1116619E+005  0.1043930E+01  0.7957747E-01            NaN
         13   -1    0    0    0    0  0.00000000000E+00  0.00000000000E+00  0.74505805969E-08  0.10566000000E+00  0.10566000000E+00 0.  1.
     999900   -1    0    0    0    0 -0.00000000000E+00 -0.00000000000E+00 -0.74505805969E-08  0.93827000000E+00  0.93827000000E+00 0.  1.
     999902    2    1    2    0    0 -0.94319306415E-02 -0.17595017747E-01  0.16939771313E-01  0.10177479104E+01  0.10174110808E+01 0.  0.
     999903    2    3    3    0    0 -0.15481500269E-01 -0.86656006140E-01  0.95671276658E-01  0.13151731547E+00  0.19871357268E-01 0.  0.
         14    1    1    2    0    0  0.94319306415E-02  0.17595017747E-01 -0.16939771313E-01  0.26182089628E-01  0.00000000000E+00 0. -1.
     999901    1    3    3    0    0  0.60495696279E-02  0.69060988392E-01 -0.78731505345E-01  0.88623059490E+00  0.88000000000E+00 0.  1.
        -11    1    4    4    0    0 -0.53341407563E-03 -0.46083050941E-01  0.40008472260E-01  0.61031721983E-01  0.51100000000E-03 0. -1.
         11    1    4    4    0    0 -0.14948086194E-01 -0.40572955198E-01  0.55662804398E-01  0.70485593484E-01  0.51100000000E-03 0.  1.
</event>
<event>
 8    1  0.1116619E+005  0.1043930E+01  0.7957747E-01            NaN
         13   -1    0    0    0    0  0.00000000000E+00  0.00000000000E+00  0.74505805969E-08  0.10566000000E+00  0.10566000000E+00 0. -1.
     999900   -1    0    0    0    0 -0.00000000000E+00 -0.00000000000E+00 -0.74505805969E-08  0.93827000000E+00  0.93827000000E+00 0.  1.
     999902    2    1    2    0    0 -0.11053334796E-01  0.13357311602E-01 -0.13645387768E-01  0.10218666686E+01  0.10216284539E+01 0.  0.
     999903    2    3    3    0    0  0.10517260360E+00 -0.71759858046E-01  0.14185651947E-01  0.12971871673E+00  0.20370541826E-01 0.  0.
         14    1    1    2    0    0  0.11053334796E-01 -0.13357311602E-01  0.13645387768E-01  0.22063331360E-01  0.00000000000E+00 0. -1.
     999901    1    3    3    0    0 -0.11622593840E+00  0.85117169648E-01 -0.27831039715E-01  0.89214795191E+00  0.88000000000E+00 0. -1.
        -11    1    4    4    0    0  0.65415911547E-01 -0.44179351250E-01  0.18686770814E-01  0.81120361715E-01  0.51100000000E-03 0.  1.
         11    1    4    4    0    0  0.39756692053E-01 -0.27580506796E-01 -0.45011188668E-02  0.48598355015E-01  0.51100000000E-03 0. -1.
</event>
<event>
 8    1  0.1248064E+005  0.1043930E+01  0.7957747E-01            NaN
         13   -1    0    0    0    0  0.00000000000E+00  0.00000000000E+00  0.74505805969E-08  0.10566000000E+00  0.10566000000E+00 0.  1.
     999900   -1    0    0    0    0 -0.00000000000E+00 -0.00000000000E+00 -0.74505805969E-08  0.93827000000E+00  0.93827000000E+00 0. -1.
     999902    2    1    2    0    0  0.14894214623E-02 -0.24715366066E-01 -0.97761296109E-02  0.10173096994E+01  0.10169613483E+01 0.  0.
     999903    2    3    3    0    0  0.38448380166E-01 -0.41973903184E-01 -0.11512191524E+00  0.13008844382E+00  0.20733098163E-01 0.  0.
         14    1    1    2    0    0 -0.14894214623E-02  0.24715366066E-01  0.97761296109E-02  0.26620300642E-01  0.00000000000E+00 0.  1.
     999901    1    3    3    0    0 -0.36958958704E-01  0.17258537118E-01  0.10534578563E+00  0.88722125554E+00  0.88000000000E+00 0.  1.
        -11    1    4    4    0    0  0.11922829645E-01 -0.17595843525E-01 -0.23786747797E-01  0.31903574531E-01  0.51100000000E-03 0. -1.
         11    1    4    4    0    0  0.26525550521E-01 -0.24378059659E-01 -0.91335167448E-01  0.98184869287E-01  0.51100000000E-03 0.  1.
</event>
<event>
 8    1  0.1116619E+005  0.1043930E+01  0.7957747E-01            NaN
         13   -1    0    0    0    0  0.00000000000E+00  0.00000000000E+00  0.74505805969E-08  0.10566000000E+00  0.10566000000E+00 0.  1.
     999900   -1    0    0    0    0 -0.00000000000E+00 -0.00000000000E+00 -0.74505805969E-08  0.93827000000E+00  0.93827000000E+00 0. -1.
     999902    2    1    2    0    0  0.18920003656E-01  0.11014916151E-01  0.54807828812E-02  0.10213615730E+01  0.10211122019E+01 0.  0.
     999903    2    3    3    0    0 -0.10304123247E+00 -0.33061355630E-01 -0.67080905076E-01  0.12890291323E+00  0.20138629252E-01 0.  0.
         14    1    1    2    0    0 -0.18920003656E-01 -0.11014916151E-01 -0.54807828812E-02  0.22568426997E-01  0.00000000000E+00 0. -1.
     999901    1    3    3    0    0  0.12196123612E+00  0.44076271782E-01  0.72561687957E-01  0.89245865978E+00  0.88000000000E+00 0.  1.
        -11    1    4    4    0    0 -0.59939649613E-01 -0.15353443889E-01 -0.48958136301E-01  0.78902788709E-01  0.51100000000E-03 0.  1.
         11    1    4    4    0    0 -0.43101582853E-01 -0.17707911741E-01 -0.18122768775E-01  0.50000124517E-01  0.51100000000E-03 0. -1.
</event>
<event>
 8    1  0.1116619E+005  0.1043930E+01  0.7957747E-01            NaN
         13   -1    0    0    0    0  0.00000000000E+00  0.00000000000E+00  0.74505805969E-08  0.10566000000E+00  0.10566000000E+00 0.  1.
     999900   -1    0    0    0    0 -0.00000000000E+00 -0.00000000000E+00 -0.74505805969E-08  0.93827000000E+00  0.93827000000E+00 0.  1.
     999902    2    1    2    0    0  0.33107335753E-02 -0.18155647071E-01  0.13707459190E-01  0.10209412437E+01  0.10206823895E+01 0.  0.
     999903    2    3    3    0    0  0.12817550581E+00 -0.16130638107E-01 -0.16288250754E-01  0.13161843697E+00  0.19208020793E-01 0.  0.
         14    1    1    2    0    0 -0.33107335753E-02  0.18155647071E-01 -0.13707459190E-01  0.22988756269E-01  0.00000000000E+00 0. -1.
     999901    1    3    3    0    0 -0.12486477224E+00 -0.20250089634E-02  0.29995709944E-01  0.88932280676E+00  0.88000000000E+00 0. -1.
        -11    1    4    4    0    0  0.96624905051E-01 -0.37163309794E-02 -0.12105787129E-01  0.97452524826E-01  0.51100000000E-03 0. -1.
         11    1    4    4    0    0  0.31550600760E-01 -0.12414307128E-01 -0.41824636253E-02  0.34165912146E-01  0.51100000000E-03 0.  1.
</event>
<event>
 8    1  0.1116619E+005  0.1043930E+01  0.7957747E-01            NaN
         13   -1    0    0    0    0  0.00000000000E+00  0.00000000000E+00  0.74505805969E-08  0.10566000000E+00  0.10566000000E+00 0.  1.
     999900   -1    0    0    0    0 -0.00000000000E+00 -0.00000000000E+00 -0.74505805969E-08  0.93827000000E+00  0.93827000000E+00 0. -1.
     999902    2    1    2    0    0 -0.29976684403E-02  0.72275071765E-02 -0.22295424267E-01  0.10203014406E+01  0.10200278040E+01 0.  0.
     999903    2    3    3    0    0 -0.11042567661E+00  0.53386678819E-03 -0.70407005130E-01  0.13243866631E+00  0.19716462496E-01 0.  0.
         14    1    1    2    0    0  0.29976684403E-02 -0.72275071765E-02  0.22295424267E-01  0.23628559400E-01  0.00000000000E+00 0.  1.
     999901    1    3    3    0    0  0.10742800817E+00  0.66936403883E-02  0.48111580862E-01  0.88786277429E+00  0.88000000000E+00 0. -1.
        -11    1    4    4    0    0 -0.76678616822E-01 -0.52010114630E-02 -0.56938164562E-01  0.95649759554E-01  0.51100000000E-03 0. -1.
         11    1    4    4    0    0 -0.33747059788E-01  0.57348782512E-02 -0.13468840568E-01  0.36788906754E-01  0.51100000000E-03 0.  1.
</event>
<event>
 8    1  0.1116619E+005  0.1043930E+01  0.7957747E-01            NaN
         13   -1    0    0    0    0  0.00000000000E+00  0.00000000000E+00  0.74505805969E-08  0.10566000000E+00  0.10566000000E+00 0.  1.
     999900   -1    0    0    0    0 -0.00000000000E+00 -0.00000000000E+00 -0.74505805969E-08  0.93827000000E+00  0.93827000000E+00 0.  1.
     999902    2    1    2    0    0 -0.17177811574E-01 -0.18560402510E-01 -0.57786285260E-02  0.10179885602E+01  0.10176579732E+01 0.  0.
     999903    2    3    3    0    0 -0.17188102030E-01  0.11727970561E+00  0.38687290191E-01  0.12645631007E+00  0.21083921193E-01 0.  0.
         14    1    1    2    0    0  0.17177811574E-01  0.18560402510E-01  0.57786285260E-02  0.25941439811E-01  0.00000000000E+00 0.  1.
     999901    1    3    3    0    0  0.10290456374E-04 -0.13584010812E+00 -0.44465918718E-01  0.89153225012E+00  0.88000000000E+00 0. -1.
        -11    1    4    4    0    0 -0.36159231246E-02  0.12547328860E-01  0.11490583839E-01  0.17401293042E-01  0.51100000000E-03 0. -1.
         11    1    4    4    0    0 -0.13572178906E-01  0.10473237675E+00  0.27196706353E-01  0.10905501702E+00  0.51100000000E-03 0.  1.
</event>
<event>
 8    1  0.1116619E+005  0.1043930E+01  0.7957747E-01            NaN
         13   -1    0    0    0    0  0.00000000000E+00  0.00000000000E+00  0.74505805969E-08  0.10566000000E+00  0.10566000000E+00 0.  1.
     999900   -1    0    0    0    0 -0.00000000000E+00 -0.00000000000E+00 -0.74505805969E-08  0.93827000000E+00  0.93827000000E+00 0. -1.
     999902    2    1    2    0    0 -0.21959217099E-01  0.52142920110E-02 -0.96323541251E-02  0.10193906784E+01  0.10190952738E+01 0.  0.
     999903    2    3    3    0    0  0.89328402196E-01  0.31244863873E-01  0.82807519981E-01  0.12719806739E+00  0.19143093410E-01 0.  0.
         14    1    1    2    0    0  0.21959217099E-01 -0.52142920110E-02  0.96323541251E-02  0.24539321563E-01  0.00000000000E+00 0. -1.
     999901    1    3    3    0    0 -0.11128761930E+00 -0.26030571862E-01 -0.92439874106E-01  0.89219261105E+00  0.88000000000E+00 0. -1.
        -11    1    4    4    0    0  0.57777615865E-01  0.29196163480E-01  0.51799732517E-01  0.82910447272E-01  0.51100000000E-03 0.  1.
         11    1    4    4    0    0  0.31550786331E-01  0.20487003927E-02  0.31007787464E-01  0.44287620119E-01  0.51100000000E-03 0. -1.
</event>
<event>
 8    1  0.1116619E+005  0.1043930E+01  0.7957747E-01            NaN
         13   -1    0    0    0    0  0.00000000000E+00  0.00000000000E+00  0.74505805969E-08  0.10566000000E+00  0.10566000000E+00 0.  1.
     999900   -1    0    0    0    0 -0.00000000000E+00 -0.00000000000E+00 -0.74505805969E-08  0.93827000000E+00  0.93827000000E+00 0.  1.
     999902    2    1    2    0    0  0.23830151908E-01 -0.40463073828E-02 -0.64704557146E-02  0.10189076991E+01  0.10186004044E+01 0.  0.
     999903    2    3    3    0    0  0.96236427292E-02 -0.12427101601E+00  0.29109219067E-01  0.12990729490E+00  0.22195916602E-01 0.  0.
         14    1    1    2    0    0 -0.23830151908E-01  0.40463073828E-02  0.64704557146E-02  0.25022300865E-01  0.00000000000E+00 0.  1.
     999901    1    3    3    0    0  0.14206509179E-01  0.12022470863E+00 -0.35579674782E-01  0.88900040423E+00  0.88000000000E+00 0.  1.
        -11    1    4    4    0    0  0.12151527951E-01 -0.67036822572E-01  0.24605959653E-01  0.72438315714E-01  0.51100000000E-03 0.  1.
         11    1    4    4    0    0 -0.25278852219E-02 -0.57234193442E-01  0.45032594144E-02  0.57468979189E-01  0.51100000000E-03 0. -1.
</event>
<event>
 8    1  0.1469022E+005  0.1043930E+01  0.7957747E-01            NaN
         13   -1    0    0    0    0  0.00000000000E+00  0.00000000000E+00  0.74505805969E-08  0.10566000000E+00  0.10566000000E+00 0. -1.
     999900   -1    0    0    0    0 -0.00000000000E+00 -0.00000000000E+00 -0.74505805969E-08  0.93827000000E+00  0.93827000000E+00 0. -1.
     999902    2    1    2    0    0  0.50948806700E-02 -0.19588192173E-01 -0.92306686779E-02  0.10216845437E+01  0.10214423364E+01 0.  0.
     999903    2    3    3    0    0 -0.47681985072E-01 -0.76362119876E-01 -0.97189390228E-01  0.13390900162E+00  0.19521733766E-01 0.  0.
         14    1    1    2    0    0 -0.50948806700E-02  0.19588192173E-01  0.92306686779E-02  0.22245456298E-01  0.00000000000E+00 0. -1.
     999901    1    3    3    0    0  0.52776865742E-01  0.56773927703E-01  0.87958721551E-01  0.88777554208E+00  0.88000000000E+00 0.  1.
        -11    1    4    4    0    0 -0.34777264423E-01 -0.39065712635E-01 -0.49615239562E-01  0.72093835674E-01  0.51100000000E-03 0.  1.
         11    1    4    4    0    0 -0.12904720649E-01 -0.37296407241E-01 -0.47574150667E-01  0.61815165945E-01  0.51100000000E-03 0. -1.
</event>
<event>
 8    1  0.1116619E+005  0.1043930E+01  0.7957747E-01            NaN
         13   -1    0    0    0    0  0.00000000000E+00  0.00000000000E+00  0.74505805969E-08  0.10566000000E+00  0.10566000000E+00 0.  1.
     999900   -1    0    0    0    0 -0.00000000000E+00 -0.00000000000E+00 -0.74505805969E-08  0.93827000000E+00  0.93827000000E+00 0.  1.
     999902    2    1    2    0    0 -0.13605700797E-01  0.89004351644E-02  0.22776390161E-01  0.10159461334E+01  0.10155606576E+01 0.  0.
     999903    2    3    3    0    0 -0.92109014660E-01  0.74360510439E-01  0.48942293988E-01  0.12964345020E+00  0.19962964354E-01 0.  0.
         14    1    1    2    0    0  0.13605700797E-01 -0.89004351644E-02 -0.22776390161E-01  0.27983866585E-01  0.00000000000E+00 0. -1.
     999901    1    3    3    0    0  0.78503313863E-01 -0.65460075275E-01 -0.26165903827E-01  0.88630268321E+00  0.88000000000E+00 0.  1.
        -11    1    4    4    0    0 -0.72004008558E-01  0.51319783633E-01  0.28682837117E-01  0.92958397719E-01  0.51100000000E-03 0.  1.
         11    1    4    4    0    0 -0.20105006102E-01  0.23040726807E-01  0.20259456871E-01  0.36685052485E-01  0.51100000000E-03 0. -1.
</event>
<event>
 8    1  0.1122979E+005  0.1043930E+01  0.7957747E-01            NaN
         13   -1    0    0    0    0  0.00000000000E+00  0.00000000000E+00  0.74505805969E-08  0.10566000000E+00  0.10566000000E+00 0.  1.
     999900   -1    0    0    0    0 -0.00000000000E+00 -0.00000000000E+00 -0.74505805969E-08  0.93827000000E+00  0.93827000000E+00 0. -1.
     999902    2    1    2    0    0  0.22646612844E-02 -0.27406213339E-01 -0.13672572094E-01  0.10132189523E+01  0.10127534137E+01 0.  0.
     999903    2    3    3    0    0 -0.13090390243E-01 -0.39390492736E-01  0.11472436293E+00  0.12368807965E+00  0.20349259536E-01 0.  0.
         14    1    1    2    0    0 -0.22646612844E-02  0.27406213339E-01  0.13672572094E-01  0.30711047654E-01  0.00000000000E+00 0.  1.
     999901    1    3    3    0    0  0.15355051527E-01  0.11984279396E-01 -0.12839693502E+00  0.88953087270E+00  0.88000000000E+00 0. -1.
        -11    1    4    4    0    0 -0.49872266355E-03 -0.28339750946E-01  0.58301922012E-01  0.64828739300E-01  0.51100000000E-03 0.  1.
         11    1    4    4    0    0 -0.12591667579E-01 -0.11050741790E-01  0.56422440913E-01  0.58859340348E-01  0.51100000000E-03 0. -1.
</event>
<event>
 8    1  0.1116619E+005  0.1043930E+01  0.7957747E-01            NaN
         13   -1    0    0    0    0  0.00000000000E+00  0.00000000000E+00  0.74505805969E-08  0.10566000000E+00  0.10566000000E+00 0.  1.
     999900   -1    0    0    0    0 -0.00000000000E+00 -0.00000000000E+00 -0.74505805969E-08  0.93827000000E+00  0.93827000000E+00 0.  1.
     999902    2    1    2    0    0 -0.23678678660E-01  0.26860022455E-03 -0.33592045736E-04  0.10202497741E+01  0.10199749254E+01 0.  0.
     999903    2    3    3    0    0  0.65526896714E-01  0.95865008203E-01  0.52701769989E-01  0.12902739654E+00  0.19665159723E-01 0.  0.
         14    1    1    2    0    0  0.23678678660E-01 -0.26860022455E-03  0.33592045736E-04  0.23680225877E-01  0.00000000000E+00 0. -1.
     999901    1    3    3    0    0 -0.89205575374E-01 -0.95596407979E-01 -0.52735362035E-01  0.89122237758E+00  0.88000000000E+00 0. -1.
        -11    1    4    4    0    0  0.30763481408E-01  0.61912413244E-01  0.29253559749E-01  0.75070437464E-01  0.51100000000E-03 0.  1.
         11    1    4    4    0    0  0.34763415306E-01  0.33952594960E-01  0.23448210240E-01  0.53956959076E-01  0.51100000000E-03 0. -1.
</event>
<event>
 8    1  0.1116619E+005  0.1043930E+01  0.7957747E-01            NaN
         13   -1    0    0    0    0  0.00000000000E+00  0.00000000000E+00  0.74505805969E-08  0.10566000000E+00  0.10566000000E+00 0.  1.
     999900   -1    0    0    0    0 -0.00000000000E+00 -0.00000000000E+00 -0.74505805969E-08  0.93827000000E+00  0.93827000000E+00 0.  1.
     999902    2    1    2    0    0 -0.17416692330E-01 -0.69819843362E-02  0.14254253726E-01  0.10203657681E+01  0.10200936367E+01 0.  0.
     999903    2    3    3    0    0  0.14762666152E-01  0.54661902077E-01  0.11709291544E+00  0.13165250150E+00  0.20390450064E-01 0.  0.
         14    1    1    2    0    0  0.17416692330E-01  0.69819843362E-02 -0.14254253726E-01  0.23564231926E-01  0.00000000000E+00 0. -1.
     999901    1    3    3    0    0 -0.32179358482E-01 -0.61643886413E-01 -0.10283866171E+00  0.88871326658E+00  0.88000000000E+00 0.  1.
        -11    1    4    4    0    0  0.95227000863E-02  0.20806989108E-01  0.68290566962E-01  0.72024129774E-01  0.51100000000E-03 0.  1.
         11    1    4    4    0    0  0.52399660656E-02  0.33854912969E-01  0.48802348478E-01  0.59628371724E-01  0.51100000000E-03 0. -1.
</event>
<event>
 8    1  0.1116619E+005  0.1043930E+01  0.7957747E-01            NaN
         13   -1    0    0    0    0  0.00000000000E+00  0.00000000000E+00  0.74505805969E-08  0.10566000000E+00  0.10566000000E+00 0. -1.
     999900   -1    0    0    0    0 -0.00000000000E+00 -0.00000000000E+00 -0.74505805969E-08  0.93827000000E+00  0.93827000000E+00 0.  1.
     999902    2    1    2    0    0 -0.97278594415E-02  0.66589597307E-02 -0.20238486974E-01  0.10205084426E+01  0.10202396347E+01 0.  0.
     999903    2    3    3    0    0 -0.16214108286E-01 -0.12718523978E+00 -0.10087616434E-01  0.13030656591E+00  0.20953724947E-01 0.  0.
         14    1    1    2    0    0  0.97278594415E-02 -0.66589597307E-02  0.20238486974E-01  0.23421557356E-01  0.00000000000E+00 0. -1.
     999901    1    3    3    0    0  0.64862488444E-02  0.13384419951E+00 -0.10150870539E-01  0.89020187673E+00  0.88000000000E+00 0. -1.
        -11    1    4    4    0    0  0.17566724452E-03 -0.60188965480E-01 -0.11681019946E-01  0.61314352092E-01  0.51100000000E-03 0.  1.
         11    1    4    4    0    0 -0.16389775530E-01 -0.66996274299E-01  0.15934035122E-02  0.68992213819E-01  0.51100000000E-03 0. -1.
</event>
<event>
 8    1  0.1116619E+005  0.1043930E+01  0.7957747E-01            NaN
         13   -1    0    0    0    0  0.00000000000E+00  0.00000000000E+00  0.74505805969E-08  0.10566000000E+00  0.10566000000E+00 0.  1.
     999900   -1    0    0    0    0 -0.00000000000E+00 -0.00000000000E+00 -0.74505805969E-08  0.93827000000E+00  0.93827000000E+00 0.  1.
     999902    2    1    2    0    0  0.80680936238E-02  0.18565410233E-01  0.11161355059E-01  0.10208141085E+01  0.10205523503E+01 0.  0.
     999903    2    3    3    0    0 -0.41496987364E-01  0.74944971770E-01  0.99929838863E-01  0.13316823548E+00  0.20225169785E-01 0.  0.
         14    1    1    2    0    0 -0.80680936238E-02 -0.18565410233E-01 -0.11161355059E-01  0.23115891473E-01  0.00000000000E+00 0. -1.
     999901    1    3    3    0    0  0.49565080988E-01 -0.56379561537E-01 -0.88768483805E-01  0.88764587304E+00  0.88000000000E+00 0. -1.
        -11    1    4    4    0    0 -0.31471695101E-01  0.65041038778E-01  0.92022695218E-01  0.11700103365E+00  0.51100000000E-03 0. -1.
         11    1    4    4    0    0 -0.10025292263E-01  0.99039329920E-02  0.79071436450E-02  0.16167201839E-01  0.51100000000E-03 0.  1.
</event>
<event>
 8    1  0.1116619E+005  0.1043930E+01  0.7957747E-01            NaN
         13   -1    0    0    0    0  0.00000000000E+00  0.00000000000E+00  0.74505805969E-08  0.10566000000E+00  0.10566000000E+00 0.  1.
     999900   -1    0    0    0    0 -0.00000000000E+00 -0.00000000000E+00 -0.74505805969E-08  0.93827000000E+00  0.93827000000E+00 0.  1.
     999902    2    1    2    0    0  0.21158139496E-01  0.17577813402E-02  0.11268045227E-01  0.10198940789E+01  0.10196108113E+01 0.  0.
     999903    2    3    3    0    0  0.67856191221E-01  0.57829822083E-01 -0.93479076297E-01  0.13068277592E+00  0.19771171155E-01 0.  0.
         14    1    1    2    0    0 -0.21158139496E-01 -0.17577813402E-02 -0.11268045227E-01  0.24035921148E-01  0.00000000000E+00 0. -1.
     999901    1    3    3    0    0 -0.46698051725E-01 -0.56072040742E-01  0.10474712152E+00  0.88921130293E+00  0.88000000000E+00 0. -1.
        -11    1    4    4    0    0  0.39859163019E-01  0.37242791041E-01 -0.43328292573E-01  0.69666207155E-01  0.51100000000E-03 0. -1.
         11    1    4    4    0    0  0.27997028202E-01  0.20587031042E-01 -0.50150783723E-01  0.61016568769E-01  0.51100000000E-03 0.  1.
</event>
<event>
 8    1  0.1116619E+005  0.1043930E+01  0.7957747E-01            NaN
         13   -1    0    0    0    0  0.00000000000E+00  0.00000000000E+00  0.74505805969E-08  0.10566000000E+00  0.10566000000E+00 0. -1.
     999900   -1    0    0    0    0 -0.00000000000E+00 -0.00000000000E+00 -0.74505805969E-08  0.93827000000E+00  0.93827000000E+00 0. -1.
     999902    2    1    2    0    0  0.21138814063E-01 -0.58362240348E-02  0.94598804380E-02  0.10200469452E+01  0.10197673117E+01 0.  0.
     999903    2    3    3    0    0  0.72045891315E-01 -0.10745355809E+00  0.22429785336E-01  0.13264296075E+00  0.18819728061E-01 0.  0.
         14    1    1    2    0    0 -0.21138814063E-01  0.58362240348E-02 -0.94598804380E-02  0.23883054848E-01  0.00000000000E+00 0. -1.
     999901    1    3    3    0    0 -0.50907077252E-01  0.10161733406E+00 -0.12969904898E-01  0.88740398440E+00  0.88000000000E+00 0. -1.
        -11    1    4    4    0    0  0.52707549127E-01 -0.62489631238E-01  0.12596758445E-01  0.82716257118E-01  0.51100000000E-03 0.  1.
         11    1    4    4    0    0  0.19338342187E-01 -0.44963926857E-01  0.98330268904E-02  0.49926703634E-01  0.51100000000E-03 0. -1.
</event>
<event>
 8    1  0.1116619E+005  0.1043930E+01  0.7957747E-01            NaN
         13   -1    0    0    0    0  0.00000000000E+00  0.00000000000E+00  0.74505805969E-08  0.10566000000E+00  0.10566000000E+00 0. -1.
     999900   -1    0    0    0    0 -0.00000000000E+00 -0.00000000000E+00 -0.74505805969E-08  0.93827000000E+00  0.93827000000E+00 0. -1.
     999902    2    1    2    0    0 -0.26045505072E-01  0.44888598359E-03  0.96494740844E-03  0.10178627609E+01  0.10175289180E+01 0.  0.
     999903    2    3    3    0    0  0.85120801766E-01 -0.72740402285E-01  0.54682446853E-01  0.12623492962E+00  0.20208177641E-01 0.  0.
         14    1    1    2    0    0  0.26045505072E-01 -0.44888598359E-03 -0.96494740844E-03  0.26067239144E-01  0.00000000000E+00 0.  1.
     999901    1    3    3    0    0 -0.11116630684E+00  0.73189288269E-01 -0.53717499445E-01  0.89162783124E+00  0.88000000000E+00 0. -1.
        -11    1    4    4    0    0  0.36566417298E-01 -0.29934815001E-01  0.12201243987E-01  0.48809092380E-01  0.51100000000E-03 0.  1.
         11    1    4    4    0    0  0.48554384468E-01 -0.42805587284E-01  0.42481202866E-01  0.77425837237E-01  0.51100000000E-03 0. -1.
</event>
<event>
 8    1  0.1116619E+005  0.1043930E+01  0.7957747E-01            NaN
         13   -1    0    0    0    0  0.00000000000E+00  0.00000000000E+00  0.74505805969E-08  0.10566000000E+00  0.10566000000E+00 0. -1.
     999900   -1    0    0    0    0 -0.00000000000E+00 -0.00000000000E+00 -0.74505805969E-08  0.93827000000E+00  0.93827000000E+00 0.  1.
     999902    2    1    2    0    0  0.12135153686E-01  0.44056370006E-02 -0.19222156522E-01  0.10207748085E+01  0.10205121492E+01 0.  0.
     999903    2    3    3    0    0  0.19925663109E-01 -0.12410102929E+00  0.27244659133E-01  0.13019419997E+00  0.20252425358E-01 0.  0.
         14    1    1    2    0    0 -0.12135153686E-01 -0.44056370006E-02  0.19222156522E-01  0.23155191507E-01  0.00000000000E+00 0. -1.
     999901    1    3    3    0    0 -0.77905094227E-02  0.12850666629E+00 -0.46466815654E-01  0.89058060852E+00  0.88000000000E+00 0.  1.
        -11    1    4    4    0    0  0.19068558459E-01 -0.66550534519E-01  0.20730880213E-01  0.72267655848E-01  0.51100000000E-03 0.  1.
         11    1    4    4    0    0  0.85710464987E-03 -0.57550494774E-01  0.65137789200E-02  0.57926544122E-01  0.51100000000E-03 0. -1.
</event>
<event>
 8    1  0.1334025E+005  0.1043930E+01  0.7957747E-01            NaN
         13   -1    0    0    0    0  0.00000000000E+00  0.00000000000E+00  0.74505805969E-08  0.10566000000E+00  0.10566000000E+00 0.  1.
     999900   -1    0    0    0    0 -0.00000000000E+00 -0.00000000000E+00 -0.74505805969E-08  0.93827000000E+00  0.93827000000E+00 0.  1.
     999902    2    1    2    0    0  0.19188223708E-01 -0.37983978544E-02 -0.13738192861E-01  0.10200269939E+01  0.10197468876E+01 0.  0.
     999903    2    3    3    0    0  0.76283728200E-01 -0.73633500109E-01 -0.77096548162E-01  0.13314982132E+00  0.23321613414E-01 0.  0.
         14    1    1    2    0    0 -0.19188223708E-01  0.37983978544E-02  0.13738192861E-01  0.23903006054E-01  0.00000000000E+00 0.  1.
     999901    1    3    3    0    0 -0.57095504492E-01  0.69835102255E-01  0.63358355301E-01  0.88687717263E+00  0.88000000000E+00 0. -1.
        -11    1    4    4    0    0  0.44681029502E-01 -0.51774338680E-01 -0.37609017134E-01  0.78049188553E-01  0.51100000000E-03 0. -1.
         11    1    4    4    0    0  0.31602698698E-01 -0.21859161429E-01 -0.39487531029E-01  0.55100632765E-01  0.51100000000E-03 0.  1.
</event>
<event>
 8    1  0.1116619E+005  0.1043930E+01  0.7957747E-01            NaN
         13   -1    0    0    0    0  0.00000000000E+00  0.00000000000E+00  0.74505805969E-08  0.10566000000E+00  0.10566000000E+00 0. -1.
     999900   -1    0    0    0    0 -0.00000000000E+00 -0.00000000000E+00 -0.74505805969E-08  0.93827000000E+00  0.93827000000E+00 0.  1.
     999902    2    1    2    0    0 -0.85191994911E-02  0.23098403830E-01  0.48911960415E-02  0.10188294658E+01  0.10185202224E+01 0.  0.
     999903    2    3    3    0    0 -0.45785339144E-01 -0.56968137885E-01  0.10451668804E+00  0.12881561481E+00  0.18112385953E-01 0.  0.
         14    1    1    2    0    0  0.85191994911E-02 -0.23098403830E-01 -0.48911960415E-02  0.25100534221E-01  0.00000000000E+00 0.  1.
     999901    1    3    3    0    0  0.37266139653E-01  0.80066541715E-01 -0.99625491997E-01  0.89001385097E+00  0.88000000000E+00 0.  1.
        -11    1    4    4    0    0 -0.62043856989E-02 -0.10624430124E-02  0.13476114249E-01  0.14882538873E-01  0.51100000000E-03 0. -1.
         11    1    4    4    0    0 -0.39580953445E-01 -0.55905694873E-01  0.91040573790E-01  0.11393307593E+00  0.51100000000E-03 0.  1.
</event>
<event>
 8    1  0.1116619E+005  0.1043930E+01  0.7957747E-01            NaN
         13   -1    0    0    0    0  0.00000000000E+00  0.00000000000E+00  0.74505805969E-08  0.10566000000E+00  0.10566000000E+00 0. -1.
     999900   -1    0    0    0    0 -0.00000000000E+00 -0.00000000000E+00 -0.74505805969E-08  0.93827000000E+00  0.93827000000E+00 0. -1.
     999902    2    1    2    0    0 -0.19244646222E-01  0.59282269516E-02 -0.10311562724E-01  0.10213063706E+01  0.10210557644E+01 0.  0.
     999903    2    3    3    0    0 -0.77155260525E-01  0.10403582702E+00  0.23916389011E-01  0.13330282715E+00  0.20524681028E-01 0.  0.
         14    1    1    2    0    0  0.19244646222E-01 -0.59282269516E-02  0.10311562724E-01  0.22623629435E-01  0.00000000000E+00 0. -1.
     999901    1    3    3    0    0  0.57910614302E-01 -0.98107600072E-01 -0.34227951735E-01  0.88800354342E+00  0.88000000000E+00 0. -1.
        -11    1    4    4    0    0 -0.42310126949E-01  0.42565708432E-01  0.54331624052E-02  0.60264141507E-01  0.51100000000E-03 0. -1.
         11    1    4    4    0    0 -0.34845133575E-01  0.61470118591E-01  0.18483226606E-01  0.73038685641E-01  0.51100000000E-03 0.  1.
</event>
<event>
 8    1  0.1116619E+005  0.1043930E+01  0.7957747E-01            NaN
         13   -1    0    0    0    0  0.00000000000E+00  0.00000000000E+00  0.74505805969E-08  0.10566000000E+00  0.10566000000E+00 0. -1.
     999900   -1    0    0    0    0 -0.00000000000E+00 -0.00000000000E+00 -0.74505805969E-08  0.93827000000E+00  0.93827000000E+00 0.  1.
     999902    2    1    2    0    0 -0.17699530640E-01 -0.16253733695E-01 -0.37137078549E-02  0.10196143904E+01  0.10193244117E+01 0.  0.
     999903    2    3    3    0    0  0.48114118954E-01 -0.11758222723E+00 -0.25214356072E-01  0.13109811146E+00  0.20258392658E-01 0.  0.
         14    1    1    2    0    0  0.17699530640E-01  0.16253733695E-01  0.37137078549E-02  0.24315609594E-01  0.00000000000E+00 0. -1.
     999901    1    3    3    0    0 -0.65813649594E-01  0.10132849354E+00  0.21500648218E-01  0.88851627894E+00  0.88000000000E+00 0. -1.
        -11    1    4    4    0    0  0.11597269703E-01 -0.38408834287E-01 -0.16809589541E-01  0.43503547412E-01  0.51100000000E-03 0. -1.
         11    1    4    4    0    0  0.36516849252E-01 -0.79173392945E-01 -0.84047665312E-02  0.87594564050E-01  0.51100000000E-03 0.  1.
</event>
<event>
 8    1  0.1116619E+005  0.1043930E+01  0.7957747E-01            NaN
         13   -1    0    0    0    0  0.00000000000E+00  0.00000000000E+00  0.74505805969E-08  0.10566000000E+00  0.10566000000E+00 0. -1.
     999900   -1    0    0    0    0 -0.00000000000E+00 -0.00000000000E+00 -0.74505805969E-08  0.93827000000E+00  0.93827000000E+00 0.  1.
     999902    2    1    2    0    0  0.92281944829E-02  0.99087853055E-02 -0.19391918236E-01  0.10202785710E+01  0.10200043982E+01 0.  0.
     999903    2    3    3    0    0 -0.88405949375E-01 -0.38522775694E-01 -0.87806402367E-01  0.13092004726E+00  0.11422711902E-01 0.  0.
         14    1    1    2    0    0 -0.92281944829E-02 -0.99087853055E-02  0.19391918236E-01  0.23651428974E-01  0.00000000000E+00 0. -1.
     999901    1    3    3    0    0  0.97634143858E-01  0.48431561000E-01  0.68414484131E-01  0.88935852376E+00  0.88000000000E+00 0. -1.
        -11    1    4    4    0    0 -0.47634164729E-01 -0.18958829953E-01 -0.53943607794E-01  0.74421937797E-01  0.51100000000E-03 0.  1.
         11    1    4    4    0    0 -0.40771784646E-01 -0.19563945741E-01 -0.33862794573E-01  0.56498109468E-01  0.51100000000E-03 0. -1.
</event>
<event>
 8    1  0.1116619E+005  0.1043930E+01  0.7957747E-01            NaN
         13   -1    0    0    0    0  0.00000000000E+00  0.00000000000E+00  0.74505805969E-08  0.10566000000E+00  0.10566000000E+00 0.  1.
     999900   -1    0    0    0    0 -0.00000000000E+00 -0.00000000000E+00 -0.74505805969E-08  0.93827000000E+00  0.93827000000E+00 0.  1.
     999902    2    1    2    0    0 -0.58528148464E-02  0.21074997656E-01  0.77163916669E-02  0.10207361718E+01  0.10204726252E+01 0.  0.
     999903    2    3    3    0    0  0.30076595897E-01  0.12783847355E+00  0.14700411928E-01  0.13352811337E+00  0.19141003316E-01 0.  0.
         14    1    1    2    0    0  0.58528148464E-02 -0.21074997656E-01 -0.77163916669E-02  0.23193828235E-01  0.00000000000E+00 0.  1.
     999901    1    3    3    0    0 -0.35929410744E-01 -0.10676347590E+00 -0.69840202612E-02  0.88720805840E+00  0.88000000000E+00 0.  1.
        -11    1    4    4    0    0  0.12217047699E-01  0.34264051863E-01 -0.34707310028E-02  0.36545705620E-01  0.51100000000E-03 0.  1.
         11    1    4    4    0    0  0.17859548198E-01  0.93574421690E-01  0.18171142931E-01  0.96982407750E-01  0.51100000000E-03 0. -1.
</event>
<event>
 8    1  0.1116619E+005  0.1043930E+01  0.7957747E-01            NaN
         13   -1    0    0    0    0  0.00000000000E+00  0.00000000000E+00  0.74505805969E-08  0.10566000000E+00  0.10566000000E+00 0. -1.
     999900   -1    0    0    0    0 -0.00000000000E+00 -0.00000000000E+00 -0.74505805969E-08  0.93827000000E+00  0.93827000000E+00 0.  1.
     999902    2    1    2    0    0 -0.16833676174E-01  0.64145476040E-02  0.16453291935E-01  0.10195326663E+01  0.10192407114E+01 0.  0.
     999903    2    3    3    0    0  0.72820863070E-01  0.10398328554E+00 -0.12114479659E-01  0.12915425655E+00  0.20461172976E-01 0.  0.
         14    1    1    2    0    0  0.16833676174E-01 -0.64145476040E-02 -0.16453291935E-01  0.24397333666E-01  0.00000000000E+00 0.  1.
     999901    1    3    3    0    0 -0.89654539244E-01 -0.97568737932E-01  0.28567771595E-01  0.89037840978E+00  0.88000000000E+00 0. -1.
        -11    1    4    4    0    0  0.59529317707E-01  0.95291894028E-01 -0.13677230222E-01  0.11318839376E+00  0.51100000000E-03 0. -1.
         11    1    4    4    0    0  0.13291545363E-01  0.86913915072E-02  0.15627505629E-02  0.15965862795E-01  0.51100000000E-03 0.  1.
</event>
<event>
 8    1  0.1116619E+005  0.1043930E+01  0.7957747E-01            NaN
         13   -1    0    0    0    0  0.00000000000E+00  0.00000000000E+00  0.74505805969E-08  0.10566000000E+00  0.10566000000E+00 0.  1.
     999900   -1    0    0    0    0 -0.00000000000E+00 -0.00000000000E+00 -0.74505805969E-08  0.93827000000E+00  0.93827000000E+00 0. -1.
     999902    2    1    2    0    0  0.21745117389E-01  0.40280185488E-02 -0.99334507715E-02  0.10196864749E+01  0.10193982336E+01 0.  0.
     999903    2    3    3    0    0  0.12712661043E+00  0.31618946490E-01 -0.11559366512E-01  0.13296827731E+00  0.19647161644E-01 0.  0.
         14    1    1    2    0    0 -0.21745117389E-01 -0.40280185488E-02  0.99334507715E-02  0.24243525072E-01  0.00000000000E+00 0.  1.
     999901    1    3    3    0    0 -0.10538149304E+00 -0.27590927941E-01  0.16259157408E-02  0.88671819762E+00  0.88000000000E+00 0.  1.
        -11    1    4    4    0    0  0.10899361789E+00  0.29919903485E-01 -0.16161457868E-01  0.11417645645E+00  0.51100000000E-03 0.  1.
         11    1    4    4    0    0  0.18132992537E-01  0.16990430048E-02  0.46020913562E-02  0.18791820862E-01  0.51100000000E-03 0. -1.
</event>
<event>
 8    1  0.1116619E+005  0.1043930E+01  0.7957747E-01            NaN
         13   -1    0    0    0    0  0.00000000000E+00  0.00000000000E+00  0.74505805969E-08  0.10566000000E+00  0.10566000000E+00 0. -1.
     999900   -1    0    0    0    0 -0.00000000000E+00 -0.00000000000E+00 -0.74505805969E-08  0.93827000000E+00  0.93827000000E+00 0. -1.
     999902    2    1    2    0    0 -0.20788323121E-01 -0.13384273174E-02 -0.13458879731E-01  0.10191290482E+01  0.10188272325E+01 0.  0.
     999903    2    3    3    0    0  0.94553482981E-01  0.71821366546E-01 -0.43402347240E-01  0.12808881404E+00  0.20598803349E-01 0.  0.
         14    1    1    2    0    0  0.20788323121E-01  0.13384273174E-02  0.13458879731E-01  0.24800951786E-01  0.00000000000E+00 0. -1.
     999901    1    3    3    0    0 -0.11534180610E+00 -0.73159793864E-01  0.29943467509E-01  0.89104023418E+00  0.88000000000E+00 0. -1.
        -11    1    4    4    0    0  0.82655616611E-01  0.53166693639E-01 -0.33382814568E-01  0.10379461306E+00  0.51100000000E-03 0. -1.
         11    1    4    4    0    0  0.11897866370E-01  0.18654672907E-01 -0.10019532672E-01  0.24294200983E-01  0.51100000000E-03 0.  1.
</event>
<event>
 8    1  0.1116619E+005  0.1043930E+01  0.7957747E-01            NaN
         13   -1    0    0    0    0  0.00000000000E+00  0.00000000000E+00  0.74505805969E-08  0.10566000000E+00  0.10566000000E+00 0.  1.
     999900   -1    0    0    0    0 -0.00000000000E+00 -0.00000000000E+00 -0.74505805969E-08  0.93827000000E+00  0.93827000000E+00 0.  1.
     999902    2    1    2    0    0  0.41875657682E-02 -0.85733108117E-02  0.21109927574E-01  0.10207639385E+01  0.10205010297E+01 0.  0.
     999903    2    3    3    0    0 -0.62613832832E-01 -0.87650932425E-01  0.76098249921E-01  0.13299177585E+00  0.17108208166E-01 0.  0.
         14    1    1    2    0    0 -0.41875657682E-02  0.85733108117E-02 -0.21109927574E-01  0.23166061546E-01  0.00000000000E+00 0. -1.
     999901    1    3    3    0    0  0.66801398601E-01  0.79077621613E-01 -0.54988322347E-01  0.88777216260E+00  0.88000000000E+00 0. -1.
        -11    1    4    4    0    0 -0.55889610525E-01 -0.67402503585E-01  0.64019456593E-01  0.10846888032E+00  0.51100000000E-03 0. -1.
         11    1    4    4    0    0 -0.67242223070E-02 -0.20248428840E-01  0.12078793328E-01  0.24522895534E-01  0.51100000000E-03 0.  1.
</event>
<event>
 8    1  0.1116619E+005  0.1043930E+01  0.7957747E-01            NaN
         13   -1    0    0    0    0  0.00000000000E+00  0.00000000000E+00  0.74505805969E-08  0.10566000000E+00  0.10566000000E+00 0. -1.
     999900   -1    0    0    0    0 -0.00000000000E+00 -0.00000000000E+00 -0.74505805969E-08  0.93827000000E+00  0.93827000000E+00 0.  1.
     999902    2    1    2    0    0 -0.75647052301E-02 -0.12021502233E-01  0.18620188955E-01  0.10205109326E+01  0.10202421824E+01 0.  0.
     999903    2    3    3    0    0  0.81108199543E-01 -0.40603134745E-01 -0.89351682837E-01  0.12903029969E+00  0.20927026252E-01 0.  0.
         14    1    1    2    0    0  0.75647052301E-02  0.12021502233E-01 -0.18620188955E-01  0.23419067400E-01  0.00000000000E+00 0.  1.
     999901    1    3    3    0    0 -0.88672904773E-01  0.28581632512E-01  0.10797187179E+00  0.89148063291E+00  0.88000000000E+00 0. -1.
        -11    1    4    4    0    0  0.57210714015E-01 -0.33289440111E-01 -0.75663726457E-01  0.10053115559E+00  0.51100000000E-03 0. -1.
         11    1    4    4    0    0  0.23897485528E-01 -0.73136946338E-02 -0.13687956380E-01  0.28499144103E-01  0.51100000000E-03 0.  1.
</event>
<event>
 8    1  0.1116619E+005  0.1043930E+01  0.7957747E-01            NaN
         13   -1    0    0    0    0  0.00000000000E+00  0.00000000000E+00  0.74505805969E-08  0.10566000000E+00  0.10566000000E+00 0.  1.
     999900   -1    0    0    0    0 -0.00000000000E+00 -0.00000000000E+00 -0.74505805969E-08  0.93827000000E+00  0.93827000000E+00 0. -1.
     999902    2    1    2    0    0 -0.20604235313E-01 -0.25633455067E-02 -0.12459468283E-01  0.10197154671E+01  0.10194279230E+01 0.  0.
     999903    2    3    3    0    0  0.57951027200E-01  0.61880363276E-01  0.92963854071E-01  0.12761794007E+00  0.21367254151E-01 0.  0.
         14    1    1    2    0    0  0.20604235313E-01  0.25633455067E-02  0.12459468283E-01  0.24214532886E-01  0.00000000000E+00 0.  1.
     999901    1    3    3    0    0 -0.78555262513E-01 -0.64443708783E-01 -0.10542332235E+00  0.89209752705E+00  0.88000000000E+00 0. -1.
        -11    1    4    4    0    0  0.29686315824E-01  0.37069959076E-01  0.66114272970E-01  0.81405266565E-01  0.51100000000E-03 0. -1.
         11    1    4    4    0    0  0.28264711376E-01  0.24810404200E-01  0.26849581101E-01  0.46212673500E-01  0.51100000000E-03 0.  1.
</event>
<event>
 8    1  0.1116619E+005  0.1043930E+01  0.7957747E-01            NaN
         13   -1    0    0    0    0  0.00000000000E+00  0.00000000000E+00  0.74505805969E-08  0.10566000000E+00  0.10566000000E+00 0.  1.
     999900   -1    0    0    0    0 -0.00000000000E+00 -0.00000000000E+00 -0.74505805969E-08  0.93827000000E+00  0.93827000000E+00 0.  1.
     999902    2    1    2    0    0  0.98117836789E-02 -0.30207868321E-02 -0.22896920855E-01  0.10188368687E+01  0.10185278101E+01 0.  0.
     999903    2    3    3    0    0  0.73088865849E-01 -0.28798812794E-01  0.98846612007E-01  0.12783182748E+00  0.19974220429E-01 0.  0.
         14    1    1    2    0    0 -0.98117836789E-02  0.30207868321E-02  0.22896920855E-01  0.25093131265E-01  0.00000000000E+00 0.  1.
     999901    1    3    3    0    0 -0.63277082170E-01  0.25778025962E-01 -0.12174353286E+00  0.89100504126E+00  0.88000000000E+00 0.  1.
        -11    1    4    4    0    0  0.59826913854E-01 -0.31224156440E-01  0.84419815981E-01  0.10807948010E+00  0.51100000000E-03 0.  1.
         11    1    4    4    0    0  0.13261951995E-01  0.24253436456E-02  0.14426796026E-01  0.19752347382E-01  0.51100000000E-03 0. -1.
</event>
<event>
 8    1  0.1116619E+005  0.1043930E+01  0.7957747E-01            NaN
         13   -1    0    0    0    0  0.00000000000E+00  0.00000000000E+00  0.74505805969E-08  0.10566000000E+00  0.10566000000E+00 0. -1.
     999900   -1    0    0    0    0 -0.00000000000E+00 -0.00000000000E+00 -0.74505805969E-08  0.93827000000E+00  0.93827000000E+00 0. -1.
     999902    2    1    2    0    0  0.14197087004E-02  0.62961891644E-02  0.22311514245E-01  0.10207036951E+01  0.10204394014E+01 0.  0.
     999903    2    3    3    0    0 -0.12121839790E-03 -0.12875271215E+00  0.10858658109E-01  0.13032638851E+00  0.17022969971E-01 0.  0.
         14    1    1    2    0    0 -0.14197087004E-02 -0.62961891644E-02 -0.22311514245E-01  0.23226304886E-01  0.00000000000E+00 0.  1.
     999901    1    3    3    0    0  0.15409270983E-02  0.13504890131E+00  0.11452856136E-01  0.89037730660E+00  0.88000000000E+00 0. -1.
        -11    1    4    4    0    0  0.27679211799E-02 -0.44203527494E-01 -0.38389063051E-02  0.44459099780E-01  0.51100000000E-03 0. -1.
         11    1    4    4    0    0 -0.28891395778E-02 -0.84549184654E-01  0.14697564414E-01  0.85867288730E-01  0.51100000000E-03 0.  1.
</event>
<event>
 8    1  0.1116619E+005  0.1043930E+01  0.7957747E-01            NaN
         13   -1    0    0    0    0  0.00000000000E+00  0.00000000000E+00  0.74505805969E-08  0.10566000000E+00  0.10566000000E+00 0. -1.
     999900   -1    0    0    0    0 -0.00000000000E+00 -0.00000000000E+00 -0.74505805969E-08  0.93827000000E+00  0.93827000000E+00 0. -1.
     999902    2    1    2    0    0  0.18565078556E-01  0.32075581110E-01  0.83656883233E-02  0.10059367139E+01  0.10052189725E+01 0.  0.
     999903    2    3    3    0    0  0.52892420497E-01 -0.95914459165E-01  0.31474854451E-01  0.11571547717E+00  0.20055262938E-01 0.  0.
         14    1    1    2    0    0 -0.18565078556E-01 -0.32075581110E-01 -0.83656883233E-02  0.37993286071E-01  0.00000000000E+00 0. -1.
     999901    1    3    3    0    0 -0.34327341941E-01  0.12799004028E+00 -0.23109166127E-01  0.89022123676E+00  0.88000000000E+00 0.  1.
        -11    1    4    4    0    0  0.47301043039E-01 -0.77554515100E-01  0.18967231516E-01  0.92801446526E-01  0.51100000000E-03 0.  1.
         11    1    4    4    0    0  0.55913774573E-02 -0.18359944066E-01  0.12507622935E-01  0.22914030646E-01  0.51100000000E-03 0. -1.
</event>
<event>
 8    1  0.1116619E+005  0.1043930E+01  0.7957747E-01            NaN
         13   -1    0    0    0    0  0.00000000000E+00  0.00000000000E+00  0.74505805969E-08  0.10566000000E+00  0.10566000000E+00 0. -1.
     999900   -1    0    0    0    0 -0.00000000000E+00 -0.00000000000E+00 -0.74505805969E-08  0.93827000000E+00  0.93827000000E+00 0. -1.
     999902    2    1    2    0    0  0.53180501675E-02 -0.52603372462E-02 -0.21898452679E-01  0.10207892343E+01  0.10205269060E+01 0.  0.
     999903    2    3    3    0    0  0.11456895750E+00 -0.53792404003E-01  0.28532768298E-01  0.13127564237E+00  0.19987662711E-01 0.  0.
         14    1    1    2    0    0 -0.53180501675E-02  0.52603372462E-02  0.21898452679E-01  0.23140765658E-01  0.00000000000E+00 0. -1.
     999901    1    3    3    0    0 -0.10925090734E+00  0.48532066757E-01 -0.50431220977E-01  0.88951359197E+00  0.88000000000E+00 0. -1.
        -11    1    4    4    0    0  0.46065288058E-01 -0.11700712783E-01  0.14181916486E-01  0.49601464895E-01  0.51100000000E-03 0. -1.
         11    1    4    4    0    0  0.68503669445E-01 -0.42091691221E-01  0.14350851812E-01  0.81674177473E-01  0.51100000000E-03 0.  1.
</event>
<event>
 8    1  0.1116619E+005  0.1043930E+01  0.7957747E-01            NaN
         13   -1    0    0    0    0  0.00000000000E+00  0.00000000000E+00  0.74505805969E-08  0.10566000000E+00  0.10566000000E+00 0.  1.
     999900   -1    0    0    0    0 -0.00000000000E+00 -0.00000000000E+00 -0.74505805969E-08  0.93827000000E+00  0.93827000000E+00 0.  1.
     999902    2    1    2    0    0  0.49915355408E-02 -0.10463175467E-01  0.21381574735E-01  0.10196078865E+01  0.10193177507E+01 0.  0.
     999903    2    3    3    0    0 -0.30869860401E-02  0.11968268402E+00  0.45609921630E-01  0.12966956275E+00  0.20011402106E-01 0.  0.
         14    1    1    2    0    0 -0.49915355408E-02  0.10463175467E-01 -0.21381574735E-01  0.24322113519E-01  0.00000000000E+00 0. -1.
     999901    1    3    3    0    0  0.80785215810E-02 -0.13014585949E+00 -0.24228346894E-01  0.88993832373E+00  0.88000000000E+00 0. -1.
        -11    1    4    4    0    0  0.70475093174E-02  0.43036068171E-01  0.21888811089E-01  0.48797046254E-01  0.51100000000E-03 0. -1.
         11    1    4    4    0    0 -0.10134495358E-01  0.76646615854E-01  0.23721110541E-01  0.80872516495E-01  0.51100000000E-03 0.  1.
</event>
<event>
 8    1  0.1116619E+005  0.1043930E+01  0.7957747E-01            NaN
         13   -1    0    0    0    0  0.00000000000E+00  0.00000000000E+00  0.74505805969E-08  0.10566000000E+00  0.10566000000E+00 0. -1.
     999900   -1    0    0    0    0 -0.00000000000E+00 -0.00000000000E+00 -0.74505805969E-08  0.93827000000E+00  0.93827000000E+00 0. -1.
     999902    2    1    2    0    0  0.45325819164E-03 -0.19227233252E-01 -0.14401533825E-01  0.10199030127E+01  0.10196199582E+01 0.  0.
     999903    2    3    3    0    0  0.79952585767E-01 -0.10240227677E+00 -0.16200190842E-01  0.13241134170E+00  0.19790779886E-01 0.  0.
         14    1    1    2    0    0 -0.45325819164E-03  0.19227233252E-01  0.14401533825E-01  0.24026987285E-01  0.00000000000E+00 0. -1.
     999901    1    3    3    0    0 -0.79499327576E-01  0.83175043523E-01  0.17986570168E-02  0.88749167101E+00  0.88000000000E+00 0.  1.
        -11    1    4    4    0    0  0.24814820686E-01 -0.21103481523E-01 -0.95619043850E-02  0.33953253077E-01  0.51100000000E-03 0.  1.
         11    1    4    4    0    0  0.55137765082E-01 -0.81298795252E-01 -0.66382864565E-02  0.98458088625E-01  0.51100000000E-03 0. -1.
</event>
<event>
 8    1  0.1116619E+005  0.1043930E+01  0.7957747E-01            NaN
         13   -1    0    0    0    0  0.00000000000E+00  0.00000000000E+00  0.74505805969E-08  0.10566000000E+00  0.10566000000E+00 0. -1.
     999900   -1    0    0    0    0 -0.00000000000E+00 -0.00000000000E+00 -0.74505805969E-08  0.93827000000E+00  0.93827000000E+00 0. -1.
     999902    2    1    2    0    0  0.10103879929E-01  0.35596200682E-02 -0.20506611448E-01  0.10207938725E+01  0.10205316505E+01 0.  0.
     999903    2    3    3    0    0  0.12859505335E+00  0.14791127992E-01 -0.11601140138E-01  0.13273666013E+00  0.26999431028E-01 0.  0.
         14    1    1    2    0    0 -0.10103879929E-01 -0.35596200682E-02  0.20506611448E-01  0.23136127544E-01  0.00000000000E+00 0. -1.
     999901    1    3    3    0    0 -0.11849117342E+00 -0.11231507924E-01 -0.89054713097E-02  0.88805721233E+00  0.88000000000E+00 0. -1.
        -11    1    4    4    0    0  0.29753823957E-01 -0.78821989666E-02 -0.14198361193E-02  0.30817140624E-01  0.51100000000E-03 0.  1.
         11    1    4    4    0    0  0.98841229393E-01  0.22673326958E-01 -0.10181304019E-01  0.10191951950E+00  0.51100000000E-03 0. -1.
</event>
<event>
 8    1  0.1116619E+005  0.1043930E+01  0.7957747E-01            NaN
         13   -1    0    0    0    0  0.00000000000E+00  0.00000000000E+00  0.74505805969E-08  0.10566000000E+00  0.10566000000E+00 0.  1.
     999900   -1    0    0    0    0 -0.00000000000E+00 -0.00000000000E+00 -0.74505805969E-08  0.93827000000E+00  0.93827000000E+00 0.  1.
     999902    2    1    2    0    0 -0.17422584952E-01  0.11710602299E-01  0.12221778533E-01  0.10196389205E+01  0.10193495336E+01 0.  0.
     999903    2    3    3    0    0 -0.12673268076E+00  0.27354080134E-01  0.17487727162E-01  0.13272226959E+00  0.22359833880E-01 0.  0.
         14    1    1    2    0    0  0.17422584952E-01 -0.11710602299E-01 -0.12221778533E-01  0.24291079496E-01  0.00000000000E+00 0. -1.
     999901    1    3    3    0    0  0.10931009581E+00 -0.15643477835E-01 -0.52659486298E-02  0.88691665091E+00  0.88000000000E+00 0. -1.
        -11    1    4    4    0    0 -0.68543932608E-01  0.23768413509E-01  0.28220838982E-02  0.72604637983E-01  0.51100000000E-03 0.  1.
         11    1    4    4    0    0 -0.58188748156E-01  0.35856666246E-02  0.14665643264E-01  0.60117631611E-01  0.51100000000E-03 0. -1.
</event>
<event>
 8    1  0.1116619E+005  0.1043930E+01  0.7957747E-01            NaN
         13   -1    0    0    0    0  0.00000000000E+00  0.00000000000E+00  0.74505805969E-08  0.10566000000E+00  0.10566000000E+00 0.  1.
     999900   -1    0    0    0    0 -0.00000000000E+00 -0.00000000000E+00 -0.74505805969E-08  0.93827000000E+00  0.93827000000E+00 0.  1.
     999902    2    1    2    0    0 -0.93910360766E-02  0.40287927959E-02  0.22372552304E-01  0.10193341909E+01  0.10190374080E+01 0.  0.
     999903    2    3    3    0    0 -0.31408952716E-01 -0.12260342702E+00 -0.16167567422E-01  0.12916238241E+00  0.20085023472E-01 0.  0.
         14    1    1    2    0    0  0.93910360766E-02 -0.40287927959E-02 -0.22372552304E-01  0.24595809126E-01  0.00000000000E+00 0. -1.
     999901    1    3    3    0    0  0.22017916639E-01  0.12663221981E+00  0.38540119726E-01  0.89017180846E+00  0.88000000000E+00 0.  1.
        -11    1    4    4    0    0 -0.20596310218E-01 -0.42390984998E-01 -0.38277558613E-02  0.47287592872E-01  0.51100000000E-03 0. -1.
         11    1    4    4    0    0 -0.10812642498E-01 -0.80212442018E-01 -0.12339811561E-01  0.81874789542E-01  0.51100000000E-03 0.  1.
</event>
<event>
 8    1  0.1116619E+005  0.1043930E+01  0.7957747E-01            NaN
         13   -1    0    0    0    0  0.00000000000E+00  0.00000000000E+00  0.74505805969E-08  0.10566000000E+00  0.10566000000E+00 0.  1.
     999900   -1    0    0    0    0 -0.00000000000E+00 -0.00000000000E+00 -0.74505805969E-08  0.93827000000E+00  0.93827000000E+00 0.  1.
     999902    2    1    2    0    0  0.98872340790E-02  0.17057832542E-01 -0.21470774789E-01  0.10147800220E+01  0.10143612630E+01 0.  0.
     999903    2    3    3    0    0 -0.23050605802E-01 -0.78920620627E-01  0.88431527128E-01  0.12215732412E+00  0.18506270746E-01 0.  0.
         14    1    1    2    0    0 -0.98872340790E-02 -0.17057832542E-01  0.21470774789E-01  0.29149978024E-01  0.00000000000E+00 0.  1.
     999901    1    3    3    0    0  0.32937839881E-01  0.95978453169E-01 -0.10990230192E+00  0.89262269786E+00  0.88000000000E+00 0.  1.
        -11    1    4    4    0    0 -0.56323271225E-02 -0.26681403657E-01  0.17691978199E-01  0.32509808113E-01  0.51100000000E-03 0.  1.
         11    1    4    4    0    0 -0.17418278679E-01 -0.52239216969E-01  0.70739548930E-01  0.89647516003E-01  0.51100000000E-03 0. -1.
</event>
<event>
 8    1  0.1116619E+005  0.1043930E+01  0.7957747E-01            NaN
         13   -1    0    0    0    0  0.00000000000E+00  0.00000000000E+00  0.74505805969E-08  0.10566000000E+00  0.10566000000E+00 0. -1.
     999900   -1    0    0    0    0 -0.00000000000E+00 -0.00000000000E+00 -0.74505805969E-08  0.93827000000E+00  0.93827000000E+00 0. -1.
     999902    2    1    2    0    0  0.14317894580E-01  0.13978864911E-01 -0.10787653543E-01  0.10211971111E+01  0.10209440511E+01 0.  0.
     999903    2    3    3    0    0  0.68554237731E-01 -0.99308541148E-01  0.45500071022E-01  0.13049855084E+00  0.19943556660E-01 0.  0.
         14    1    1    2    0    0 -0.14317894580E-01 -0.13978864911E-01  0.10787653543E-01  0.22732888913E-01  0.00000000000E+00 0. -1.
     999901    1    3    3    0    0 -0.54236343152E-01  0.11328740606E+00 -0.56287724564E-01  0.89069856025E+00  0.88000000000E+00 0. -1.
        -11    1    4    4    0    0  0.66735010155E-02 -0.26277257858E-02  0.50656554945E-02  0.87955980580E-02  0.51100000000E-03 0. -1.
         11    1    4    4    0    0  0.61880736716E-01 -0.96680815363E-01  0.40434415527E-01  0.12170295278E+00  0.51100000000E-03 0.  1.
</event>
<event>
 8    1  0.1116619E+005  0.1043930E+01  0.7957747E-01            NaN
         13   -1    0    0    0    0  0.00000000000E+00  0.00000000000E+00  0.74505805969E-08  0.10566000000E+00  0.10566000000E+00 0. -1.
     999900   -1    0    0    0    0 -0.00000000000E+00 -0.00000000000E+00 -0.74505805969E-08  0.93827000000E+00  0.93827000000E+00 0. -1.
     999902    2    1    2    0    0  0.86460313013E-02  0.19780805362E-01  0.10185608825E-01  0.10200599195E+01  0.10197805933E+01 0.  0.
     999903    2    3    3    0    0  0.11679136828E+00  0.11015543462E-01 -0.55087361458E-01  0.13099703958E+00  0.19079860671E-01 0.  0.
         14    1    1    2    0    0 -0.86460313013E-02 -0.19780805362E-01 -0.10185608825E-01  0.23870080544E-01  0.00000000000E+00 0. -1.
     999901    1    3    3    0    0 -0.10814533698E+00  0.87652619003E-02  0.65272970283E-01  0.88906287988E+00  0.88000000000E+00 0. -1.
        -11    1    4    4    0    0  0.27843539050E-01  0.97361107063E-02 -0.18409827089E-01  0.34774090541E-01  0.51100000000E-03 0. -1.
         11    1    4    4    0    0  0.88947829231E-01  0.12794327558E-02 -0.36677534369E-01  0.96222949038E-01  0.51100000000E-03 0.  1.
</event>
<event>
 8    1  0.1116619E+005  0.1043930E+01  0.7957747E-01            NaN
         13   -1    0    0    0    0  0.00000000000E+00  0.00000000000E+00  0.74505805969E-08  0.10566000000E+00  0.10566000000E+00 0.  1.
     999900   -1    0    0    0    0 -0.00000000000E+00 -0.00000000000E+00 -0.74505805969E-08  0.93827000000E+00  0.93827000000E+00 0.  1.
     999902    2    1    2    0    0 -0.17778944842E-01 -0.15995736850E-01 -0.11649654034E-02  0.10199860734E+01  0.10197049957E+01 0.  0.
     999903    2    3    3    0    0  0.10450908420E+00  0.11347474800E-01 -0.70786109340E-01  0.12838688264E+00  0.20533009853E-01 0.  0.
         14    1    1    2    0    0  0.17778944842E-01  0.15995736850E-01  0.11649654034E-02  0.23943926609E-01  0.00000000000E+00 0. -1.
     999901    1    3    3    0    0 -0.12228802904E+00 -0.27343211650E-01  0.69621143937E-01  0.89159919075E+00  0.88000000000E+00 0.  1.
        -11    1    4    4    0    0  0.39260717491E-01  0.11982909612E-01 -0.35106052549E-01  0.54015646875E-01  0.51100000000E-03 0.  1.
         11    1    4    4    0    0  0.65248366706E-01 -0.63543481228E-03 -0.35680056791E-01  0.74371235763E-01  0.51100000000E-03 0. -1.
</event>
<event>
 8    1  0.1116619E+005  0.1043930E+01  0.7957747E-01            NaN
         13   -1    0    0    0    0  0.00000000000E+00  0.00000000000E+00  0.74505805969E-08  0.10566000000E+00  0.10566000000E+00 0. -1.
     999900   -1    0    0    0    0 -0.00000000000E+00 -0.00000000000E+00 -0.74505805969E-08  0.93827000000E+00  0.93827000000E+00 0.  1.
     999902    2    1    2    0    0  0.13202760794E-01  0.16838162748E-01 -0.11031873726E-01  0.10198563867E+01  0.10195722195E+01 0.  0.
     999903    2    3    3    0    0 -0.22867365199E-01  0.70014884368E-01 -0.10795284441E+00  0.13220640377E+00  0.19992902666E-01 0.  0.
         14    1    1    2    0    0 -0.13202760794E-01 -0.16838162748E-01  0.11031873726E-01  0.24073613256E-01  0.00000000000E+00 0.  1.
     999901    1    3    3    0    0  0.36070125993E-01 -0.53176721620E-01  0.96920970688E-01  0.88764998297E+00  0.88000000000E+00 0. -1.
        -11    1    4    4    0    0  0.16308195359E-02  0.12921363090E-01 -0.28556444142E-01  0.31390330032E-01  0.51100000000E-03 0. -1.
         11    1    4    4    0    0 -0.24498184734E-01  0.57093521278E-01 -0.79396400271E-01  0.10081607374E+00  0.51100000000E-03 0.  1.
</event>
<event>
 8    1  0.1116619E+005  0.1043930E+01  0.7957747E-01            NaN
         13   -1    0    0    0    0  0.00000000000E+00  0.00000000000E+00  0.74505805969E-08  0.10566000000E+00  0.10566000000E+00 0.  1.
     999900   -1    0    0    0    0 -0.00000000000E+00 -0.00000000000E+00 -0.74505805969E-08  0.93827000000E+00  0.93827000000E+00 0.  1.
     999902    2    1    2    0    0  0.96340786796E-02 -0.15703072108E-01  0.17880568332E-01  0.10182567324E+01  0.10179330314E+01 0.  0.
     999903    2    3    3    0    0  0.90571848750E-01  0.47670501649E-01 -0.73451259743E-01  0.12757798262E+00  0.20132500565E-01 0.  0.
         14    1    1    2    0    0 -0.96340786796E-02  0.15703072108E-01 -0.17880568332E-01  0.25673267605E-01  0.00000000000E+00 0. -1.
     999901    1    3    3    0    0 -0.80937770071E-01 -0.63373573757E-01  0.91331828075E-01  0.89067874977E+00  0.88000000000E+00 0. -1.
        -11    1    4    4    0    0  0.50710524071E-01  0.23839751010E-01 -0.51891726897E-01  0.76373447095E-01  0.51100000000E-03 0.  1.
         11    1    4    4    0    0  0.39861324679E-01  0.23830750639E-01 -0.21559532846E-01  0.51204535529E-01  0.51100000000E-03 0. -1.
</event>
<event>
 8    1  0.1116619E+005  0.1043930E+01  0.7957747E-01            NaN
         13   -1    0    0    0    0  0.00000000000E+00  0.00000000000E+00  0.74505805969E-08  0.10566000000E+00  0.10566000000E+00 0.  1.
     999900   -1    0    0    0    0 -0.00000000000E+00 -0.00000000000E+00 -0.74505805969E-08  0.93827000000E+00  0.93827000000E+00 0.  1.
     999902    2    1    2    0    0 -0.13981054715E-02  0.18223668493E-01  0.15227656850E-01  0.10201405417E+01  0.10198631215E+01 0.  0.
     999903    2    3    3    0    0  0.14712772945E-01 -0.69544907770E-01  0.10804480990E+00  0.13077115430E+00  0.19350813030E-01 0.  0.
         14    1    1    2    0    0  0.13981054715E-02 -0.18223668493E-01 -0.15227656850E-01  0.23789458283E-01  0.00000000000E+00 0. -1.
     999901    1    3    3    0    0 -0.16110878416E-01  0.87768576263E-01 -0.92817153051E-01  0.88936938742E+00  0.88000000000E+00 0.  1.
        -11    1    4    4    0    0 -0.99842519477E-03 -0.40865091196E-01  0.56885394469E-01  0.70051136723E-01  0.51100000000E-03 0. -1.
         11    1    4    4    0    0  0.15711198139E-01 -0.28679816574E-01  0.51159415431E-01  0.60720017572E-01  0.51100000000E-03 0.  1.
</event>
<event>
 8    1  0.1116619E+005  0.1043930E+01  0.7957747E-01            NaN
         13   -1    0    0    0    0  0.00000000000E+00  0.00000000000E+00  0.74505805969E-08  0.10566000000E+00  0.10566000000E+00 0.  1.
     999900   -1    0    0    0    0 -0.00000000000E+00 -0.00000000000E+00 -0.74505805969E-08  0.93827000000E+00  0.93827000000E+00 0. -1.
     999902    2    1    2    0    0  0.17416063686E-01 -0.15729848243E-01 -0.43779049552E-02  0.10200571398E+01  0.10197777479E+01 0.  0.
     999903    2    3    3    0    0 -0.30254760623E-01 -0.12473687772E+00  0.21384176307E-01  0.13167730847E+00  0.20174027008E-01 0.  0.
         14    1    1    2    0    0 -0.17416063686E-01  0.15729848243E-01  0.43779049552E-02  0.23872860152E-01  0.00000000000E+00 0.  1.
     999901    1    3    3    0    0  0.47670824309E-01  0.10900702948E+00 -0.25762081263E-01  0.88837983138E+00  0.88000000000E+00 0. -1.
        -11    1    4    4    0    0  0.24361103060E-02 -0.16300017211E-01  0.50630374678E-02  0.17248787317E-01  0.51100000000E-03 0.  1.
         11    1    4    4    0    0 -0.32690870929E-01 -0.10843686051E+00  0.16321138840E-01  0.11442852115E+00  0.51100000000E-03 0. -1.
</event>
<event>
 8    1  0.1116619E+005  0.1043930E+01  0.7957747E-01            NaN
         13   -1    0    0    0    0  0.00000000000E+00  0.00000000000E+00  0.74505805969E-08  0.10566000000E+00  0.10566000000E+00 0. -1.
     999900   -1    0    0    0    0 -0.00000000000E+00 -0.00000000000E+00 -0.74505805969E-08  0.93827000000E+00  0.93827000000E+00 0. -1.
     999902    2    1    2    0    0 -0.20287383176E-02  0.58645876213E-02 -0.21264494321E-01  0.10217785241E+01  0.10215383812E+01 0.  0.
     999903    2    3    3    0    0 -0.44666222006E-01  0.30080912967E-01  0.11589587704E+00  0.12980467193E+00  0.22747875232E-01 0.  0.
         14    1    1    2    0    0  0.20287383176E-02 -0.58645876213E-02  0.21264494321E-01  0.22151475930E-01  0.00000000000E+00 0. -1.
     999901    1    3    3    0    0  0.42637483689E-01 -0.24216325346E-01 -0.13716037136E+00  0.89197385214E+00  0.88000000000E+00 0. -1.
        -11    1    4    4    0    0 -0.11164533871E-01  0.20905631682E-01  0.45628824570E-01  0.51419286316E-01  0.51100000000E-03 0. -1.
         11    1    4    4    0    0 -0.33501688135E-01  0.91752812845E-02  0.70267052468E-01  0.78385385615E-01  0.51100000000E-03 0.  1.
</event>
<event>
 8    1  0.1116619E+005  0.1043930E+01  0.7957747E-01            NaN
         13   -1    0    0    0    0  0.00000000000E+00  0.00000000000E+00  0.74505805969E-08  0.10566000000E+00  0.10566000000E+00 0. -1.
     999900   -1    0    0    0    0 -0.00000000000E+00 -0.00000000000E+00 -0.74505805969E-08  0.93827000000E+00  0.93827000000E+00 0. -1.
     999902    2    1    2    0    0 -0.10903430265E-02 -0.16471349273E-01  0.16482482524E-01  0.10206026250E+01  0.10203359994E+01 0.  0.
     999903    2    3    3    0    0  0.70968877031E-01 -0.36229943795E-01  0.10409153610E+00  0.13310148160E+00  0.23060055959E-01 0.  0.
         14    1    1    2    0    0  0.10903430265E-02  0.16471349273E-01 -0.16482482524E-01  0.23327375012E-01  0.00000000000E+00 0.  1.
     999901    1    3    3    0    0 -0.72059220058E-01  0.19758594522E-01 -0.87609053577E-01  0.88750114339E+00  0.88000000000E+00 0. -1.
        -11    1    4    4    0    0  0.31020945044E-01 -0.26158101035E-01  0.40526822112E-01  0.57351806534E-01  0.51100000000E-03 0.  1.
         11    1    4    4    0    0  0.39947931987E-01 -0.10071842761E-01  0.63564713989E-01  0.75749675063E-01  0.51100000000E-03 0. -1.
</event>
<event>
 8    1  0.1116619E+005  0.1043930E+01  0.7957747E-01            NaN
         13   -1    0    0    0    0  0.00000000000E+00  0.00000000000E+00  0.74505805969E-08  0.10566000000E+00  0.10566000000E+00 0. -1.
     999900   -1    0    0    0    0 -0.00000000000E+00 -0.00000000000E+00 -0.74505805969E-08  0.93827000000E+00  0.93827000000E+00 0. -1.
     999902    2    1    2    0    0 -0.44074276892E-02  0.19912186908E-01 -0.11881297917E-01  0.10203273339E+01  0.10200543037E+01 0.  0.
     999903    2    3    3    0    0  0.74773789392E-01 -0.10174767631E+00 -0.11120659266E-01  0.12843531913E+00  0.20694272726E-01 0.  0.
         14    1    1    2    0    0  0.44074276892E-02 -0.19912186908E-01  0.11881297917E-01  0.23602666088E-01  0.00000000000E+00 0.  1.
     999901    1    3    3    0    0 -0.79181217081E-01  0.12165986322E+00 -0.76063865066E-03  0.89189201478E+00  0.88000000000E+00 0. -1.
        -11    1    4    4    0    0  0.69649998856E-01 -0.82251919251E-01 -0.88578833422E-02  0.10814445792E+00  0.51100000000E-03 0. -1.
         11    1    4    4    0    0  0.51237905363E-02 -0.19495757058E-01 -0.22627759238E-02  0.20290861209E-01  0.51100000000E-03 0.  1.
</event>
<event>
 8    1  0.1116619E+005  0.1043930E+01  0.7957747E-01            NaN
         13   -1    0    0    0    0  0.00000000000E+00  0.00000000000E+00  0.74505805969E-08  0.10566000000E+00  0.10566000000E+00 0.  1.
     999900   -1    0    0    0    0 -0.00000000000E+00 -0.00000000000E+00 -0.74505805969E-08  0.93827000000E+00  0.93827000000E+00 0. -1.
     999902    2    1    2    0    0 -0.16125085862E-01 -0.86255926257E-02  0.13474391162E-01  0.10212148408E+01  0.10209621798E+01 0.  0.
     999903    2    3    3    0    0 -0.91183761584E-01 -0.33601767575E-01  0.90615195031E-01  0.13430542163E+00  0.19577424447E-01 0.  0.
         14    1    1    2    0    0  0.16125085862E-01  0.86255926257E-02 -0.13474391162E-01  0.22715159242E-01  0.00000000000E+00 0.  1.
     999901    1    3    3    0    0  0.75058675722E-01  0.24976174950E-01 -0.77140803869E-01  0.88690941913E+00  0.88000000000E+00 0. -1.
        -11    1    4    4    0    0 -0.35336705234E-01 -0.16651908373E-01  0.48779766839E-01  0.62495564348E-01  0.51100000000E-03 0. -1.
         11    1    4    4    0    0 -0.55847056350E-01 -0.16949859202E-01  0.41835428192E-01  0.71809857282E-01  0.51100000000E-03 0.  1.
</event>
<event>
 8    1  0.1116619E+005  0.1043930E+01  0.7957747E-01            NaN
         13   -1    0    0    0    0  0.00000000000E+00  0.00000000000E+00  0.74505805969E-08  0.10566000000E+00  0.10566000000E+00 0.  1.
     999900   -1    0    0    0    0 -0.00000000000E+00 -0.00000000000E+00 -0.74505805969E-08  0.93827000000E+00  0.93827000000E+00 0.  1.
     999902    2    1    2    0    0 -0.55090164031E-02  0.14187436780E-01  0.16119104365E-01  0.10217611446E+01  0.10215206207E+01 0.  0.
     999903    2    3    3    0    0  0.75022234733E-01 -0.33945159004E-01 -0.97870613843E-01  0.12946316464E+00  0.20036077973E-01 0.  0.
         14    1    1    2    0    0  0.55090164031E-02 -0.14187436780E-01 -0.16119104365E-01  0.22168855398E-01  0.00000000000E+00 0. -1.
     999901    1    3    3    0    0 -0.80531251137E-01  0.48132595784E-01  0.11398971821E+00  0.89229797996E+00  0.88000000000E+00 0. -1.
        -11    1    4    4    0    0  0.23526918963E-01 -0.18668015846E-01 -0.44910052889E-01  0.54029479944E-01  0.51100000000E-03 0. -1.
         11    1    4    4    0    0  0.51495315770E-01 -0.15277143158E-01 -0.52960560954E-01  0.75433684697E-01  0.51100000000E-03 0.  1.
</event>
<event>
 8    1  0.1116619E+005  0.1043930E+01  0.7957747E-01            NaN
         13   -1    0    0    0    0  0.00000000000E+00  0.00000000000E+00  0.74505805969E-08  0.10566000000E+00  0.10566000000E+00 0.  1.
     999900   -1    0    0    0    0 -0.00000000000E+00 -0.00000000000E+00 -0.74505805969E-08  0.93827000000E+00  0.93827000000E+00 0.  1.
     999902    2    1    2    0    0 -0.20821245782E-01  0.11396214909E-01  0.82087907149E-03  0.10201798035E+01  0.10199033090E+01 0.  0.
     999903    2    3    3    0    0  0.16098421620E-01  0.10119170502E+00  0.79660116482E-01  0.13133678182E+00  0.20117051401E-01 0.  0.
         14    1    1    2    0    0  0.20821245782E-01 -0.11396214909E-01 -0.82087907149E-03  0.23750196476E-01  0.00000000000E+00 0. -1.
     999901    1    3    3    0    0 -0.36919667403E-01 -0.89795490107E-01 -0.78839237411E-01  0.88884302171E+00  0.88000000000E+00 0. -1.
        -11    1    4    4    0    0  0.20582933830E-02  0.71481581139E-01  0.56312762947E-01  0.91023301443E-01  0.51100000000E-03 0. -1.
         11    1    4    4    0    0  0.14040128237E-01  0.29710123876E-01  0.23347353535E-01  0.40313480373E-01  0.51100000000E-03 0.  1.
</event>
<event>
 8    1  0.1116619E+005  0.1043930E+01  0.7957747E-01            NaN
         13   -1    0    0    0    0  0.00000000000E+00  0.00000000000E+00  0.74505805969E-08  0.10566000000E+00  0.10566000000E+00 0.  1.
     999900   -1    0    0    0    0 -0.00000000000E+00 -0.00000000000E+00 -0.74505805969E-08  0.93827000000E+00  0.93827000000E+00 0.  1.
     999902    2    1    2    0    0 -0.10336039704E-01  0.15118565008E-01 -0.15036076273E-01  0.10202342554E+01  0.10199590421E+01 0.  0.
     999903    2    3    3    0    0  0.42005785317E-01 -0.10680753219E+00 -0.56088186852E-01  0.12934093087E+00  0.20269601919E-01 0.  0.
         14    1    1    2    0    0  0.10336039704E-01 -0.15118565008E-01  0.15036076273E-01  0.23695744646E-01  0.00000000000E+00 0. -1.
     999901    1    3    3    0    0 -0.52341825021E-01  0.12192609720E+00  0.41052110579E-01  0.89089332448E+00  0.88000000000E+00 0.  1.
        -11    1    4    4    0    0  0.52609102207E-02 -0.37511640060E-01 -0.14516494331E-01  0.40568337962E-01  0.51100000000E-03 0. -1.
         11    1    4    4    0    0  0.36744875096E-01 -0.69295892129E-01 -0.41571692522E-01  0.88772592910E-01  0.51100000000E-03 0.  1.
</event>
<event>
 8    1  0.1116619E+005  0.1043930E+01  0.7957747E-01            NaN
         13   -1    0    0    0    0  0.00000000000E+00  0.00000000000E+00  0.74505805969E-08  0.10566000000E+00  0.10566000000E+00 0. -1.
     999900   -1    0    0    0    0 -0.00000000000E+00 -0.00000000000E+00 -0.74505805969E-08  0.93827000000E+00  0.93827000000E+00 0. -1.
     999902    2    1    2    0    0 -0.21182502508E-01 -0.88418884944E-02 -0.23104506446E-01  0.10113616776E+01  0.10108371517E+01 0.  0.
     999903    2    3    3    0    0 -0.10277975509E+00  0.10129656186E-01 -0.69475939553E-01  0.12616772094E+00  0.20617944568E-01 0.  0.
         14    1    1    2    0    0  0.21182502508E-01  0.88418884944E-02  0.23104506446E-01  0.32568322382E-01  0.00000000000E+00 0. -1.
     999901    1    3    3    0    0  0.81597252585E-01 -0.18971544680E-01  0.46371433107E-01  0.88519395668E+00  0.88000000000E+00 0. -1.
        -11    1    4    4    0    0 -0.47307275697E-01  0.73675599353E-03 -0.20471068613E-01  0.51554310338E-01  0.51100000000E-03 0.  1.
         11    1    4    4    0    0 -0.55472479396E-01  0.93929001920E-02 -0.49004870940E-01  0.74613410598E-01  0.51100000000E-03 0. -1.
</event>
<event>
 8    1  0.1116619E+005  0.1043930E+01  0.7957747E-01            NaN
         13   -1    0    0    0    0  0.00000000000E+00  0.00000000000E+00  0.74505805969E-08  0.10566000000E+00  0.10566000000E+00 0. -1.
     999900   -1    0    0    0    0 -0.00000000000E+00 -0.00000000000E+00 -0.74505805969E-08  0.93827000000E+00  0.93827000000E+00 0.  1.
     999902    2    1    2    0    0  0.22979579608E-01 -0.12225621085E-02 -0.41421435794E-02  0.10205481034E+01  0.10202802155E+01 0.  0.
     999903    2    3    3    0    0  0.25870895433E-02 -0.94730069122E-01 -0.88543625127E-01  0.13134446099E+00  0.20758488712E-01 0.  0.
         14    1    1    2    0    0 -0.22979579608E-01  0.12225621085E-02  0.41421435794E-02  0.23381896640E-01  0.00000000000E+00 0. -1.
     999901    1    3    3    0    0  0.20392490065E-01  0.93507507013E-01  0.84401481548E-01  0.88920364237E+00  0.88000000000E+00 0. -1.
        -11    1    4    4    0    0  0.11651410564E-03 -0.10957545760E-01 -0.21045997807E-01  0.23733447481E-01  0.51100000000E-03 0. -1.
         11    1    4    4    0    0  0.24705754376E-02 -0.83772523361E-01 -0.67497627320E-01  0.10761101351E+00  0.51100000000E-03 0.  1.
</event>
<event>
 8    1  0.1116619E+005  0.1043930E+01  0.7957747E-01            NaN
         13   -1    0    0    0    0  0.00000000000E+00  0.00000000000E+00  0.74505805969E-08  0.10566000000E+00  0.10566000000E+00 0. -1.
     999900   -1    0    0    0    0 -0.00000000000E+00 -0.00000000000E+00 -0.74505805969E-08  0.93827000000E+00  0.93827000000E+00 0. -1.
     999902    2    1    2    0    0  0.11706671558E-01 -0.15378264343E-02  0.16744864411E-01  0.10234409406E+01  0.10232358269E+01 0.  0.
     999903    2    3    3    0    0  0.62533385671E-01 -0.10863864138E+00 -0.41642943154E-01  0.13357405425E+00  0.19877488032E-01 0.  0.
         14    1    1    2    0    0 -0.11706671558E-01  0.15378264343E-02 -0.16744864411E-01  0.20489059355E-01  0.00000000000E+00 0.  1.
     999901    1    3    3    0    0 -0.50826714113E-01  0.10710081494E+00  0.58387807565E-01  0.88986688639E+00  0.88000000000E+00 0.  1.
        -11    1    4    4    0    0  0.52123403202E-01 -0.74396821661E-01 -0.33852048407E-01  0.96943068535E-01  0.51100000000E-03 0.  1.
         11    1    4    4    0    0  0.10409982469E-01 -0.34241819718E-01 -0.77908947473E-02  0.36630985716E-01  0.51100000000E-03 0. -1.
</event>
<event>
 8    1  0.1116619E+005  0.1043930E+01  0.7957747E-01            NaN
         13   -1    0    0    0    0  0.00000000000E+00  0.00000000000E+00  0.74505805969E-08  0.10566000000E+00  0.10566000000E+00 0.  1.
     999900   -1    0    0    0    0 -0.00000000000E+00 -0.00000000000E+00 -0.74505805969E-08  0.93827000000E+00  0.93827000000E+00 0. -1.
     999902    2    1    2    0    0  0.15997015320E-01  0.15928914195E-01  0.69501046166E-02  0.10203092726E+01  0.10200358195E+01 0.  0.
     999903    2    3    3    0    0 -0.90475651325E-01  0.88904542972E-01  0.24184592094E-01  0.13072571912E+00  0.20358239160E-01 0.  0.
         14    1    1    2    0    0 -0.15997015320E-01 -0.15928914195E-01 -0.69501046166E-02  0.23620727355E-01  0.00000000000E+00 0. -1.
     999901    1    3    3    0    0  0.10647266665E+00 -0.72975628778E-01 -0.17234487478E-01  0.88958355352E+00  0.88000000000E+00 0. -1.
        -11    1    4    4    0    0 -0.43501482166E-01  0.47486682943E-01  0.22012245568E-01  0.68060003552E-01  0.51100000000E-03 0. -1.
         11    1    4    4    0    0 -0.46974169159E-01  0.41417860029E-01  0.21723465260E-02  0.62665715571E-01  0.51100000000E-03 0.  1.
</event>
<event>
 8    1  0.1116619E+005  0.1043930E+01  0.7957747E-01            NaN
         13   -1    0    0    0    0  0.00000000000E+00  0.00000000000E+00  0.74505805969E-08  0.10566000000E+00  0.10566000000E+00 0. -1.
     999900   -1    0    0    0    0 -0.00000000000E+00 -0.00000000000E+00 -0.74505805969E-08  0.93827000000E+00  0.93827000000E+00 0. -1.
     999902    2    1    2    0    0 -0.23415638678E-01  0.20528221470E-01 -0.23567744815E-02  0.10127009367E+01  0.10122193106E+01 0.  0.
     999903    2    3    3    0    0 -0.68211822525E-01 -0.74842054897E-01  0.66873606128E-01  0.12371554122E+00  0.24068029182E-01 0.  0.
         14    1    1    2    0    0  0.23415638678E-01 -0.20528221470E-01  0.23567744815E-02  0.31229063345E-01  0.00000000000E+00 0. -1.
     999901    1    3    3    0    0  0.44796183847E-01  0.95370276367E-01 -0.69230380610E-01  0.88898539544E+00  0.88000000000E+00 0. -1.
        -11    1    4    4    0    0 -0.27948353008E-01 -0.18454801283E-01  0.12931603020E-01  0.35905119466E-01  0.51100000000E-03 0. -1.
         11    1    4    4    0    0 -0.40263469518E-01 -0.56387253615E-01  0.53942003108E-01  0.87810421751E-01  0.51100000000E-03 0.  1.
</event>
<event>
 8    1  0.1116619E+005  0.1043930E+01  0.7957747E-01            NaN
         13   -1    0    0    0    0  0.00000000000E+00  0.00000000000E+00  0.74505805969E-08  0.10566000000E+00  0.10566000000E+00 0.  1.
     999900   -1    0    0    0    0 -0.00000000000E+00 -0.00000000000E+00 -0.74505805969E-08  0.93827000000E+00  0.93827000000E+00 0. -1.
     999902    2    1    2    0    0 -0.20042390454E-01  0.11931112041E-01 -0.39466866130E-03  0.10206018065E+01  0.10203351620E+01 0.  0.
     999903    2    3    3    0    0  0.94385584765E-01  0.15816628428E-01  0.84046701791E-01  0.12917642890E+00  0.21538276502E-01 0.  0.
         14    1    1    2    0    0  0.20042390454E-01 -0.11931112041E-01  0.39466866130E-03  0.23328193522E-01  0.00000000000E+00 0. -1.
     999901    1    3    3    0    0 -0.11442797522E+00 -0.38855163872E-02 -0.84441370452E-01  0.89142537758E+00  0.88000000000E+00 0. -1.
        -11    1    4    4    0    0  0.40646043676E-01 -0.21561052481E-02  0.27521719563E-01  0.49137112503E-01  0.51100000000E-03 0. -1.
         11    1    4    4    0    0  0.53739541088E-01  0.17972733677E-01  0.56524982227E-01  0.80039316395E-01  0.51100000000E-03 0.  1.
</event>
<event>
 8    1  0.1116619E+005  0.1043930E+01  0.7957747E-01            NaN
         13   -1    0    0    0    0  0.00000000000E+00  0.00000000000E+00  0.74505805969E-08  0.10566000000E+00  0.10566000000E+00 0.  1.
     999900   -1    0    0    0    0 -0.00000000000E+00 -0.00000000000E+00 -0.74505805969E-08  0.93827000000E+00  0.93827000000E+00 0.  1.
     999902    2    1    2    0    0 -0.76437015640E-02  0.17785771403E-01  0.14415982827E-01  0.10197932977E+01  0.10195076212E+01 0.  0.
     999903    2    3    3    0    0 -0.63060350546E-02  0.97490320351E-01 -0.83436234409E-01  0.13078842655E+00  0.24492420600E-01 0.  0.
         14    1    1    2    0    0  0.76437015640E-02 -0.17785771403E-01 -0.14415982827E-01  0.24136702320E-01  0.00000000000E+00 0.  1.
     999901    1    3    3    0    0 -0.13376665095E-02 -0.79704548947E-01  0.97852217236E-01  0.88900487113E+00  0.88000000000E+00 0. -1.
        -11    1    4    4    0    0 -0.15905621967E-02  0.95103757636E-01 -0.81053090275E-01  0.12496847270E+00  0.51100000000E-03 0.  1.
         11    1    4    4    0    0 -0.47154728579E-02  0.23865627143E-02 -0.23831441348E-02  0.58199538511E-02  0.51100000000E-03 0. -1.
</event>
<event>
 8    1  0.1116619E+005  0.1043930E+01  0.7957747E-01            NaN
         13   -1    0    0    0    0  0.00000000000E+00  0.00000000000E+00  0.74505805969E-08  0.10566000000E+00  0.10566000000E+00 0.  1.
     999900   -1    0    0    0    0 -0.00000000000E+00 -0.00000000000E+00 -0.74505805969E-08  0.93827000000E+00  0.93827000000E+00 0.  1.
     999902    2    1    2    0    0 -0.20936742448E-01 -0.23989433110E-02  0.10743427597E-01  0.10202757541E+01  0.10200015152E+01 0.  0.
     999903    2    3    3    0    0 -0.51081610658E-01  0.59951937986E-01 -0.10199011108E+00  0.13038520114E+00  0.19868369410E-01 0.  0.
         14    1    1    2    0    0  0.20936742448E-01  0.23989433110E-02 -0.10743427597E-01  0.23654245916E-01  0.00000000000E+00 0.  1.
     999901    1    3    3    0    0  0.30144868210E-01 -0.62350881297E-01  0.11273353867E+00  0.88989055294E+00  0.88000000000E+00 0. -1.
        -11    1    4    4    0    0 -0.75897499422E-02  0.22490780702E-01 -0.32587956095E-01  0.40319666718E-01  0.51100000000E-03 0.  1.
         11    1    4    4    0    0 -0.43491860716E-01  0.37461157284E-01 -0.69402154981E-01  0.90065534422E-01  0.51100000000E-03 0. -1.
</event>
<event>
 8    1  0.1116619E+005  0.1043930E+01  0.7957747E-01            NaN
         13   -1    0    0    0    0  0.00000000000E+00  0.00000000000E+00  0.74505805969E-08  0.10566000000E+00  0.10566000000E+00 0. -1.
     999900   -1    0    0    0    0 -0.00000000000E+00 -0.00000000000E+00 -0.74505805969E-08  0.93827000000E+00  0.93827000000E+00 0.  1.
     999902    2    1    2    0    0  0.19366241946E-01  0.10591828558E-01 -0.78776961405E-02  0.10204929299E+01  0.10202237616E+01 0.  0.
     999903    2    3    3    0    0  0.25243235362E-01 -0.80858823305E-01  0.94773803157E-01  0.12979932875E+00  0.26275877579E-01 0.  0.
         14    1    1    2    0    0 -0.19366241946E-01 -0.10591828558E-01  0.78776961405E-02  0.23437070120E-01  0.00000000000E+00 0. -1.
     999901    1    3    3    0    0 -0.58769934169E-02  0.91450651863E-01 -0.10265149930E+00  0.89069360113E+00  0.88000000000E+00 0.  1.
        -11    1    4    4    0    0  0.85402084764E-03 -0.32955450762E-01  0.49722601776E-01  0.59660617956E-01  0.51100000000E-03 0. -1.
         11    1    4    4    0    0  0.24389214515E-01 -0.47903372543E-01  0.45051201381E-01  0.70138710799E-01  0.51100000000E-03 0.  1.
</event>
<event>
 8    1  0.1116619E+005  0.1043930E+01  0.7957747E-01            NaN
         13   -1    0    0    0    0  0.00000000000E+00  0.00000000000E+00  0.74505805969E-08  0.10566000000E+00  0.10566000000E+00 0. -1.
     999900   -1    0    0    0    0 -0.00000000000E+00 -0.00000000000E+00 -0.74505805969E-08  0.93827000000E+00  0.93827000000E+00 0. -1.
     999902    2    1    2    0    0 -0.12346626468E-01 -0.19112709677E-01  0.69007098152E-02  0.10201528124E+01  0.10198756816E+01 0.  0.
     999903    2    3    3    0    0  0.83134226117E-01  0.41050178123E-01  0.87857086851E-01  0.12925994491E+00  0.19820418081E-01 0.  0.
         14    1    1    2    0    0  0.12346626468E-01  0.19112709677E-01 -0.69007098152E-02  0.23777187644E-01  0.00000000000E+00 0.  1.
     999901    1    3    3    0    0 -0.95480852584E-01 -0.60162887800E-01 -0.80956377035E-01  0.89089286744E+00  0.88000000000E+00 0. -1.
        -11    1    4    4    0    0  0.10090976837E-01  0.10849475912E-01  0.77789121565E-02  0.16742506874E-01  0.51100000000E-03 0. -1.
         11    1    4    4    0    0  0.73043249279E-01  0.30200702212E-01  0.80078174694E-01  0.11251743804E+00  0.51100000000E-03 0.  1.
</event>
<event>
 8    1  0.1116619E+005  0.1043930E+01  0.7957747E-01            NaN
         13   -1    0    0    0    0  0.00000000000E+00  0.00000000000E+00  0.74505805969E-08  0.10566000000E+00  0.10566000000E+00 0. -1.
     999900   -1    0    0    0    0 -0.00000000000E+00 -0.00000000000E+00 -0.74505805969E-08  0.93827000000E+00  0.93827000000E+00 0. -1.
     999902    2    1    2    0    0 -0.22177760125E-01  0.12530236859E-02  0.87051339238E-02  0.10200720355E+01  0.10197929962E+01 0.  0.
     999903    2    3    3    0    0 -0.12930136467E+00 -0.22495848604E-01 -0.67466551521E-02  0.13312320195E+00  0.21245315520E-01 0.  0.
         14    1    1    2    0    0  0.22177760125E-01 -0.12530236859E-02 -0.87051339238E-02  0.23857964481E-01  0.00000000000E+00 0.  1.
     999901    1    3    3    0    0  0.10712360455E+00  0.23748872290E-01  0.15451789076E-01  0.88694883357E+00  0.88000000000E+00 0.  1.
        -11    1    4    4    0    0 -0.81289927084E-01 -0.16762878137E-01  0.56825340768E-02  0.83196145603E-01  0.51100000000E-03 0.  1.
         11    1    4    4    0    0 -0.48011437586E-01 -0.57329704669E-02 -0.12429189229E-01  0.49927056346E-01  0.51100000000E-03 0. -1.
</event>
<event>
 8    1  0.1116619E+005  0.1043930E+01  0.7957747E-01            NaN
         13   -1    0    0    0    0  0.00000000000E+00  0.00000000000E+00  0.74505805969E-08  0.10566000000E+00  0.10566000000E+00 0. -1.
     999900   -1    0    0    0    0 -0.00000000000E+00 -0.00000000000E+00 -0.74505805969E-08  0.93827000000E+00  0.93827000000E+00 0. -1.
     999902    2    1    2    0    0 -0.25669812762E-02  0.22959252262E-01  0.35950201616E-02  0.10205496487E+01  0.10202817967E+01 0.  0.
     999903    2    3    3    0    0 -0.42661926558E-01 -0.10627968315E+00 -0.54300749036E-01  0.12832645512E+00  0.20092205150E-01 0.  0.
         14    1    1    2    0    0  0.25669812762E-02 -0.22959252262E-01 -0.35950201616E-02  0.23380351307E-01  0.00000000000E+00 0.  1.
     999901    1    3    3    0    0  0.40094945282E-01  0.12923893542E+00  0.57895769198E-01  0.89222319358E+00  0.88000000000E+00 0. -1.
        -11    1    4    4    0    0 -0.24237760209E-02 -0.25935486568E-01 -0.16513033716E-01  0.30845835330E-01  0.51100000000E-03 0. -1.
         11    1    4    4    0    0 -0.40238150537E-01 -0.80344196587E-01 -0.37787715321E-01  0.97480619786E-01  0.51100000000E-03 0.  1.
</event>
<event>
 8    1  0.1116619E+005  0.1043930E+01  0.7957747E-01            NaN
         13   -1    0    0    0    0  0.00000000000E+00  0.00000000000E+00  0.74505805969E-08  0.10566000000E+00  0.10566000000E+00 0.  1.
     999900   -1    0    0    0    0 -0.00000000000E+00 -0.00000000000E+00 -0.74505805969E-08  0.93827000000E+00  0.93827000000E+00 0.  1.
     999902    2    1    2    0    0  0.95639826455E-02 -0.87167312175E-02  0.12293520004E-01  0.10260811401E+01  0.10259258863E+01 0.  0.
     999903    2    3    3    0    0  0.10830100707E-01 -0.10229064833E+00 -0.86172131703E-01  0.13565811386E+00  0.19920335228E-01 0.  0.
         14    1    1    2    0    0 -0.95639826455E-02  0.87167312175E-02 -0.12293520004E-01  0.17848859943E-01  0.00000000000E+00 0. -1.
     999901    1    3    3    0    0 -0.12661180614E-02  0.93573917116E-01  0.98465651707E-01  0.89042302620E+00  0.88000000000E+00 0. -1.
        -11    1    4    4    0    0  0.16120903564E-01 -0.71717995978E-01 -0.56383270388E-01  0.92642802092E-01  0.51100000000E-03 0. -1.
         11    1    4    4    0    0 -0.52908028570E-02 -0.30572652356E-01 -0.29788861315E-01  0.43015311766E-01  0.51100000000E-03 0.  1.
</event>
<event>
 8    1  0.1116619E+005  0.1043930E+01  0.7957747E-01            NaN
         13   -1    0    0    0    0  0.00000000000E+00  0.00000000000E+00  0.74505805969E-08  0.10566000000E+00  0.10566000000E+00 0. -1.
     999900   -1    0    0    0    0 -0.00000000000E+00 -0.00000000000E+00 -0.74505805969E-08  0.93827000000E+00  0.93827000000E+00 0. -1.
     999902    2    1    2    0    0  0.18182862591E-01 -0.81684207972E-02 -0.12760358857E-01  0.10202621664E+01  0.10199876086E+01 0.  0.
     999903    2    3    3    0    0 -0.11125488598E+00  0.12196505794E-02 -0.62780125585E-01  0.12933891283E+00  0.20200816890E-01 0.  0.
         14    1    1    2    0    0 -0.18182862591E-01  0.81684207972E-02  0.12760358857E-01  0.23667833624E-01  0.00000000000E+00 0. -1.
     999901    1    3    3    0    0  0.12943774857E+00 -0.93880713766E-02  0.50019766728E-01  0.89092325354E+00  0.88000000000E+00 0.  1.
        -11    1    4    4    0    0 -0.58750096492E-01  0.30156411537E-02 -0.44306107276E-01  0.73647540301E-01  0.51100000000E-03 0.  1.
         11    1    4    4    0    0 -0.52504789486E-01 -0.17959905744E-02 -0.18474018309E-01  0.55691372533E-01  0.51100000000E-03 0. -1.
</event>
<event>
 8    1  0.1116619E+005  0.1043930E+01  0.7957747E-01            NaN
         13   -1    0    0    0    0  0.00000000000E+00  0.00000000000E+00  0.74505805969E-08  0.10566000000E+00  0.10566000000E+00 0.  1.
     999900   -1    0    0    0    0 -0.00000000000E+00 -0.00000000000E+00 -0.74505805969E-08  0.93827000000E+00  0.93827000000E+00 0.  1.
     999902    2    1    2    0    0  0.12121722878E-01  0.19814840161E-01  0.27559274505E-02  0.10205385658E+01  0.10202704569E+01 0.  0.
     999903    2    3    3    0    0  0.74999538696E-01  0.82438902858E-01  0.71128159800E-01  0.13343645497E+00  0.18026893487E-01 0.  0.
         14    1    1    2    0    0 -0.12121722878E-01 -0.19814840161E-01 -0.27559274505E-02  0.23391434164E-01  0.00000000000E+00 0. -1.
     999901    1    3    3    0    0 -0.62877815818E-01 -0.62624062697E-01 -0.68372232349E-01  0.88710211087E+00  0.88000000000E+00 0.  1.
        -11    1    4    4    0    0  0.44037918294E-01  0.41050658187E-01  0.47068607214E-01  0.76421264654E-01  0.51100000000E-03 0. -1.
         11    1    4    4    0    0  0.30961620402E-01  0.41388244671E-01  0.24059552585E-01  0.57015190313E-01  0.51100000000E-03 0.  1.
</event>
<event>
 8    1  0.1116619E+005  0.1043930E+01  0.7957747E-01            NaN
         13   -1    0    0    0    0  0.00000000000E+00  0.00000000000E+00  0.74505805969E-08  0.10566000000E+00  0.10566000000E+00 0. -1.
     999900   -1    0    0    0    0 -0.00000000000E+00 -0.00000000000E+00 -0.74505805969E-08  0.93827000000E+00  0.93827000000E+00 0. -1.
     999902    2    1    2    0    0  0.52577701269E-02  0.27788269580E-01  0.74512337876E-02  0.10146835821E+01  0.10142620070E+01 0.  0.
     999903    2    3    3    0    0 -0.42441593980E-02  0.12225234128E+00 -0.34192626154E-01  0.12859783088E+00  0.20115133243E-01 0.  0.
         14    1    1    2    0    0 -0.52577701269E-02 -0.27788269580E-01 -0.74512337876E-02  0.29246417865E-01  0.00000000000E+00 0.  1.
     999901    1    3    3    0    0  0.95019295249E-02 -0.94464071703E-01  0.41643859942E-01  0.88608575126E+00  0.88000000000E+00 0.  1.
        -11    1    4    4    0    0  0.34418425391E-02  0.53744482094E-01 -0.23791971413E-01  0.58878133975E-01  0.51100000000E-03 0. -1.
         11    1    4    4    0    0 -0.76860019371E-02  0.68507859189E-01 -0.10400654741E-01  0.69719696905E-01  0.51100000000E-03 0.  1.
</event>
<event>
 8    1  0.1116619E+005  0.1043930E+01  0.7957747E-01            NaN
         13   -1    0    0    0    0  0.00000000000E+00  0.00000000000E+00  0.74505805969E-08  0.10566000000E+00  0.10566000000E+00 0. -1.
     999900   -1    0    0    0    0 -0.00000000000E+00 -0.00000000000E+00 -0.74505805969E-08  0.93827000000E+00  0.93827000000E+00 0. -1.
     999902    2    1    2    0    0  0.15852801198E-02  0.23697964878E-01 -0.47332390991E-02  0.10197120272E+01  0.10194244005E+01 0.  0.
     999903    2    3    3    0    0 -0.19276541610E-01 -0.12360706406E+00 -0.10045437605E-01  0.12720869021E+00  0.20756895349E-01 0.  0.
         14    1    1    2    0    0 -0.15852801198E-02 -0.23697964878E-01  0.47332390991E-02  0.24217972764E-01  0.00000000000E+00 0. -1.
     999901    1    3    3    0    0  0.20861821729E-01  0.14730502894E+00  0.53121985064E-02  0.89250333703E+00  0.88000000000E+00 0.  1.
        -11    1    4    4    0    0 -0.19822274749E-02 -0.47940107226E-01 -0.12375076168E-01  0.49553877121E-01  0.51100000000E-03 0.  1.
         11    1    4    4    0    0 -0.17294314135E-01 -0.75666956837E-01  0.23296385622E-02  0.77654813084E-01  0.51100000000E-03 0. -1.
</event>
<event>
 8    1  0.1116619E+005  0.1043930E+01  0.7957747E-01            NaN
         13   -1    0    0    0    0  0.00000000000E+00  0.00000000000E+00  0.74505805969E-08  0.10566000000E+00  0.10566000000E+00 0. -1.
     999900   -1    0    0    0    0 -0.00000000000E+00 -0.00000000000E+00 -0.74505805969E-08  0.93827000000E+00  0.93827000000E+00 0.  1.
     999902    2    1    2    0    0  0.14888885916E-01  0.14825960927E-01 -0.20681720514E-01  0.10144474356E+01  0.10140189239E+01 0.  0.
     999903    2    3    3    0    0  0.44419125066E-01  0.61175654189E-01  0.97397657151E-01  0.12486153837E+00  0.19712453135E-01 0.  0.
         14    1    1    2    0    0 -0.14888885916E-01 -0.14825960927E-01  0.20681720514E-01  0.29482564417E-01  0.00000000000E+00 0. -1.
     999901    1    3    3    0    0 -0.29530239150E-01 -0.46349693263E-01 -0.11807937766E+00  0.88958589721E+00  0.88000000000E+00 0.  1.
        -11    1    4    4    0    0  0.22924158394E-01  0.40868965703E-01  0.46638434076E-01  0.66115006237E-01  0.51100000000E-03 0. -1.
         11    1    4    4    0    0  0.21494966672E-01  0.20306688487E-01  0.50759223074E-01  0.58746532133E-01  0.51100000000E-03 0.  1.
</event>
<event>
 8    1  0.1116619E+005  0.1043930E+01  0.7957747E-01            NaN
         13   -1    0    0    0    0  0.00000000000E+00  0.00000000000E+00  0.74505805969E-08  0.10566000000E+00  0.10566000000E+00 0. -1.
     999900   -1    0    0    0    0 -0.00000000000E+00 -0.00000000000E+00 -0.74505805969E-08  0.93827000000E+00  0.93827000000E+00 0. -1.
     999902    2    1    2    0    0  0.43990873957E-02  0.18687572275E-01 -0.13381555615E-01  0.10205282189E+01  0.10202598700E+01 0.  0.
     999903    2    3    3    0    0 -0.12489787837E+00 -0.23715679021E-01 -0.19594540049E-02  0.12999680145E+00  0.27081644602E-01 0.  0.
         14    1    1    2    0    0 -0.43990873957E-02 -0.18687572275E-01  0.13381555615E-01  0.23401781089E-01  0.00000000000E+00 0. -1.
     999901    1    3    3    0    0  0.12929696577E+00  0.42403251296E-01 -0.11422101610E-01  0.89053141746E+00  0.88000000000E+00 0. -1.
        -11    1    4    4    0    0 -0.31952508431E-01 -0.17493072906E-01  0.40081534257E-02  0.36651013760E-01  0.51100000000E-03 0.  1.
         11    1    4    4    0    0 -0.92945369941E-01 -0.62226061143E-02 -0.59676074306E-02  0.93345787691E-01  0.51100000000E-03 0. -1.
</event>
<event>
 8    1  0.1116619E+005  0.1043930E+01  0.7957747E-01            NaN
         13   -1    0    0    0    0  0.00000000000E+00  0.00000000000E+00  0.74505805969E-08  0.10566000000E+00  0.10566000000E+00 0.  1.
     999900   -1    0    0    0    0 -0.00000000000E+00 -0.00000000000E+00 -0.74505805969E-08  0.93827000000E+00  0.93827000000E+00 0. -1.
     999902    2    1    2    0    0 -0.23819439111E-01  0.29460820735E-02  0.59335273304E-02  0.10192064924E+01  0.10189065818E+01 0.  0.
     999903    2    3    3    0    0 -0.40063355365E-01  0.12156139768E+00 -0.18865932073E-01  0.13075363996E+00  0.18930005774E-01 0.  0.
         14    1    1    2    0    0  0.23819439111E-01 -0.29460820735E-02 -0.59335273304E-02  0.24723507553E-01  0.00000000000E+00 0. -1.
     999901    1    3    3    0    0  0.16243916254E-01 -0.11861531561E+00  0.24799459403E-01  0.88845285249E+00  0.88000000000E+00 0.  1.
        -11    1    4    4    0    0 -0.31681949659E-01  0.82199847698E-01 -0.51974214417E-02  0.88248712208E-01  0.51100000000E-03 0. -1.
         11    1    4    4    0    0 -0.83814057058E-02  0.39361549987E-01 -0.13668510631E-01  0.42504927747E-01  0.51100000000E-03 0.  1.
</event>
<event>
 8    1  0.1116619E+005  0.1043930E+01  0.7957747E-01            NaN
         13   -1    0    0    0    0  0.00000000000E+00  0.00000000000E+00  0.74505805969E-08  0.10566000000E+00  0.10566000000E+00 0.  1.
     999900   -1    0    0    0    0 -0.00000000000E+00 -0.00000000000E+00 -0.74505805969E-08  0.93827000000E+00  0.93827000000E+00 0. -1.
     999902    2    1    2    0    0  0.24026425348E-03  0.93658055351E-02 -0.24038242542E-01  0.10181305205E+01  0.10178035879E+01 0.  0.
     999903    2    3    3    0    0 -0.47444722867E-01  0.34190876776E-01  0.11015860490E+00  0.12633517621E+00  0.20140524576E-01 0.  0.
         14    1    1    2    0    0 -0.24026425348E-03 -0.93658055351E-02  0.24038242542E-01  0.25799479544E-01  0.00000000000E+00 0.  1.
     999901    1    3    3    0    0  0.47684987120E-01 -0.24825071240E-01 -0.13419684745E+00  0.89179534425E+00  0.88000000000E+00 0. -1.
        -11    1    4    4    0    0 -0.43913432765E-01  0.36518403464E-01  0.10584678925E+00  0.12027380132E+00  0.51100000000E-03 0.  1.
         11    1    4    4    0    0 -0.35312901014E-02 -0.23275266881E-02  0.43118156535E-02  0.60613748848E-02  0.51100000000E-03 0. -1.
</event>
<event>
 8    1  0.1116619E+005  0.1043930E+01  0.7957747E-01            NaN
         13   -1    0    0    0    0  0.00000000000E+00  0.00000000000E+00  0.74505805969E-08  0.10566000000E+00  0.10566000000E+00 0.  1.
     999900   -1    0    0    0    0 -0.00000000000E+00 -0.00000000000E+00 -0.74505805969E-08  0.93827000000E+00  0.93827000000E+00 0. -1.
     999902    2    1    2    0    0  0.24313973273E-02 -0.41580907259E-02  0.23194990666E-01  0.10202401498E+01  0.10199650750E+01 0.  0.
     999903    2    3    3    0    0 -0.92571362050E-01  0.25613229811E-01 -0.82107268098E-01  0.12838790780E+00  0.22723485266E-01 0.  0.
         14    1    1    2    0    0 -0.24313973273E-02  0.41580907259E-02 -0.23194990666E-01  0.23689850220E-01  0.00000000000E+00 0. -1.
     999901    1    3    3    0    0  0.95002759378E-01 -0.29771320537E-01  0.10530225876E+00  0.89185224198E+00  0.88000000000E+00 0.  1.
        -11    1    4    4    0    0 -0.30500153236E-01  0.63522617686E-02 -0.40960851963E-01  0.51465163864E-01  0.51100000000E-03 0. -1.
         11    1    4    4    0    0 -0.62071208814E-01  0.19260968043E-01 -0.41146416136E-01  0.76922743941E-01  0.51100000000E-03 0.  1.
</event>
<event>
 8    1  0.1116619E+005  0.1043930E+01  0.7957747E-01            NaN
         13   -1    0    0    0    0  0.00000000000E+00  0.00000000000E+00  0.74505805969E-08  0.10566000000E+00  0.10566000000E+00 0. -1.
     999900   -1    0    0    0    0 -0.00000000000E+00 -0.00000000000E+00 -0.74505805969E-08  0.93827000000E+00  0.93827000000E+00 0. -1.
     999902    2    1    2    0    0 -0.18758429544E-01 -0.95935342895E-02 -0.83648261417E-02  0.10212609706E+01  0.10210093462E+01 0.  0.
     999903    2    3    3    0    0  0.80831672001E-01 -0.94757135008E-01 -0.35648630438E-01  0.13113994891E+00  0.20351597359E-01 0.  0.
         14    1    1    2    0    0  0.18758429544E-01  0.95935342895E-02  0.83648261417E-02  0.22669029435E-01  0.00000000000E+00 0. -1.
     999901    1    3    3    0    0 -0.99590101545E-01  0.85163600718E-01  0.27283804296E-01  0.89012102165E+00  0.88000000000E+00 0.  1.
        -11    1    4    4    0    0  0.46046455669E-01 -0.53023638189E-01 -0.95838440074E-02  0.70879429127E-01  0.51100000000E-03 0.  1.
         11    1    4    4    0    0  0.34785216332E-01 -0.41733496819E-01 -0.26064786430E-01  0.60260519784E-01  0.51100000000E-03 0. -1.
</event>
<event>
 8    1  0.1116619E+005  0.1043930E+01  0.7957747E-01            NaN
         13   -1    0    0    0    0  0.00000000000E+00  0.00000000000E+00  0.74505805969E-08  0.10566000000E+00  0.10566000000E+00 0.  1.
     999900   -1    0    0    0    0 -0.00000000000E+00 -0.00000000000E+00 -0.74505805969E-08  0.93827000000E+00  0.93827000000E+00 0.  1.
     999902    2    1    2    0    0  0.44548676471E-02 -0.22833290910E-01 -0.80566793460E-03  0.10206522398E+01  0.10203867602E+01 0.  0.
     999903    2    3    3    0    0  0.83759655547E-01  0.77395774924E-01  0.57599023458E-01  0.12950341776E+00  0.21158965850E-01 0.  0.
         14    1    1    2    0    0 -0.44548676471E-02  0.22833290910E-01  0.80566793460E-03  0.23277760209E-01  0.00000000000E+00 0.  1.
     999901    1    3    3    0    0 -0.79304787900E-01 -0.10022906583E+00 -0.58404691393E-01  0.89114882203E+00  0.88000000000E+00 0.  1.
        -11    1    4    4    0    0  0.21689885240E-01  0.31672669008E-01  0.13547692624E-01  0.40711302857E-01  0.51100000000E-03 0.  1.
         11    1    4    4    0    0  0.62069770307E-01  0.45723105916E-01  0.44051330834E-01  0.88792114908E-01  0.51100000000E-03 0. -1.
</event>
<event>
 8    1  0.1116619E+005  0.1043930E+01  0.7957747E-01            NaN
         13   -1    0    0    0    0  0.00000000000E+00  0.00000000000E+00  0.74505805969E-08  0.10566000000E+00  0.10566000000E+00 0. -1.
     999900   -1    0    0    0    0 -0.00000000000E+00 -0.00000000000E+00 -0.74505805969E-08  0.93827000000E+00  0.93827000000E+00 0.  1.
     999902    2    1    2    0    0  0.13228824900E-01  0.15676818301E-01  0.11447552630E-01  0.10204393444E+01  0.10201689295E+01 0.  0.
     999903    2    3    3    0    0  0.64893644839E-01  0.10796441191E+00  0.40070437104E-01  0.13364425922E+00  0.19688796614E-01 0.  0.
         14    1    1    2    0    0 -0.13228824900E-01 -0.15676818301E-01 -0.11447552630E-01  0.23490655620E-01  0.00000000000E+00 0.  1.
     999901    1    3    3    0    0 -0.51664819939E-01 -0.92287593610E-01 -0.28622884474E-01  0.88679508516E+00  0.88000000000E+00 0. -1.
        -11    1    4    4    0    0  0.29212108221E-02  0.17999970015E-01  0.62653540061E-02  0.19288550361E-01  0.51100000000E-03 0.  1.
         11    1    4    4    0    0  0.61972434017E-01  0.89964441896E-01  0.33805083098E-01  0.11435570886E+00  0.51100000000E-03 0. -1.
</event>
<event>
 8    1  0.1116619E+005  0.1043930E+01  0.7957747E-01            NaN
         13   -1    0    0    0    0  0.00000000000E+00  0.00000000000E+00  0.74505805969E-08  0.10566000000E+00  0.10566000000E+00 0.  1.
     999900   -1    0    0    0    0 -0.00000000000E+00 -0.00000000000E+00 -0.74505805969E-08  0.93827000000E+00  0.93827000000E+00 0. -1.
     999902    2    1    2    0    0 -0.42441375764E-02  0.38684042384E-02 -0.22824551263E-01  0.10203941254E+01  0.10201226562E+01 0.  0.
     999903    2    3    3    0    0 -0.77428451458E-01 -0.10332623028E+00  0.30868154334E-02  0.13049636022E+00  0.18662707260E-01 0.  0.
         14    1    1    2    0    0  0.42441375764E-02 -0.38684042384E-02  0.22824551263E-01  0.23535874648E-01  0.00000000000E+00 0.  1.
     999901    1    3    3    0    0  0.73184313882E-01  0.10719463451E+00 -0.25911366696E-01  0.88989776513E+00  0.88000000000E+00 0.  1.
        -11    1    4    4    0    0 -0.53258686013E-01 -0.65063048259E-01 -0.61330455696E-02  0.84306365439E-01  0.51100000000E-03 0.  1.
         11    1    4    4    0    0 -0.24169765445E-01 -0.38263182017E-01  0.92198610029E-02  0.46189994779E-01  0.51100000000E-03 0. -1.
</event>
<event>
 8    1  0.1116619E+005  0.1043930E+01  0.7957747E-01            NaN
         13   -1    0    0    0    0  0.00000000000E+00  0.00000000000E+00  0.74505805969E-08  0.10566000000E+00  0.10566000000E+00 0. -1.
     999900   -1    0    0    0    0 -0.00000000000E+00 -0.00000000000E+00 -0.74505805969E-08  0.93827000000E+00  0.93827000000E+00 0.  1.
     999902    2    1    2    0    0 -0.19049926851E-01  0.53329144122E-02  0.12596290835E-01  0.10204777883E+01  0.10202082681E+01 0.  0.
     999903    2    3    3    0    0  0.72892320438E-01 -0.10171869990E+00 -0.21397293904E-01  0.12858710626E+00  0.20416057950E-01 0.  0.
         14    1    1    2    0    0  0.19049926851E-01 -0.53329144122E-02 -0.12596290835E-01  0.23452211664E-01  0.00000000000E+00 0.  1.
     999901    1    3    3    0    0 -0.91942247290E-01  0.10705161431E+00  0.33993584739E-01  0.89189068207E+00  0.88000000000E+00 0.  1.
        -11    1    4    4    0    0  0.66036094500E-01 -0.80240043955E-01 -0.21056193781E-01  0.10603232926E+00  0.51100000000E-03 0. -1.
         11    1    4    4    0    0  0.68562259379E-02 -0.21478655946E-01 -0.34110012329E-03  0.22554777003E-01  0.51100000000E-03 0.  1.
</event>
<event>
 8    1  0.1116619E+005  0.1043930E+01  0.7957747E-01            NaN
         13   -1    0    0    0    0  0.00000000000E+00  0.00000000000E+00  0.74505805969E-08  0.10566000000E+00  0.10566000000E+00 0. -1.
     999900   -1    0    0    0    0 -0.00000000000E+00 -0.00000000000E+00 -0.74505805969E-08  0.93827000000E+00  0.93827000000E+00 0. -1.
     999902    2    1    2    0    0 -0.10430180025E-02  0.17338264690E-01  0.16187372127E-01  0.10201869099E+01  0.10199105828E+01 0.  0.
     999903    2    3    3    0    0  0.73238205493E-01  0.79793457322E-01 -0.70304630303E-01  0.13063690138E+00  0.19809805278E-01 0.  0.
         14    1    1    2    0    0  0.10430180025E-02 -0.17338264690E-01 -0.16187372127E-01  0.23743090056E-01  0.00000000000E+00 0.  1.
     999901    1    3    3    0    0 -0.74281223496E-01 -0.62455192632E-01  0.86492002430E-01  0.88955000856E+00  0.88000000000E+00 0.  1.
        -11    1    4    4    0    0  0.18075953492E-01  0.10082878227E-01 -0.18383413089E-01  0.27687822699E-01  0.51100000000E-03 0. -1.
         11    1    4    4    0    0  0.55162252001E-01  0.69710579095E-01 -0.51921217214E-01  0.10294907868E+00  0.51100000000E-03 0.  1.
</event>
<event>
 8    1  0.1116619E+005  0.1043930E+01  0.7957747E-01            NaN
         13   -1    0    0    0    0  0.00000000000E+00  0.00000000000E+00  0.74505805969E-08  0.10566000000E+00  0.10566000000E+00 0.  1.
     999900   -1    0    0    0    0 -0.00000000000E+00 -0.00000000000E+00 -0.74505805969E-08  0.93827000000E+00  0.93827000000E+00 0.  1.
     999902    2    1    2    0    0 -0.65844492181E-02  0.22813161275E-01 -0.64992626365E-02  0.10193122074E+01  0.10190148872E+01 0.  0.
     999903    2    3    3    0    0 -0.62228552600E-01  0.63427380988E-01 -0.95676526611E-01  0.13212656418E+00  0.20199153445E-01 0.  0.
         14    1    1    2    0    0  0.65844492181E-02 -0.22813161275E-01  0.64992626365E-02  0.24617792624E-01  0.00000000000E+00 0. -1.
     999901    1    3    3    0    0  0.55644103382E-01 -0.40614219714E-01  0.89177263974E-01  0.88718564320E+00  0.88000000000E+00 0. -1.
        -11    1    4    4    0    0 -0.17976784139E-01  0.12462450417E-01 -0.35489020630E-01  0.41691835467E-01  0.51100000000E-03 0. -1.
         11    1    4    4    0    0 -0.44251768461E-01  0.50964930571E-01 -0.60187505981E-01  0.90434728712E-01  0.51100000000E-03 0.  1.
</event>
<event>
 8    1  0.1116619E+005  0.1043930E+01  0.7957747E-01            NaN
         13   -1    0    0    0    0  0.00000000000E+00  0.00000000000E+00  0.74505805969E-08  0.10566000000E+00  0.10566000000E+00 0.  1.
     999900   -1    0    0    0    0 -0.00000000000E+00 -0.00000000000E+00 -0.74505805969E-08  0.93827000000E+00  0.93827000000E+00 0. -1.
     999902    2    1    2    0    0  0.21194097071E-01  0.65914809584E-02 -0.68129318681E-02  0.10207124762E+01  0.10204483846E+01 0.  0.
     999903    2    3    3    0    0 -0.11779058610E+00 -0.36483325569E-01  0.29123383166E-01  0.12804030799E+00  0.18452474245E-01 0.  0.
         14    1    1    2    0    0 -0.21194097071E-01 -0.65914809584E-02  0.68129318681E-02  0.23217523824E-01  0.00000000000E+00 0.  1.
     999901    1    3    3    0    0  0.13898468317E+00  0.43074806528E-01 -0.35936315034E-01  0.89267216818E+00  0.88000000000E+00 0. -1.
        -11    1    4    4    0    0 -0.75472999189E-01 -0.27921026674E-01  0.11036508712E-01  0.81226984326E-01  0.51100000000E-03 0. -1.
         11    1    4    4    0    0 -0.42317586908E-01 -0.85622988955E-02  0.18086874454E-01  0.46813323665E-01  0.51100000000E-03 0.  1.
</event>
<event>
 8    1  0.1116619E+005  0.1043930E+01  0.7957747E-01            NaN
         13   -1    0    0    0    0  0.00000000000E+00  0.00000000000E+00  0.74505805969E-08  0.10566000000E+00  0.10566000000E+00 0. -1.
     999900   -1    0    0    0    0 -0.00000000000E+00 -0.00000000000E+00 -0.74505805969E-08  0.93827000000E+00  0.93827000000E+00 0.  1.
     999902    2    1    2    0    0 -0.18606019983E-01 -0.56805318305E-02  0.11645920991E-01  0.10212566699E+01  0.10210049490E+01 0.  0.
     999903    2    3    3    0    0  0.40821021527E-01 -0.88828881587E-01  0.86569089446E-01  0.13217922531E+00  0.20499130561E-01 0.  0.
         14    1    1    2    0    0  0.18606019983E-01  0.56805318305E-02 -0.11645920991E-01  0.22673330086E-01  0.00000000000E+00 0. -1.
     999901    1    3    3    0    0 -0.59427041510E-01  0.83148349757E-01 -0.74923168455E-01  0.88907744460E+00  0.88000000000E+00 0. -1.
        -11    1    4    4    0    0  0.16784429367E-01 -0.39426773158E-01  0.24805446884E-01  0.49515238331E-01  0.51100000000E-03 0.  1.
         11    1    4    4    0    0  0.24036592160E-01 -0.49402108429E-01  0.61763642562E-01  0.82663986980E-01  0.51100000000E-03 0. -1.
</event>
<event>
 8    1  0.1116619E+005  0.1043930E+01  0.7957747E-01            NaN
         13   -1    0    0    0    0  0.00000000000E+00  0.00000000000E+00  0.74505805969E-08  0.10566000000E+00  0.10566000000E+00 0.  1.
     999900   -1    0    0    0    0 -0.00000000000E+00 -0.00000000000E+00 -0.74505805969E-08  0.93827000000E+00  0.93827000000E+00 0. -1.
     999902    2    1    2    0    0  0.16486649637E-01 -0.12836072069E-01  0.90767502251E-02  0.10211492679E+01  0.10208951295E+01 0.  0.
     999903    2    3    3    0    0  0.97020484394E-01 -0.56363187052E-01 -0.68673139577E-01  0.13299086214E+00  0.19513740450E-01 0.  0.
         14    1    1    2    0    0 -0.16486649637E-01  0.12836072069E-01 -0.90767502251E-02  0.22780732145E-01  0.00000000000E+00 0. -1.
     999901    1    3    3    0    0 -0.80533834757E-01  0.43527114983E-01  0.77749889802E-01  0.88815840572E+00  0.88000000000E+00 0.  1.
        -11    1    4    4    0    0  0.82906538220E-01 -0.40157222758E-01 -0.51985576696E-01  0.10577739799E+00  0.51100000000E-03 0.  1.
         11    1    4    4    0    0  0.14113946174E-01 -0.16205964294E-01 -0.16687562880E-01  0.27213464153E-01  0.51100000000E-03 0. -1.
</event>
<event>
 8    1  0.1116619E+005  0.1043930E+01  0.7957747E-01            NaN
         13   -1    0    0    0    0  0.00000000000E+00  0.00000000000E+00  0.74505805969E-08  0.10566000000E+00  0.10566000000E+00 0. -1.
     999900   -1    0    0    0    0 -0.00000000000E+00 -0.00000000000E+00 -0.74505805969E-08  0.93827000000E+00  0.93827000000E+00 0.  1.
     999902    2    1    2    0    0 -0.40448445508E-02 -0.37178078834E-02  0.22536189278E-01  0.10207338216E+01  0.10204702210E+01 0.  0.
     999903    2    3    3    0    0 -0.92386640971E-01 -0.18911154704E-01  0.92266706898E-01  0.13343598221E+00  0.19977310755E-01 0.  0.
         14    1    1    2    0    0  0.40448445508E-02  0.37178078834E-02 -0.22536189278E-01  0.23196178350E-01  0.00000000000E+00 0.  1.
     999901    1    3    3    0    0  0.88341796420E-01  0.15193346821E-01 -0.69730517621E-01  0.88729783944E+00  0.88000000000E+00 0.  1.
        -11    1    4    4    0    0 -0.37279214250E-01 -0.17273155929E-01  0.35490771029E-01  0.54295098122E-01  0.51100000000E-03 0. -1.
         11    1    4    4    0    0 -0.55107426721E-01 -0.16379987753E-02  0.56775935869E-01  0.79140884091E-01  0.51100000000E-03 0.  1.
</event>
<event>
 8    1  0.1116619E+005  0.1043930E+01  0.7957747E-01            NaN
         13   -1    0    0    0    0  0.00000000000E+00  0.00000000000E+00  0.74505805969E-08  0.10566000000E+00  0.10566000000E+00 0.  1.
     999900   -1    0    0    0    0 -0.00000000000E+00 -0.00000000000E+00 -0.74505805969E-08  0.93827000000E+00  0.93827000000E+00 0.  1.
     999902    2    1    2    0    0 -0.33375257752E-02  0.18377600675E-02  0.24071034485E-01  0.10195592975E+01  0.10192679873E+01 0.  0.
     999903    2    3    3    0    0 -0.84347514794E-01  0.25855441279E-01 -0.91252600500E-01  0.12802185680E+00  0.16719797426E-01 0.  0.
         14    1    1    2    0    0  0.33375257752E-02 -0.18377600675E-02 -0.24071034485E-01  0.24370702525E-01  0.00000000000E+00 0. -1.
     999901    1    3    3    0    0  0.81009989019E-01 -0.24017681211E-01  0.11532363499E+00  0.89153744067E+00  0.88000000000E+00 0. -1.
        -11    1    4    4    0    0 -0.30071978612E-01  0.17717804707E-01 -0.35390932721E-01  0.49709392886E-01  0.51100000000E-03 0.  1.
         11    1    4    4    0    0 -0.54275536182E-01  0.81376365716E-02 -0.55861667779E-01  0.78312463918E-01  0.51100000000E-03 0. -1.
</event>
<event>
 8    1  0.1116619E+005  0.1043930E+01  0.7957747E-01            NaN
         13   -1    0    0    0    0  0.00000000000E+00  0.00000000000E+00  0.74505805969E-08  0.10566000000E+00  0.10566000000E+00 0.  1.
     999900   -1    0    0    0    0 -0.00000000000E+00 -0.00000000000E+00 -0.74505805969E-08  0.93827000000E+00  0.93827000000E+00 0. -1.
     999902    2    1    2    0    0  0.17591958175E-01  0.10857568961E-01  0.11978113126E-01  0.10200377630E+01  0.10197579119E+01 0.  0.
     999903    2    3    3    0    0  0.11892171863E+00 -0.38066755888E-01 -0.36424147678E-01  0.13155361074E+00  0.19702306910E-01 0.  0.
         14    1    1    2    0    0 -0.17591958175E-01 -0.10857568961E-01 -0.11978113126E-01  0.23892237029E-01  0.00000000000E+00 0.  1.
     999901    1    3    3    0    0 -0.10132976046E+00  0.48924324849E-01  0.48402260804E-01  0.88848415223E+00  0.88000000000E+00 0.  1.
        -11    1    4    4    0    0  0.10718502822E+00 -0.36994023411E-01 -0.27275285927E-01  0.11662499897E+00  0.51100000000E-03 0.  1.
         11    1    4    4    0    0  0.11736690417E-01 -0.10727324763E-02 -0.91488617506E-02  0.14928611765E-01  0.51100000000E-03 0. -1.
</event>
<event>
 8    1  0.1116619E+005  0.1043930E+01  0.7957747E-01            NaN
         13   -1    0    0    0    0  0.00000000000E+00  0.00000000000E+00  0.74505805969E-08  0.10566000000E+00  0.10566000000E+00 0. -1.
     999900   -1    0    0    0    0 -0.00000000000E+00 -0.00000000000E+00 -0.74505805969E-08  0.93827000000E+00  0.93827000000E+00 0. -1.
     999902    2    1    2    0    0 -0.47531324847E-02 -0.26282393810E-02 -0.23083080955E-01  0.10202165326E+01  0.10199409026E+01 0.  0.
     999903    2    3    3    0    0 -0.12409156263E+00 -0.37597412876E-01 -0.17326923559E-02  0.13121690204E+00  0.20064690102E-01 0.  0.
         14    1    1    2    0    0  0.47531324847E-02  0.26282393810E-02  0.23083080955E-01  0.23713467419E-01  0.00000000000E+00 0.  1.
     999901    1    3    3    0    0  0.11933843014E+00  0.34969173495E-01 -0.21350388599E-01  0.88899963054E+00  0.88000000000E+00 0.  1.
        -11    1    4    4    0    0 -0.23811056926E-01 -0.76590778294E-02  0.75988331787E-02  0.26146343756E-01  0.51100000000E-03 0. -1.
         11    1    4    4    0    0 -0.10028050570E+00 -0.29938335046E-01 -0.93315255346E-02  0.10507055829E+00  0.51100000000E-03 0.  1.
</event>
<event>
 8    1  0.1116619E+005  0.1043930E+01  0.7957747E-01            NaN
         13   -1    0    0    0    0  0.00000000000E+00  0.00000000000E+00  0.74505805969E-08  0.10566000000E+00  0.10566000000E+00 0. -1.
     999900   -1    0    0    0    0 -0.00000000000E+00 -0.00000000000E+00 -0.74505805969E-08  0.93827000000E+00  0.93827000000E+00 0. -1.
     999902    2    1    2    0    0  0.86329510839E-04 -0.20540709081E-01 -0.15574365171E-01  0.10181523152E+01  0.10178259419E+01 0.  0.
     999903    2    3    3    0    0 -0.51026580261E-02 -0.82563261539E-01  0.96450938055E-01  0.12886980039E+00  0.21492155012E-01 0.  0.
         14    1    1    2    0    0 -0.86329510839E-04  0.20540709081E-01  0.15574365171E-01  0.25777684784E-01  0.00000000000E+00 0. -1.
     999901    1    3    3    0    0  0.51889875369E-02  0.62022552459E-01 -0.11202530323E+00  0.88928251482E+00  0.88000000000E+00 0. -1.
        -11    1    4    4    0    0 -0.12241950441E-01 -0.30145847752E-01  0.38178787106E-01  0.50164911972E-01  0.51100000000E-03 0.  1.
         11    1    4    4    0    0  0.71392924151E-02 -0.52417413787E-01  0.58272150949E-01  0.78704888422E-01  0.51100000000E-03 0. -1.
</event>
<event>
 8    1  0.1116619E+005  0.1043930E+01  0.7957747E-01            NaN
         13   -1    0    0    0    0  0.00000000000E+00  0.00000000000E+00  0.74505805969E-08  0.10566000000E+00  0.10566000000E+00 0. -1.
     999900   -1    0    0    0    0 -0.00000000000E+00 -0.00000000000E+00 -0.74505805969E-08  0.93827000000E+00  0.93827000000E+00 0.  1.
     999902    2    1    2    0    0  0.91581040846E-02 -0.14528543218E-01 -0.16444549239E-01  0.10201524341E+01  0.10198752945E+01 0.  0.
     999903    2    3    3    0    0  0.40254702900E-01 -0.12040849890E+00  0.30430351683E-01  0.13202247754E+00  0.19628564917E-01 0.  0.
         14    1    1    2    0    0 -0.91581040846E-02  0.14528543218E-01  0.16444549239E-01  0.23777565858E-01  0.00000000000E+00 0. -1.
     999901    1    3    3    0    0 -0.31096598816E-01  0.10587995568E+00 -0.46874900922E-01  0.88812995660E+00  0.88000000000E+00 0.  1.
        -11    1    4    4    0    0  0.29040871082E-01 -0.57258775333E-01  0.12328258194E-01  0.65377263762E-01  0.51100000000E-03 0.  1.
         11    1    4    4    0    0  0.11213831819E-01 -0.63149723564E-01  0.18102093490E-01  0.66645213781E-01  0.51100000000E-03 0. -1.
</event>
<event>
 8    1  0.1116619E+005  0.1043930E+01  0.7957747E-01            NaN
         13   -1    0    0    0    0  0.00000000000E+00  0.00000000000E+00  0.74505805969E-08  0.10566000000E+00  0.10566000000E+00 0.  1.
     999900   -1    0    0    0    0 -0.00000000000E+00 -0.00000000000E+00 -0.74505805969E-08  0.93827000000E+00  0.93827000000E+00 0. -1.
     999902    2    1    2    0    0 -0.67640905963E-02 -0.21755644656E-01  0.86756970744E-02  0.10195511420E+01  0.10192596345E+01 0.  0.
     999903    2    3    3    0    0 -0.20424872660E-01 -0.71983254527E-01 -0.10517804424E+00  0.13069113946E+00  0.20469210767E-01 0.  0.
         14    1    1    2    0    0  0.67640905963E-02  0.21755644656E-01 -0.86756970744E-02  0.24378857966E-01  0.00000000000E+00 0. -1.
     999901    1    3    3    0    0  0.13660782063E-01  0.50227609871E-01  0.11385374131E+00  0.88886000257E+00  0.88000000000E+00 0.  1.
        -11    1    4    4    0    0 -0.15449340777E-01 -0.22754109570E-01 -0.45476491085E-01  0.53148885174E-01  0.51100000000E-03 0. -1.
         11    1    4    4    0    0 -0.49755318828E-02 -0.49229144957E-01 -0.59701553150E-01  0.77542254290E-01  0.51100000000E-03 0.  1.
</event>
<event>
 8    1  0.1116619E+005  0.1043930E+01  0.7957747E-01            NaN
         13   -1    0    0    0    0  0.00000000000E+00  0.00000000000E+00  0.74505805969E-08  0.10566000000E+00  0.10566000000E+00 0. -1.
     999900   -1    0    0    0    0 -0.00000000000E+00 -0.00000000000E+00 -0.74505805969E-08  0.93827000000E+00  0.93827000000E+00 0.  1.
     999902    2    1    2    0    0  0.17544982026E-01 -0.44220682410E-02 -0.23235041231E-01  0.10144809215E+01  0.10140533970E+01 0.  0.
     999903    2    3    3    0    0 -0.48232538617E-01  0.84964421204E-01 -0.76874781422E-01  0.12588998727E+00  0.19829932540E-01 0.  0.
         14    1    1    2    0    0 -0.17544982026E-01  0.44220682410E-02  0.23235041231E-01  0.29449078471E-01  0.00000000000E+00 0. -1.
     999901    1    3    3    0    0  0.65777520643E-01 -0.89386489445E-01  0.53639740192E-01  0.88859093426E+00  0.88000000000E+00 0. -1.
        -11    1    4    4    0    0 -0.27418740531E-01  0.33051104922E-01 -0.41424631123E-01  0.59669289031E-01  0.51100000000E-03 0. -1.
         11    1    4    4    0    0 -0.20813798087E-01  0.51913316281E-01 -0.35450150299E-01  0.66220698240E-01  0.51100000000E-03 0.  1.
</event>
<event>
 8    1  0.1116619E+005  0.1043930E+01  0.7957747E-01            NaN
         13   -1    0    0    0    0  0.00000000000E+00  0.00000000000E+00  0.74505805969E-08  0.10566000000E+00  0.10566000000E+00 0. -1.
     999900   -1    0    0    0    0 -0.00000000000E+00 -0.00000000000E+00 -0.74505805969E-08  0.93827000000E+00  0.93827000000E+00 0. -1.
     999902    2    1    2    0    0  0.87708386155E-02 -0.12631446425E-01 -0.18017866754E-01  0.10202419319E+01  0.10199668990E+01 0.  0.
     999903    2    3    3    0    0  0.11625925067E+00  0.22586835914E-01 -0.55146196046E-01  0.13222582900E+00  0.20400695906E-01 0.  0.
         14    1    1    2    0    0 -0.87708386155E-02  0.12631446425E-01  0.18017866754E-01  0.23688068118E-01  0.00000000000E+00 0. -1.
     999901    1    3    3    0    0 -0.10748841206E+00 -0.35218282340E-01  0.37128329292E-01  0.88801610288E+00  0.88000000000E+00 0.  1.
        -11    1    4    4    0    0  0.59547656399E-01  0.10950018504E-01 -0.39359184724E-01  0.72216568950E-01  0.51100000000E-03 0. -1.
         11    1    4    4    0    0  0.56711594274E-01  0.11636817411E-01 -0.15787011322E-01  0.60009260052E-01  0.51100000000E-03 0.  1.
</event>
<event>
 8    1  0.1116619E+005  0.1043930E+01  0.7957747E-01            NaN
         13   -1    0    0    0    0  0.00000000000E+00  0.00000000000E+00  0.74505805969E-08  0.10566000000E+00  0.10566000000E+00 0. -1.
     999900   -1    0    0    0    0 -0.00000000000E+00 -0.00000000000E+00 -0.74505805969E-08  0.93827000000E+00  0.93827000000E+00 0. -1.
     999902    2    1    2    0    0  0.10222606888E-01  0.13606365814E-01 -0.16223719429E-01  0.10204173661E+01  0.10201464390E+01 0.  0.
     999903    2    3    3    0    0  0.20096124221E-02  0.12718978161E+00  0.28281506886E-01  0.13196401288E+00  0.20817732215E-01 0.  0.
         14    1    1    2    0    0 -0.10222606888E-01 -0.13606365814E-01  0.16223719429E-01  0.23512633930E-01  0.00000000000E+00 0. -1.
     999901    1    3    3    0    0  0.82129944660E-02 -0.11358341580E+00 -0.44505226315E-01  0.88845335319E+00  0.88000000000E+00 0.  1.
        -11    1    4    4    0    0 -0.85616391808E-02  0.79399409666E-01  0.19900149389E-01  0.82303371665E-01  0.51100000000E-03 0. -1.
         11    1    4    4    0    0  0.10571251603E-01  0.47790371948E-01  0.83813574977E-02  0.49660641215E-01  0.51100000000E-03 0.  1.
</event>
<event>
 8    1  0.1116619E+005  0.1043930E+01  0.7957747E-01            NaN
         13   -1    0    0    0    0  0.00000000000E+00  0.00000000000E+00  0.74505805969E-08  0.10566000000E+00  0.10566000000E+00 0. -1.
     999900   -1    0    0    0    0 -0.00000000000E+00 -0.00000000000E+00 -0.74505805969E-08  0.93827000000E+00  0.93827000000E+00 0.  1.
     999902    2    1    2    0    0 -0.19591666113E-01  0.10346654530E-01 -0.71298373967E-02  0.10206550946E+01  0.10203896809E+01 0.  0.
     999903    2    3    3    0    0  0.61571031392E-01 -0.10620333859E+00  0.31856897656E-01  0.12841563688E+00  0.20138838908E-01 0.  0.
         14    1    1    2    0    0  0.19591666113E-01 -0.10346654530E-01  0.71298373967E-02  0.23274905421E-01  0.00000000000E+00 0.  1.
     999901    1    3    3    0    0 -0.81162697505E-01  0.11654999312E+00 -0.38986735053E-01  0.89223945770E+00  0.88000000000E+00 0. -1.
        -11    1    4    4    0    0  0.21172125229E-01 -0.21681059803E-01  0.33530890640E-02  0.30493139690E-01  0.51100000000E-03 0.  1.
         11    1    4    4    0    0  0.40398906163E-01 -0.84522278789E-01  0.28503808592E-01  0.97922497191E-01  0.51100000000E-03 0. -1.
</event>
<event>
 8    1  0.1116619E+005  0.1043930E+01  0.7957747E-01            NaN
         13   -1    0    0    0    0  0.00000000000E+00  0.00000000000E+00  0.74505805969E-08  0.10566000000E+00  0.10566000000E+00 0. -1.
     999900   -1    0    0    0    0 -0.00000000000E+00 -0.00000000000E+00 -0.74505805969E-08  0.93827000000E+00  0.93827000000E+00 0.  1.
     999902    2    1    2    0    0 -0.31048217558E-02 -0.42540425750E-02  0.23472624942E-01  0.10198737967E+01  0.10195900452E+01 0.  0.
     999903    2    3    3    0    0  0.56137403200E-02 -0.42839758325E-01  0.12519895263E+00  0.13313081446E+00  0.13501001575E-01 0.  0.
         14    1    1    2    0    0  0.31048217558E-02  0.42540425750E-02 -0.23472624942E-01  0.24056203317E-01  0.00000000000E+00 0.  1.
     999901    1    3    3    0    0 -0.87185620758E-02  0.38585715750E-01 -0.10172632769E+00  0.88674298223E+00  0.88000000000E+00 0.  1.
        -11    1    4    4    0    0  0.16894626145E-02 -0.85049402223E-02  0.44536273674E-01  0.45375423809E-01  0.51100000000E-03 0. -1.
         11    1    4    4    0    0  0.39242777055E-02 -0.34334818103E-01  0.80662678959E-01  0.87755390646E-01  0.51100000000E-03 0.  1.
</event>
<event>
 8    1  0.1116619E+005  0.1043930E+01  0.7957747E-01            NaN
         13   -1    0    0    0    0  0.00000000000E+00  0.00000000000E+00  0.74505805969E-08  0.10566000000E+00  0.10566000000E+00 0. -1.
     999900   -1    0    0    0    0 -0.00000000000E+00 -0.00000000000E+00 -0.74505805969E-08  0.93827000000E+00  0.93827000000E+00 0. -1.
     999902    2    1    2    0    0  0.10133270155E-01 -0.33335800793E-02  0.22002500778E-01  0.10194778843E+01  0.10191846009E+01 0.  0.
     999903    2    3    3    0    0  0.11578555930E+00 -0.89024558384E-02 -0.54622677326E-01  0.12983478932E+00  0.19694826138E-01 0.  0.
         14    1    1    2    0    0 -0.10133270155E-01  0.33335800793E-02 -0.22002500778E-01  0.24452115668E-01  0.00000000000E+00 0.  1.
     999901    1    3    3    0    0 -0.10565228915E+00  0.55688757591E-02  0.76625178104E-01  0.88964309501E+00  0.88000000000E+00 0.  1.
        -11    1    4    4    0    0  0.14462482500E-01 -0.29114834306E-02 -0.14497807649E-01  0.20690279927E-01  0.51100000000E-03 0.  1.
         11    1    4    4    0    0  0.10132307680E+00 -0.59909724078E-02 -0.40124869678E-01  0.10914450939E+00  0.51100000000E-03 0. -1.
</event>
<event>
 8    1  0.1116619E+005  0.1043930E+01  0.7957747E-01            NaN
         13   -1    0    0    0    0  0.00000000000E+00  0.00000000000E+00  0.74505805969E-08  0.10566000000E+00  0.10566000000E+00 0. -1.
     999900   -1    0    0    0    0 -0.00000000000E+00 -0.00000000000E+00 -0.74505805969E-08  0.93827000000E+00  0.93827000000E+00 0. -1.
     999902    2    1    2    0    0 -0.76564951590E-02 -0.17460315809E-01 -0.13990691833E-01  0.10202820825E+01  0.10200079920E+01 0.  0.
     999903    2    3    3    0    0 -0.33869055717E-01  0.11501361158E+00 -0.44822529960E-01  0.12944705732E+00  0.19293461879E-01 0.  0.
         14    1    1    2    0    0  0.76564951590E-02  0.17460315809E-01  0.13990691833E-01  0.23647917546E-01  0.00000000000E+00 0. -1.
     999901    1    3    3    0    0  0.26212560558E-01 -0.13247392739E+00  0.30831838127E-01  0.89083502514E+00  0.88000000000E+00 0.  1.
        -11    1    4    4    0    0 -0.11398857166E-01  0.60275530986E-01 -0.14857351707E-01  0.63119534227E-01  0.51100000000E-03 0. -1.
         11    1    4    4    0    0 -0.22470198551E-01  0.54738080598E-01 -0.29965178253E-01  0.66327523090E-01  0.51100000000E-03 0.  1.
</event>
<event>
 8    1  0.1116619E+005  0.1043930E+01  0.7957747E-01            NaN
         13   -1    0    0    0    0  0.00000000000E+00  0.00000000000E+00  0.74505805969E-08  0.10566000000E+00  0.10566000000E+00 0.  1.
     999900   -1    0    0    0    0 -0.00000000000E+00 -0.00000000000E+00 -0.74505805969E-08  0.93827000000E+00  0.93827000000E+00 0. -1.
     999902    2    1    2    0    0 -0.15240337873E-01 -0.11587925771E-02 -0.16929347746E-01  0.10211218104E+01  0.10208670521E+01 0.  0.
     999903    2    3    3    0    0 -0.92412673661E-01  0.80519646569E-01 -0.48575115203E-01  0.13341217799E+00  0.20389989771E-01 0.  0.
         14    1    1    2    0    0  0.15240337873E-01  0.11587925771E-02  0.16929347746E-01  0.22808189622E-01  0.00000000000E+00 0.  1.
     999901    1    3    3    0    0  0.77172335788E-01 -0.81678439146E-01  0.31645767457E-01  0.88770963239E+00  0.88000000000E+00 0. -1.
        -11    1    4    4    0    0 -0.21004174408E-01  0.20210753706E-01 -0.26614360963E-02  0.29274464487E-01  0.51100000000E-03 0.  1.
         11    1    4    4    0    0 -0.71408499253E-01  0.60308892863E-01 -0.45913679106E-01  0.10413771350E+00  0.51100000000E-03 0. -1.
</event>
<event>
 8    1  0.1116619E+005  0.1043930E+01  0.7957747E-01            NaN
         13   -1    0    0    0    0  0.00000000000E+00  0.00000000000E+00  0.74505805969E-08  0.10566000000E+00  0.10566000000E+00 0. -1.
     999900   -1    0    0    0    0 -0.00000000000E+00 -0.00000000000E+00 -0.74505805969E-08  0.93827000000E+00  0.93827000000E+00 0.  1.
     999902    2    1    2    0    0 -0.17698931908E-02  0.10167617371E-01 -0.24511007003E-01  0.10173348420E+01  0.10169871574E+01 0.  0.
     999903    2    3    3    0    0 -0.39854934219E-01  0.81874707913E-01  0.85782896416E-01  0.12674115107E+00  0.20315769247E-01 0.  0.
         14    1    1    2    0    0  0.17698931908E-02 -0.10167617371E-01  0.24511007003E-01  0.26595158003E-01  0.00000000000E+00 0. -1.
     999901    1    3    3    0    0  0.38085041029E-01 -0.71707090542E-01 -0.11029390342E+00  0.89059369093E+00  0.88000000000E+00 0.  1.
        -11    1    4    4    0    0 -0.15674095600E-01  0.16313147445E-01  0.14259920007E-01  0.26747009030E-01  0.51100000000E-03 0. -1.
         11    1    4    4    0    0 -0.24180838620E-01  0.65561560468E-01  0.71522976409E-01  0.99994142042E-01  0.51100000000E-03 0.  1.
</event>
<event>
 8    1  0.1116619E+005  0.1043930E+01  0.7957747E-01            NaN
         13   -1    0    0    0    0  0.00000000000E+00  0.00000000000E+00  0.74505805969E-08  0.10566000000E+00  0.10566000000E+00 0. -1.
     999900   -1    0    0    0    0 -0.00000000000E+00 -0.00000000000E+00 -0.74505805969E-08  0.93827000000E+00  0.93827000000E+00 0. -1.
     999902    2    1    2    0    0  0.15581294894E-01  0.82766044587E-02  0.15351226041E-01  0.10205432714E+01  0.10202752716E+01 0.  0.
     999903    2    3    3    0    0  0.50701479538E-01  0.45716647683E-01  0.11308986096E+00  0.13364529255E+00  0.20275494202E-01 0.  0.
         14    1    1    2    0    0 -0.15581294894E-01 -0.82766044587E-02 -0.15351226041E-01  0.23386728564E-01  0.00000000000E+00 0.  1.
     999901    1    3    3    0    0 -0.35120184644E-01 -0.37440043225E-01 -0.97738634917E-01  0.88689797889E+00  0.88000000000E+00 0. -1.
        -11    1    4    4    0    0  0.10018817379E-01  0.17935542631E-02  0.26322215035E-01  0.28226116699E-01  0.51100000000E-03 0. -1.
         11    1    4    4    0    0  0.40682662159E-01  0.43923093420E-01  0.86767645924E-01  0.10541917585E+00  0.51100000000E-03 0.  1.
</event>
<event>
 8    1  0.1116619E+005  0.1043930E+01  0.7957747E-01            NaN
         13   -1    0    0    0    0  0.00000000000E+00  0.00000000000E+00  0.74505805969E-08  0.10566000000E+00  0.10566000000E+00 0. -1.
     999900   -1    0    0    0    0 -0.00000000000E+00 -0.00000000000E+00 -0.74505805969E-08  0.93827000000E+00  0.93827000000E+00 0. -1.
     999902    2    1    2    0    0  0.14477306567E-01  0.13551716596E-01 -0.16285090597E-01  0.10182698051E+01  0.10179464378E+01 0.  0.
     999903    2    3    3    0    0  0.10140508448E+00  0.56690872493E-01 -0.59084238515E-01  0.13190126298E+00  0.20252154280E-01 0.  0.
         14    1    1    2    0    0 -0.14477306567E-01 -0.13551716596E-01  0.16285090597E-01  0.25660194930E-01  0.00000000000E+00 0. -1.
     999901    1    3    3    0    0 -0.86927777910E-01 -0.43139155897E-01  0.42799147918E-01  0.88636854209E+00  0.88000000000E+00 0.  1.
        -11    1    4    4    0    0  0.30725858868E-01  0.70132937029E-02 -0.14863235981E-01  0.34848839243E-01  0.51100000000E-03 0.  1.
         11    1    4    4    0    0  0.70679225609E-01  0.49677578790E-01 -0.44221002534E-01  0.97052423737E-01  0.51100000000E-03 0. -1.
</event>
<event>
 8    1  0.1116619E+005  0.1043930E+01  0.7957747E-01            NaN
         13   -1    0    0    0    0  0.00000000000E+00  0.00000000000E+00  0.74505805969E-08  0.10566000000E+00  0.10566000000E+00 0.  1.
     999900   -1    0    0    0    0 -0.00000000000E+00 -0.00000000000E+00 -0.74505805969E-08  0.93827000000E+00  0.93827000000E+00 0. -1.
     999902    2    1    2    0    0 -0.24527775712E-02 -0.33634222850E-02 -0.24214489413E-01  0.10193602986E+01  0.10190641531E+01 0.  0.
     999903    2    3    3    0    0  0.11345485757E+00  0.58689156018E-01 -0.40624324453E-02  0.12936523812E+00  0.20060900685E-01 0.  0.
         14    1    1    2    0    0  0.24527775712E-02  0.33634222850E-02  0.24214489413E-01  0.24569701358E-01  0.00000000000E+00 0.  1.
     999901    1    3    3    0    0 -0.11590763514E+00 -0.62052578303E-01 -0.20152056968E-01  0.88999506052E+00  0.88000000000E+00 0. -1.
        -11    1    4    4    0    0  0.36293469222E-01  0.28306952453E-01 -0.59618780647E-02  0.46414486708E-01  0.51100000000E-03 0.  1.
         11    1    4    4    0    0  0.77161388345E-01  0.30382203565E-01  0.18994456194E-02  0.82950751410E-01  0.51100000000E-03 0. -1.
</event>
<event>
 8    1  0.1116619E+005  0.1043930E+01  0.7957747E-01            NaN
         13   -1    0    0    0    0  0.00000000000E+00  0.00000000000E+00  0.74505805969E-08  0.10566000000E+00  0.10566000000E+00 0. -1.
     999900   -1    0    0    0    0 -0.00000000000E+00 -0.00000000000E+00 -0.74505805969E-08  0.93827000000E+00  0.93827000000E+00 0.  1.
     999902    2    1    2    0    0  0.40564438325E-02 -0.19675309683E-01 -0.95800665617E-02  0.10216735353E+01  0.10214310855E+01 0.  0.
     999903    2    3    3    0    0 -0.66347199063E-01 -0.35368289829E-01  0.10564435788E+00  0.13123565952E+00  0.20228722828E-01 0.  0.
         14    1    1    2    0    0 -0.40564438325E-02  0.19675309683E-01  0.95800665617E-02  0.22256464747E-01  0.00000000000E+00 0. -1.
     999901    1    3    3    0    0  0.70403642896E-01  0.15692980146E-01 -0.11522442444E+00  0.89043787574E+00  0.88000000000E+00 0.  1.
        -11    1    4    4    0    0 -0.44218625750E-01 -0.14906625188E-01  0.53387357184E-01  0.70908147387E-01  0.51100000000E-03 0. -1.
         11    1    4    4    0    0 -0.22128573314E-01 -0.20461664640E-01  0.52257000698E-01  0.60327512129E-01  0.51100000000E-03 0.  1.
</event>
<event>
 8    1  0.1116619E+005  0.1043930E+01  0.7957747E-01            NaN
         13   -1    0    0    0    0  0.00000000000E+00  0.00000000000E+00  0.74505805969E-08  0.10566000000E+00  0.10566000000E+00 0.  1.
     999900   -1    0    0    0    0 -0.00000000000E+00 -0.00000000000E+00 -0.74505805969E-08  0.93827000000E+00  0.93827000000E+00 0. -1.
     999902    2    1    2    0    0  0.17792163959E-01 -0.27605326921E-02  0.15056081589E-01  0.10204594390E+01  0.10201894920E+01 0.  0.
     999903    2    3    3    0    0  0.57812918140E-01 -0.85658345700E-01 -0.77591726889E-01  0.13082056591E+00  0.20343517179E-01 0.  0.
         14    1    1    2    0    0 -0.17792163959E-01  0.27605326921E-02 -0.15056081589E-01  0.23470560962E-01  0.00000000000E+00 0. -1.
     999901    1    3    3    0    0 -0.40020754181E-01  0.82897813008E-01  0.92647808478E-01  0.88963887313E+00  0.88000000000E+00 0.  1.
        -11    1    4    4    0    0  0.15642831240E-01 -0.40060894486E-01 -0.35792938789E-01  0.55955062545E-01  0.51100000000E-03 0.  1.
         11    1    4    4    0    0  0.42170086900E-01 -0.45597451213E-01 -0.41798788100E-01  0.74865503364E-01  0.51100000000E-03 0. -1.
</event>
<event>
 8    1  0.1116619E+005  0.1043930E+01  0.7957747E-01            NaN
         13   -1    0    0    0    0  0.00000000000E+00  0.00000000000E+00  0.74505805969E-08  0.10566000000E+00  0.10566000000E+00 0. -1.
     999900   -1    0    0    0    0 -0.00000000000E+00 -0.00000000000E+00 -0.74505805969E-08  0.93827000000E+00  0.93827000000E+00 0. -1.
     999902    2    1    2    0    0  0.26032279035E-03 -0.13977074438E-01 -0.14721542820E-01  0.10236285173E+01  0.10234271792E+01 0.  0.
     999903    2    3    3    0    0  0.10379161693E+00 -0.35874696649E-01  0.72259992052E-01  0.13303095264E+00  0.20396919023E-01 0.  0.
         14    1    1    2    0    0 -0.26032279035E-03  0.13977074438E-01  0.14721542820E-01  0.20301482724E-01  0.00000000000E+00 0. -1.
     999901    1    3    3    0    0 -0.10353129414E+00  0.21897622210E-01 -0.86981534872E-01  0.89059756463E+00  0.88000000000E+00 0. -1.
        -11    1    4    4    0    0  0.34228928676E-01 -0.55597699098E-02  0.14163237029E-01  0.37461833963E-01  0.51100000000E-03 0. -1.
         11    1    4    4    0    0  0.69562688250E-01 -0.30314926739E-01  0.58096755023E-01  0.95569118678E-01  0.51100000000E-03 0.  1.
</event>
<event>
 8    1  0.1116619E+005  0.1043930E+01  0.7957747E-01            NaN
         13   -1    0    0    0    0  0.00000000000E+00  0.00000000000E+00  0.74505805969E-08  0.10566000000E+00  0.10566000000E+00 0.  1.
     999900   -1    0    0    0    0 -0.00000000000E+00 -0.00000000000E+00 -0.74505805969E-08  0.93827000000E+00  0.93827000000E+00 0.  1.
     999902    2    1    2    0    0  0.82728722225E-02 -0.20166865457E-01 -0.89193471448E-02  0.10203779803E+01  0.10201061342E+01 0.  0.
     999903    2    3    3    0    0  0.93336107430E-02  0.57965029552E-02 -0.12971383564E+00  0.13174614986E+00  0.20264577710E-01 0.  0.
         14    1    1    2    0    0 -0.82728722225E-02  0.20166865457E-01  0.89193471448E-02  0.23552019673E-01  0.00000000000E+00 0.  1.
     999901    1    3    3    0    0 -0.10607385205E-02 -0.25963368412E-01  0.12079448850E+00  0.88863183047E+00  0.88000000000E+00 0. -1.
        -11    1    4    4    0    0  0.94262428231E-02 -0.59215990121E-02 -0.55048552748E-01  0.56165146392E-01  0.51100000000E-03 0.  1.
         11    1    4    4    0    0 -0.92632080104E-04  0.11718101967E-01 -0.74665282896E-01  0.75581003469E-01  0.51100000000E-03 0. -1.
</event>
<event>
 8    1  0.1151094E+005  0.1043930E+01  0.7957747E-01            NaN
         13   -1    0    0    0    0  0.00000000000E+00  0.00000000000E+00  0.74505805969E-08  0.10566000000E+00  0.10566000000E+00 0. -1.
     999900   -1    0    0    0    0 -0.00000000000E+00 -0.00000000000E+00 -0.74505805969E-08  0.93827000000E+00  0.93827000000E+00 0. -1.
     999902    2    1    2    0    0  0.90162986138E-02 -0.17057848024E-01 -0.14932468240E-01  0.10195324094E+01  0.10192404483E+01 0.  0.
     999903    2    3    3    0    0  0.51874311308E-01  0.62331176605E-01  0.96782661544E-01  0.12789363909E+00  0.20341573012E-01 0.  0.
         14    1    1    2    0    0 -0.90162986138E-02  0.17057848024E-01  0.14932468240E-01  0.24397590611E-01  0.00000000000E+00 0. -1.
     999901    1    3    3    0    0 -0.42858012694E-01 -0.79389024629E-01 -0.11171512978E+00  0.89163877030E+00  0.88000000000E+00 0. -1.
        -11    1    4    4    0    0  0.18796506777E-01  0.95797476600E-02  0.28812284188E-01  0.35713989883E-01  0.51100000000E-03 0. -1.
         11    1    4    4    0    0  0.33077804531E-01  0.52751428945E-01  0.67970377356E-01  0.92179649203E-01  0.51100000000E-03 0.  1.
</event>
<event>
 8    1  0.1116619E+005  0.1043930E+01  0.7957747E-01            NaN
         13   -1    0    0    0    0  0.00000000000E+00  0.00000000000E+00  0.74505805969E-08  0.10566000000E+00  0.10566000000E+00 0. -1.
     999900   -1    0    0    0    0 -0.00000000000E+00 -0.00000000000E+00 -0.74505805969E-08  0.93827000000E+00  0.93827000000E+00 0.  1.
     999902    2    1    2    0    0  0.11360348170E-01 -0.86262447065E-02  0.18847873452E-01  0.10202929117E+01  0.10200190752E+01 0.  0.
     999903    2    3    3    0    0 -0.12476009006E+00 -0.21407710617E-01 -0.15120276013E-01  0.12908812339E+00  0.20291641332E-01 0.  0.
         14    1    1    2    0    0 -0.11360348170E-01  0.86262447065E-02 -0.18847873452E-01  0.23637088272E-01  0.00000000000E+00 0. -1.
     999901    1    3    3    0    0  0.13612043823E+00  0.12781465910E-01  0.33968149466E-01  0.89120478834E+00  0.88000000000E+00 0. -1.
        -11    1    4    4    0    0 -0.92806956308E-01 -0.12614006705E-01 -0.19454918750E-01  0.95660855573E-01  0.51100000000E-03 0. -1.
         11    1    4    4    0    0 -0.31953133754E-01 -0.87937039121E-02  0.43346427371E-02  0.33427267819E-01  0.51100000000E-03 0.  1.
</event>
<event>
 8    1  0.1116619E+005  0.1043930E+01  0.7957747E-01            NaN
         13   -1    0    0    0    0  0.00000000000E+00  0.00000000000E+00  0.74505805969E-08  0.10566000000E+00  0.10566000000E+00 0. -1.
     999900   -1    0    0    0    0 -0.00000000000E+00 -0.00000000000E+00 -0.74505805969E-08  0.93827000000E+00  0.93827000000E+00 0.  1.
     999902    2    1    2    0    0  0.36695328868E-02  0.58641122995E-02  0.22986737524E-01  0.10199249300E+01  0.10196423978E+01 0.  0.
     999903    2    3    3    0    0 -0.11921092253E+00 -0.23537491723E-01  0.43683587899E-01  0.13065982876E+00  0.19961899517E-01 0.  0.
         14    1    1    2    0    0 -0.36695328868E-02 -0.58641122995E-02 -0.22986737524E-01  0.24005070020E-01  0.00000000000E+00 0.  1.
     999901    1    3    3    0    0  0.12288045541E+00  0.29401604022E-01 -0.20696850375E-01  0.88926510123E+00  0.88000000000E+00 0. -1.
        -11    1    4    4    0    0 -0.97961506759E-01 -0.26816574195E-01  0.34395283094E-01  0.10723284048E+00  0.51100000000E-03 0. -1.
         11    1    4    4    0    0 -0.21249415768E-01  0.32790824724E-02  0.92883048045E-02  0.23426988272E-01  0.51100000000E-03 0.  1.
</event>
<event>
 8    1  0.1116619E+005  0.1043930E+01  0.7957747E-01            NaN
         13   -1    0    0    0    0  0.00000000000E+00  0.00000000000E+00  0.74505805969E-08  0.10566000000E+00  0.10566000000E+00 0. -1.
     999900   -1    0    0    0    0 -0.00000000000E+00 -0.00000000000E+00 -0.74505805969E-08  0.93827000000E+00  0.93827000000E+00 0. -1.
     999902    2    1    2    0    0  0.22939969716E-01 -0.27077311185E-02 -0.22472257011E-02  0.10207217247E+01  0.10204578459E+01 0.  0.
     999903    2    3    3    0    0 -0.12133077343E-01  0.10636934956E+00  0.71456055478E-01  0.13023865255E+00  0.19861738627E-01 0.  0.
         14    1    1    2    0    0 -0.22939969716E-01  0.27077311185E-02  0.22472257011E-02  0.23208275285E-01  0.00000000000E+00 0. -1.
     999901    1    3    3    0    0  0.35073047059E-01 -0.10907708068E+00 -0.73703281180E-01  0.89048307217E+00  0.88000000000E+00 0. -1.
        -11    1    4    4    0    0 -0.11860322716E-01  0.43098855299E-01  0.37958934206E-01  0.58645719282E-01  0.51100000000E-03 0.  1.
         11    1    4    4    0    0 -0.27275462724E-03  0.63270494261E-01  0.33497121273E-01  0.71592933266E-01  0.51100000000E-03 0. -1.
</event>
<event>
 8    1  0.1116619E+005  0.1043930E+01  0.7957747E-01            NaN
         13   -1    0    0    0    0  0.00000000000E+00  0.00000000000E+00  0.74505805969E-08  0.10566000000E+00  0.10566000000E+00 0.  1.
     999900   -1    0    0    0    0 -0.00000000000E+00 -0.00000000000E+00 -0.74505805969E-08  0.93827000000E+00  0.93827000000E+00 0.  1.
     999902    2    1    2    0    0 -0.53390151362E-02 -0.22985700346E-01 -0.61469830765E-02  0.10195449041E+01  0.10192532455E+01 0.  0.
     999903    2    3    3    0    0 -0.70323540743E-01  0.83390351052E-01  0.63439421360E-01  0.12803992900E+00  0.21686682641E-01 0.  0.
         14    1    1    2    0    0  0.53390151362E-02  0.22985700346E-01  0.61469830765E-02  0.24385095939E-01  0.00000000000E+00 0.  1.
     999901    1    3    3    0    0  0.64984525607E-01 -0.10637605140E+00 -0.69586404437E-01  0.89150497506E+00  0.88000000000E+00 0.  1.
        -11    1    4    4    0    0 -0.36621911237E-01  0.56205999944E-01  0.30821246334E-01  0.73827428229E-01  0.51100000000E-03 0. -1.
         11    1    4    4    0    0 -0.33701629506E-01  0.27184351108E-01  0.32618175026E-01  0.54212500769E-01  0.51100000000E-03 0.  1.
</event>
<event>
 8    1  0.1116619E+005  0.1043930E+01  0.7957747E-01            NaN
         13   -1    0    0    0    0  0.00000000000E+00  0.00000000000E+00  0.74505805969E-08  0.10566000000E+00  0.10566000000E+00 0.  1.
     999900   -1    0    0    0    0 -0.00000000000E+00 -0.00000000000E+00 -0.74505805969E-08  0.93827000000E+00  0.93827000000E+00 0. -1.
     999902    2    1    2    0    0  0.16580216373E-01  0.13821576560E-01 -0.98358119825E-02  0.10202090651E+01  0.10199332595E+01 0.  0.
     999903    2    3    3    0    0  0.68490882276E-01 -0.94637982540E-01 -0.55368927588E-01  0.13086579181E+00  0.20317200319E-01 0.  0.
         14    1    1    2    0    0 -0.16580216373E-01 -0.13821576560E-01  0.98358119825E-02  0.23720934866E-01  0.00000000000E+00 0.  1.
     999901    1    3    3    0    0 -0.51910665903E-01  0.10845955910E+00  0.45533115605E-01  0.88934327333E+00  0.88000000000E+00 0. -1.
        -11    1    4    4    0    0  0.50001429625E-01 -0.56756694144E-01 -0.28274906089E-01  0.80753927025E-01  0.51100000000E-03 0.  1.
         11    1    4    4    0    0  0.18489452651E-01 -0.37881288396E-01 -0.27094021499E-01  0.50111864782E-01  0.51100000000E-03 0. -1.
</event>
<event>
 8    1  0.1116619E+005  0.1043930E+01  0.7957747E-01            NaN
         13   -1    0    0    0    0  0.00000000000E+00  0.00000000000E+00  0.74505805969E-08  0.10566000000E+00  0.10566000000E+00 0.  1.
     999900   -1    0    0    0    0 -0.00000000000E+00 -0.00000000000E+00 -0.74505805969E-08  0.93827000000E+00  0.93827000000E+00 0.  1.
     999902    2    1    2    0    0  0.19542573987E-01  0.11785426562E-01  0.53536066578E-02  0.10204892325E+01  0.10202199783E+01 0.  0.
     999903    2    3    3    0    0  0.53229457799E-01  0.76009864619E-01  0.93288990481E-01  0.13313799633E+00  0.20298168017E-01 0.  0.
         14    1    1    2    0    0 -0.19542573987E-01 -0.11785426562E-01 -0.53536066578E-02  0.23440767511E-01  0.00000000000E+00 0. -1.
     999901    1    3    3    0    0 -0.33686883812E-01 -0.64224438056E-01 -0.87935383823E-01  0.88735123616E+00  0.88000000000E+00 0.  1.
        -11    1    4    4    0    0  0.64630177362E-02  0.14920427906E-01  0.27292978256E-01  0.31773535375E-01  0.51100000000E-03 0. -1.
         11    1    4    4    0    0  0.46766440063E-01  0.61089436713E-01  0.65996012225E-01  0.10136446095E+00  0.51100000000E-03 0.  1.
</event>
<event>
 8    1  0.1116619E+005  0.1043930E+01  0.7957747E-01            NaN
         13   -1    0    0    0    0  0.00000000000E+00  0.00000000000E+00  0.74505805969E-08  0.10566000000E+00  0.10566000000E+00 0. -1.
     999900   -1    0    0    0    0 -0.00000000000E+00 -0.00000000000E+00 -0.74505805969E-08  0.93827000000E+00  0.93827000000E+00 0. -1.
     999902    2    1    2    0    0  0.15182334206E-01  0.66346944967E-02  0.98471030912E-02  0.10246559791E+01  0.10244746886E+01 0.  0.
     999903    2    3    3    0    0 -0.57720803413E-03  0.93452474735E-01  0.96686894024E-01  0.13599021547E+00  0.20280163290E-01 0.  0.
         14    1    1    2    0    0 -0.15182334206E-01 -0.66346944967E-02 -0.98471030912E-02  0.19274020917E-01  0.00000000000E+00 0. -1.
     999901    1    3    3    0    0  0.15759542240E-01 -0.86817780238E-01 -0.86839790933E-01  0.88866576362E+00  0.88000000000E+00 0.  1.
        -11    1    4    4    0    0 -0.63699189687E-02  0.20631344030E-01  0.14421500346E-01  0.25970541338E-01  0.51100000000E-03 0. -1.
         11    1    4    4    0    0  0.57927109346E-02  0.72821130705E-01  0.82265393678E-01  0.11001967413E+00  0.51100000000E-03 0.  1.
</event>
<event>
 8    1  0.1116619E+005  0.1043930E+01  0.7957747E-01            NaN
         13   -1    0    0    0    0  0.00000000000E+00  0.00000000000E+00  0.74505805969E-08  0.10566000000E+00  0.10566000000E+00 0.  1.
     999900   -1    0    0    0    0 -0.00000000000E+00 -0.00000000000E+00 -0.74505805969E-08  0.93827000000E+00  0.93827000000E+00 0. -1.
     999902    2    1    2    0    0  0.73889967168E-02  0.17683222611E-01  0.12397624701E-01  0.10211046910E+01  0.10208495458E+01 0.  0.
     999903    2    3    3    0    0  0.25964493627E-01 -0.66556486698E-01  0.10876281986E+00  0.13165113481E+00  0.19968712096E-01 0.  0.
         14    1    1    2    0    0 -0.73889967168E-02 -0.17683222611E-01 -0.12397624701E-01  0.22825309037E-01  0.00000000000E+00 0. -1.
     999901    1    3    3    0    0 -0.18575496910E-01  0.84239709309E-01 -0.96365195159E-01  0.88945355615E+00  0.88000000000E+00 0. -1.
        -11    1    4    4    0    0  0.14233020263E-02 -0.15286365789E-01  0.37291554213E-01  0.40331376177E-01  0.51100000000E-03 0. -1.
         11    1    4    4    0    0  0.24541191601E-01 -0.51270120909E-01  0.71471265648E-01  0.91319758637E-01  0.51100000000E-03 0.  1.
</event>
<event>
 8    1  0.1116619E+005  0.1043930E+01  0.7957747E-01            NaN
         13   -1    0    0    0    0  0.00000000000E+00  0.00000000000E+00  0.74505805969E-08  0.10566000000E+00  0.10566000000E+00 0.  1.
     999900   -1    0    0    0    0 -0.00000000000E+00 -0.00000000000E+00 -0.74505805969E-08  0.93827000000E+00  0.93827000000E+00 0. -1.
     999902    2    1    2    0    0 -0.25581781310E-02 -0.23317368048E-01  0.37856292766E-02  0.10201692147E+01  0.10198924707E+01 0.  0.
     999903    2    3    3    0    0 -0.10390933772E+00 -0.67826554492E-01  0.41681623868E-01  0.13242531492E+00  0.20037821866E-01 0.  0.
         14    1    1    2    0    0  0.25581781310E-02  0.23317368048E-01 -0.37856292766E-02  0.23760785278E-01  0.00000000000E+00 0. -1.
     999901    1    3    3    0    0  0.10135115958E+00  0.44509186444E-01 -0.37895994591E-01  0.88774389980E+00  0.88000000000E+00 0. -1.
        -11    1    4    4    0    0 -0.61340808841E-01 -0.29061230627E-01  0.26613307861E-01  0.72909390555E-01  0.51100000000E-03 0. -1.
         11    1    4    4    0    0 -0.42568528874E-01 -0.38765323865E-01  0.15068316006E-01  0.59515924366E-01  0.51100000000E-03 0.  1.
</event>
<event>
 8    1  0.1116619E+005  0.1043930E+01  0.7957747E-01            NaN
         13   -1    0    0    0    0  0.00000000000E+00  0.00000000000E+00  0.74505805969E-08  0.10566000000E+00  0.10566000000E+00 0. -1.
     999900   -1    0    0    0    0 -0.00000000000E+00 -0.00000000000E+00 -0.74505805969E-08  0.93827000000E+00  0.93827000000E+00 0. -1.
     999902    2    1    2    0    0  0.14411386296E-01 -0.17805222498E-01  0.53962166452E-02  0.10203963399E+01  0.10201249224E+01 0.  0.
     999903    2    3    3    0    0 -0.10177717373E-01 -0.96766872047E-01  0.88074131201E-01  0.13266034105E+00  0.19346835492E-01 0.  0.
         14    1    1    2    0    0 -0.14411386296E-01  0.17805222498E-01 -0.53962166452E-02  0.23533660091E-01  0.00000000000E+00 0.  1.
     999901    1    3    3    0    0  0.24589103670E-01  0.78961649549E-01 -0.82677914556E-01  0.88773599886E+00  0.88000000000E+00 0. -1.
        -11    1    4    4    0    0 -0.27302509726E-02 -0.65839240549E-01  0.69700796547E-01  0.95920394217E-01  0.51100000000E-03 0. -1.
         11    1    4    4    0    0 -0.74474664009E-02 -0.30927631498E-01  0.18373334654E-01  0.36739946831E-01  0.51100000000E-03 0.  1.
</event>
<event>
 8    1  0.1116619E+005  0.1043930E+01  0.7957747E-01            NaN
         13   -1    0    0    0    0  0.00000000000E+00  0.00000000000E+00  0.74505805969E-08  0.10566000000E+00  0.10566000000E+00 0.  1.
     999900   -1    0    0    0    0 -0.00000000000E+00 -0.00000000000E+00 -0.74505805969E-08  0.93827000000E+00  0.93827000000E+00 0.  1.
     999902    2    1    2    0    0  0.76420524887E-02 -0.54078849991E-02  0.21519521130E-01  0.10204622354E+01  0.10201923534E+01 0.  0.
     999903    2    3    3    0    0 -0.91877372862E-01  0.59885431027E-01  0.69254307448E-01  0.13116704088E+00  0.19517095586E-01 0.  0.
         14    1    1    2    0    0 -0.76420524887E-02  0.54078849991E-02 -0.21519521130E-01  0.23467764616E-01  0.00000000000E+00 0. -1.
     999901    1    3    3    0    0  0.99519425351E-01 -0.65293316027E-01 -0.47734786318E-01  0.88929519450E+00  0.88000000000E+00 0.  1.
        -11    1    4    4    0    0 -0.46286805539E-01  0.23737516082E-01  0.42271497877E-01  0.67030431078E-01  0.51100000000E-03 0. -1.
         11    1    4    4    0    0 -0.45590567323E-01  0.36147914945E-01  0.26982809571E-01  0.64136609804E-01  0.51100000000E-03 0.  1.
</event>
<event>
 8    1  0.1176316E+005  0.1043930E+01  0.7957747E-01            NaN
         13   -1    0    0    0    0  0.00000000000E+00  0.00000000000E+00  0.74505805969E-08  0.10566000000E+00  0.10566000000E+00 0. -1.
     999900   -1    0    0    0    0 -0.00000000000E+00 -0.00000000000E+00 -0.74505805969E-08  0.93827000000E+00  0.93827000000E+00 0.  1.
     999902    2    1    2    0    0  0.73049641061E-02 -0.14697157149E-01 -0.17493064192E-01  0.10199429989E+01  0.10196608969E+01 0.  0.
     999903    2    3    3    0    0  0.10448499041E+00 -0.31116413393E-01 -0.72869829710E-01  0.13271127284E+00  0.20418752514E-01 0.  0.
         14    1    1    2    0    0 -0.73049641061E-02  0.14697157149E-01  0.17493064192E-01  0.23987001140E-01  0.00000000000E+00 0. -1.
     999901    1    3    3    0    0 -0.97180026306E-01  0.16419256244E-01  0.55376765518E-01  0.88723172602E+00  0.88000000000E+00 0. -1.
        -11    1    4    4    0    0  0.36533403490E-01 -0.15267675487E-01 -0.16056710852E-01  0.42730206760E-01  0.51100000000E-03 0.  1.
         11    1    4    4    0    0  0.67951586922E-01 -0.15848737907E-01 -0.56813118857E-01  0.89981066085E-01  0.51100000000E-03 0. -1.
</event>
<event>
 8    1  0.1116619E+005  0.1043930E+01  0.7957747E-01            NaN
         13   -1    0    0    0    0  0.00000000000E+00  0.00000000000E+00  0.74505805969E-08  0.10566000000E+00  0.10566000000E+00 0. -1.
     999900   -1    0    0    0    0 -0.00000000000E+00 -0.00000000000E+00 -0.74505805969E-08  0.93827000000E+00  0.93827000000E+00 0.  1.
     999902    2    1    2    0    0  0.93106227358E-02 -0.12558741210E-01  0.18071442903E-01  0.10200346715E+01  0.10197547471E+01 0.  0.
     999903    2    3    3    0    0 -0.10600618664E+00 -0.72848317358E-01 -0.31717244780E-02  0.13021217700E+00  0.20024041918E-01 0.  0.
         14    1    1    2    0    0 -0.93106227358E-02  0.12558741210E-01 -0.18071442903E-01  0.23895328521E-01  0.00000000000E+00 0. -1.
     999901    1    3    3    0    0  0.11531680938E+00  0.60289576148E-01  0.21243167381E-01  0.88982249448E+00  0.88000000000E+00 0. -1.
        -11    1    4    4    0    0 -0.49438300883E-01 -0.36852840274E-01  0.81865362442E-02  0.62205770850E-01  0.51100000000E-03 0. -1.
         11    1    4    4    0    0 -0.56567885761E-01 -0.35995477084E-01 -0.11358260722E-01  0.68006406152E-01  0.51100000000E-03 0.  1.
</event>
<event>
 8    1  0.1116619E+005  0.1043930E+01  0.7957747E-01            NaN
         13   -1    0    0    0    0  0.00000000000E+00  0.00000000000E+00  0.74505805969E-08  0.10566000000E+00  0.10566000000E+00 0. -1.
     999900   -1    0    0    0    0 -0.00000000000E+00 -0.00000000000E+00 -0.74505805969E-08  0.93827000000E+00  0.93827000000E+00 0.  1.
     999902    2    1    2    0    0 -0.21274099739E-01 -0.51828697857E-02 -0.90473596745E-02  0.10202381411E+01  0.10199630192E+01 0.  0.
     999903    2    3    3    0    0  0.43230957101E-01  0.95939684555E-01 -0.73482994109E-01  0.12976712851E+00  0.19142060878E-01 0.  0.
         14    1    1    2    0    0  0.21274099739E-01  0.51828697857E-02  0.90473596745E-02  0.23691858855E-01  0.00000000000E+00 0.  1.
     999901    1    3    3    0    0 -0.64505056840E-01 -0.10112255434E+00  0.64435634435E-01  0.89047101263E+00  0.88000000000E+00 0. -1.
        -11    1    4    4    0    0  0.21833123211E-02  0.24101393062E-01 -0.15846407024E-01  0.28931189689E-01  0.51100000000E-03 0. -1.
         11    1    4    4    0    0  0.41047644780E-01  0.71838291493E-01 -0.57636587085E-01  0.10083593882E+00  0.51100000000E-03 0.  1.
</event>
<event>
 8    1  0.1116619E+005  0.1043930E+01  0.7957747E-01            NaN
         13   -1    0    0    0    0  0.00000000000E+00  0.00000000000E+00  0.74505805969E-08  0.10566000000E+00  0.10566000000E+00 0. -1.
     999900   -1    0    0    0    0 -0.00000000000E+00 -0.00000000000E+00 -0.74505805969E-08  0.93827000000E+00  0.93827000000E+00 0. -1.
     999902    2    1    2    0    0  0.19236713711E-02  0.65187185181E-02 -0.22753158634E-01  0.10201834122E+01  0.10199070027E+01 0.  0.
     999903    2    3    3    0    0  0.20925699195E-01  0.12420521824E+00  0.28221070264E-01  0.13068379937E+00  0.20420712183E-01 0.  0.
         14    1    1    2    0    0 -0.19236713711E-02 -0.65187185181E-02  0.22753158634E-01  0.23746587765E-01  0.00000000000E+00 0. -1.
     999901    1    3    3    0    0 -0.19002027824E-01 -0.11768649972E+00 -0.50974228898E-01  0.88949961287E+00  0.88000000000E+00 0. -1.
        -11    1    4    4    0    0 -0.36686135174E-02  0.23745217457E-01  0.77347183447E-02  0.25246406994E-01  0.51100000000E-03 0.  1.
         11    1    4    4    0    0  0.24594312713E-01  0.10046000078E+00  0.20486351920E-01  0.10543739237E+00  0.51100000000E-03 0. -1.
</event>
<event>
 8    1  0.1116619E+005  0.1043930E+01  0.7957747E-01            NaN
         13   -1    0    0    0    0  0.00000000000E+00  0.00000000000E+00  0.74505805969E-08  0.10566000000E+00  0.10566000000E+00 0.  1.
     999900   -1    0    0    0    0 -0.00000000000E+00 -0.00000000000E+00 -0.74505805969E-08  0.93827000000E+00  0.93827000000E+00 0.  1.
     999902    2    1    2    0    0  0.13703988063E-01 -0.19125844893E-01  0.25768546411E-02  0.10202606652E+01  0.10199860722E+01 0.  0.
     999903    2    3    3    0    0 -0.10593735457E-01  0.56056328740E-01 -0.11386239108E+00  0.12908120145E+00  0.21042177722E-01 0.  0.
         14    1    1    2    0    0 -0.13703988063E-01  0.19125844893E-01 -0.25768546411E-02  0.23669334835E-01  0.00000000000E+00 0. -1.
     999901    1    3    3    0    0  0.24297723520E-01 -0.75182173633E-01  0.11643924572E+00  0.89117946371E+00  0.88000000000E+00 0. -1.
        -11    1    4    4    0    0  0.85965488253E-03  0.29706027977E-01 -0.75572506448E-01  0.81207462444E-01  0.51100000000E-03 0. -1.
         11    1    4    4    0    0 -0.11453390339E-01  0.26350300763E-01 -0.38289884631E-01  0.47873739008E-01  0.51100000000E-03 0.  1.
</event>
<event>
 8    1  0.1116619E+005  0.1043930E+01  0.7957747E-01            NaN
         13   -1    0    0    0    0  0.00000000000E+00  0.00000000000E+00  0.74505805969E-08  0.10566000000E+00  0.10566000000E+00 0.  1.
     999900   -1    0    0    0    0 -0.00000000000E+00 -0.00000000000E+00 -0.74505805969E-08  0.93827000000E+00  0.93827000000E+00 0. -1.
     999902    2    1    2    0    0 -0.11130237759E-01  0.36390513868E-02 -0.17566184752E-01  0.10228184928E+01  0.10226005934E+01 0.  0.
     999903    2    3    3    0    0 -0.10561023429E+00  0.24543671453E-01  0.73781407632E-01  0.13281407964E+00  0.20975467666E-01 0.  0.
         14    1    1    2    0    0  0.11130237759E-01 -0.36390513868E-02  0.17566184752E-01  0.21111507154E-01  0.00000000000E+00 0.  1.
     999901    1    3    3    0    0  0.94479996533E-01 -0.20904620067E-01 -0.91347592384E-01  0.89000441320E+00  0.88000000000E+00 0.  1.
        -11    1    4    4    0    0 -0.77424441745E-01  0.27034142769E-01  0.52055600730E-01  0.97136171137E-01  0.51100000000E-03 0.  1.
         11    1    4    4    0    0 -0.28185792547E-01 -0.24904713155E-02  0.21725806902E-01  0.35677908506E-01  0.51100000000E-03 0. -1.
</event>
<event>
 8    1  0.1116619E+005  0.1043930E+01  0.7957747E-01            NaN
         13   -1    0    0    0    0  0.00000000000E+00  0.00000000000E+00  0.74505805969E-08  0.10566000000E+00  0.10566000000E+00 0.  1.
     999900   -1    0    0    0    0 -0.00000000000E+00 -0.00000000000E+00 -0.74505805969E-08  0.93827000000E+00  0.93827000000E+00 0. -1.
     999902    2    1    2    0    0 -0.10411559459E-01 -0.15279633324E-01 -0.15316924575E-01  0.10199200866E+01  0.10196374390E+01 0.  0.
     999903    2    3    3    0    0  0.11907614888E+00 -0.19815715206E-01 -0.43992579597E-01  0.12997068584E+00  0.19627539736E-01 0.  0.
         14    1    1    2    0    0  0.10411559459E-01  0.15279633324E-01  0.15316924575E-01  0.24009913439E-01  0.00000000000E+00 0.  1.
     999901    1    3    3    0    0 -0.12948770834E+00  0.45360818811E-02  0.28675655022E-01  0.88994940072E+00  0.88000000000E+00 0.  1.
        -11    1    4    4    0    0  0.50004295575E-01 -0.39702988398E-02 -0.27505658457E-01  0.57210271953E-01  0.51100000000E-03 0.  1.
         11    1    4    4    0    0  0.69071853310E-01 -0.15845416366E-01 -0.16486921140E-01  0.72760413888E-01  0.51100000000E-03 0. -1.
</event>
<event>
 8    1  0.1116619E+005  0.1043930E+01  0.7957747E-01            NaN
         13   -1    0    0    0    0  0.00000000000E+00  0.00000000000E+00  0.74505805969E-08  0.10566000000E+00  0.10566000000E+00 0.  1.
     999900   -1    0    0    0    0 -0.00000000000E+00 -0.00000000000E+00 -0.74505805969E-08  0.93827000000E+00  0.93827000000E+00 0.  1.
     999902    2    1    2    0    0  0.44596264414E-02  0.13608128262E-01 -0.18369893545E-01  0.10206378895E+01  0.10203720787E+01 0.  0.
     999903    2    3    3    0    0 -0.10572281335E+00  0.60563031906E-01 -0.46897228857E-01  0.13206670953E+00  0.19926655390E-01 0.  0.
         14    1    1    2    0    0 -0.44596264414E-02 -0.13608128262E-01  0.18369893545E-01  0.23292110502E-01  0.00000000000E+00 0.  1.
     999901    1    3    3    0    0  0.11018243979E+00 -0.46954903645E-01  0.28527335312E-01  0.88857117997E+00  0.88000000000E+00 0. -1.
        -11    1    4    4    0    0 -0.74443052469E-01  0.47497243229E-01 -0.25261773845E-01  0.91848650040E-01  0.51100000000E-03 0.  1.
         11    1    4    4    0    0 -0.31279760878E-01  0.13065788678E-01 -0.21635455012E-01  0.40218059488E-01  0.51100000000E-03 0. -1.
</event>
<event>
 8    1  0.1116619E+005  0.1043930E+01  0.7957747E-01            NaN
         13   -1    0    0    0    0  0.00000000000E+00  0.00000000000E+00  0.74505805969E-08  0.10566000000E+00  0.10566000000E+00 0. -1.
     999900   -1    0    0    0    0 -0.00000000000E+00 -0.00000000000E+00 -0.74505805969E-08  0.93827000000E+00  0.93827000000E+00 0.  1.
     999902    2    1    2    0    0  0.29700481142E-03 -0.99095694364E-02  0.17913710815E-01  0.10234558990E+01  0.10232510876E+01 0.  0.
     999903    2    3    3    0    0 -0.43590323733E-01  0.11164337814E+00  0.55230778782E-01  0.13323470160E+00  0.18349021203E-01 0.  0.
         14    1    1    2    0    0 -0.29700481142E-03  0.99095694364E-02 -0.17913710815E-01  0.20474101041E-01  0.00000000000E+00 0.  1.
     999901    1    3    3    0    0  0.43887328544E-01 -0.12155294758E+00 -0.37317067968E-01  0.89022119736E+00  0.88000000000E+00 0. -1.
        -11    1    4    4    0    0 -0.14877969824E-01  0.18319291567E-01  0.10822933764E-01  0.25968200667E-01  0.51100000000E-03 0.  1.
         11    1    4    4    0    0 -0.28712353909E-01  0.93324086573E-01  0.44407845018E-01  0.10726650093E+00  0.51100000000E-03 0. -1.
</event>
<event>
 8    1  0.1116619E+005  0.1043930E+01  0.7957747E-01            NaN
         13   -1    0    0    0    0  0.00000000000E+00  0.00000000000E+00  0.74505805969E-08  0.10566000000E+00  0.10566000000E+00 0.  1.
     999900   -1    0    0    0    0 -0.00000000000E+00 -0.00000000000E+00 -0.74505805969E-08  0.93827000000E+00  0.93827000000E+00 0.  1.
     999902    2    1    2    0    0 -0.19031326245E-01  0.51455334794E-02  0.77155631540E-02  0.10227593172E+01  0.10225401817E+01 0.  0.
     999903    2    3    3    0    0  0.55311929955E-01 -0.98378989605E-01  0.67339436382E-01  0.13158074206E+00  0.64075577697E-02 0.  0.
         14    1    1    2    0    0  0.19031326245E-01 -0.51455334794E-02 -0.77155631540E-02  0.21170682753E-01  0.00000000000E+00 0. -1.
     999901    1    3    3    0    0 -0.74343256200E-01  0.10352452308E+00 -0.59623873228E-01  0.89117857519E+00  0.88000000000E+00 0.  1.
        -11    1    4    4    0    0  0.28701140681E-01 -0.55774433769E-01  0.34915339304E-01  0.71790563296E-01  0.51100000000E-03 0.  1.
         11    1    4    4    0    0  0.26610789274E-01 -0.42604555836E-01  0.32424097077E-01  0.59790178759E-01  0.51100000000E-03 0. -1.
</event>
<event>
 8    1  0.1116619E+005  0.1043930E+01  0.7957747E-01            NaN
         13   -1    0    0    0    0  0.00000000000E+00  0.00000000000E+00  0.74505805969E-08  0.10566000000E+00  0.10566000000E+00 0. -1.
     999900   -1    0    0    0    0 -0.00000000000E+00 -0.00000000000E+00 -0.74505805969E-08  0.93827000000E+00  0.93827000000E+00 0.  1.
     999902    2    1    2    0    0  0.13528071897E-01 -0.14913399736E-01  0.12344877047E-01  0.10203119093E+01  0.10200385179E+01 0.  0.
     999903    2    3    3    0    0  0.24986379031E-01 -0.12049348969E+00 -0.44847514371E-01  0.13208366279E+00  0.17081985720E-01 0.  0.
         14    1    1    2    0    0 -0.13528071897E-01  0.14913399736E-01 -0.12344877047E-01  0.23618090741E-01  0.00000000000E+00 0.  1.
     999901    1    3    3    0    0 -0.11458307134E-01  0.10558008995E+00  0.57192391418E-01  0.88822824647E+00  0.88000000000E+00 0. -1.
        -11    1    4    4    0    0 -0.18455315208E-02 -0.12740990545E-01 -0.18993271331E-02  0.13023340248E-01  0.51100000000E-03 0.  1.
         11    1    4    4    0    0  0.26831910552E-01 -0.10775249914E+00 -0.42948187238E-01  0.11906032254E+00  0.51100000000E-03 0. -1.
</event>
<event>
 8    1  0.1116619E+005  0.1043930E+01  0.7957747E-01            NaN
         13   -1    0    0    0    0  0.00000000000E+00  0.00000000000E+00  0.74505805969E-08  0.10566000000E+00  0.10566000000E+00 0.  1.
     999900   -1    0    0    0    0 -0.00000000000E+00 -0.00000000000E+00 -0.74505805969E-08  0.93827000000E+00  0.93827000000E+00 0.  1.
     999902    2    1    2    0    0  0.14244407445E-01  0.31455570028E-01 -0.99494294465E-02  0.10079946807E+01  0.10073539244E+01 0.  0.
     999903    2    3    3    0    0  0.93052166055E-01  0.78191321861E-01  0.27103174396E-02  0.12314714436E+00  0.19628676000E-01 0.  0.
         14    1    1    2    0    0 -0.14244407445E-01 -0.31455570028E-01  0.99494294465E-02  0.35935319333E-01  0.00000000000E+00 0. -1.
     999901    1    3    3    0    0 -0.78807758610E-01 -0.46735751833E-01 -0.12659746886E-01  0.88484753631E+00  0.88000000000E+00 0.  1.
        -11    1    4    4    0    0  0.39766475300E-01  0.25357617424E-01  0.83332200564E-02  0.47896607361E-01  0.51100000000E-03 0. -1.
         11    1    4    4    0    0  0.53285690755E-01  0.52833704437E-01 -0.56229026168E-02  0.75250536999E-01  0.51100000000E-03 0.  1.
</event>
<event>
 8    1  0.1116619E+005  0.1043930E+01  0.7957747E-01            NaN
         13   -1    0    0    0    0  0.00000000000E+00  0.00000000000E+00  0.74505805969E-08  0.10566000000E+00  0.10566000000E+00 0. -1.
     999900   -1    0    0    0    0 -0.00000000000E+00 -0.00000000000E+00 -0.74505805969E-08  0.93827000000E+00  0.93827000000E+00 0. -1.
     999902    2    1    2    0    0 -0.95104038508E-02 -0.21928430757E-01  0.23138175173E-02  0.10199163037E+01  0.10196335660E+01 0.  0.
     999903    2    3    3    0    0 -0.10057804326E+00 -0.29116917726E-01 -0.77692627977E-01  0.13157739284E+00  0.17684122259E-01 0.  0.
         14    1    1    2    0    0  0.95104038508E-02  0.21928430757E-01 -0.23138175173E-02  0.24013696267E-01  0.00000000000E+00 0. -1.
     999901    1    3    3    0    0  0.91067639408E-01  0.71884869682E-02  0.80006445494E-01  0.88833891090E+00  0.88000000000E+00 0.  1.
        -11    1    4    4    0    0 -0.48810366634E-01 -0.22403899971E-01 -0.34637278947E-01  0.63909223424E-01  0.51100000000E-03 0.  1.
         11    1    4    4    0    0 -0.51767676625E-01 -0.67130177550E-02 -0.43055349030E-01  0.67668169412E-01  0.51100000000E-03 0. -1.
</event>
<event>
 8    1  0.1116619E+005  0.1043930E+01  0.7957747E-01            NaN
         13   -1    0    0    0    0  0.00000000000E+00  0.00000000000E+00  0.74505805969E-08  0.10566000000E+00  0.10566000000E+00 0.  1.
     999900   -1    0    0    0    0 -0.00000000000E+00 -0.00000000000E+00 -0.74505805969E-08  0.93827000000E+00  0.93827000000E+00 0. -1.
     999902    2    1    2    0    0 -0.21526908300E-01  0.88850301416E-02  0.69350697570E-02  0.10196308903E+01  0.10193413097E+01 0.  0.
     999903    2    3    3    0    0 -0.10520167295E+00  0.79002317967E-01 -0.45548833097E-03  0.13285441299E+00  0.18475100687E-01 0.  0.
         14    1    1    2    0    0  0.21526908300E-01 -0.88850301416E-02 -0.69350697570E-02  0.24299109739E-01  0.00000000000E+00 0. -1.
     999901    1    3    3    0    0  0.83674764651E-01 -0.70117287825E-01  0.73905580880E-02  0.88677647727E+00  0.88000000000E+00 0.  1.
        -11    1    4    4    0    0 -0.27867909581E-01  0.11352505995E-01 -0.75762194350E-03  0.30105396340E-01  0.51100000000E-03 0.  1.
         11    1    4    4    0    0 -0.77333763371E-01  0.67649811972E-01  0.30213361253E-03  0.10274901665E+00  0.51100000000E-03 0. -1.
</event>
<event>
 8    1  0.1116619E+005  0.1043930E+01  0.7957747E-01            NaN
         13   -1    0    0    0    0  0.00000000000E+00  0.00000000000E+00  0.74505805969E-08  0.10566000000E+00  0.10566000000E+00 0. -1.
     999900   -1    0    0    0    0 -0.00000000000E+00 -0.00000000000E+00 -0.74505805969E-08  0.93827000000E+00  0.93827000000E+00 0.  1.
     999902    2    1    2    0    0  0.10611041250E-01 -0.95242955760E-02  0.22582952948E-01  0.10172223950E+01  0.10168717248E+01 0.  0.
     999903    2    3    3    0    0  0.21962570660E-01  0.51059327481E-01 -0.11029679950E+00  0.12511463174E+00  0.19971921862E-01 0.  0.
         14    1    1    2    0    0 -0.10611041250E-01  0.95242955760E-02 -0.22582952948E-01  0.26707605031E-01  0.00000000000E+00 0.  1.
     999901    1    3    3    0    0 -0.11351529410E-01 -0.60583623057E-01  0.13287975245E+00  0.89210776323E+00  0.88000000000E+00 0. -1.
        -11    1    4    4    0    0  0.77268928433E-02  0.25752506863E-01 -0.33167991882E-01  0.42699804323E-01  0.51100000000E-03 0. -1.
         11    1    4    4    0    0  0.14235677816E-01  0.25306820618E-01 -0.77128807618E-01  0.82414827417E-01  0.51100000000E-03 0.  1.
</event>
<event>
 8    1  0.1116619E+005  0.1043930E+01  0.7957747E-01            NaN
         13   -1    0    0    0    0  0.00000000000E+00  0.00000000000E+00  0.74505805969E-08  0.10566000000E+00  0.10566000000E+00 0.  1.
     999900   -1    0    0    0    0 -0.00000000000E+00 -0.00000000000E+00 -0.74505805969E-08  0.93827000000E+00  0.93827000000E+00 0.  1.
     999902    2    1    2    0    0 -0.19880829276E-01  0.14120658578E-01 -0.32309814572E-02  0.10193316339E+01  0.10190347886E+01 0.  0.
     999903    2    3    3    0    0  0.32787778091E-01 -0.11138487408E-01 -0.12288604747E+00  0.12931515012E+00  0.20550501089E-01 0.  0.
         14    1    1    2    0    0  0.19880829276E-01 -0.14120658578E-01  0.32309814572E-02  0.24598366054E-01  0.00000000000E+00 0.  1.
     999901    1    3    3    0    0 -0.52668607367E-01  0.25259145985E-01  0.11965506601E+00  0.89001648382E+00  0.88000000000E+00 0. -1.
        -11    1    4    4    0    0  0.19317166028E-01  0.23913928462E-02 -0.80556370353E-01  0.82876182276E-01  0.51100000000E-03 0. -1.
         11    1    4    4    0    0  0.13470612063E-01 -0.13529880254E-01 -0.42329677113E-01  0.46438967845E-01  0.51100000000E-03 0.  1.
</event>
<event>
 8    1  0.1116619E+005  0.1043930E+01  0.7957747E-01            NaN
         13   -1    0    0    0    0  0.00000000000E+00  0.00000000000E+00  0.74505805969E-08  0.10566000000E+00  0.10566000000E+00 0. -1.
     999900   -1    0    0    0    0 -0.00000000000E+00 -0.00000000000E+00 -0.74505805969E-08  0.93827000000E+00  0.93827000000E+00 0.  1.
     999902    2    1    2    0    0 -0.81975518351E-02  0.69145485119E-02 -0.21441464534E-01  0.10199561134E+01  0.10196743235E+01 0.  0.
     999903    2    3    3    0    0 -0.74259769218E-01 -0.10452028196E+00 -0.10367410048E-01  0.13040309492E+00  0.21412176652E-01 0.  0.
         14    1    1    2    0    0  0.81975518351E-02 -0.69145485119E-02  0.21441464534E-01  0.23973886597E-01  0.00000000000E+00 0. -1.
     999901    1    3    3    0    0  0.66062217383E-01  0.11143483047E+00 -0.11074054486E-01  0.88955301848E+00  0.88000000000E+00 0.  1.
        -11    1    4    4    0    0 -0.55044477068E-01 -0.75481985527E-01 -0.16991432665E-01  0.94954697092E-01  0.51100000000E-03 0. -1.
         11    1    4    4    0    0 -0.19215292150E-01 -0.29038296431E-01  0.66240226172E-02  0.35448397829E-01  0.51100000000E-03 0.  1.
</event>
<event>
 8    1  0.1116619E+005  0.1043930E+01  0.7957747E-01            NaN
         13   -1    0    0    0    0  0.00000000000E+00  0.00000000000E+00  0.74505805969E-08  0.10566000000E+00  0.10566000000E+00 0. -1.
     999900   -1    0    0    0    0 -0.00000000000E+00 -0.00000000000E+00 -0.74505805969E-08  0.93827000000E+00  0.93827000000E+00 0. -1.
     999902    2    1    2    0    0  0.71985702718E-02  0.20130112398E-01  0.10926318420E-01  0.10199211418E+01  0.10196385194E+01 0.  0.
     999903    2    3    3    0    0 -0.29320757019E-01  0.46237547019E-01 -0.11581390103E+00  0.12970861511E+00  0.20343244974E-01 0.  0.
         14    1    1    2    0    0 -0.71985702718E-02 -0.20130112398E-01 -0.10926318420E-01  0.24008858226E-01  0.00000000000E+00 0.  1.
     999901    1    3    3    0    0  0.36519327290E-01 -0.26107434621E-01  0.12674021945E+00  0.89021252667E+00  0.88000000000E+00 0.  1.
        -11    1    4    4    0    0 -0.30565836761E-01  0.32782783053E-01 -0.86401432626E-01  0.97336786070E-01  0.51100000000E-03 0.  1.
         11    1    4    4    0    0  0.12450797419E-02  0.13454763966E-01 -0.29412468399E-01  0.32371829038E-01  0.51100000000E-03 0. -1.
</event>
<event>
 8    1  0.1116619E+005  0.1043930E+01  0.7957747E-01            NaN
         13   -1    0    0    0    0  0.00000000000E+00  0.00000000000E+00  0.74505805969E-08  0.10566000000E+00  0.10566000000E+00 0.  1.
     999900   -1    0    0    0    0 -0.00000000000E+00 -0.00000000000E+00 -0.74505805969E-08  0.93827000000E+00  0.93827000000E+00 0. -1.
     999902    2    1    2    0    0 -0.17782996289E-01 -0.15119570011E-01  0.44962513463E-02  0.10201591643E+01  0.10198821833E+01 0.  0.
     999903    2    3    3    0    0 -0.95567293972E-01  0.69006067520E-02 -0.88051158818E-01  0.13162086557E+00  0.19756508661E-01 0.  0.
         14    1    1    2    0    0  0.17782996289E-01  0.15119570011E-01 -0.44962513463E-02  0.23770835713E-01  0.00000000000E+00 0.  1.
     999901    1    3    3    0    0  0.77784297683E-01 -0.22020176763E-01  0.92547410165E-01  0.88853829871E+00  0.88000000000E+00 0.  1.
        -11    1    4    4    0    0 -0.47069402247E-01  0.10731376920E-01 -0.52766685227E-01  0.71521152601E-01  0.51100000000E-03 0. -1.
         11    1    4    4    0    0 -0.48497891725E-01 -0.38307701676E-02 -0.35284473592E-01  0.60099712974E-01  0.51100000000E-03 0.  1.
</event>
<event>
 8    1  0.1116619E+005  0.1043930E+01  0.7957747E-01            NaN
         13   -1    0    0    0    0  0.00000000000E+00  0.00000000000E+00  0.74505805969E-08  0.10566000000E+00  0.10566000000E+00 0. -1.
     999900   -1    0    0    0    0 -0.00000000000E+00 -0.00000000000E+00 -0.74505805969E-08  0.93827000000E+00  0.93827000000E+00 0. -1.
     999902    2    1    2    0    0  0.15365228723E-01  0.51087142135E-02 -0.16732305176E-01  0.10206456866E+01  0.10203800558E+01 0.  0.
     999903    2    3    3    0    0 -0.10862154958E+00  0.40026493061E-01 -0.56673476001E-01  0.13037198171E+00  0.19601264062E-01 0.  0.
         14    1    1    2    0    0 -0.15365228723E-01 -0.51087142135E-02  0.16732305176E-01  0.23284313413E-01  0.00000000000E+00 0. -1.
     999901    1    3    3    0    0  0.12398677830E+00 -0.34917778847E-01  0.39941170825E-01  0.89027370488E+00  0.88000000000E+00 0.  1.
        -11    1    4    4    0    0 -0.36569568444E-01  0.39318190964E-02 -0.16257417445E-01  0.40216380749E-01  0.51100000000E-03 0.  1.
         11    1    4    4    0    0 -0.72051981134E-01  0.36094673964E-01 -0.40416058556E-01  0.90155600958E-01  0.51100000000E-03 0. -1.
</event>
<event>
 8    1  0.1116619E+005  0.1043930E+01  0.7957747E-01            NaN
         13   -1    0    0    0    0  0.00000000000E+00  0.00000000000E+00  0.74505805969E-08  0.10566000000E+00  0.10566000000E+00 0.  1.
     999900   -1    0    0    0    0 -0.00000000000E+00 -0.00000000000E+00 -0.74505805969E-08  0.93827000000E+00  0.93827000000E+00 0.  1.
     999902    2    1    2    0    0 -0.65348877738E-02  0.21223682706E-01 -0.56853558002E-02  0.10210068079E+01  0.10207494448E+01 0.  0.
     999903    2    3    3    0    0  0.12731820985E+00 -0.16597073322E-01  0.29997325278E-03  0.13006186824E+00  0.20751148999E-01 0.  0.
         14    1    1    2    0    0  0.65348877738E-02 -0.21223682706E-01  0.56853558002E-02  0.22923192107E-01  0.00000000000E+00 0. -1.
     999901    1    3    3    0    0 -0.13385309762E+00  0.37820756027E-01 -0.59853290530E-02  0.89094493965E+00  0.88000000000E+00 0.  1.
        -11    1    4    4    0    0  0.28438164539E-01 -0.21254658217E-03  0.79703927936E-02  0.29539171632E-01  0.51100000000E-03 0. -1.
         11    1    4    4    0    0  0.98880045307E-01 -0.16384526739E-01 -0.76704195409E-02  0.10052269661E+00  0.51100000000E-03 0.  1.
</event>
<event>
 8    1  0.1116619E+005  0.1043930E+01  0.7957747E-01            NaN
         13   -1    0    0    0    0  0.00000000000E+00  0.00000000000E+00  0.74505805969E-08  0.10566000000E+00  0.10566000000E+00 0.  1.
     999900   -1    0    0    0    0 -0.00000000000E+00 -0.00000000000E+00 -0.74505805969E-08  0.93827000000E+00  0.93827000000E+00 0.  1.
     999902    2    1    2    0    0  0.17432368032E-01 -0.10104071154E-01  0.12198573424E-01  0.10203761277E+01  0.10201042383E+01 0.  0.
     999903    2    3    3    0    0 -0.67932180358E-01  0.10555372664E+00 -0.17277639010E-01  0.12822553531E+00  0.19669793076E-01 0.  0.
         14    1    1    2    0    0 -0.17432368032E-01  0.10104071154E-01 -0.12198573424E-01  0.23553872350E-01  0.00000000000E+00 0. -1.
     999901    1    3    3    0    0  0.85364548390E-01 -0.11565779780E+00  0.29476212434E-01  0.89215059234E+00  0.88000000000E+00 0.  1.
        -11    1    4    4    0    0 -0.39904450719E-01  0.65312512604E-01 -0.98073011786E-03  0.76546145837E-01  0.51100000000E-03 0.  1.
         11    1    4    4    0    0 -0.28027729639E-01  0.40241214038E-01 -0.16296908892E-01  0.51679389474E-01  0.51100000000E-03 0. -1.
</event>
<event>
 8    1  0.1116619E+005  0.1043930E+01  0.7957747E-01            NaN
         13   -1    0    0    0    0  0.00000000000E+00  0.00000000000E+00  0.74505805969E-08  0.10566000000E+00  0.10566000000E+00 0.  1.
     999900   -1    0    0    0    0 -0.00000000000E+00 -0.00000000000E+00 -0.74505805969E-08  0.93827000000E+00  0.93827000000E+00 0. -1.
     999902    2    1    2    0    0  0.62282013716E-02  0.91439120730E-02 -0.20875936309E-01  0.10203036093E+01  0.10200300235E+01 0.  0.
     999903    2    3    3    0    0 -0.92865779316E-01  0.88130946328E-01 -0.21003435596E-01  0.13122623087E+00  0.19699306941E-01 0.  0.
         14    1    1    2    0    0 -0.62282013716E-02 -0.91439120730E-02  0.20875936309E-01  0.23626390691E-01  0.00000000000E+00 0.  1.
     999901    1    3    3    0    0  0.99093980687E-01 -0.78987034255E-01  0.12749928750E-03  0.88907737843E+00  0.88000000000E+00 0.  1.
        -11    1    4    4    0    0 -0.53818676677E-01  0.64030632419E-01 -0.13581427328E-01  0.84741301244E-01  0.51100000000E-03 0. -1.
         11    1    4    4    0    0 -0.39047102638E-01  0.24100313909E-01 -0.74220082680E-02  0.46484929630E-01  0.51100000000E-03 0.  1.
</event>
<event>
 8    1  0.1116619E+005  0.1043930E+01  0.7957747E-01            NaN
         13   -1    0    0    0    0  0.00000000000E+00  0.00000000000E+00  0.74505805969E-08  0.10566000000E+00  0.10566000000E+00 0.  1.
     999900   -1    0    0    0    0 -0.00000000000E+00 -0.00000000000E+00 -0.74505805969E-08  0.93827000000E+00  0.93827000000E+00 0. -1.
     999902    2    1    2    0    0 -0.22781001975E-01 -0.18756484740E-02  0.50013710510E-02  0.10205311577E+01  0.10202628769E+01 0.  0.
     999903    2    3    3    0    0  0.15577368513E-01 -0.12248603223E+00  0.38519558077E-01  0.13084486574E+00  0.19777260558E-01 0.  0.
         14    1    1    2    0    0  0.22781001975E-01  0.18756484740E-02 -0.50013710510E-02  0.23398842291E-01  0.00000000000E+00 0. -1.
     999901    1    3    3    0    0 -0.38358370488E-01  0.12061038375E+00 -0.33518187026E-01  0.88968629197E+00  0.88000000000E+00 0. -1.
        -11    1    4    4    0    0  0.13395064840E-01 -0.66796083238E-01  0.30086244228E-01  0.74475416821E-01  0.51100000000E-03 0.  1.
         11    1    4    4    0    0  0.21823036731E-02 -0.55689948991E-01  0.84333138492E-02  0.56369448919E-01  0.51100000000E-03 0. -1.
</event>
<event>
 8    1  0.1116619E+005  0.1043930E+01  0.7957747E-01            NaN
         13   -1    0    0    0    0  0.00000000000E+00  0.00000000000E+00  0.74505805969E-08  0.10566000000E+00  0.10566000000E+00 0. -1.
     999900   -1    0    0    0    0 -0.00000000000E+00 -0.00000000000E+00 -0.74505805969E-08  0.93827000000E+00  0.93827000000E+00 0. -1.
     999902    2    1    2    0    0  0.78581038726E-02 -0.23200314504E-01 -0.12371447466E-02  0.10194037912E+01  0.10191087060E+01 0.  0.
     999903    2    3    3    0    0 -0.12625106530E-01  0.12322939721E+00 -0.18421715648E-01  0.12690363333E+00  0.20501094933E-01 0.  0.
         14    1    1    2    0    0 -0.78581038726E-02  0.23200314504E-01  0.12371447466E-02  0.24526208771E-01  0.00000000000E+00 0.  1.
     999901    1    3    3    0    0  0.20483210403E-01 -0.14642971171E+00  0.17184570901E-01  0.89250015790E+00  0.88000000000E+00 0.  1.
        -11    1    4    4    0    0  0.17915515989E-03  0.89129859459E-01 -0.13013055962E-01  0.90076438041E-01  0.51100000000E-03 0.  1.
         11    1    4    4    0    0 -0.12804261690E-01  0.34099537746E-01 -0.54086596858E-02  0.36827195285E-01  0.51100000000E-03 0. -1.
</event>
<event>
 8    1  0.1116619E+005  0.1043930E+01  0.7957747E-01            NaN
         13   -1    0    0    0    0  0.00000000000E+00  0.00000000000E+00  0.74505805969E-08  0.10566000000E+00  0.10566000000E+00 0. -1.
     999900   -1    0    0    0    0 -0.00000000000E+00 -0.00000000000E+00 -0.74505805969E-08  0.93827000000E+00  0.93827000000E+00 0.  1.
     999902    2    1    2    0    0 -0.84602416016E-02  0.70546456931E-02  0.20600975925E-01  0.10205688373E+01  0.10203014298E+01 0.  0.
     999903    2    3    3    0    0  0.92055126206E-01  0.74609764920E-01  0.47727636908E-01  0.13186028606E+00  0.32687068291E-01 0.  0.
         14    1    1    2    0    0  0.84602416016E-02 -0.70546456931E-02 -0.20600975925E-01  0.23361162704E-01  0.00000000000E+00 0.  1.
     999901    1    3    3    0    0 -0.10051536781E+00 -0.67555119226E-01 -0.27126660983E-01  0.88870855123E+00  0.88000000000E+00 0.  1.
        -11    1    4    4    0    0  0.10635019091E-01  0.14526426317E-01  0.20052933530E-01  0.26953700243E-01  0.51100000000E-03 0. -1.
         11    1    4    4    0    0  0.81420107115E-01  0.60083338602E-01  0.27674703378E-01  0.10490658582E+00  0.51100000000E-03 0.  1.
</event>
<event>
 8    1  0.1116619E+005  0.1043930E+01  0.7957747E-01            NaN
         13   -1    0    0    0    0  0.00000000000E+00  0.00000000000E+00  0.74505805969E-08  0.10566000000E+00  0.10566000000E+00 0. -1.
     999900   -1    0    0    0    0 -0.00000000000E+00 -0.00000000000E+00 -0.74505805969E-08  0.93827000000E+00  0.93827000000E+00 0. -1.
     999902    2    1    2    0    0  0.64855888360E-02 -0.44759380781E-02  0.17633998129E-01  0.10246153741E+01  0.10244333117E+01 0.  0.
     999903    2    3    3    0    0 -0.82238945837E-01  0.10156735310E+00  0.21177698306E-01  0.13381248878E+00  0.19445200415E-01 0.  0.
         14    1    1    2    0    0 -0.64855888360E-02  0.44759380781E-02 -0.17633998129E-01  0.19314625915E-01  0.00000000000E+00 0.  1.
     999901    1    3    3    0    0  0.88724534673E-01 -0.10604329118E+00 -0.35437001778E-02  0.89080288531E+00  0.88000000000E+00 0. -1.
        -11    1    4    4    0    0 -0.32671050474E-01  0.55072541904E-01  0.13200176318E-01  0.65382629090E-01  0.51100000000E-03 0.  1.
         11    1    4    4    0    0 -0.49567895363E-01  0.46494811198E-01  0.79775219884E-02  0.68429859690E-01  0.51100000000E-03 0. -1.
</event>
<event>
 8    1  0.1116619E+005  0.1043930E+01  0.7957747E-01            NaN
         13   -1    0    0    0    0  0.00000000000E+00  0.00000000000E+00  0.74505805969E-08  0.10566000000E+00  0.10566000000E+00 0.  1.
     999900   -1    0    0    0    0 -0.00000000000E+00 -0.00000000000E+00 -0.74505805969E-08  0.93827000000E+00  0.93827000000E+00 0.  1.
     999902    2    1    2    0    0  0.14601482234E-01 -0.74714966049E-02  0.22484013585E-01  0.10160991284E+01  0.10157179143E+01 0.  0.
     999903    2    3    3    0    0  0.44465833265E-01 -0.11867280767E+00  0.30812689642E-02  0.12838629337E+00  0.20324873932E-01 0.  0.
         14    1    1    2    0    0 -0.14601482234E-01  0.74714966049E-02 -0.22484013585E-01  0.27830871561E-01  0.00000000000E+00 0. -1.
     999901    1    3    3    0    0 -0.29864351031E-01  0.11120131106E+00  0.19402744621E-01  0.88771283507E+00  0.88000000000E+00 0. -1.
        -11    1    4    4    0    0  0.17158818130E-01 -0.66131392343E-01 -0.55340036197E-02  0.68546862874E-01  0.51100000000E-03 0. -1.
         11    1    4    4    0    0  0.27307015135E-01 -0.52541415323E-01  0.86152725839E-02  0.59839430498E-01  0.51100000000E-03 0.  1.
</event>
<event>
 8    1  0.1116619E+005  0.1043930E+01  0.7957747E-01            NaN
         13   -1    0    0    0    0  0.00000000000E+00  0.00000000000E+00  0.74505805969E-08  0.10566000000E+00  0.10566000000E+00 0.  1.
     999900   -1    0    0    0    0 -0.00000000000E+00 -0.00000000000E+00 -0.74505805969E-08  0.93827000000E+00  0.93827000000E+00 0.  1.
     999902    2    1    2    0    0 -0.20976294887E-02  0.18147689054E-01  0.14883019722E-01  0.10203664064E+01  0.10200942899E+01 0.  0.
     999903    2    3    3    0    0  0.62057840004E-01 -0.98127076783E-01  0.53652619799E-01  0.12955844318E+00  0.20656424770E-01 0.  0.
         14    1    1    2    0    0  0.20976294887E-02 -0.18147689054E-01 -0.14883019722E-01  0.23563593604E-01  0.00000000000E+00 0. -1.
     999901    1    3    3    0    0 -0.64155469493E-01  0.11627476584E+00 -0.38769600077E-01  0.89080796321E+00  0.88000000000E+00 0.  1.
        -11    1    4    4    0    0  0.18127651508E-01 -0.45025622805E-01  0.27882245622E-01  0.55978560182E-01  0.51100000000E-03 0. -1.
         11    1    4    4    0    0  0.43930188497E-01 -0.53101453978E-01  0.25770374178E-01  0.73579882999E-01  0.51100000000E-03 0.  1.
</event>
<event>
 8    1  0.1116619E+005  0.1043930E+01  0.7957747E-01            NaN
         13   -1    0    0    0    0  0.00000000000E+00  0.00000000000E+00  0.74505805969E-08  0.10566000000E+00  0.10566000000E+00 0. -1.
     999900   -1    0    0    0    0 -0.00000000000E+00 -0.00000000000E+00 -0.74505805969E-08  0.93827000000E+00  0.93827000000E+00 0.  1.
     999902    2    1    2    0    0  0.22042741089E-01  0.79696390305E-02  0.21537622352E-02  0.10203920249E+01  0.10201205067E+01 0.  0.
     999903    2    3    3    0    0 -0.77209283803E-01 -0.68465920810E-01 -0.73526541425E-01  0.12830409894E+00  0.20172597555E-01 0.  0.
         14    1    1    2    0    0 -0.22042741089E-01 -0.79696390305E-02 -0.21537622352E-02  0.23537975120E-01  0.00000000000E+00 0.  1.
     999901    1    3    3    0    0  0.99252024892E-01  0.76435559841E-01  0.75680303660E-01  0.89208792594E+00  0.88000000000E+00 0. -1.
        -11    1    4    4    0    0 -0.53284092967E-01 -0.39519362600E-01 -0.37233383913E-01  0.76076018443E-01  0.51100000000E-03 0.  1.
         11    1    4    4    0    0 -0.23925190837E-01 -0.28946558210E-01 -0.36293157512E-01  0.52228080493E-01  0.51100000000E-03 0. -1.
</event>
<event>
 8    1  0.1116619E+005  0.1043930E+01  0.7957747E-01            NaN
         13   -1    0    0    0    0  0.00000000000E+00  0.00000000000E+00  0.74505805969E-08  0.10566000000E+00  0.10566000000E+00 0. -1.
     999900   -1    0    0    0    0 -0.00000000000E+00 -0.00000000000E+00 -0.74505805969E-08  0.93827000000E+00  0.93827000000E+00 0. -1.
     999902    2    1    2    0    0  0.79791578428E-02 -0.19759087318E-01 -0.11107374062E-01  0.10198995558E+01  0.10196164189E+01 0.  0.
     999903    2    3    3    0    0 -0.34637626476E-01  0.92458247093E-01 -0.80551181272E-01  0.12903965499E+00  0.20357974671E-01 0.  0.
         14    1    1    2    0    0 -0.79791578428E-02  0.19759087318E-01  0.11107374062E-01  0.24030444234E-01  0.00000000000E+00 0. -1.
     999901    1    3    3    0    0  0.42616784319E-01 -0.11221733441E+00  0.69443807210E-01  0.89085990077E+00  0.88000000000E+00 0.  1.
        -11    1    4    4    0    0 -0.19120112200E-01  0.58203902489E-01 -0.61776909478E-01  0.87005290765E-01  0.51100000000E-03 0.  1.
         11    1    4    4    0    0 -0.15517514276E-01  0.34254344604E-01 -0.18774271795E-01  0.42034364227E-01  0.51100000000E-03 0. -1.
</event>
<event>
 8    1  0.1116619E+005  0.1043930E+01  0.7957747E-01            NaN
         13   -1    0    0    0    0  0.00000000000E+00  0.00000000000E+00  0.74505805969E-08  0.10566000000E+00  0.10566000000E+00 0. -1.
     999900   -1    0    0    0    0 -0.00000000000E+00 -0.00000000000E+00 -0.74505805969E-08  0.93827000000E+00  0.93827000000E+00 0.  1.
     999902    2    1    2    0    0  0.16691882242E-01 -0.69820970822E-02 -0.51019295993E-02  0.10251311091E+01  0.10249587273E+01 0.  0.
     999903    2    3    3    0    0  0.80744857638E-02  0.10142199443E+00  0.84847597437E-01  0.13388668474E+00  0.19362626028E-01 0.  0.
         14    1    1    2    0    0 -0.16691882242E-01  0.69820970822E-02  0.51019295993E-02  0.18798890874E-01  0.00000000000E+00 0. -1.
     999901    1    3    3    0    0  0.86173964783E-02 -0.10840409151E+00 -0.89949527036E-01  0.89124442438E+00  0.88000000000E+00 0.  1.
        -11    1    4    4    0    0  0.56269538067E-02  0.91794625561E-01  0.68209389791E-01  0.11450195574E+00  0.51100000000E-03 0. -1.
         11    1    4    4    0    0  0.24475319571E-02  0.96273688678E-02  0.16638207646E-01  0.19384729007E-01  0.51100000000E-03 0.  1.
</event>
<event>
 8    1  0.1116619E+005  0.1043930E+01  0.7957747E-01            NaN
         13   -1    0    0    0    0  0.00000000000E+00  0.00000000000E+00  0.74505805969E-08  0.10566000000E+00  0.10566000000E+00 0.  1.
     999900   -1    0    0    0    0 -0.00000000000E+00 -0.00000000000E+00 -0.74505805969E-08  0.93827000000E+00  0.93827000000E+00 0. -1.
     999902    2    1    2    0    0 -0.20435505962E-01  0.10504651733E-01  0.63309142849E-02  0.10200964504E+01  0.10198179887E+01 0.  0.
     999903    2    3    3    0    0  0.10053058985E+00 -0.44623875972E-01 -0.61528308179E-01  0.12752890393E+00  0.19498687832E-01 0.  0.
         14    1    1    2    0    0  0.20435505962E-01 -0.10504651733E-01 -0.63309142849E-02  0.23833549623E-01  0.00000000000E+00 0.  1.
     999901    1    3    3    0    0 -0.12096609581E+00  0.55128527705E-01  0.67859222464E-01  0.89256754645E+00  0.88000000000E+00 0.  1.
        -11    1    4    4    0    0  0.67817510976E-01 -0.38188540867E-01 -0.37276408428E-01  0.86298152905E-01  0.51100000000E-03 0. -1.
         11    1    4    4    0    0  0.32713078874E-01 -0.64353351057E-02 -0.24251899751E-01  0.41230751022E-01  0.51100000000E-03 0.  1.
</event>
<event>
 8    1  0.1116619E+005  0.1043930E+01  0.7957747E-01            NaN
         13   -1    0    0    0    0  0.00000000000E+00  0.00000000000E+00  0.74505805969E-08  0.10566000000E+00  0.10566000000E+00 0.  1.
     999900   -1    0    0    0    0 -0.00000000000E+00 -0.00000000000E+00 -0.74505805969E-08  0.93827000000E+00  0.93827000000E+00 0.  1.
     999902    2    1    2    0    0 -0.19147884787E-01  0.10590818014E-01 -0.10811750787E-01  0.10195230159E+01  0.10192308272E+01 0.  0.
     999903    2    3    3    0    0  0.39340115116E-01 -0.29001198507E-01 -0.11889108395E+00  0.13010212781E+00  0.20068872538E-01 0.  0.
         14    1    1    2    0    0  0.19147884787E-01 -0.10590818014E-01  0.10811750787E-01  0.24406984105E-01  0.00000000000E+00 0. -1.
     999901    1    3    3    0    0 -0.58487999903E-01  0.39592016521E-01  0.10807933317E+00  0.88942088809E+00  0.88000000000E+00 0. -1.
        -11    1    4    4    0    0  0.12900886120E-01 -0.16566366685E-01 -0.30710978936E-01  0.37206218781E-01  0.51100000000E-03 0. -1.
         11    1    4    4    0    0  0.26439228996E-01 -0.12434831822E-01 -0.88180105017E-01  0.92895909028E-01  0.51100000000E-03 0.  1.
</event>
<event>
 8    1  0.1116619E+005  0.1043930E+01  0.7957747E-01            NaN
         13   -1    0    0    0    0  0.00000000000E+00  0.00000000000E+00  0.74505805969E-08  0.10566000000E+00  0.10566000000E+00 0.  1.
     999900   -1    0    0    0    0 -0.00000000000E+00 -0.00000000000E+00 -0.74505805969E-08  0.93827000000E+00  0.93827000000E+00 0.  1.
     999902    2    1    2    0    0 -0.16804763881E-01 -0.54024304742E-02  0.18451128265E-01  0.10183951125E+01  0.10180749357E+01 0.  0.
     999903    2    3    3    0    0  0.50810553185E-01  0.83867531112E-01 -0.76986398840E-01  0.12617917525E+00  0.19462876742E-01 0.  0.
         14    1    1    2    0    0  0.16804763881E-01  0.54024304742E-02 -0.18451128265E-01  0.25534887475E-01  0.00000000000E+00 0. -1.
     999901    1    3    3    0    0 -0.67615317067E-01 -0.89269961586E-01  0.95437527105E-01  0.89221593727E+00  0.88000000000E+00 0. -1.
        -11    1    4    4    0    0  0.28980099034E-01  0.34479469541E-01 -0.26537026159E-01  0.52279583379E-01  0.51100000000E-03 0.  1.
         11    1    4    4    0    0  0.21830454152E-01  0.49388061571E-01 -0.50449372681E-01  0.73899591874E-01  0.51100000000E-03 0. -1.
</event>
<event>
 8    1  0.1116619E+005  0.1043930E+01  0.7957747E-01            NaN
         13   -1    0    0    0    0  0.00000000000E+00  0.00000000000E+00  0.74505805969E-08  0.10566000000E+00  0.10566000000E+00 0.  1.
     999900   -1    0    0    0    0 -0.00000000000E+00 -0.00000000000E+00 -0.74505805969E-08  0.93827000000E+00  0.93827000000E+00 0. -1.
     999902    2    1    2    0    0  0.42984366584E-02  0.16564482755E-02  0.23562496334E-01  0.10199214263E+01  0.10196388106E+01 0.  0.
     999903    2    3    3    0    0  0.99956639035E-01 -0.80780753760E-01  0.14483874978E-01  0.13086079543E+00  0.19947563283E-01 0.  0.
         14    1    1    2    0    0 -0.42984366584E-02 -0.16564482755E-02 -0.23562496334E-01  0.24008573720E-01  0.00000000000E+00 0. -1.
     999901    1    3    3    0    0 -0.95658202377E-01  0.82437202036E-01  0.90786213555E-02  0.88906063085E+00  0.88000000000E+00 0. -1.
        -11    1    4    4    0    0  0.41567056041E-01 -0.44504696489E-01  0.15958562908E-02  0.60920407383E-01  0.51100000000E-03 0. -1.
         11    1    4    4    0    0  0.58389582995E-01 -0.36276057271E-01  0.12888018687E-01  0.69940388047E-01  0.51100000000E-03 0.  1.
</event>
<event>
 8    1  0.1116619E+005  0.1043930E+01  0.7957747E-01            NaN
         13   -1    0    0    0    0  0.00000000000E+00  0.00000000000E+00  0.74505805969E-08  0.10566000000E+00  0.10566000000E+00 0.  1.
     999900   -1    0    0    0    0 -0.00000000000E+00 -0.00000000000E+00 -0.74505805969E-08  0.93827000000E+00  0.93827000000E+00 0.  1.
     999902    2    1    2    0    0  0.11076435360E-01  0.20685596170E-01 -0.31560543018E-02  0.10202542321E+01  0.10199794880E+01 0.  0.
     999903    2    3    3    0    0  0.66672486160E-01 -0.21578050341E-01 -0.10906141111E+00  0.13115745370E+00  0.19926203831E-01 0.  0.
         14    1    1    2    0    0 -0.11076435360E-01 -0.20685596170E-01  0.31560543018E-02  0.23675767949E-01  0.00000000000E+00 0. -1.
     999901    1    3    3    0    0 -0.55596050799E-01  0.42263646511E-01  0.10590535681E+00  0.88909677836E+00  0.88000000000E+00 0.  1.
        -11    1    4    4    0    0  0.35276608483E-01 -0.11291515496E-01 -0.39527605600E-01  0.54172226774E-01  0.51100000000E-03 0.  1.
         11    1    4    4    0    0  0.31395877677E-01 -0.10286534845E-01 -0.69533805512E-01  0.76985226922E-01  0.51100000000E-03 0. -1.
</event>
<event>
 8    1  0.1116619E+005  0.1043930E+01  0.7957747E-01            NaN
         13   -1    0    0    0    0  0.00000000000E+00  0.00000000000E+00  0.74505805969E-08  0.10566000000E+00  0.10566000000E+00 0.  1.
     999900   -1    0    0    0    0 -0.00000000000E+00 -0.00000000000E+00 -0.74505805969E-08  0.93827000000E+00  0.93827000000E+00 0. -1.
     999902    2    1    2    0    0 -0.10438060580E-01  0.16688482826E-01 -0.13267974375E-02  0.10242013670E+01  0.10240113384E+01 0.  0.
     999903    2    3    3    0    0 -0.79298708203E-01  0.39608768657E-01  0.10035651401E+00  0.13537819894E+00  0.19967152218E-01 0.  0.
         14    1    1    2    0    0  0.10438060580E-01 -0.16688482826E-01  0.13267974375E-02  0.19728632978E-01  0.00000000000E+00 0. -1.
     999901    1    3    3    0    0  0.68860647623E-01 -0.22920285830E-01 -0.10168331144E+00  0.88882316808E+00  0.88000000000E+00 0. -1.
        -11    1    4    4    0    0 -0.50535286377E-02 -0.92600325399E-03  0.11964965429E-01  0.13031391040E-01  0.51100000000E-03 0. -1.
         11    1    4    4    0    0 -0.74245179566E-01  0.40534771911E-01  0.88391548576E-01  0.12234680790E+00  0.51100000000E-03 0.  1.
</event>
<event>
 8    1  0.1116619E+005  0.1043930E+01  0.7957747E-01            NaN
         13   -1    0    0    0    0  0.00000000000E+00  0.00000000000E+00  0.74505805969E-08  0.10566000000E+00  0.10566000000E+00 0.  1.
     999900   -1    0    0    0    0 -0.00000000000E+00 -0.00000000000E+00 -0.74505805969E-08  0.93827000000E+00  0.93827000000E+00 0.  1.
     999902    2    1    2    0    0 -0.41283607920E-02  0.15059618081E-01  0.15627781946E-01  0.10218378514E+01  0.10215990072E+01 0.  0.
     999903    2    3    3    0    0  0.20521967392E-01 -0.67618316867E-01 -0.10648482283E+00  0.12922664388E+00  0.19160377711E-01 0.  0.
         14    1    1    2    0    0  0.41283607920E-02 -0.15059618081E-01 -0.15627781946E-01  0.22092148563E-01  0.00000000000E+00 0. -1.
     999901    1    3    3    0    0 -0.24650328184E-01  0.82677934948E-01  0.12211260478E+00  0.89261120755E+00  0.88000000000E+00 0. -1.
        -11    1    4    4    0    0  0.19533508438E-01 -0.31590308008E-01 -0.55733354155E-01  0.66977409611E-01  0.51100000000E-03 0.  1.
         11    1    4    4    0    0  0.98845895436E-03 -0.36028008859E-01 -0.50751468676E-01  0.62249234271E-01  0.51100000000E-03 0. -1.
</event>
<event>
 8    1  0.1116619E+005  0.1043930E+01  0.7957747E-01            NaN
         13   -1    0    0    0    0  0.00000000000E+00  0.00000000000E+00  0.74505805969E-08  0.10566000000E+00  0.10566000000E+00 0. -1.
     999900   -1    0    0    0    0 -0.00000000000E+00 -0.00000000000E+00 -0.74505805969E-08  0.93827000000E+00  0.93827000000E+00 0.  1.
     999902    2    1    2    0    0  0.16418385801E-03 -0.22147956319E-01 -0.29457433410E-02  0.10215864029E+01  0.10213420301E+01 0.  0.
     999903    2    3    3    0    0 -0.29538269688E-01  0.69402497315E-01  0.10381986747E+00  0.12992356478E+00  0.20306447117E-01 0.  0.
         14    1    1    2    0    0 -0.16418385801E-03  0.22147956319E-01  0.29457433410E-02  0.22343597053E-01  0.00000000000E+00 0. -1.
     999901    1    3    3    0    0  0.29702453546E-01 -0.91550453634E-01 -0.10676561081E+00  0.89166283816E+00  0.88000000000E+00 0. -1.
        -11    1    4    4    0    0 -0.18814192303E-01  0.23078169963E-01  0.31296938068E-01  0.43201102004E-01  0.51100000000E-03 0.  1.
         11    1    4    4    0    0 -0.10724077384E-01  0.46324327351E-01  0.72522929404E-01  0.86722462780E-01  0.51100000000E-03 0. -1.
</event>
<event>
 8    1  0.1116619E+005  0.1043930E+01  0.7957747E-01            NaN
         13   -1    0    0    0    0  0.00000000000E+00  0.00000000000E+00  0.74505805969E-08  0.10566000000E+00  0.10566000000E+00 0.  1.
     999900   -1    0    0    0    0 -0.00000000000E+00 -0.00000000000E+00 -0.74505805969E-08  0.93827000000E+00  0.93827000000E+00 0. -1.
     999902    2    1    2    0    0  0.64977993307E-02 -0.15577573929E-01  0.13570156395E-01  0.10222728684E+01  0.10220434365E+01 0.  0.
     999903    2    3    3    0    0 -0.12742289092E+00 -0.33851541720E-02  0.27440395910E-01  0.13194944965E+00  0.20239306711E-01 0.  0.
         14    1    1    2    0    0 -0.64977993307E-02  0.15577573929E-01 -0.13570156395E-01  0.21657131625E-01  0.00000000000E+00 0. -1.
     999901    1    3    3    0    0  0.13392069025E+00 -0.12192419757E-01 -0.13870239514E-01  0.89032341872E+00  0.88000000000E+00 0.  1.
        -11    1    4    4    0    0 -0.22828596256E-01  0.15637777029E-02 -0.25432333976E-02  0.23028663983E-01  0.51100000000E-03 0. -1.
         11    1    4    4    0    0 -0.10459429467E+00 -0.49489318748E-02  0.29983629307E-01  0.10892078567E+00  0.51100000000E-03 0.  1.
</event>
<event>
 8    1  0.1116619E+005  0.1043930E+01  0.7957747E-01            NaN
         13   -1    0    0    0    0  0.00000000000E+00  0.00000000000E+00  0.74505805969E-08  0.10566000000E+00  0.10566000000E+00 0. -1.
     999900   -1    0    0    0    0 -0.00000000000E+00 -0.00000000000E+00 -0.74505805969E-08  0.93827000000E+00  0.93827000000E+00 0.  1.
     999902    2    1    2    0    0 -0.81347478952E-02  0.16084761594E-01 -0.17361437951E-01  0.10189037497E+01  0.10185963567E+01 0.  0.
     999903    2    3    3    0    0  0.98539154108E-01  0.66488384571E-01  0.44679445466E-01  0.12886503263E+00  0.21892318577E-01 0.  0.
         14    1    1    2    0    0  0.81347478952E-02 -0.16084761594E-01  0.17361437951E-01  0.25026250350E-01  0.00000000000E+00 0. -1.
     999901    1    3    3    0    0 -0.10667390200E+00 -0.50403622978E-01 -0.62040883417E-01  0.89003871702E+00  0.88000000000E+00 0. -1.
        -11    1    4    4    0    0  0.22047297486E-01  0.10338786836E-01  0.18031492118E-01  0.30304614644E-01  0.51100000000E-03 0. -1.
         11    1    4    4    0    0  0.76491856622E-01  0.56149597735E-01  0.26647953347E-01  0.98560417987E-01  0.51100000000E-03 0.  1.
</event>
<event>
 8    1  0.1116619E+005  0.1043930E+01  0.7957747E-01            NaN
         13   -1    0    0    0    0  0.00000000000E+00  0.00000000000E+00  0.74505805969E-08  0.10566000000E+00  0.10566000000E+00 0.  1.
     999900   -1    0    0    0    0 -0.00000000000E+00 -0.00000000000E+00 -0.74505805969E-08  0.93827000000E+00  0.93827000000E+00 0. -1.
     999902    2    1    2    0    0 -0.10207705186E-01 -0.19158783890E-01 -0.10608865342E-01  0.10197679581E+01  0.10194816742E+01 0.  0.
     999903    2    3    3    0    0  0.68818020528E-01  0.23092101780E-01  0.10345611300E+00  0.12789295455E+00  0.19602943477E-01 0.  0.
         14    1    1    2    0    0  0.10207705186E-01  0.19158783890E-01  0.10608865342E-01  0.24162041908E-01  0.00000000000E+00 0.  1.
     999901    1    3    3    0    0 -0.79025725714E-01 -0.42250885670E-01 -0.11406497834E+00  0.89187500354E+00  0.88000000000E+00 0. -1.
        -11    1    4    4    0    0  0.38566645536E-01  0.22839639873E-01  0.58383790591E-01  0.73606816411E-01  0.51100000000E-03 0.  1.
         11    1    4    4    0    0  0.30251374991E-01  0.25246190709E-03  0.45072322404E-01  0.54286138137E-01  0.51100000000E-03 0. -1.
</event>
<event>
 8    1  0.1116619E+005  0.1043930E+01  0.7957747E-01            NaN
         13   -1    0    0    0    0  0.00000000000E+00  0.00000000000E+00  0.74505805969E-08  0.10566000000E+00  0.10566000000E+00 0.  1.
     999900   -1    0    0    0    0 -0.00000000000E+00 -0.00000000000E+00 -0.74505805969E-08  0.93827000000E+00  0.93827000000E+00 0. -1.
     999902    2    1    2    0    0 -0.18875289460E-02  0.10166794606E-01 -0.21104392947E-01  0.10204284707E+01  0.10201578025E+01 0.  0.
     999903    2    3    3    0    0  0.25136961541E-01  0.12116561864E+00 -0.43729669314E-01  0.13275569024E+00  0.19970361509E-01 0.  0.
         14    1    1    2    0    0  0.18875289460E-02 -0.10166794606E-01  0.21104392947E-01  0.23501529306E-01  0.00000000000E+00 0.  1.
     999901    1    3    3    0    0 -0.27024490487E-01 -0.11099882403E+00  0.22625276367E-01  0.88767278045E+00  0.88000000000E+00 0.  1.
        -11    1    4    4    0    0  0.93116535283E-02  0.72391465453E-01 -0.34171467236E-01  0.80592688600E-01  0.51100000000E-03 0.  1.
         11    1    4    4    0    0  0.15825308013E-01  0.48774153183E-01 -0.95582020780E-02  0.52163001643E-01  0.51100000000E-03 0. -1.
</event>
<event>
 8    1  0.1116619E+005  0.1043930E+01  0.7957747E-01            NaN
         13   -1    0    0    0    0  0.00000000000E+00  0.00000000000E+00  0.74505805969E-08  0.10566000000E+00  0.10566000000E+00 0.  1.
     999900   -1    0    0    0    0 -0.00000000000E+00 -0.00000000000E+00 -0.74505805969E-08  0.93827000000E+00  0.93827000000E+00 0.  1.
     999902    2    1    2    0    0 -0.33890826440E-02 -0.23035003771E-02  0.23843276031E-01  0.10197371538E+01  0.10194501307E+01 0.  0.
     999903    2    3    3    0    0  0.57363161150E-01 -0.80942533139E-01  0.84597099112E-01  0.13206268666E+00  0.21015663252E-01 0.  0.
         14    1    1    2    0    0  0.33890826440E-02  0.23035003771E-02 -0.23843276031E-01  0.24192846196E-01  0.00000000000E+00 0. -1.
     999901    1    3    3    0    0 -0.60752243794E-01  0.78639032762E-01 -0.60753823081E-01  0.88767446714E+00  0.88000000000E+00 0.  1.
        -11    1    4    4    0    0  0.12176794861E-01 -0.76615686344E-02  0.63885892948E-02  0.15749576540E-01  0.51100000000E-03 0. -1.
         11    1    4    4    0    0  0.45186366289E-01 -0.73280964505E-01  0.78208509817E-01  0.11631311012E+00  0.51100000000E-03 0.  1.
</event>
<event>
 8    1  0.1116619E+005  0.1043930E+01  0.7957747E-01            NaN
         13   -1    0    0    0    0  0.00000000000E+00  0.00000000000E+00  0.74505805969E-08  0.10566000000E+00  0.10566000000E+00 0. -1.
     999900   -1    0    0    0    0 -0.00000000000E+00 -0.00000000000E+00 -0.74505805969E-08  0.93827000000E+00  0.93827000000E+00 0.  1.
     999902    2    1    2    0    0  0.64675544310E-02 -0.21576624653E-01  0.53976364753E-02  0.10207672180E+01  0.10205043845E+01 0.  0.
     999903    2    3    3    0    0  0.13129517516E-01  0.34246415306E-02 -0.12796637586E+00  0.13034293436E+00  0.20731010277E-01 0.  0.
         14    1    1    2    0    0 -0.64675544310E-02  0.21576624653E-01 -0.53976364753E-02  0.23162782028E-01  0.00000000000E+00 0. -1.
     999901    1    3    3    0    0 -0.66619630854E-02 -0.25001266184E-01  0.13336401233E+00  0.89042428361E+00  0.88000000000E+00 0. -1.
        -11    1    4    4    0    0  0.74915280887E-02  0.12045547936E-01 -0.64438647963E-01  0.65983472858E-01  0.51100000000E-03 0. -1.
         11    1    4    4    0    0  0.56379894277E-02 -0.86209064057E-02 -0.63527727895E-01  0.64359461500E-01  0.51100000000E-03 0.  1.
</event>
<event>
 8    1  0.1245035E+005  0.1043930E+01  0.7957747E-01            NaN
         13   -1    0    0    0    0  0.00000000000E+00  0.00000000000E+00  0.74505805969E-08  0.10566000000E+00  0.10566000000E+00 0. -1.
     999900   -1    0    0    0    0 -0.00000000000E+00 -0.00000000000E+00 -0.74505805969E-08  0.93827000000E+00  0.93827000000E+00 0. -1.
     999902    2    1    2    0    0  0.14921385453E-01 -0.29930969908E-01  0.17963602430E-01  0.10059668374E+01  0.10052502555E+01 0.  0.
     999903    2    3    3    0    0  0.10792596313E+00  0.61347970232E-02  0.47788215302E-01  0.11982909496E+00  0.19739534596E-01 0.  0.
         14    1    1    2    0    0 -0.14921385453E-01  0.29930969908E-01 -0.17963602430E-01  0.37963162615E-01  0.00000000000E+00 0. -1.
     999901    1    3    3    0    0 -0.93004577675E-01 -0.36065766931E-01 -0.29824612873E-01  0.88613774242E+00  0.88000000000E+00 0.  1.
        -11    1    4    4    0    0  0.61619480832E-01 -0.60599099600E-02  0.29221059588E-01  0.68467615492E-01  0.51100000000E-03 0.  1.
         11    1    4    4    0    0  0.46306482297E-01  0.12194706983E-01  0.18567155714E-01  0.51361479471E-01  0.51100000000E-03 0. -1.
</event>
<event>
 8    1  0.1116619E+005  0.1043930E+01  0.7957747E-01            NaN
         13   -1    0    0    0    0  0.00000000000E+00  0.00000000000E+00  0.74505805969E-08  0.10566000000E+00  0.10566000000E+00 0. -1.
     999900   -1    0    0    0    0 -0.00000000000E+00 -0.00000000000E+00 -0.74505805969E-08  0.93827000000E+00  0.93827000000E+00 0. -1.
     999902    2    1    2    0    0 -0.46115527207E-02  0.22901378544E-01  0.62516365143E-02  0.10197468960E+01  0.10194601069E+01 0.  0.
     999903    2    3    3    0    0  0.12390857464E+00 -0.12729895150E-01  0.29095924926E-01  0.12940489866E+00  0.19587492159E-01 0.  0.
         14    1    1    2    0    0  0.46115527207E-02 -0.22901378544E-01 -0.62516365143E-02  0.24183103953E-01  0.00000000000E+00 0. -1.
     999901    1    3    3    0    0 -0.12852012736E+00  0.35631273694E-01 -0.22844288412E-01  0.89034199739E+00  0.88000000000E+00 0.  1.
        -11    1    4    4    0    0  0.43836875122E-01 -0.88966790944E-02  0.19020139801E-01  0.48609148917E-01  0.51100000000E-03 0.  1.
         11    1    4    4    0    0  0.80071699520E-01 -0.38332160559E-02  0.10075785125E-01  0.80795749741E-01  0.51100000000E-03 0. -1.
</event>
<event>
 8    1  0.1116619E+005  0.1043930E+01  0.7957747E-01            NaN
         13   -1    0    0    0    0  0.00000000000E+00  0.00000000000E+00  0.74505805969E-08  0.10566000000E+00  0.10566000000E+00 0.  1.
     999900   -1    0    0    0    0 -0.00000000000E+00 -0.00000000000E+00 -0.74505805969E-08  0.93827000000E+00  0.93827000000E+00 0. -1.
     999902    2    1    2    0    0 -0.67990626382E-02 -0.13381415049E-01  0.18112215322E-01  0.10204067803E+01  0.10201356064E+01 0.  0.
     999903    2    3    3    0    0 -0.30500127417E-01  0.12208739433E+00 -0.21963556953E-01  0.12882413897E+00  0.16663472604E-01 0.  0.
         14    1    1    2    0    0  0.67990626382E-02  0.13381415049E-01 -0.18112215322E-01  0.23523219706E-01  0.00000000000E+00 0. -1.
     999901    1    3    3    0    0  0.23701064779E-01 -0.13546880938E+00  0.40075772275E-01  0.89158264132E+00  0.88000000000E+00 0.  1.
        -11    1    4    4    0    0 -0.16780463969E-01  0.77439641140E-01 -0.21529099380E-01  0.82111176048E-01  0.51100000000E-03 0. -1.
         11    1    4    4    0    0 -0.13719663449E-01  0.44647753195E-01 -0.43445757263E-03  0.46712962922E-01  0.51100000000E-03 0.  1.
</event>
<event>
 8    1  0.1116619E+005  0.1043930E+01  0.7957747E-01            NaN
         13   -1    0    0    0    0  0.00000000000E+00  0.00000000000E+00  0.74505805969E-08  0.10566000000E+00  0.10566000000E+00 0.  1.
     999900   -1    0    0    0    0 -0.00000000000E+00 -0.00000000000E+00 -0.74505805969E-08  0.93827000000E+00  0.93827000000E+00 0. -1.
     999902    2    1    2    0    0 -0.23087814192E-02 -0.12756371897E-01  0.16732306869E-01  0.10227633850E+01  0.10225443346E+01 0.  0.
     999903    2    3    3    0    0  0.98261509033E-01  0.61615440872E-01  0.61636112560E-01  0.13278478888E+00  0.19519300091E-01 0.  0.
         14    1    1    2    0    0  0.23087814192E-02  0.12756371897E-01 -0.16732306869E-01  0.21166614958E-01  0.00000000000E+00 0. -1.
     999901    1    3    3    0    0 -0.10057029045E+00 -0.74371812768E-01 -0.44903805691E-01  0.88997859616E+00  0.88000000000E+00 0. -1.
        -11    1    4    4    0    0  0.64825045569E-01  0.47958599664E-01  0.49785045696E-01  0.94768801358E-01  0.51100000000E-03 0.  1.
         11    1    4    4    0    0  0.33436463464E-01  0.13656841207E-01  0.11851066863E-01  0.38015987525E-01  0.51100000000E-03 0. -1.
</event>
<event>
 8    1  0.1116619E+005  0.1043930E+01  0.7957747E-01            NaN
         13   -1    0    0    0    0  0.00000000000E+00  0.00000000000E+00  0.74505805969E-08  0.10566000000E+00  0.10566000000E+00 0. -1.
     999900   -1    0    0    0    0 -0.00000000000E+00 -0.00000000000E+00 -0.74505805969E-08  0.93827000000E+00  0.93827000000E+00 0.  1.
     999902    2    1    2    0    0 -0.37744746324E-02 -0.22455160394E-01 -0.34429940923E-02  0.10209009945E+01  0.10206412227E+01 0.  0.
     999903    2    3    3    0    0  0.57373326263E-02  0.95248599921E-01 -0.84954953344E-01  0.12927952257E+00  0.19764566391E-01 0.  0.
         14    1    1    2    0    0  0.37744746324E-02  0.22455160394E-01  0.34429940923E-02  0.23029005524E-01  0.00000000000E+00 0.  1.
     999901    1    3    3    0    0 -0.95118072587E-02 -0.11770376032E+00  0.81511959252E-01  0.89162147191E+00  0.88000000000E+00 0.  1.
        -11    1    4    4    0    0  0.73957543598E-02  0.45643328789E-01 -0.29473826713E-01  0.54835920960E-01  0.51100000000E-03 0.  1.
         11    1    4    4    0    0 -0.16584217336E-02  0.49605271133E-01 -0.55481126632E-01  0.74443601606E-01  0.51100000000E-03 0. -1.
</event>
<event>
 8    1  0.1116619E+005  0.1043930E+01  0.7957747E-01            NaN
         13   -1    0    0    0    0  0.00000000000E+00  0.00000000000E+00  0.74505805969E-08  0.10566000000E+00  0.10566000000E+00 0.  1.
     999900   -1    0    0    0    0 -0.00000000000E+00 -0.00000000000E+00 -0.74505805969E-08  0.93827000000E+00  0.93827000000E+00 0. -1.
     999902    2    1    2    0    0 -0.99159762386E-02  0.17694850505E-01  0.12472042725E-01  0.10201185286E+01  0.10198405887E+01 0.  0.
     999903    2    3    3    0    0  0.56553583868E-01 -0.97570581639E-01 -0.55656397195E-01  0.12751234077E+00  0.21057926095E-01 0.  0.
         14    1    1    2    0    0  0.99159762386E-02 -0.17694850505E-01 -0.12472042725E-01  0.23811471372E-01  0.00000000000E+00 0. -1.
     999901    1    3    3    0    0 -0.66469560106E-01  0.11526543214E+00  0.68128439920E-01  0.89260618785E+00  0.88000000000E+00 0.  1.
        -11    1    4    4    0    0  0.24968632037E-01 -0.54444145354E-01 -0.19571032481E-01  0.63014950468E-01  0.51100000000E-03 0. -1.
         11    1    4    4    0    0  0.31584951830E-01 -0.43126436285E-01 -0.36085364714E-01  0.64497390306E-01  0.51100000000E-03 0.  1.
</event>
<event>
 8    1  0.1116619E+005  0.1043930E+01  0.7957747E-01            NaN
         13   -1    0    0    0    0  0.00000000000E+00  0.00000000000E+00  0.74505805969E-08  0.10566000000E+00  0.10566000000E+00 0. -1.
     999900   -1    0    0    0    0 -0.00000000000E+00 -0.00000000000E+00 -0.74505805969E-08  0.93827000000E+00  0.93827000000E+00 0. -1.
     999902    2    1    2    0    0 -0.12338502698E-01 -0.19268146631E-01  0.19733226725E-02  0.10209649368E+01  0.10207066220E+01 0.  0.
     999903    2    3    3    0    0  0.57387953468E-01  0.49813977445E-01 -0.10312163480E+00  0.12929287345E+00  0.17543261045E-01 0.  0.
         14    1    1    2    0    0  0.12338502698E-01  0.19268146631E-01 -0.19733226725E-02  0.22965063157E-01  0.00000000000E+00 0.  1.
     999901    1    3    3    0    0 -0.69726456166E-01 -0.69082124076E-01  0.10509495747E+00  0.89167206340E+00  0.88000000000E+00 0.  1.
        -11    1    4    4    0    0  0.39738430188E-01  0.23096904516E-01 -0.60576618363E-01  0.76042078123E-01  0.51100000000E-03 0.  1.
         11    1    4    4    0    0  0.17649523280E-01  0.26717072929E-01 -0.42545016437E-01  0.53250795324E-01  0.51100000000E-03 0. -1.
</event>
<event>
 8    1  0.2058402E+005  0.1043930E+01  0.7957747E-01            NaN
         13   -1    0    0    0    0  0.00000000000E+00  0.00000000000E+00  0.74505805969E-08  0.10566000000E+00  0.10566000000E+00 0. -1.
     999900   -1    0    0    0    0 -0.00000000000E+00 -0.00000000000E+00 -0.74505805969E-08  0.93827000000E+00  0.93827000000E+00 0.  1.
     999902    2    1    2    0    0 -0.80649012352E-03  0.23189647887E-01 -0.96067931346E-02  0.10188162454E+01  0.10185066722E+01 0.  0.
     999903    2    3    3    0    0  0.91264480733E-01  0.68442826297E-02 -0.89734104883E-01  0.13024175741E+00  0.23122632734E-01 0.  0.
         14    1    1    2    0    0  0.80649012352E-03 -0.23189647887E-01  0.96067931346E-02  0.25113754593E-01  0.00000000000E+00 0. -1.
     999901    1    3    3    0    0 -0.92070970857E-01  0.16345365257E-01  0.80127311748E-01  0.88857448800E+00  0.88000000000E+00 0. -1.
        -11    1    4    4    0    0  0.44899892189E-01  0.14730792830E-01 -0.41890252698E-01  0.63151017158E-01  0.51100000000E-03 0. -1.
         11    1    4    4    0    0  0.46364588544E-01 -0.78865101998E-02 -0.47843852185E-01  0.67090740248E-01  0.51100000000E-03 0.  1.
</event>
<event>
 8    1  0.1116619E+005  0.1043930E+01  0.7957747E-01            NaN
         13   -1    0    0    0    0  0.00000000000E+00  0.00000000000E+00  0.74505805969E-08  0.10566000000E+00  0.10566000000E+00 0. -1.
     999900   -1    0    0    0    0 -0.00000000000E+00 -0.00000000000E+00 -0.74505805969E-08  0.93827000000E+00  0.93827000000E+00 0.  1.
     999902    2    1    2    0    0 -0.47050151418E-02  0.20827688510E-01 -0.12933208411E-01  0.10189660729E+01  0.10186602280E+01 0.  0.
     999903    2    3    3    0    0  0.18394217636E-01 -0.10888205885E+00 -0.61978765706E-01  0.12780746760E+00  0.17312752334E-01 0.  0.
         14    1    1    2    0    0  0.47050151418E-02 -0.20827688510E-01  0.12933208411E-01  0.24963927095E-01  0.00000000000E+00 0. -1.
     999901    1    3    3    0    0 -0.23099232778E-01  0.12970974737E+00  0.49045557295E-01  0.89115860530E+00  0.88000000000E+00 0. -1.
        -11    1    4    4    0    0  0.72083870028E-02 -0.28596177071E-01 -0.85084597348E-02  0.30697836965E-01  0.51100000000E-03 0.  1.
         11    1    4    4    0    0  0.11185830633E-01 -0.80285881784E-01 -0.53470305972E-01  0.97109630637E-01  0.51100000000E-03 0. -1.
</event>
<event>
 8    1  0.1116619E+005  0.1043930E+01  0.7957747E-01            NaN
         13   -1    0    0    0    0  0.00000000000E+00  0.00000000000E+00  0.74505805969E-08  0.10566000000E+00  0.10566000000E+00 0. -1.
     999900   -1    0    0    0    0 -0.00000000000E+00 -0.00000000000E+00 -0.74505805969E-08  0.93827000000E+00  0.93827000000E+00 0. -1.
     999902    2    1    2    0    0 -0.92561343875E-02 -0.11441619179E-01 -0.18774430598E-01  0.10200748975E+01  0.10197959259E+01 0.  0.
     999903    2    3    3    0    0 -0.61451476279E-01  0.21380055311E-01  0.10915796746E+00  0.12868928252E+00  0.20299725998E-01 0.  0.
         14    1    1    2    0    0  0.92561343875E-02  0.11441619179E-01  0.18774430598E-01  0.23855102547E-01  0.00000000000E+00 0. -1.
     999901    1    3    3    0    0  0.52195341891E-01 -0.32821674490E-01 -0.12793239805E+00  0.89138561493E+00  0.88000000000E+00 0. -1.
        -11    1    4    4    0    0 -0.68116551646E-02  0.88529152005E-02  0.11211791136E-01  0.15834712978E-01  0.51100000000E-03 0.  1.
         11    1    4    4    0    0 -0.54639821114E-01  0.12527140111E-01  0.97946176319E-01  0.11285456955E+00  0.51100000000E-03 0. -1.
</event>
<event>
 8    1  0.1116619E+005  0.1043930E+01  0.7957747E-01            NaN
         13   -1    0    0    0    0  0.00000000000E+00  0.00000000000E+00  0.74505805969E-08  0.10566000000E+00  0.10566000000E+00 0.  1.
     999900   -1    0    0    0    0 -0.00000000000E+00 -0.00000000000E+00 -0.74505805969E-08  0.93827000000E+00  0.93827000000E+00 0. -1.
     999902    2    1    2    0    0  0.16365932683E-01  0.13857624432E-01  0.13895296601E-01  0.10183769811E+01  0.10180563437E+01 0.  0.
     999903    2    3    3    0    0  0.14014034012E-01 -0.92270614632E-02  0.12802429549E+00  0.13070369517E+00  0.20290487501E-01 0.  0.
         14    1    1    2    0    0 -0.16365932683E-01 -0.13857624432E-01 -0.13895296601E-01  0.25553018905E-01  0.00000000000E+00 0.  1.
     999901    1    3    3    0    0  0.23518986719E-02  0.23084685895E-01 -0.11412899889E+00  0.88767328592E+00  0.88000000000E+00 0. -1.
        -11    1    4    4    0    0  0.10897337953E-01 -0.61765994591E-02  0.29143999666E-01  0.31725954562E-01  0.51100000000E-03 0. -1.
         11    1    4    4    0    0  0.31166960591E-02 -0.30504620041E-02  0.98880295828E-01  0.98977740612E-01  0.51100000000E-03 0.  1.
</event>
<event>
 8    1  0.1116619E+005  0.1043930E+01  0.7957747E-01            NaN
         13   -1    0    0    0    0  0.00000000000E+00  0.00000000000E+00  0.74505805969E-08  0.10566000000E+00  0.10566000000E+00 0.  1.
     999900   -1    0    0    0    0 -0.00000000000E+00 -0.00000000000E+00 -0.74505805969E-08  0.93827000000E+00  0.93827000000E+00 0.  1.
     999902    2    1    2    0    0  0.25422336138E-01 -0.25890803459E-02  0.25498239058E-02  0.10182492657E+01  0.10179253740E+01 0.  0.
     999903    2    3    3    0    0  0.85909507339E-01 -0.93081875685E-01 -0.27671933206E-01  0.13102832452E+00  0.18921070427E-01 0.  0.
         14    1    1    2    0    0 -0.25422336138E-01  0.25890803459E-02 -0.25498239058E-02  0.25680734290E-01  0.00000000000E+00 0.  1.
     999901    1    3    3    0    0 -0.60487171201E-01  0.90492795339E-01  0.30221757111E-01  0.88722094119E+00  0.88000000000E+00 0. -1.
        -11    1    4    4    0    0  0.46765581290E-01 -0.46753850821E-01 -0.51561087445E-02  0.66330903343E-01  0.51100000000E-03 0.  1.
         11    1    4    4    0    0  0.39143926049E-01 -0.46328024864E-01 -0.22515824461E-01  0.64697421174E-01  0.51100000000E-03 0. -1.
</event>
<event>
 8    1  0.1116619E+005  0.1043930E+01  0.7957747E-01            NaN
         13   -1    0    0    0    0  0.00000000000E+00  0.00000000000E+00  0.74505805969E-08  0.10566000000E+00  0.10566000000E+00 0.  1.
     999900   -1    0    0    0    0 -0.00000000000E+00 -0.00000000000E+00 -0.74505805969E-08  0.93827000000E+00  0.93827000000E+00 0. -1.
     999902    2    1    2    0    0 -0.17871252244E-02  0.23952553543E-01 -0.44881516189E-03  0.10199066765E+01  0.10196237093E+01 0.  0.
     999903    2    3    3    0    0 -0.95232409384E-01  0.89716156731E-01 -0.52839620761E-02  0.13250583623E+00  0.20289795562E-01 0.  0.
         14    1    1    2    0    0  0.17871252244E-02 -0.23952553543E-01  0.44881516189E-03  0.24023323518E-01  0.00000000000E+00 0.  1.
     999901    1    3    3    0    0  0.93445284159E-01 -0.65763603188E-01  0.48351469142E-02  0.88740084025E+00  0.88000000000E+00 0. -1.
        -11    1    4    4    0    0 -0.36715450773E-01  0.21612981860E-01 -0.19658075135E-02  0.42652911162E-01  0.51100000000E-03 0. -1.
         11    1    4    4    0    0 -0.58516958610E-01  0.68103174871E-01 -0.33181545627E-02  0.89852925067E-01  0.51100000000E-03 0.  1.
</event>
<event>
 8    1  0.1706379E+005  0.1043930E+01  0.7957747E-01            NaN
         13   -1    0    0    0    0  0.00000000000E+00  0.00000000000E+00  0.74505805969E-08  0.10566000000E+00  0.10566000000E+00 0.  1.
     999900   -1    0    0    0    0 -0.00000000000E+00 -0.00000000000E+00 -0.74505805969E-08  0.93827000000E+00  0.93827000000E+00 0.  1.
     999902    2    1    2    0    0 -0.25711449132E-01 -0.23784207394E-02 -0.44545167146E-02  0.10177273623E+01  0.10173899969E+01 0.  0.
     999903    2    3    3    0    0 -0.10567404540E+00 -0.73005094330E-01 -0.17268945792E-01  0.13119120773E+00  0.20400216321E-01 0.  0.
         14    1    1    2    0    0  0.25711449132E-01  0.23784207394E-02  0.44545167146E-02  0.26202637670E-01  0.00000000000E+00 0.  1.
     999901    1    3    3    0    0  0.79962596273E-01  0.70626673591E-01  0.12814429077E-01  0.88653615460E+00  0.88000000000E+00 0.  1.
        -11    1    4    4    0    0 -0.50434619465E-01 -0.24550658773E-01 -0.19422246035E-02  0.56128593820E-01  0.51100000000E-03 0.  1.
         11    1    4    4    0    0 -0.55239425940E-01 -0.48454435557E-01 -0.15326721188E-01  0.75062613908E-01  0.51100000000E-03 0. -1.
</event>
<event>
 8    1  0.1116619E+005  0.1043930E+01  0.7957747E-01            NaN
         13   -1    0    0    0    0  0.00000000000E+00  0.00000000000E+00  0.74505805969E-08  0.10566000000E+00  0.10566000000E+00 0.  1.
     999900   -1    0    0    0    0 -0.00000000000E+00 -0.00000000000E+00 -0.74505805969E-08  0.93827000000E+00  0.93827000000E+00 0. -1.
     999902    2    1    2    0    0  0.22980178660E-01 -0.12814817054E-01 -0.10897937190E-01  0.10154506534E+01  0.10150512087E+01 0.  0.
     999903    2    3    3    0    0  0.23223325953E-01  0.11247116845E+00 -0.47350886566E-01  0.12582969210E+00  0.20047901473E-01 0.  0.
         14    1    1    2    0    0 -0.22980178660E-01  0.12814817054E-01  0.10897937190E-01  0.28479346593E-01  0.00000000000E+00 0.  1.
     999901    1    3    3    0    0 -0.24314729326E-03 -0.12528598550E+00  0.36452949376E-01  0.88962096131E+00  0.88000000000E+00 0.  1.
        -11    1    4    4    0    0  0.77729946228E-02  0.65243677996E-01 -0.18049550147E-01  0.68141062109E-01  0.51100000000E-03 0. -1.
         11    1    4    4    0    0  0.15450331330E-01  0.47227490455E-01 -0.29301336419E-01  0.57688629988E-01  0.51100000000E-03 0.  1.
</event>
<event>
 8    1  0.1116619E+005  0.1043930E+01  0.7957747E-01            NaN
         13   -1    0    0    0    0  0.00000000000E+00  0.00000000000E+00  0.74505805969E-08  0.10566000000E+00  0.10566000000E+00 0.  1.
     999900   -1    0    0    0    0 -0.00000000000E+00 -0.00000000000E+00 -0.74505805969E-08  0.93827000000E+00  0.93827000000E+00 0. -1.
     999902    2    1    2    0    0  0.91210484946E-02  0.20394669009E-01  0.70904160753E-02  0.10204905024E+01  0.10202212776E+01 0.  0.
     999903    2    3    3    0    0 -0.47433680661E-02  0.86818082300E-01  0.98654117654E-01  0.13314152742E+00  0.20836324965E-01 0.  0.
         14    1    1    2    0    0 -0.91210484946E-02 -0.20394669009E-01 -0.70904160753E-02  0.23439497643E-01  0.00000000000E+00 0. -1.
     999901    1    3    3    0    0  0.13864416561E-01 -0.66423413291E-01 -0.91563701579E-01  0.88734897494E+00  0.88000000000E+00 0. -1.
        -11    1    4    4    0    0 -0.85335707758E-02  0.47983526786E-01  0.41942470741E-01  0.64301420248E-01  0.51100000000E-03 0. -1.
         11    1    4    4    0    0  0.37902027097E-02  0.38834555515E-01  0.56711646913E-01  0.68840107170E-01  0.51100000000E-03 0.  1.
</event>
<event>
 8    1  0.1116619E+005  0.1043930E+01  0.7957747E-01            NaN
         13   -1    0    0    0    0  0.00000000000E+00  0.00000000000E+00  0.74505805969E-08  0.10566000000E+00  0.10566000000E+00 0. -1.
     999900   -1    0    0    0    0 -0.00000000000E+00 -0.00000000000E+00 -0.74505805969E-08  0.93827000000E+00  0.93827000000E+00 0.  1.
     999902    2    1    2    0    0  0.12991285309E-01 -0.56761182039E-02  0.20551312216E-01  0.10189630569E+01  0.10186571372E+01 0.  0.
     999903    2    3    3    0    0 -0.11834318237E+00 -0.27634764116E-01  0.37264081759E-01  0.12878878120E+00  0.20715920769E-01 0.  0.
         14    1    1    2    0    0 -0.12991285309E-01  0.56761182039E-02 -0.20551312216E-01  0.24966943057E-01  0.00000000000E+00 0.  1.
     999901    1    3    3    0    0  0.13133446767E+00  0.21958645913E-01 -0.16712769543E-01  0.89017427574E+00  0.88000000000E+00 0. -1.
        -11    1    4    4    0    0 -0.97194528198E-01 -0.30564261247E-01  0.29638281557E-01  0.10611144722E+00  0.51100000000E-03 0. -1.
         11    1    4    4    0    0 -0.21148654167E-01  0.29294971304E-02  0.76258002022E-02  0.22677333976E-01  0.51100000000E-03 0.  1.
</event>
<event>
 8    1  0.1116619E+005  0.1043930E+01  0.7957747E-01            NaN
         13   -1    0    0    0    0  0.00000000000E+00  0.00000000000E+00  0.74505805969E-08  0.10566000000E+00  0.10566000000E+00 0. -1.
     999900   -1    0    0    0    0 -0.00000000000E+00 -0.00000000000E+00 -0.74505805969E-08  0.93827000000E+00  0.93827000000E+00 0. -1.
     999902    2    1    2    0    0  0.13391017905E-01 -0.48512408432E-02  0.18406011108E-01  0.10206569438E+01  0.10203915728E+01 0.  0.
     999903    2    3    3    0    0  0.68353082743E-01  0.28494281576E-01 -0.10470698104E+00  0.12976437945E+00  0.19778126633E-01 0.  0.
         14    1    1    2    0    0 -0.13391017905E-01  0.48512408432E-02 -0.18406011108E-01  0.23273056162E-01  0.00000000000E+00 0.  1.
     999901    1    3    3    0    0 -0.54962064838E-01 -0.33345522419E-01  0.12311299215E+00  0.89089256438E+00  0.88000000000E+00 0.  1.
        -11    1    4    4    0    0  0.36177150694E-01  0.22022249440E-01 -0.71285872564E-01  0.82919855590E-01  0.51100000000E-03 0.  1.
         11    1    4    4    0    0  0.32175932049E-01  0.64720321354E-02 -0.33421108479E-01  0.46844523865E-01  0.51100000000E-03 0. -1.
</event>
<event>
 8    1  0.1116619E+005  0.1043930E+01  0.7957747E-01            NaN
         13   -1    0    0    0    0  0.00000000000E+00  0.00000000000E+00  0.74505805969E-08  0.10566000000E+00  0.10566000000E+00 0. -1.
     999900   -1    0    0    0    0 -0.00000000000E+00 -0.00000000000E+00 -0.74505805969E-08  0.93827000000E+00  0.93827000000E+00 0. -1.
     999902    2    1    2    0    0  0.21171021126E-01 -0.14597243974E-02 -0.94865746091E-02  0.10206848278E+01  0.10204200996E+01 0.  0.
     999903    2    3    3    0    0  0.12151430237E+00  0.48280655657E-01  0.15681573099E-01  0.13322986270E+00  0.20187550311E-01 0.  0.
         14    1    1    2    0    0 -0.21171021126E-01  0.14597243974E-02  0.94865746091E-02  0.23245172158E-01  0.00000000000E+00 0.  1.
     999901    1    3    3    0    0 -0.10034328125E+00 -0.49740380055E-01 -0.25168147708E-01  0.88745496514E+00  0.88000000000E+00 0. -1.
        -11    1    4    4    0    0  0.67367511124E-01  0.33906141124E-01  0.14883013094E-02  0.75435297592E-01  0.51100000000E-03 0. -1.
         11    1    4    4    0    0  0.54146791250E-01  0.14374514533E-01  0.14193271789E-01  0.57794565107E-01  0.51100000000E-03 0.  1.
</event>
<event>
 8    1  0.1116619E+005  0.1043930E+01  0.7957747E-01            NaN
         13   -1    0    0    0    0  0.00000000000E+00  0.00000000000E+00  0.74505805969E-08  0.10566000000E+00  0.10566000000E+00 0.  1.
     999900   -1    0    0    0    0 -0.00000000000E+00 -0.00000000000E+00 -0.74505805969E-08  0.93827000000E+00  0.93827000000E+00 0. -1.
     999902    2    1    2    0    0  0.10047925060E-02  0.18896774911E-01  0.14873723293E-01  0.10198608215E+01  0.10195767601E+01 0.  0.
     999903    2    3    3    0    0 -0.77487763515E-01  0.51039386468E-01 -0.88314073985E-01  0.12978107767E+00  0.20841784776E-01 0.  0.
         14    1    1    2    0    0 -0.10047925060E-02 -0.18896774911E-01 -0.14873723293E-01  0.24069178520E-01  0.00000000000E+00 0.  1.
     999901    1    3    3    0    0  0.78492556021E-01 -0.32142611557E-01  0.10318779728E+00  0.89007974381E+00  0.88000000000E+00 0.  1.
        -11    1    4    4    0    0 -0.53923942844E-01  0.33052627304E-01 -0.46415186267E-01  0.78453160680E-01  0.51100000000E-03 0. -1.
         11    1    4    4    0    0 -0.23563820671E-01  0.17986759164E-01 -0.41898887718E-01  0.51327916993E-01  0.51100000000E-03 0.  1.
</event>
<event>
 8    1  0.1116619E+005  0.1043930E+01  0.7957747E-01            NaN
         13   -1    0    0    0    0  0.00000000000E+00  0.00000000000E+00  0.74505805969E-08  0.10566000000E+00  0.10566000000E+00 0. -1.
     999900   -1    0    0    0    0 -0.00000000000E+00 -0.00000000000E+00 -0.74505805969E-08  0.93827000000E+00  0.93827000000E+00 0.  1.
     999902    2    1    2    0    0  0.16359440904E-01 -0.11913933661E-01 -0.41740649043E-02  0.10232661199E+01  0.10230574550E+01 0.  0.
     999903    2    3    3    0    0  0.45037303700E-01  0.12284676513E+00  0.49991739561E-02  0.13249846556E+00  0.20277209065E-01 0.  0.
         14    1    1    2    0    0 -0.16359440904E-01  0.11913933661E-01  0.41740649043E-02  0.20663880076E-01  0.00000000000E+00 0. -1.
     999901    1    3    3    0    0 -0.28677862795E-01 -0.13476069879E+00 -0.91732388604E-02  0.89076765437E+00  0.88000000000E+00 0.  1.
        -11    1    4    4    0    0  0.10699703952E-01  0.47307439922E-01  0.93807720745E-02  0.49403821131E-01  0.51100000000E-03 0.  1.
         11    1    4    4    0    0  0.34337599748E-01  0.75539325208E-01 -0.43815981184E-02  0.83094644427E-01  0.51100000000E-03 0. -1.
</event>
<event>
 8    1  0.1116619E+005  0.1043930E+01  0.7957747E-01            NaN
         13   -1    0    0    0    0  0.00000000000E+00  0.00000000000E+00  0.74505805969E-08  0.10566000000E+00  0.10566000000E+00 0. -1.
     999900   -1    0    0    0    0 -0.00000000000E+00 -0.00000000000E+00 -0.74505805969E-08  0.93827000000E+00  0.93827000000E+00 0. -1.
     999902    2    1    2    0    0  0.18538692245E-01 -0.17158647166E-01  0.12292410781E-01  0.10158371958E+01  0.10154486707E+01 0.  0.
     999903    2    3    3    0    0  0.37631304888E-01  0.50430270777E-01  0.10973388308E+00  0.12767750850E+00  0.17340523749E-01 0.  0.
         14    1    1    2    0    0 -0.18538692245E-01  0.17158647166E-01 -0.12292410781E-01  0.28092804159E-01  0.00000000000E+00 0.  1.
     999901    1    3    3    0    0 -0.19092612643E-01 -0.67588917943E-01 -0.97441472298E-01  0.88815968734E+00  0.88000000000E+00 0. -1.
        -11    1    4    4    0    0  0.36098024614E-01  0.36860902841E-01  0.85911497145E-01  0.10021397109E+00  0.51100000000E-03 0. -1.
         11    1    4    4    0    0  0.15332802740E-02  0.13569367936E-01  0.23822385934E-01  0.27463537412E-01  0.51100000000E-03 0.  1.
</event>
<event>
 8    1  0.1116619E+005  0.1043930E+01  0.7957747E-01            NaN
         13   -1    0    0    0    0  0.00000000000E+00  0.00000000000E+00  0.74505805969E-08  0.10566000000E+00  0.10566000000E+00 0. -1.
     999900   -1    0    0    0    0 -0.00000000000E+00 -0.00000000000E+00 -0.74505805969E-08  0.93827000000E+00  0.93827000000E+00 0. -1.
     999902    2    1    2    0    0  0.43956874898E-02  0.25423485385E-02  0.16200798865E-01  0.10269520293E+01  0.10268116765E+01 0.  0.
     999903    2    3    3    0    0 -0.72698976603E-01  0.11184690827E+00 -0.17699837134E-01  0.13619935482E+00  0.21026362717E-01 0.  0.
         14    1    1    2    0    0 -0.43956874898E-02 -0.25423485385E-02 -0.16200798865E-01  0.16977970681E-01  0.00000000000E+00 0.  1.
     999901    1    3    3    0    0  0.77094664093E-01 -0.10930455973E+00  0.33900635999E-01  0.89075267450E+00  0.88000000000E+00 0. -1.
        -11    1    4    4    0    0 -0.25875749229E-01  0.23259361345E-01 -0.61146207594E-02  0.35329902298E-01  0.51100000000E-03 0. -1.
         11    1    4    4    0    0 -0.46823227374E-01  0.88587546927E-01 -0.11585216375E-01  0.10086945252E+00  0.51100000000E-03 0.  1.
</event>
<event>
 8    1  0.1116619E+005  0.1043930E+01  0.7957747E-01            NaN
         13   -1    0    0    0    0  0.00000000000E+00  0.00000000000E+00  0.74505805969E-08  0.10566000000E+00  0.10566000000E+00 0.  1.
     999900   -1    0    0    0    0 -0.00000000000E+00 -0.00000000000E+00 -0.74505805969E-08  0.93827000000E+00  0.93827000000E+00 0. -1.
     999902    2    1    2    0    0 -0.19940618541E-01 -0.14094224928E-01 -0.28287265888E-02  0.10193479509E+01  0.10190515040E+01 0.  0.
     999903    2    3    3    0    0 -0.10343156358E+00  0.71964886870E-01  0.28756139302E-01  0.13065536491E+00  0.19153995553E-01 0.  0.
         14    1    1    2    0    0  0.19940618541E-01  0.14094224928E-01  0.28287265888E-02  0.24582049106E-01  0.00000000000E+00 0. -1.
     999901    1    3    3    0    0  0.83490945040E-01 -0.86059111799E-01 -0.31584865890E-01  0.88869258598E+00  0.88000000000E+00 0.  1.
        -11    1    4    4    0    0 -0.50987074558E-01  0.25025765234E-01  0.86445650461E-02  0.57453984399E-01  0.51100000000E-03 0.  1.
         11    1    4    4    0    0 -0.52444489023E-01  0.46939121637E-01  0.20111574256E-01  0.73201380512E-01  0.51100000000E-03 0. -1.
</event>
<event>
 8    1  0.1493371E+005  0.1043930E+01  0.7957747E-01            NaN
         13   -1    0    0    0    0  0.00000000000E+00  0.00000000000E+00  0.74505805969E-08  0.10566000000E+00  0.10566000000E+00 0.  1.
     999900   -1    0    0    0    0 -0.00000000000E+00 -0.00000000000E+00 -0.74505805969E-08  0.93827000000E+00  0.93827000000E+00 0. -1.
     999902    2    1    2    0    0  0.18875384636E-01  0.11401010582E-01 -0.88409323529E-02  0.10201723639E+01  0.10198956941E+01 0.  0.
     999903    2    3    3    0    0 -0.34597677717E-01 -0.75701071674E-01 -0.97729733356E-01  0.12980875276E+00  0.19275890504E-01 0.  0.
         14    1    1    2    0    0 -0.18875384636E-01 -0.11401010582E-01  0.88409323529E-02  0.23757636084E-01  0.00000000000E+00 0.  1.
     999901    1    3    3    0    0  0.53473062353E-01  0.87102082256E-01  0.88888801003E-01  0.89036361116E+00  0.88000000000E+00 0.  1.
        -11    1    4    4    0    0 -0.16345883448E-01 -0.17611080377E-01 -0.34298445647E-01  0.41880574883E-01  0.51100000000E-03 0.  1.
         11    1    4    4    0    0 -0.18251794269E-01 -0.58089991297E-01 -0.63431287708E-01  0.87928177874E-01  0.51100000000E-03 0. -1.
</event>
<event>
 8    1  0.1116619E+005  0.1043930E+01  0.7957747E-01            NaN
         13   -1    0    0    0    0  0.00000000000E+00  0.00000000000E+00  0.74505805969E-08  0.10566000000E+00  0.10566000000E+00 0. -1.
     999900   -1    0    0    0    0 -0.00000000000E+00 -0.00000000000E+00 -0.74505805969E-08  0.93827000000E+00  0.93827000000E+00 0. -1.
     999902    2    1    2    0    0 -0.23531669327E-01 -0.37236847797E-02 -0.20958465775E-02  0.10200135232E+01  0.10197330973E+01 0.  0.
     999903    2    3    3    0    0 -0.72476799551E-01  0.47184898952E-03 -0.10876462390E+00  0.13221204971E+00  0.19929213756E-01 0.  0.
         14    1    1    2    0    0  0.23531669327E-01  0.37236847797E-02  0.20958465775E-02  0.23916476800E-01  0.00000000000E+00 0. -1.
     999901    1    3    3    0    0  0.48945130224E-01 -0.41955337692E-02  0.10666877733E+00  0.88780147349E+00  0.88000000000E+00 0.  1.
        -11    1    4    4    0    0 -0.86177394067E-02  0.65666015475E-02 -0.12767068936E-01  0.16752458285E-01  0.51100000000E-03 0.  1.
         11    1    4    4    0    0 -0.63859060144E-01 -0.60947525580E-02 -0.95997554967E-01  0.11545959142E+00  0.51100000000E-03 0. -1.
</event>
<event>
 8    1  0.1116619E+005  0.1043930E+01  0.7957747E-01            NaN
         13   -1    0    0    0    0  0.00000000000E+00  0.00000000000E+00  0.74505805969E-08  0.10566000000E+00  0.10566000000E+00 0. -1.
     999900   -1    0    0    0    0 -0.00000000000E+00 -0.00000000000E+00 -0.74505805969E-08  0.93827000000E+00  0.93827000000E+00 0.  1.
     999902    2    1    2    0    0 -0.14129526519E-02 -0.58341108623E-02  0.22652612088E-01  0.10204955357E+01  0.10202264279E+01 0.  0.
     999903    2    3    3    0    0 -0.60190482337E-01 -0.41229852059E-01  0.11001277659E+00  0.13351219036E+00  0.19997477284E-01 0.  0.
         14    1    1    2    0    0  0.14129526519E-02  0.58341108623E-02 -0.22652612088E-01  0.23434464345E-01  0.00000000000E+00 0.  1.
     999901    1    3    3    0    0  0.58777529685E-01  0.35395741197E-01 -0.87360164498E-01  0.88698334530E+00  0.88000000000E+00 0.  1.
        -11    1    4    4    0    0 -0.37474013777E-01 -0.18155538356E-01  0.75236832285E-01  0.85992833044E-01  0.51100000000E-03 0.  1.
         11    1    4    4    0    0 -0.22716468560E-01 -0.23074313703E-01  0.34775944300E-01  0.47519357315E-01  0.51100000000E-03 0. -1.
</event>
<event>
 8    1  0.1116619E+005  0.1043930E+01  0.7957747E-01            NaN
         13   -1    0    0    0    0  0.00000000000E+00  0.00000000000E+00  0.74505805969E-08  0.10566000000E+00  0.10566000000E+00 0. -1.
     999900   -1    0    0    0    0 -0.00000000000E+00 -0.00000000000E+00 -0.74505805969E-08  0.93827000000E+00  0.93827000000E+00 0. -1.
     999902    2    1    2    0    0 -0.34759267884E-02 -0.43089650155E-02  0.23161766905E-01  0.10201157880E+01  0.10198377833E+01 0.  0.
     999903    2    3    3    0    0  0.27236111194E-01  0.94267175262E-01  0.85679033710E-01  0.13187657847E+00  0.20553078784E-01 0.  0.
         14    1    1    2    0    0  0.34759267884E-02  0.43089650155E-02 -0.23161766905E-01  0.23814211990E-01  0.00000000000E+00 0.  1.
     999901    1    3    3    0    0 -0.30712037982E-01 -0.98576140278E-01 -0.62517266805E-01  0.88823920954E+00  0.88000000000E+00 0.  1.
        -11    1    4    4    0    0  0.21360369745E-01  0.42706235884E-01  0.33869080615E-01  0.58544544765E-01  0.51100000000E-03 0. -1.
         11    1    4    4    0    0  0.58757414489E-02  0.51560939379E-01  0.51809953095E-01  0.73332033709E-01  0.51100000000E-03 0.  1.
</event>
<event>
 8    1  0.1116619E+005  0.1043930E+01  0.7957747E-01            NaN
         13   -1    0    0    0    0  0.00000000000E+00  0.00000000000E+00  0.74505805969E-08  0.10566000000E+00  0.10566000000E+00 0.  1.
     999900   -1    0    0    0    0 -0.00000000000E+00 -0.00000000000E+00 -0.74505805969E-08  0.93827000000E+00  0.93827000000E+00 0.  1.
     999902    2    1    2    0    0  0.33071170174E-02  0.14715790089E-01 -0.18409385852E-01  0.10201309036E+01  0.10198532559E+01 0.  0.
     999903    2    3    3    0    0  0.74325757929E-01  0.73806085007E-02 -0.10786129298E+00  0.13271944554E+00  0.20039985747E-01 0.  0.
         14    1    1    2    0    0 -0.33071170174E-02 -0.14715790089E-01  0.18409385852E-01  0.23799096377E-01  0.00000000000E+00 0.  1.
     999901    1    3    3    0    0 -0.71018640912E-01  0.73351815887E-02  0.89451907125E-01  0.88741145808E+00  0.88000000000E+00 0. -1.
        -11    1    4    4    0    0  0.86454607109E-02  0.73076780234E-02 -0.20467038704E-01  0.23394592181E-01  0.51100000000E-03 0. -1.
         11    1    4    4    0    0  0.65680297218E-01  0.72930477336E-04 -0.87394254273E-01  0.10932485336E+00  0.51100000000E-03 0.  1.
</event>
<event>
 8    1  0.1116619E+005  0.1043930E+01  0.7957747E-01            NaN
         13   -1    0    0    0    0  0.00000000000E+00  0.00000000000E+00  0.74505805969E-08  0.10566000000E+00  0.10566000000E+00 0. -1.
     999900   -1    0    0    0    0 -0.00000000000E+00 -0.00000000000E+00 -0.74505805969E-08  0.93827000000E+00  0.93827000000E+00 0.  1.
     999902    2    1    2    0    0  0.70338987640E-02  0.14962799167E-01 -0.16733061733E-01  0.10204064704E+01  0.10201352892E+01 0.  0.
     999903    2    3    3    0    0 -0.65735720731E-01  0.11238691798E+00  0.46421429666E-02  0.13178744300E+00  0.19858910555E-01 0.  0.
         14    1    1    2    0    0 -0.70338987640E-02 -0.14962799167E-01  0.16733061733E-01  0.23523529618E-01  0.00000000000E+00 0.  1.
     999901    1    3    3    0    0  0.72769619494E-01 -0.97424118813E-01 -0.21375204699E-01  0.88861902738E+00  0.88000000000E+00 0.  1.
        -11    1    4    4    0    0 -0.92252433399E-02  0.28724621859E-01  0.62472281031E-02  0.30813925352E-01  0.51100000000E-03 0.  1.
         11    1    4    4    0    0 -0.56510477391E-01  0.83662296121E-01 -0.16050851365E-02  0.10097351765E+00  0.51100000000E-03 0. -1.
</event>
<event>
 8    1  0.1116619E+005  0.1043930E+01  0.7957747E-01            NaN
         13   -1    0    0    0    0  0.00000000000E+00  0.00000000000E+00  0.74505805969E-08  0.10566000000E+00  0.10566000000E+00 0.  1.
     999900   -1    0    0    0    0 -0.00000000000E+00 -0.00000000000E+00 -0.74505805969E-08  0.93827000000E+00  0.93827000000E+00 0.  1.
     999902    2    1    2    0    0 -0.19920830220E-01 -0.91578214469E-02  0.94804414434E-02  0.10200431011E+01  0.10197633765E+01 0.  0.
     999903    2    3    3    0    0 -0.10531488087E+00  0.23578731866E-01  0.74899514055E-01  0.13288839029E+00  0.20055082590E-01 0.  0.
         14    1    1    2    0    0  0.19920830220E-01  0.91578214469E-02 -0.94804414434E-02  0.23886898926E-01  0.00000000000E+00 0. -1.
     999901    1    3    3    0    0  0.85394050653E-01 -0.32736553313E-01 -0.65419072612E-01  0.88715471079E+00  0.88000000000E+00 0.  1.
        -11    1    4    4    0    0 -0.66178995078E-01  0.17441853198E-01  0.35852618877E-01  0.77262856754E-01  0.51100000000E-03 0.  1.
         11    1    4    4    0    0 -0.39135885796E-01  0.61368786684E-02  0.39046895178E-01  0.55625533533E-01  0.51100000000E-03 0. -1.
</event>
<event>
 8    1  0.1116619E+005  0.1043930E+01  0.7957747E-01            NaN
         13   -1    0    0    0    0  0.00000000000E+00  0.00000000000E+00  0.74505805969E-08  0.10566000000E+00  0.10566000000E+00 0. -1.
     999900   -1    0    0    0    0 -0.00000000000E+00 -0.00000000000E+00 -0.74505805969E-08  0.93827000000E+00  0.93827000000E+00 0. -1.
     999902    2    1    2    0    0  0.65743741828E-03 -0.23777074323E-01  0.38080446353E-02  0.10198409425E+01  0.10195564061E+01 0.  0.
     999903    2    3    3    0    0 -0.68335316250E-01  0.89641221037E-01  0.56825258352E-01  0.12830601064E+00  0.22979521806E-01 0.  0.
         14    1    1    2    0    0 -0.65743741828E-03  0.23777074323E-01 -0.38080446353E-02  0.24089057501E-01  0.00000000000E+00 0. -1.
     999901    1    3    3    0    0  0.68992753669E-01 -0.11341829536E+00 -0.53017213717E-01  0.89153493186E+00  0.88000000000E+00 0. -1.
        -11    1    4    4    0    0 -0.45200293896E-01  0.73902178302E-01  0.38134006243E-01  0.94652322101E-01  0.51100000000E-03 0. -1.
         11    1    4    4    0    0 -0.23135022355E-01  0.15739042736E-01  0.18691252109E-01  0.33653688535E-01  0.51100000000E-03 0.  1.
</event>
<event>
 8    1  0.1116619E+005  0.1043930E+01  0.7957747E-01            NaN
         13   -1    0    0    0    0  0.00000000000E+00  0.00000000000E+00  0.74505805969E-08  0.10566000000E+00  0.10566000000E+00 0. -1.
     999900   -1    0    0    0    0 -0.00000000000E+00 -0.00000000000E+00 -0.74505805969E-08  0.93827000000E+00  0.93827000000E+00 0. -1.
     999902    2    1    2    0    0 -0.30201509820E-02  0.50277597646E-02  0.30871634091E-01  0.10125061640E+01  0.10120184161E+01 0.  0.
     999903    2    3    3    0    0  0.10884598475E+00  0.36200272974E-02  0.57535161738E-01  0.12502266679E+00  0.21443399479E-01 0.  0.
         14    1    1    2    0    0  0.30201509820E-02 -0.50277597646E-02 -0.30871634091E-01  0.31423836043E-01  0.00000000000E+00 0.  1.
     999901    1    3    3    0    0 -0.11186613573E+00  0.14077324671E-02 -0.26663527647E-01  0.88748349717E+00  0.88000000000E+00 0.  1.
        -11    1    4    4    0    0  0.51300063339E-01 -0.83728546192E-02  0.31033562290E-01  0.60540435268E-01  0.51100000000E-03 0.  1.
         11    1    4    4    0    0  0.57545921414E-01  0.11992881917E-01  0.26501599447E-01  0.64482231524E-01  0.51100000000E-03 0. -1.
</event>
<event>
 8    1  0.1116619E+005  0.1043930E+01  0.7957747E-01            NaN
         13   -1    0    0    0    0  0.00000000000E+00  0.00000000000E+00  0.74505805969E-08  0.10566000000E+00  0.10566000000E+00 0. -1.
     999900   -1    0    0    0    0 -0.00000000000E+00 -0.00000000000E+00 -0.74505805969E-08  0.93827000000E+00  0.93827000000E+00 0.  1.
     999902    2    1    2    0    0  0.22507707295E-02  0.95750504066E-02  0.22221682623E-01  0.10196287503E+01  0.10193391181E+01 0.  0.
     999903    2    3    3    0    0 -0.70633767991E-01 -0.88012439098E-01  0.62051435975E-01  0.13034708324E+00  0.20116231891E-01 0.  0.
         14    1    1    2    0    0 -0.22507707295E-02 -0.95750504066E-02 -0.22221682623E-01  0.24301249716E-01  0.00000000000E+00 0.  1.
     999901    1    3    3    0    0  0.72884538720E-01  0.97587489505E-01 -0.39829753352E-01  0.88928166705E+00  0.88000000000E+00 0.  1.
        -11    1    4    4    0    0 -0.46505403607E-01 -0.57994861797E-01  0.29723042585E-01  0.80061707083E-01  0.51100000000E-03 0.  1.
         11    1    4    4    0    0 -0.24128364384E-01 -0.30017577301E-01  0.32328393390E-01  0.50285376155E-01  0.51100000000E-03 0. -1.
</event>
<event>
 8    1  0.1116619E+005  0.1043930E+01  0.7957747E-01            NaN
         13   -1    0    0    0    0  0.00000000000E+00  0.00000000000E+00  0.74505805969E-08  0.10566000000E+00  0.10566000000E+00 0. -1.
     999900   -1    0    0    0    0 -0.00000000000E+00 -0.00000000000E+00 -0.74505805969E-08  0.93827000000E+00  0.93827000000E+00 0. -1.
     999902    2    1    2    0    0 -0.26075385980E-01 -0.59122697721E-02  0.12894606472E-02  0.10171616718E+01  0.10168093839E+01 0.  0.
     999903    2    3    3    0    0 -0.94920292599E-01  0.64319691580E-01 -0.57330348274E-01  0.12974495366E+00  0.20002487246E-01 0.  0.
         14    1    1    2    0    0  0.26075385980E-01  0.59122697721E-02 -0.12894606472E-02  0.26768328238E-01  0.00000000000E+00 0. -1.
     999901    1    3    3    0    0  0.68844906619E-01 -0.70231961352E-01  0.58619808921E-01  0.88741671810E+00  0.88000000000E+00 0. -1.
        -11    1    4    4    0    0 -0.11620353936E-01  0.52218132945E-02 -0.13597872579E-01  0.18640365323E-01  0.51100000000E-03 0.  1.
         11    1    4    4    0    0 -0.83299938663E-01  0.59097878285E-01 -0.43732475695E-01  0.11110458834E+00  0.51100000000E-03 0. -1.
</event>
<event>
 8    1  0.1116619E+005  0.1043930E+01  0.7957747E-01            NaN
         13   -1    0    0    0    0  0.00000000000E+00  0.00000000000E+00  0.74505805969E-08  0.10566000000E+00  0.10566000000E+00 0. -1.
     999900   -1    0    0    0    0 -0.00000000000E+00 -0.00000000000E+00 -0.74505805969E-08  0.93827000000E+00  0.93827000000E+00 0.  1.
     999902    2    1    2    0    0 -0.32327941323E-01  0.17160710412E-02 -0.30338924712E-02  0.10114146929E+01  0.10108919012E+01 0.  0.
     999903    2    3    3    0    0  0.40994092249E-01  0.99582905871E-01 -0.52247462448E-01  0.12159672647E+00  0.21417185060E-01 0.  0.
         14    1    1    2    0    0  0.32327941323E-01 -0.17160710412E-02  0.30338924712E-02  0.32515307065E-01  0.00000000000E+00 0.  1.
     999901    1    3    3    0    0 -0.73322033572E-01 -0.97866834830E-01  0.49213569977E-01  0.88981796646E+00  0.88000000000E+00 0.  1.
        -11    1    4    4    0    0  0.21310134126E-01  0.28230796537E-01 -0.21851955940E-01  0.41579667976E-01  0.51100000000E-03 0. -1.
         11    1    4    4    0    0  0.19683958122E-01  0.71352109334E-01 -0.30395506509E-01  0.80017058498E-01  0.51100000000E-03 0.  1.
</event>
<event>
 8    1  0.1116619E+005  0.1043930E+01  0.7957747E-01            NaN
         13   -1    0    0    0    0  0.00000000000E+00  0.00000000000E+00  0.74505805969E-08  0.10566000000E+00  0.10566000000E+00 0.  1.
     999900   -1    0    0    0    0 -0.00000000000E+00 -0.00000000000E+00 -0.74505805969E-08  0.93827000000E+00  0.93827000000E+00 0.  1.
     999902    2    1    2    0    0 -0.17649116859E-01  0.14491504946E-01 -0.96619391435E-02  0.10191338691E+01  0.10188321721E+01 0.  0.
     999903    2    3    3    0    0  0.38931948573E-01 -0.10074323566E+00 -0.66358339437E-01  0.12801381867E+00  0.17866516310E-01 0.  0.
         14    1    1    2    0    0  0.17649116859E-01 -0.14491504946E-01  0.96619391435E-02  0.24796130938E-01  0.00000000000E+00 0.  1.
     999901    1    3    3    0    0 -0.56581065432E-01  0.11523474061E+00  0.56696400293E-01  0.89112005039E+00  0.88000000000E+00 0. -1.
        -11    1    4    4    0    0  0.16020789243E-01 -0.63817893554E-01 -0.43845280672E-01  0.79069962589E-01  0.51100000000E-03 0.  1.
         11    1    4    4    0    0  0.22911159330E-01 -0.36925342110E-01 -0.22513058764E-01  0.48943856078E-01  0.51100000000E-03 0. -1.
</event>
<event>
 8    1  0.1116619E+005  0.1043930E+01  0.7957747E-01            NaN
         13   -1    0    0    0    0  0.00000000000E+00  0.00000000000E+00  0.74505805969E-08  0.10566000000E+00  0.10566000000E+00 0.  1.
     999900   -1    0    0    0    0 -0.00000000000E+00 -0.00000000000E+00 -0.74505805969E-08  0.93827000000E+00  0.93827000000E+00 0. -1.
     999902    2    1    2    0    0 -0.37365975448E-02  0.16224803779E-03  0.23336000862E-01  0.10202961805E+01  0.10200224206E+01 0.  0.
     999903    2    3    3    0    0 -0.22096950810E-01 -0.12721939257E+00  0.73308108622E-02  0.13079106474E+00  0.19481086940E-01 0.  0.
         14    1    1    2    0    0  0.37365975448E-02 -0.16224803779E-03 -0.23336000862E-01  0.23633819451E-01  0.00000000000E+00 0. -1.
     999901    1    3    3    0    0  0.18360353266E-01  0.12738164061E+00  0.16005190000E-01  0.88950511580E+00  0.88000000000E+00 0.  1.
        -11    1    4    4    0    0 -0.58379082210E-02 -0.78370905450E-01 -0.12245509522E-02  0.78599240706E-01  0.51100000000E-03 0. -1.
         11    1    4    4    0    0 -0.16259042589E-01 -0.48848487118E-01  0.85553618144E-02  0.52191824038E-01  0.51100000000E-03 0.  1.
</event>
<event>
 8    1  0.1116619E+005  0.1043930E+01  0.7957747E-01            NaN
         13   -1    0    0    0    0  0.00000000000E+00  0.00000000000E+00  0.74505805969E-08  0.10566000000E+00  0.10566000000E+00 0. -1.
     999900   -1    0    0    0    0 -0.00000000000E+00 -0.00000000000E+00 -0.74505805969E-08  0.93827000000E+00  0.93827000000E+00 0.  1.
     999902    2    1    2    0    0  0.13260516628E-01 -0.81069961160E-02  0.18593334961E-01  0.10196962056E+01  0.10194081984E+01 0.  0.
     999903    2    3    3    0    0  0.11589672324E+00 -0.97590191385E-02 -0.56999211684E-01  0.13051053700E+00  0.16025018705E-01 0.  0.
         14    1    1    2    0    0 -0.13260516628E-01  0.81069961160E-02 -0.18593334961E-01  0.24233794426E-01  0.00000000000E+00 0.  1.
     999901    1    3    3    0    0 -0.10263620661E+00  0.16520230225E-02  0.75592546645E-01  0.88918566857E+00  0.88000000000E+00 0. -1.
        -11    1    4    4    0    0  0.73830084980E-01 -0.67823888242E-02 -0.27659258754E-01  0.79133924218E-01  0.51100000000E-03 0. -1.
         11    1    4    4    0    0  0.42066638256E-01 -0.29766303143E-02 -0.29339952930E-01  0.51376612784E-01  0.51100000000E-03 0.  1.
</event>
<event>
 8    1  0.1116619E+005  0.1043930E+01  0.7957747E-01            NaN
         13   -1    0    0    0    0  0.00000000000E+00  0.00000000000E+00  0.74505805969E-08  0.10566000000E+00  0.10566000000E+00 0. -1.
     999900   -1    0    0    0    0 -0.00000000000E+00 -0.00000000000E+00 -0.74505805969E-08  0.93827000000E+00  0.93827000000E+00 0.  1.
     999902    2    1    2    0    0  0.13143447091E-01  0.27448275052E-02  0.19150573935E-01  0.10205413540E+01  0.10202733097E+01 0.  0.
     999903    2    3    3    0    0  0.62474868922E-02 -0.11825291064E+00 -0.48935699688E-01  0.12962960329E+00  0.19655772162E-01 0.  0.
         14    1    1    2    0    0 -0.13143447091E-01 -0.27448275052E-02 -0.19150573935E-01  0.23388645996E-01  0.00000000000E+00 0.  1.
     999901    1    3    3    0    0  0.68959601993E-02  0.12099773814E+00  0.68086273623E-01  0.89091175071E+00  0.88000000000E+00 0. -1.
        -11    1    4    4    0    0  0.10617305793E-01 -0.37708197528E-01 -0.19494969886E-01  0.43760145281E-01  0.51100000000E-03 0. -1.
         11    1    4    4    0    0 -0.43698189011E-02 -0.80544713107E-01 -0.29440729801E-01  0.85869458011E-01  0.51100000000E-03 0.  1.
</event>
<event>
 8    1  0.1116619E+005  0.1043930E+01  0.7957747E-01            NaN
         13   -1    0    0    0    0  0.00000000000E+00  0.00000000000E+00  0.74505805969E-08  0.10566000000E+00  0.10566000000E+00 0.  1.
     999900   -1    0    0    0    0 -0.00000000000E+00 -0.00000000000E+00 -0.74505805969E-08  0.93827000000E+00  0.93827000000E+00 0.  1.
     999902    2    1    2    0    0 -0.96731737172E-02  0.18806928875E-01 -0.23314225458E-02  0.10226531019E+01  0.10224317387E+01 0.  0.
     999903    2    3    3    0    0 -0.53986850180E-02  0.91751020892E-01  0.95524671007E-01  0.13421912746E+00  0.21033681824E-01 0.  0.
         14    1    1    2    0    0  0.96731737172E-02 -0.18806928875E-01  0.23314225458E-02  0.21276898142E-01  0.00000000000E+00 0.  1.
     999901    1    3    3    0    0 -0.42744886992E-02 -0.72944092017E-01 -0.97856093553E-01  0.88843397440E+00  0.88000000000E+00 0.  1.
        -11    1    4    4    0    0  0.59115251607E-02  0.57519224612E-01  0.64794339443E-01  0.86844544299E-01  0.51100000000E-03 0.  1.
         11    1    4    4    0    0 -0.11310210179E-01  0.34231796280E-01  0.30730331565E-01  0.47374583164E-01  0.51100000000E-03 0. -1.
</event>
<event>
 7    1  0.1116619E+005  0.1043930E+01  0.7957747E-01            NaN
         13   -1    0    0    0    0  0.00000000000E+00  0.00000000000E+00  0.74505805969E-08  0.10566000000E+00  0.10566000000E+00 0.  1.
     999900   -1    0    0    0    0 -0.00000000000E+00 -0.00000000000E+00 -0.74505805969E-08  0.93827000000E+00  0.93827000000E+00 0. -1.
     999903    2    1    2    0    0 -0.29697316576E-01  0.56984032136E-01 -0.85036542943E-01  0.10842510398E+00  0.19891681838E-01 0.  0.
         14    1    1    2    0    0 -0.20853878165E-02  0.20285320688E-01 -0.37901877672E-01  0.43039463389E-01  0.00000000000E+00 0. -1.
     999901    1    1    2    0    0  0.31782704393E-01 -0.77269352824E-01  0.12293842061E+00  0.89246543263E+00  0.88000000000E+00 0. -1.
        -11    1    3    3    0    0 -0.14274719015E-01  0.12523593879E-01 -0.15802370715E-01  0.24709998944E-01  0.51100000000E-03 0.  1.
         11    1    3    3    0    0 -0.15422597562E-01  0.44460438257E-01 -0.69234172228E-01  0.83715105033E-01  0.51100000000E-03 0. -1.
</event>
<event>
 8    1  0.1116619E+005  0.1043930E+01  0.7957747E-01            NaN
         13   -1    0    0    0    0  0.00000000000E+00  0.00000000000E+00  0.74505805969E-08  0.10566000000E+00  0.10566000000E+00 0. -1.
     999900   -1    0    0    0    0 -0.00000000000E+00 -0.00000000000E+00 -0.74505805969E-08  0.93827000000E+00  0.93827000000E+00 0. -1.
     999902    2    1    2    0    0 -0.16937694808E-01  0.15521605068E-01 -0.59386206166E-02  0.10202008419E+01  0.10199248428E+01 0.  0.
     999903    2    3    3    0    0  0.37690229422E-01  0.38396367032E-01  0.11637164445E+00  0.12976989804E+00  0.20075667148E-01 0.  0.
         14    1    1    2    0    0  0.16937694808E-01 -0.15521605068E-01  0.59386206166E-02  0.23729158100E-01  0.00000000000E+00 0.  1.
     999901    1    3    3    0    0 -0.54627924230E-01 -0.22874761964E-01 -0.12231026506E+00  0.89043094386E+00  0.88000000000E+00 0. -1.
        -11    1    4    4    0    0  0.13492520927E-01  0.27979342330E-01  0.64200267350E-01  0.71321996375E-01  0.51100000000E-03 0.  1.
         11    1    4    4    0    0  0.24197708495E-01  0.10417024703E-01  0.52171377097E-01  0.58447901667E-01  0.51100000000E-03 0. -1.
</event>
<event>
 8    1  0.1116619E+005  0.1043930E+01  0.7957747E-01            NaN
         13   -1    0    0    0    0  0.00000000000E+00  0.00000000000E+00  0.74505805969E-08  0.10566000000E+00  0.10566000000E+00 0.  1.
     999900   -1    0    0    0    0 -0.00000000000E+00 -0.00000000000E+00 -0.74505805969E-08  0.93827000000E+00  0.93827000000E+00 0. -1.
     999902    2    1    2    0    0  0.21130991200E-01 -0.81350289346E-02  0.63399557705E-02  0.10204163333E+01  0.10201453821E+01 0.  0.
     999903    2    3    3    0    0 -0.18666626789E-02 -0.93327873097E-01  0.91057147973E-01  0.13195490165E+00  0.20177104524E-01 0.  0.
         14    1    1    2    0    0 -0.21130991200E-01  0.81350289346E-02 -0.63399557705E-02  0.23513666750E-01  0.00000000000E+00 0.  1.
     999901    1    3    3    0    0  0.22997653879E-01  0.85192844163E-01 -0.84717192203E-01  0.88846143160E+00  0.88000000000E+00 0.  1.
        -11    1    4    4    0    0  0.24688672757E-02 -0.41034502646E-01  0.53273292216E-01  0.67292128051E-01  0.51100000000E-03 0.  1.
         11    1    4    4    0    0 -0.43355299547E-02 -0.52293370451E-01  0.37783855757E-01  0.64662773603E-01  0.51100000000E-03 0. -1.
</event>
<event>
 8    1  0.1116619E+005  0.1043930E+01  0.7957747E-01            NaN
         13   -1    0    0    0    0  0.00000000000E+00  0.00000000000E+00  0.74505805969E-08  0.10566000000E+00  0.10566000000E+00 0.  1.
     999900   -1    0    0    0    0 -0.00000000000E+00 -0.00000000000E+00 -0.74505805969E-08  0.93827000000E+00  0.93827000000E+00 0. -1.
     999902    2    1    2    0    0  0.77959837845E-02  0.15247763597E-01  0.14979257375E-01  0.10211780812E+01  0.10209245926E+01 0.  0.
     999903    2    3    3    0    0  0.65196390190E-01 -0.33716694951E-01  0.10900963281E+00  0.13295849328E+00  0.20186036655E-01 0.  0.
         14    1    1    2    0    0 -0.77959837845E-02 -0.15247763597E-01 -0.14979257375E-01  0.22751918806E-01  0.00000000000E+00 0. -1.
     999901    1    3    3    0    0 -0.57400406405E-01  0.48964458548E-01 -0.94030375438E-01  0.88821958792E+00  0.88000000000E+00 0. -1.
        -11    1    4    4    0    0  0.45800232062E-01 -0.14621208174E-01  0.78639147598E-01  0.92172759758E-01  0.51100000000E-03 0. -1.
         11    1    4    4    0    0  0.19396158128E-01 -0.19095486778E-01  0.30370485215E-01  0.40785733518E-01  0.51100000000E-03 0.  1.
</event>
<event>
 8    1  0.1116619E+005  0.1043930E+01  0.7957747E-01            NaN
         13   -1    0    0    0    0  0.00000000000E+00  0.00000000000E+00  0.74505805969E-08  0.10566000000E+00  0.10566000000E+00 0.  1.
     999900   -1    0    0    0    0 -0.00000000000E+00 -0.00000000000E+00 -0.74505805969E-08  0.93827000000E+00  0.93827000000E+00 0.  1.
     999902    2    1    2    0    0 -0.77614647765E-02 -0.18410719511E-01  0.12690458901E-01  0.10202605540E+01  0.10199859584E+01 0.  0.
     999903    2    3    3    0    0  0.94264918205E-01 -0.37392084829E-01 -0.77815672128E-01  0.12955238919E+00  0.21083166345E-01 0.  0.
         14    1    1    2    0    0  0.77614647765E-02  0.18410719511E-01 -0.12690458901E-01  0.23669446033E-01  0.00000000000E+00 0. -1.
     999901    1    3    3    0    0 -0.10202638298E+00  0.18981365317E-01  0.90506131029E-01  0.89070816478E+00  0.88000000000E+00 0.  1.
        -11    1    4    4    0    0  0.34955969057E-01 -0.24103502123E-01 -0.26937222096E-01  0.50286913233E-01  0.51100000000E-03 0. -1.
         11    1    4    4    0    0  0.59308949147E-01 -0.13288582706E-01 -0.50878450032E-01  0.79265475952E-01  0.51100000000E-03 0.  1.
</event>
<event>
 8    1  0.1116619E+005  0.1043930E+01  0.7957747E-01            NaN
         13   -1    0    0    0    0  0.00000000000E+00  0.00000000000E+00  0.74505805969E-08  0.10566000000E+00  0.10566000000E+00 0.  1.
     999900   -1    0    0    0    0 -0.00000000000E+00 -0.00000000000E+00 -0.74505805969E-08  0.93827000000E+00  0.93827000000E+00 0. -1.
     999902    2    1    2    0    0 -0.73207104599E-02  0.10687566410E-01  0.19284333437E-01  0.10206985043E+01  0.10204340911E+01 0.  0.
     999903    2    3    3    0    0  0.10625989552E+00 -0.62988999707E-01 -0.31080491467E-01  0.12892195938E+00  0.19902140091E-01 0.  0.
         14    1    1    2    0    0  0.73207104599E-02 -0.10687566410E-01 -0.19284333437E-01  0.23231495723E-01  0.00000000000E+00 0. -1.
     999901    1    3    3    0    0 -0.11358060598E+00  0.73676566117E-01  0.50364824904E-01  0.89177654490E+00  0.88000000000E+00 0.  1.
        -11    1    4    4    0    0  0.50537393556E-01 -0.20342404696E-01 -0.19124809606E-01  0.57739596809E-01  0.51100000000E-03 0.  1.
         11    1    4    4    0    0  0.55722501961E-01 -0.42646595011E-01 -0.11955681860E-01  0.71182362567E-01  0.51100000000E-03 0. -1.
</event>
<event>
 8    1  0.1116619E+005  0.1043930E+01  0.7957747E-01            NaN
         13   -1    0    0    0    0  0.00000000000E+00  0.00000000000E+00  0.74505805969E-08  0.10566000000E+00  0.10566000000E+00 0. -1.
     999900   -1    0    0    0    0 -0.00000000000E+00 -0.00000000000E+00 -0.74505805969E-08  0.93827000000E+00  0.93827000000E+00 0.  1.
     999902    2    1    2    0    0  0.15041604262E-01 -0.29624130296E-05 -0.17989047952E-01  0.10204809976E+01  0.10202115520E+01 0.  0.
     999903    2    3    3    0    0 -0.29066268445E-01  0.11862186284E+00  0.38927419941E-01  0.12960679889E+00  0.19146383239E-01 0.  0.
         14    1    1    2    0    0 -0.15041604262E-01  0.29624130296E-05  0.17989047952E-01  0.23449002404E-01  0.00000000000E+00 0.  1.
     999901    1    3    3    0    0  0.44107872707E-01 -0.11862482525E+00 -0.56916467893E-01  0.89087419870E+00  0.88000000000E+00 0.  1.
        -11    1    4    4    0    0 -0.28915181437E-02  0.44934751124E-01  0.92867810971E-02  0.45978235720E-01  0.51100000000E-03 0. -1.
         11    1    4    4    0    0 -0.26174750301E-01  0.73687111714E-01  0.29640638844E-01  0.83628563171E-01  0.51100000000E-03 0.  1.
</event>
<event>
 8    1  0.1116619E+005  0.1043930E+01  0.7957747E-01            NaN
         13   -1    0    0    0    0  0.00000000000E+00  0.00000000000E+00  0.74505805969E-08  0.10566000000E+00  0.10566000000E+00 0.  1.
     999900   -1    0    0    0    0 -0.00000000000E+00 -0.00000000000E+00 -0.74505805969E-08  0.93827000000E+00  0.93827000000E+00 0.  1.
     999902    2    1    2    0    0 -0.17959760286E-01 -0.16001894819E-01  0.20470958909E-02  0.10197886614E+01  0.10195028738E+01 0.  0.
     999903    2    3    3    0    0 -0.11791408915E+00 -0.51080995746E-01 -0.27894290233E-01  0.13293021849E+00  0.19476935390E-01 0.  0.
         14    1    1    2    0    0  0.17959760286E-01  0.16001894819E-01 -0.20470958909E-02  0.24141338590E-01  0.00000000000E+00 0. -1.
     999901    1    3    3    0    0  0.99954328866E-01  0.35079100927E-01  0.29941386123E-01  0.88685844292E+00  0.88000000000E+00 0. -1.
        -11    1    4    4    0    0 -0.33738201785E-01 -0.63895832790E-02 -0.32841548617E-02  0.34498403272E-01  0.51100000000E-03 0. -1.
         11    1    4    4    0    0 -0.84175887367E-01 -0.44691412467E-01 -0.24610135371E-01  0.98431815214E-01  0.51100000000E-03 0.  1.
</event>
<event>
 8    1  0.1116619E+005  0.1043930E+01  0.7957747E-01            NaN
         13   -1    0    0    0    0  0.00000000000E+00  0.00000000000E+00  0.74505805969E-08  0.10566000000E+00  0.10566000000E+00 0.  1.
     999900   -1    0    0    0    0 -0.00000000000E+00 -0.00000000000E+00 -0.74505805969E-08  0.93827000000E+00  0.93827000000E+00 0.  1.
     999902    2    1    2    0    0  0.10254828398E-01 -0.20359220830E-01  0.79778084583E-02  0.10197782960E+01  0.10194922600E+01 0.  0.
     999903    2    3    3    0    0  0.25298316371E-01 -0.78833962023E-01 -0.99775576674E-01  0.13115216883E+00  0.19771881743E-01 0.  0.
         14    1    1    2    0    0 -0.10254828398E-01  0.20359220830E-01 -0.79778084583E-02  0.24151704000E-01  0.00000000000E+00 0. -1.
     999901    1    3    3    0    0 -0.15043487973E-01  0.58474741193E-01  0.10775338513E+00  0.88862612717E+00  0.88000000000E+00 0. -1.
        -11    1    4    4    0    0  0.19056988907E-02 -0.18191805286E-01 -0.34391960006E-01  0.38956918537E-01  0.51100000000E-03 0. -1.
         11    1    4    4    0    0  0.23392617481E-01 -0.60642156737E-01 -0.65383616668E-01  0.92195250289E-01  0.51100000000E-03 0.  1.
</event>
<event>
 8    1  0.1116619E+005  0.1043930E+01  0.7957747E-01            NaN
         13   -1    0    0    0    0  0.00000000000E+00  0.00000000000E+00  0.74505805969E-08  0.10566000000E+00  0.10566000000E+00 0. -1.
     999900   -1    0    0    0    0 -0.00000000000E+00 -0.00000000000E+00 -0.74505805969E-08  0.93827000000E+00  0.93827000000E+00 0. -1.
     999902    2    1    2    0    0 -0.31742361382E-02  0.22386641457E-01 -0.73004879999E-02  0.10201700628E+01  0.10198933387E+01 0.  0.
     999903    2    3    3    0    0 -0.61239718189E-01  0.11510980554E+00  0.17589898069E-01  0.13304621762E+00  0.19781837443E-01 0.  0.
         14    1    1    2    0    0  0.31742361382E-02 -0.22386641457E-01  0.73004879999E-02  0.23759937202E-01  0.00000000000E+00 0. -1.
     999901    1    3    3    0    0  0.58065482051E-01 -0.92723164087E-01 -0.24890386069E-01  0.88712384518E+00  0.88000000000E+00 0. -1.
        -11    1    4    4    0    0 -0.57352160655E-01  0.10508218352E+00  0.21423213923E-01  0.12161723086E+00  0.51100000000E-03 0.  1.
         11    1    4    4    0    0 -0.38875575341E-02  0.10027622022E-01 -0.38333158534E-02  0.11428986763E-01  0.51100000000E-03 0. -1.
</event>
<event>
 8    1  0.1116619E+005  0.1043930E+01  0.7957747E-01            NaN
         13   -1    0    0    0    0  0.00000000000E+00  0.00000000000E+00  0.74505805969E-08  0.10566000000E+00  0.10566000000E+00 0. -1.
     999900   -1    0    0    0    0 -0.00000000000E+00 -0.00000000000E+00 -0.74505805969E-08  0.93827000000E+00  0.93827000000E+00 0.  1.
     999902    2    1    2    0    0  0.35806460114E-03 -0.18701406253E-01  0.14002738916E-01  0.10205644805E+01  0.10202969721E+01 0.  0.
     999903    2    3    3    0    0  0.65102137559E-01 -0.10258733259E+00 -0.47703623658E-01  0.13206219076E+00  0.20058349808E-01 0.  0.
         14    1    1    2    0    0 -0.35806460114E-03  0.18701406253E-01 -0.14002738916E-01  0.23365519537E-01  0.00000000000E+00 0.  1.
     999901    1    3    3    0    0 -0.64744072958E-01  0.83885926334E-01  0.61706362574E-01  0.88850228970E+00  0.88000000000E+00 0.  1.
        -11    1    4    4    0    0  0.26790604770E-01 -0.25230156804E-01 -0.13313728939E-01  0.39138393114E-01  0.51100000000E-03 0.  1.
         11    1    4    4    0    0  0.38311532789E-01 -0.77357175783E-01 -0.34389894718E-01  0.92923797649E-01  0.51100000000E-03 0. -1.
</event>
<event>
 8    1  0.1116619E+005  0.1043930E+01  0.7957747E-01            NaN
         13   -1    0    0    0    0  0.00000000000E+00  0.00000000000E+00  0.74505805969E-08  0.10566000000E+00  0.10566000000E+00 0.  1.
     999900   -1    0    0    0    0 -0.00000000000E+00 -0.00000000000E+00 -0.74505805969E-08  0.93827000000E+00  0.93827000000E+00 0.  1.
     999902    2    1    2    0    0 -0.12368500991E-01 -0.13019797527E-01  0.14817767643E-01  0.10206477926E+01  0.10203822104E+01 0.  0.
     999903    2    3    3    0    0 -0.54735297679E-01 -0.52879038815E-01 -0.10430522970E+00  0.13071858580E+00  0.20386813703E-01 0.  0.
         14    1    1    2    0    0  0.12368500991E-01  0.13019797527E-01 -0.14817767643E-01  0.23282207419E-01  0.00000000000E+00 0.  1.
     999901    1    3    3    0    0  0.42366796688E-01  0.39859241288E-01  0.11912299735E+00  0.88992920678E+00  0.88000000000E+00 0. -1.
        -11    1    4    4    0    0 -0.35096193799E-01 -0.35916890599E-01 -0.51795278814E-01  0.72144146525E-01  0.51100000000E-03 0.  1.
         11    1    4    4    0    0 -0.19639103880E-01 -0.16962148216E-01 -0.52509950890E-01  0.58574439279E-01  0.51100000000E-03 0. -1.
</event>
<event>
 8    1  0.1116619E+005  0.1043930E+01  0.7957747E-01            NaN
         13   -1    0    0    0    0  0.00000000000E+00  0.00000000000E+00  0.74505805969E-08  0.10566000000E+00  0.10566000000E+00 0. -1.
     999900   -1    0    0    0    0 -0.00000000000E+00 -0.00000000000E+00 -0.74505805969E-08  0.93827000000E+00  0.93827000000E+00 0. -1.
     999902    2    1    2    0    0  0.90637624178E-02 -0.66126309502E-02  0.19890406176E-01  0.10210934737E+01  0.10208380748E+01 0.  0.
     999903    2    3    3    0    0  0.52683089777E-01  0.17958252344E-01  0.12019370834E+00  0.13398179724E+00  0.20164019704E-01 0.  0.
         14    1    1    2    0    0 -0.90637624178E-02  0.66126309502E-02 -0.19890406176E-01  0.22836526336E-01  0.00000000000E+00 0.  1.
     999901    1    3    3    0    0 -0.43619327360E-01 -0.24570883294E-01 -0.10030330217E+00  0.88711167643E+00  0.88000000000E+00 0. -1.
        -11    1    4    4    0    0  0.15011838520E-01  0.13660524580E-01  0.30936740433E-01  0.37004165403E-01  0.51100000000E-03 0.  1.
         11    1    4    4    0    0  0.37671251258E-01  0.42977277641E-02  0.89256967909E-01  0.96977631836E-01  0.51100000000E-03 0. -1.
</event>
<event>
 8    1  0.1116619E+005  0.1043930E+01  0.7957747E-01            NaN
         13   -1    0    0    0    0  0.00000000000E+00  0.00000000000E+00  0.74505805969E-08  0.10566000000E+00  0.10566000000E+00 0.  1.
     999900   -1    0    0    0    0 -0.00000000000E+00 -0.00000000000E+00 -0.74505805969E-08  0.93827000000E+00  0.93827000000E+00 0. -1.
     999902    2    1    2    0    0  0.12215150325E-01  0.24209483807E-01 -0.35954821781E-02  0.10165760881E+01  0.10162080035E+01 0.  0.
     999903    2    3    3    0    0  0.13729861325E-01 -0.90715567302E-01  0.82426827717E-01  0.12494281174E+00  0.19967499491E-01 0.  0.
         14    1    1    2    0    0 -0.12215150325E-01 -0.24209483807E-01  0.35954821781E-02  0.27353911891E-01  0.00000000000E+00 0.  1.
     999901    1    3    3    0    0 -0.15147110008E-02  0.11492505111E+00 -0.86022309895E-01  0.89163327637E+00  0.88000000000E+00 0. -1.
        -11    1    4    4    0    0  0.16919625149E-01 -0.45664461876E-01  0.44306676018E-01  0.65839649562E-01  0.51100000000E-03 0. -1.
         11    1    4    4    0    0 -0.31897638234E-02 -0.45051105426E-01  0.38120151699E-01  0.59103162182E-01  0.51100000000E-03 0.  1.
</event>
<event>
 8    1  0.1116619E+005  0.1043930E+01  0.7957747E-01            NaN
         13   -1    0    0    0    0  0.00000000000E+00  0.00000000000E+00  0.74505805969E-08  0.10566000000E+00  0.10566000000E+00 0.  1.
     999900   -1    0    0    0    0 -0.00000000000E+00 -0.00000000000E+00 -0.74505805969E-08  0.93827000000E+00  0.93827000000E+00 0. -1.
     999902    2    1    2    0    0  0.17366001815E-01 -0.13163880253E-01 -0.24600281356E-02  0.10220001687E+01  0.10217648591E+01 0.  0.
     999903    2    3    3    0    0 -0.25848848642E-01 -0.11503171187E+00 -0.58854469845E-01  0.13327922742E+00  0.19976138972E-01 0.  0.
         14    1    1    2    0    0 -0.17366001815E-01  0.13163880253E-01  0.24600281356E-02  0.21929831299E-01  0.00000000000E+00 0. -1.
     999901    1    3    3    0    0  0.43214850457E-01  0.10186783162E+00  0.56394441709E-01  0.88872094128E+00  0.88000000000E+00 0.  1.
        -11    1    4    4    0    0 -0.23902982062E-01 -0.62441324160E-01 -0.35488619868E-01  0.75696596855E-01  0.51100000000E-03 0.  1.
         11    1    4    4    0    0 -0.19458665798E-02 -0.52590387712E-01 -0.23365849977E-01  0.57582630564E-01  0.51100000000E-03 0. -1.
</event>
<event>
 8    1  0.1116619E+005  0.1043930E+01  0.7957747E-01            NaN
         13   -1    0    0    0    0  0.00000000000E+00  0.00000000000E+00  0.74505805969E-08  0.10566000000E+00  0.10566000000E+00 0.  1.
     999900   -1    0    0    0    0 -0.00000000000E+00 -0.00000000000E+00 -0.74505805969E-08  0.93827000000E+00  0.93827000000E+00 0. -1.
     999902    2    1    2    0    0  0.21847685092E-01 -0.94977069249E-02 -0.24543828884E-02  0.10199810590E+01  0.10196998622E+01 0.  0.
     999903    2    3    3    0    0  0.92237143241E-01  0.50351758934E-01 -0.77356796806E-01  0.13197936642E+00  0.19786079113E-01 0.  0.
         14    1    1    2    0    0 -0.21847685092E-01  0.94977069249E-02  0.24543828884E-02  0.23948941022E-01  0.00000000000E+00 0. -1.
     999901    1    3    3    0    0 -0.70389458149E-01 -0.59849465859E-01  0.74902413917E-01  0.88800169256E+00  0.88000000000E+00 0.  1.
        -11    1    4    4    0    0  0.24434425948E-01  0.22745800918E-01 -0.29173560910E-01  0.44337009461E-01  0.51100000000E-03 0. -1.
         11    1    4    4    0    0  0.67802717292E-01  0.27605958016E-01 -0.48183235896E-01  0.87642356955E-01  0.51100000000E-03 0.  1.
</event>
<event>
 8    1  0.1116619E+005  0.1043930E+01  0.7957747E-01            NaN
         13   -1    0    0    0    0  0.00000000000E+00  0.00000000000E+00  0.74505805969E-08  0.10566000000E+00  0.10566000000E+00 0. -1.
     999900   -1    0    0    0    0 -0.00000000000E+00 -0.00000000000E+00 -0.74505805969E-08  0.93827000000E+00  0.93827000000E+00 0. -1.
     999902    2    1    2    0    0 -0.74356597723E-02 -0.20231293969E-01  0.99583679856E-02  0.10201862980E+01  0.10199099564E+01 0.  0.
     999903    2    3    3    0    0  0.51819606467E-01 -0.74358039268E-01 -0.92100561792E-01  0.13066006663E+00  0.19368787063E-01 0.  0.
         14    1    1    2    0    0  0.74356597723E-02  0.20231293969E-01 -0.99583679856E-02  0.23743702004E-01  0.00000000000E+00 0.  1.
     999901    1    3    3    0    0 -0.59255266240E-01  0.54126745299E-01  0.10205892978E+00  0.88952623136E+00  0.88000000000E+00 0.  1.
        -11    1    4    4    0    0  0.32839266454E-01 -0.53768802217E-01 -0.51709073798E-01  0.81508226255E-01  0.51100000000E-03 0. -1.
         11    1    4    4    0    0  0.18980340013E-01 -0.20589237051E-01 -0.40391487994E-01  0.49151840379E-01  0.51100000000E-03 0.  1.
</event>
<event>
 8    1  0.1116619E+005  0.1043930E+01  0.7957747E-01            NaN
         13   -1    0    0    0    0  0.00000000000E+00  0.00000000000E+00  0.74505805969E-08  0.10566000000E+00  0.10566000000E+00 0. -1.
     999900   -1    0    0    0    0 -0.00000000000E+00 -0.00000000000E+00 -0.74505805969E-08  0.93827000000E+00  0.93827000000E+00 0.  1.
     999902    2    1    2    0    0  0.20928005679E-01 -0.85456968783E-02 -0.12159787250E-03  0.10213241348E+01  0.10210739264E+01 0.  0.
     999903    2    3    3    0    0 -0.10673917138E+00 -0.67357434850E-01  0.22835341221E-01  0.12987321090E+00  0.20379483884E-01 0.  0.
         14    1    1    2    0    0 -0.20928005679E-01  0.85456968783E-02  0.12159787250E-03  0.22605865232E-01  0.00000000000E+00 0. -1.
     999901    1    3    3    0    0  0.12766717706E+00  0.58811737972E-01 -0.22956939093E-01  0.89145092387E+00  0.88000000000E+00 0. -1.
        -11    1    4    4    0    0 -0.92495043689E-01 -0.54287400195E-01  0.25795840105E-01  0.11030929886E+00  0.51100000000E-03 0. -1.
         11    1    4    4    0    0 -0.14244127690E-01 -0.13070034656E-01 -0.29604988842E-02  0.19563912037E-01  0.51100000000E-03 0.  1.
</event>
<event>
 8    1  0.1116619E+005  0.1043930E+01  0.7957747E-01            NaN
         13   -1    0    0    0    0  0.00000000000E+00  0.00000000000E+00  0.74505805969E-08  0.10566000000E+00  0.10566000000E+00 0. -1.
     999900   -1    0    0    0    0 -0.00000000000E+00 -0.00000000000E+00 -0.74505805969E-08  0.93827000000E+00  0.93827000000E+00 0.  1.
     999902    2    1    2    0    0  0.80149418120E-02  0.56341003878E-02  0.21792589279E-01  0.10200365003E+01  0.10197566193E+01 0.  0.
     999903    2    3    3    0    0 -0.43041966508E-01  0.11782165058E+00  0.33314074412E-01  0.13137143466E+00  0.20348809875E-01 0.  0.
         14    1    1    2    0    0 -0.80149418120E-02 -0.56341003878E-02 -0.21792589279E-01  0.23893499679E-01  0.00000000000E+00 0. -1.
     999901    1    3    3    0    0  0.51056908320E-01 -0.11218755020E+00 -0.11521485133E-01  0.88866506566E+00  0.88000000000E+00 0.  1.
        -11    1    4    4    0    0 -0.34383460338E-01  0.64916570080E-01  0.18742652620E-01  0.75815114351E-01  0.51100000000E-03 0.  1.
         11    1    4    4    0    0 -0.86585061706E-02  0.52905080504E-01  0.14571421793E-01  0.55556320309E-01  0.51100000000E-03 0. -1.
</event>
<event>
 8    1  0.1116619E+005  0.1043930E+01  0.7957747E-01            NaN
         13   -1    0    0    0    0  0.00000000000E+00  0.00000000000E+00  0.74505805969E-08  0.10566000000E+00  0.10566000000E+00 0.  1.
     999900   -1    0    0    0    0 -0.00000000000E+00 -0.00000000000E+00 -0.74505805969E-08  0.93827000000E+00  0.93827000000E+00 0.  1.
     999902    2    1    2    0    0 -0.10437201551E-01  0.21529811430E-01 -0.78904840333E-02  0.10187361973E+01  0.10184246226E+01 0.  0.
     999903    2    3    3    0    0 -0.28398271968E-01  0.16900966976E-01 -0.12492223306E+00  0.13079450071E+00  0.20236911051E-01 0.  0.
         14    1    1    2    0    0  0.10437201551E-01 -0.21529811430E-01  0.78904840333E-02  0.25193802704E-01  0.00000000000E+00 0.  1.
     999901    1    3    3    0    0  0.17961070417E-01  0.46288444535E-02  0.11703174902E+00  0.88794169658E+00  0.88000000000E+00 0. -1.
        -11    1    4    4    0    0 -0.23792047879E-01  0.20848508028E-01 -0.91322871779E-01  0.96648072201E-01  0.51100000000E-03 0.  1.
         11    1    4    4    0    0 -0.46062240893E-02 -0.39475410512E-02 -0.33599361279E-01  0.34146428511E-01  0.51100000000E-03 0. -1.
</event>
<event>
 8    1  0.1116619E+005  0.1043930E+01  0.7957747E-01            NaN
         13   -1    0    0    0    0  0.00000000000E+00  0.00000000000E+00  0.74505805969E-08  0.10566000000E+00  0.10566000000E+00 0. -1.
     999900   -1    0    0    0    0 -0.00000000000E+00 -0.00000000000E+00 -0.74505805969E-08  0.93827000000E+00  0.93827000000E+00 0. -1.
     999902    2    1    2    0    0 -0.10599020564E-01  0.97596847708E-02  0.18721538773E-01  0.10203061413E+01  0.10200326149E+01 0.  0.
     999903    2    3    3    0    0 -0.95886991296E-01 -0.69362282267E-01 -0.49783066939E-01  0.13001000824E+00  0.20464779184E-01 0.  0.
         14    1    1    2    0    0  0.10599020564E-01 -0.97596847708E-02 -0.18721538773E-01  0.23623858656E-01  0.00000000000E+00 0.  1.
     999901    1    3    3    0    0  0.85287970733E-01  0.79121967038E-01  0.68504605713E-01  0.89029613311E+00  0.88000000000E+00 0. -1.
        -11    1    4    4    0    0 -0.47506292363E-01 -0.34706218194E-01 -0.35811419068E-01  0.68877342080E-01  0.51100000000E-03 0. -1.
         11    1    4    4    0    0 -0.48380698934E-01 -0.34656064074E-01 -0.13971647872E-01  0.61132666159E-01  0.51100000000E-03 0.  1.
</event>
<event>
 8    1  0.1116619E+005  0.1043930E+01  0.7957747E-01            NaN
         13   -1    0    0    0    0  0.00000000000E+00  0.00000000000E+00  0.74505805969E-08  0.10566000000E+00  0.10566000000E+00 0. -1.
     999900   -1    0    0    0    0 -0.00000000000E+00 -0.00000000000E+00 -0.74505805969E-08  0.93827000000E+00  0.93827000000E+00 0.  1.
     999902    2    1    2    0    0 -0.13898211145E-01 -0.57540228459E-02  0.18475753009E-01  0.10201051705E+01  0.10198269149E+01 0.  0.
     999903    2    3    3    0    0  0.57767413335E-01  0.10998893021E+00  0.30947199817E-01  0.12955032664E+00  0.19771675338E-01 0.  0.
         14    1    1    2    0    0  0.13898211145E-01  0.57540228459E-02 -0.18475753009E-01  0.23824829510E-01  0.00000000000E+00 0.  1.
     999901    1    3    3    0    0 -0.71665624480E-01 -0.11574295305E+00 -0.12471446808E-01  0.89055484385E+00  0.88000000000E+00 0.  1.
        -11    1    4    4    0    0  0.32686516913E-01  0.48659257990E-01  0.67481202359E-02  0.59007881031E-01  0.51100000000E-03 0.  1.
         11    1    4    4    0    0  0.25080896422E-01  0.61329672216E-01  0.24199079581E-01  0.70542445613E-01  0.51100000000E-03 0. -1.
</event>
<event>
 8    1  0.1116619E+005  0.1043930E+01  0.7957747E-01            NaN
         13   -1    0    0    0    0  0.00000000000E+00  0.00000000000E+00  0.74505805969E-08  0.10566000000E+00  0.10566000000E+00 0.  1.
     999900   -1    0    0    0    0 -0.00000000000E+00 -0.00000000000E+00 -0.74505805969E-08  0.93827000000E+00  0.93827000000E+00 0. -1.
     999902    2    1    2    0    0 -0.49857515880E-02 -0.61575743916E-02 -0.22044947703E-01  0.10205045190E+01  0.10202356199E+01 0.  0.
     999903    2    3    3    0    0 -0.36611592060E-01  0.92513439042E-01  0.79199894733E-01  0.12865998052E+00  0.19535152559E-01 0.  0.
         14    1    1    2    0    0  0.49857515880E-02  0.61575743916E-02  0.22044947703E-01  0.23425481009E-01  0.00000000000E+00 0.  1.
     999901    1    3    3    0    0  0.31625840472E-01 -0.98671013434E-01 -0.10124484244E+00  0.89184453847E+00  0.88000000000E+00 0. -1.
        -11    1    4    4    0    0 -0.30976894339E-01  0.54286809339E-01  0.44544442289E-01  0.76753463185E-01  0.51100000000E-03 0.  1.
         11    1    4    4    0    0 -0.56346977209E-02  0.38226629704E-01  0.34655452444E-01  0.51906517337E-01  0.51100000000E-03 0. -1.
</event>
<event>
 8    1  0.1116619E+005  0.1043930E+01  0.7957747E-01            NaN
         13   -1    0    0    0    0  0.00000000000E+00  0.00000000000E+00  0.74505805969E-08  0.10566000000E+00  0.10566000000E+00 0.  1.
     999900   -1    0    0    0    0 -0.00000000000E+00 -0.00000000000E+00 -0.74505805969E-08  0.93827000000E+00  0.93827000000E+00 0. -1.
     999902    2    1    2    0    0 -0.17298077643E-01 -0.63822221556E-02 -0.13509959703E-01  0.10210722822E+01  0.10208164038E+01 0.  0.
     999903    2    3    3    0    0  0.24446379780E-01 -0.12105043298E+00  0.39005315394E-01  0.13110079258E+00  0.20375730124E-01 0.  0.
         14    1    1    2    0    0  0.17298077643E-01  0.63822221556E-02  0.13509959703E-01  0.22857717755E-01  0.00000000000E+00 0.  1.
     999901    1    3    3    0    0 -0.41744457423E-01  0.11466821082E+00 -0.52515275096E-01  0.88997148967E+00  0.88000000000E+00 0. -1.
        -11    1    4    4    0    0  0.17795637183E-01 -0.41053874786E-01  0.16965689995E-01  0.47856045550E-01  0.51100000000E-03 0. -1.
         11    1    4    4    0    0  0.66507425973E-02 -0.79996558190E-01  0.22039625399E-01  0.83244747030E-01  0.51100000000E-03 0.  1.
</event>
<event>
 8    1  0.1116619E+005  0.1043930E+01  0.7957747E-01            NaN
         13   -1    0    0    0    0  0.00000000000E+00  0.00000000000E+00  0.74505805969E-08  0.10566000000E+00  0.10566000000E+00 0.  1.
     999900   -1    0    0    0    0 -0.00000000000E+00 -0.00000000000E+00 -0.74505805969E-08  0.93827000000E+00  0.93827000000E+00 0.  1.
     999902    2    1    2    0    0  0.32747561600E-02  0.22577604472E-01  0.73330115089E-02  0.10199665839E+01  0.10196850431E+01 0.  0.
     999903    2    3    3    0    0  0.19616529028E-02 -0.12315288134E+00  0.27099694730E-01  0.12776155117E+00  0.20448477663E-01 0.  0.
         14    1    1    2    0    0 -0.32747561600E-02 -0.22577604472E-01 -0.73330115089E-02  0.23963416063E-01  0.00000000000E+00 0.  1.
     999901    1    3    3    0    0  0.13131032572E-02  0.14573048581E+00 -0.19766683221E-01  0.89220503277E+00  0.88000000000E+00 0. -1.
        -11    1    4    4    0    0  0.19816308488E-03 -0.35405932171E-01  0.17420352045E-01  0.39463262509E-01  0.51100000000E-03 0. -1.
         11    1    4    4    0    0  0.17634898179E-02 -0.87746949166E-01  0.96793426853E-02  0.88298288658E-01  0.51100000000E-03 0.  1.
</event>
<event>
 8    1  0.1116619E+005  0.1043930E+01  0.7957747E-01            NaN
         13   -1    0    0    0    0  0.00000000000E+00  0.00000000000E+00  0.74505805969E-08  0.10566000000E+00  0.10566000000E+00 0. -1.
     999900   -1    0    0    0    0 -0.00000000000E+00 -0.00000000000E+00 -0.74505805969E-08  0.93827000000E+00  0.93827000000E+00 0. -1.
     999902    2    1    2    0    0 -0.16356238331E-01 -0.76767416915E-02  0.15340728957E-01  0.10202277457E+01  0.10199523794E+01 0.  0.
     999903    2    3    3    0    0  0.40149181716E-01 -0.10831653218E+00  0.59713869636E-01  0.13158259403E+00  0.20094897054E-01 0.  0.
         14    1    1    2    0    0  0.16356238331E-01  0.76767416915E-02 -0.15340728957E-01  0.23702254328E-01  0.00000000000E+00 0.  1.
     999901    1    3    3    0    0 -0.56505420047E-01  0.10063979049E+00 -0.44373140679E-01  0.88864515164E+00  0.88000000000E+00 0. -1.
        -11    1    4    4    0    0  0.17615440054E-01 -0.22877060773E-01  0.15542316693E-01  0.32794639305E-01  0.51100000000E-03 0.  1.
         11    1    4    4    0    0  0.22533741662E-01 -0.85439471410E-01  0.44171552943E-01  0.98787954724E-01  0.51100000000E-03 0. -1.
</event>
<event>
 7    1  0.1880948E+005  0.1043930E+01  0.7957747E-01            NaN
         13   -1    0    0    0    0  0.00000000000E+00  0.00000000000E+00  0.74505805969E-08  0.10566000000E+00  0.10566000000E+00 0. -1.
     999900   -1    0    0    0    0 -0.00000000000E+00 -0.00000000000E+00 -0.74505805969E-08  0.93827000000E+00  0.93827000000E+00 0.  1.
     999903    2    1    2    0    0  0.36304996132E-01  0.81526042307E-01 -0.78543496659E-01  0.12046944998E+00  0.19474578135E-01 0.  0.
         14    1    1    2    0    0  0.31843178078E-02 -0.35753041150E-01  0.15617237488E-01  0.39144832841E-01  0.00000000000E+00 0.  1.
     999901    1    1    2    0    0 -0.39489313940E-01 -0.45773001158E-01  0.62926259171E-01  0.88431571718E+00  0.88000000000E+00 0. -1.
        -11    1    3    3    0    0  0.15671660081E-01  0.51568626565E-01 -0.37713410819E-01  0.65783635139E-01  0.51100000000E-03 0. -1.
         11    1    3    3    0    0  0.20633336050E-01  0.29957415743E-01 -0.40830085840E-01  0.54685814845E-01  0.51100000000E-03 0.  1.
</event>
<event>
 8    1  0.1116619E+005  0.1043930E+01  0.7957747E-01            NaN
         13   -1    0    0    0    0  0.00000000000E+00  0.00000000000E+00  0.74505805969E-08  0.10566000000E+00  0.10566000000E+00 0.  1.
     999900   -1    0    0    0    0 -0.00000000000E+00 -0.00000000000E+00 -0.74505805969E-08  0.93827000000E+00  0.93827000000E+00 0.  1.
     999902    2    1    2    0    0  0.13812109625E-01 -0.16294736357E-01  0.71419542173E-02  0.10214066718E+01  0.10211583074E+01 0.  0.
     999903    2    3    3    0    0 -0.10830963467E+00 -0.71464966039E-01 -0.79429200422E-02  0.13113422576E+00  0.17171978675E-01 0.  0.
         14    1    1    2    0    0 -0.13812109625E-01  0.16294736357E-01 -0.71419542173E-02  0.22523328246E-01  0.00000000000E+00 0. -1.
     999901    1    3    3    0    0  0.12212174430E+00  0.55170229682E-01  0.15084874259E-01  0.89027244600E+00  0.88000000000E+00 0.  1.
        -11    1    4    4    0    0 -0.43995551636E-01 -0.38797587323E-01 -0.10713209273E-02  0.58670863257E-01  0.51100000000E-03 0.  1.
         11    1    4    4    0    0 -0.64314083038E-01 -0.32667378716E-01 -0.68715991149E-02  0.72463362498E-01  0.51100000000E-03 0. -1.
</event>
<event>
 8    1  0.1116619E+005  0.1043930E+01  0.7957747E-01            NaN
         13   -1    0    0    0    0  0.00000000000E+00  0.00000000000E+00  0.74505805969E-08  0.10566000000E+00  0.10566000000E+00 0. -1.
     999900   -1    0    0    0    0 -0.00000000000E+00 -0.00000000000E+00 -0.74505805969E-08  0.93827000000E+00  0.93827000000E+00 0. -1.
     999902    2    1    2    0    0  0.50108741281E-02  0.14260414723E-01  0.20036366720E-01  0.10188317076E+01  0.10185225202E+01 0.  0.
     999903    2    3    3    0    0  0.44504858182E-01  0.11039683361E+00 -0.49117689482E-01  0.13002111517E+00  0.18022200091E-01 0.  0.
         14    1    1    2    0    0 -0.50108741281E-02 -0.14260414723E-01 -0.20036366720E-01  0.25098292351E-01  0.00000000000E+00 0.  1.
     999901    1    3    3    0    0 -0.39493984054E-01 -0.96136418892E-01  0.69154056202E-01  0.88881059248E+00  0.88000000000E+00 0.  1.
        -11    1    4    4    0    0  0.27902918805E-01  0.73700267955E-01 -0.41356836427E-01  0.88999727049E-01  0.51100000000E-03 0. -1.
         11    1    4    4    0    0  0.16601939377E-01  0.36696565659E-01 -0.77608530553E-02  0.41021388121E-01  0.51100000000E-03 0.  1.
</event>
<event>
 8    1  0.1116619E+005  0.1043930E+01  0.7957747E-01            NaN
         13   -1    0    0    0    0  0.00000000000E+00  0.00000000000E+00  0.74505805969E-08  0.10566000000E+00  0.10566000000E+00 0. -1.
     999900   -1    0    0    0    0 -0.00000000000E+00 -0.00000000000E+00 -0.74505805969E-08  0.93827000000E+00  0.93827000000E+00 0.  1.
     999902    2    1    2    0    0 -0.26173957999E-02  0.16897090799E-02  0.23764246026E-01  0.10199624122E+01  0.10196807721E+01 0.  0.
     999903    2    3    3    0    0  0.11342942362E+00  0.54042229355E-01  0.30319706539E-01  0.13077704075E+00  0.19913640672E-01 0.  0.
         14    1    1    2    0    0  0.26173957999E-02 -0.16897090799E-02 -0.23764246026E-01  0.23967587837E-01  0.00000000000E+00 0.  1.
     999901    1    3    3    0    0 -0.11604681942E+00 -0.52352520275E-01 -0.65554605135E-02  0.88918537142E+00  0.88000000000E+00 0. -1.
        -11    1    4    4    0    0  0.43443838450E-01  0.31413520345E-01  0.11061809513E-01  0.54743046229E-01  0.51100000000E-03 0. -1.
         11    1    4    4    0    0  0.69985585174E-01  0.22628709009E-01  0.19257897026E-01  0.76033994518E-01  0.51100000000E-03 0.  1.
</event>
<event>
 8    1  0.1116619E+005  0.1043930E+01  0.7957747E-01            NaN
         13   -1    0    0    0    0  0.00000000000E+00  0.00000000000E+00  0.74505805969E-08  0.10566000000E+00  0.10566000000E+00 0.  1.
     999900   -1    0    0    0    0 -0.00000000000E+00 -0.00000000000E+00 -0.74505805969E-08  0.93827000000E+00  0.93827000000E+00 0. -1.
     999902    2    1    2    0    0  0.17446481259E-01 -0.12167848513E-01 -0.87535911622E-02  0.10209286608E+01  0.10206695199E+01 0.  0.
     999903    2    3    3    0    0  0.12388069064E+00 -0.87558105025E-02  0.43124820868E-01  0.13299214701E+00  0.20101523841E-01 0.  0.
         14    1    1    2    0    0 -0.17446481259E-01  0.12167848513E-01  0.87535911622E-02  0.23001339178E-01  0.00000000000E+00 0.  1.
     999901    1    3    3    0    0 -0.10643420938E+00 -0.34120380102E-02 -0.51878412030E-01  0.88793651381E+00  0.88000000000E+00 0. -1.
        -11    1    4    4    0    0  0.89700041850E-01  0.27273929848E-02  0.31052144675E-01  0.94963324448E-01  0.51100000000E-03 0. -1.
         11    1    4    4    0    0  0.34180648786E-01 -0.11483203487E-01  0.12072676193E-01  0.38028822559E-01  0.51100000000E-03 0.  1.
</event>
<event>
 8    1  0.1116619E+005  0.1043930E+01  0.7957747E-01            NaN
         13   -1    0    0    0    0  0.00000000000E+00  0.00000000000E+00  0.74505805969E-08  0.10566000000E+00  0.10566000000E+00 0.  1.
     999900   -1    0    0    0    0 -0.00000000000E+00 -0.00000000000E+00 -0.74505805969E-08  0.93827000000E+00  0.93827000000E+00 0.  1.
     999902    2    1    2    0    0 -0.13833636044E-01  0.31908827339E-02  0.16361026458E-01  0.10222681809E+01  0.10220386486E+01 0.  0.
     999903    2    3    3    0    0  0.12789534143E+00  0.14495664722E-01 -0.88414731081E-02  0.13050023626E+00  0.19616252488E-01 0.  0.
         14    1    1    2    0    0  0.13833636044E-01 -0.31908827339E-02 -0.16361026458E-01  0.21661819074E-01  0.00000000000E+00 0. -1.
     999901    1    3    3    0    0 -0.14172897747E+00 -0.11304781988E-01  0.25202499566E-01  0.89176794467E+00  0.88000000000E+00 0.  1.
        -11    1    4    4    0    0  0.60969354007E-01  0.16315886403E-02 -0.12452969304E-01  0.62251600582E-01  0.51100000000E-03 0.  1.
         11    1    4    4    0    0  0.66925987423E-01  0.12864076082E-01  0.36114961962E-02  0.68248635677E-01  0.51100000000E-03 0. -1.
</event>
<event>
 8    1  0.1116619E+005  0.1043930E+01  0.7957747E-01            NaN
         13   -1    0    0    0    0  0.00000000000E+00  0.00000000000E+00  0.74505805969E-08  0.10566000000E+00  0.10566000000E+00 0. -1.
     999900   -1    0    0    0    0 -0.00000000000E+00 -0.00000000000E+00 -0.74505805969E-08  0.93827000000E+00  0.93827000000E+00 0. -1.
     999902    2    1    2    0    0 -0.13444629831E-01 -0.17003941868E-01  0.80073603275E-02  0.10208213451E+01  0.10205597527E+01 0.  0.
     999903    2    3    3    0    0 -0.77799460680E-01  0.38149862725E-01 -0.95773162534E-01  0.13067872547E+00  0.19906343733E-01 0.  0.
         14    1    1    2    0    0  0.13444629831E-01  0.17003941868E-01 -0.80073603275E-02  0.23108654867E-01  0.00000000000E+00 0.  1.
     999901    1    3    3    0    0  0.64354830849E-01 -0.55153804593E-01  0.10378052286E+00  0.89014261966E+00  0.88000000000E+00 0.  1.
        -11    1    4    4    0    0 -0.60265590913E-01  0.19620678337E-01 -0.67373838819E-01  0.92500852670E-01  0.51100000000E-03 0.  1.
         11    1    4    4    0    0 -0.17533869766E-01  0.18529184388E-01 -0.28399323715E-01  0.38177872800E-01  0.51100000000E-03 0. -1.
</event>
<event>
 8    1  0.1116619E+005  0.1043930E+01  0.7957747E-01            NaN
         13   -1    0    0    0    0  0.00000000000E+00  0.00000000000E+00  0.74505805969E-08  0.10566000000E+00  0.10566000000E+00 0. -1.
     999900   -1    0    0    0    0 -0.00000000000E+00 -0.00000000000E+00 -0.74505805969E-08  0.93827000000E+00  0.93827000000E+00 0.  1.
     999902    2    1    2    0    0  0.32704408594E-02  0.23407342765E-01 -0.61819875253E-03  0.10202872073E+01  0.10200132370E+01 0.  0.
     999903    2    3    3    0    0  0.79885585493E-01 -0.92862785802E-01 -0.33934421369E-01  0.12871634980E+00  0.20276833974E-01 0.  0.
         14    1    1    2    0    0 -0.32704408594E-02 -0.23407342765E-01  0.61819875253E-03  0.23642792738E-01  0.00000000000E+00 0. -1.
     999901    1    3    3    0    0 -0.76615144633E-01  0.11627012857E+00  0.33316222617E-01  0.89157085746E+00  0.88000000000E+00 0.  1.
        -11    1    4    4    0    0  0.60688470407E-01 -0.56936673937E-01 -0.26266089531E-01  0.87264218667E-01  0.51100000000E-03 0. -1.
         11    1    4    4    0    0  0.19197115086E-01 -0.35926111865E-01 -0.76683318386E-02  0.41452131134E-01  0.51100000000E-03 0.  1.
</event>
<event>
 8    1  0.1116619E+005  0.1043930E+01  0.7957747E-01            NaN
         13   -1    0    0    0    0  0.00000000000E+00  0.00000000000E+00  0.74505805969E-08  0.10566000000E+00  0.10566000000E+00 0.  1.
     999900   -1    0    0    0    0 -0.00000000000E+00 -0.00000000000E+00 -0.74505805969E-08  0.93827000000E+00  0.93827000000E+00 0. -1.
     999902    2    1    2    0    0 -0.16460608155E-01 -0.22269497336E-01 -0.11620398125E-01  0.10138980872E+01  0.10134532133E+01 0.  0.
     999903    2    3    3    0    0  0.11064301997E+00  0.44374471463E-01 -0.19956766134E-01  0.12223321414E+00  0.18213032126E-01 0.  0.
         14    1    1    2    0    0  0.16460608155E-01  0.22269497336E-01  0.11620398125E-01  0.30031912776E-01  0.00000000000E+00 0.  1.
     999901    1    3    3    0    0 -0.12710362812E+00 -0.66643968799E-01  0.83363680094E-02  0.89166487308E+00  0.88000000000E+00 0.  1.
        -11    1    4    4    0    0  0.76716419662E-01  0.24784150497E-01 -0.19948601690E-01  0.83053422519E-01  0.51100000000E-03 0. -1.
         11    1    4    4    0    0  0.33926600306E-01  0.19590320966E-01 -0.81644440843E-05  0.39179791622E-01  0.51100000000E-03 0.  1.
</event>
<event>
 8    1  0.1116619E+005  0.1043930E+01  0.7957747E-01            NaN
         13   -1    0    0    0    0  0.00000000000E+00  0.00000000000E+00  0.74505805969E-08  0.10566000000E+00  0.10566000000E+00 0.  1.
     999900   -1    0    0    0    0 -0.00000000000E+00 -0.00000000000E+00 -0.74505805969E-08  0.93827000000E+00  0.93827000000E+00 0.  1.
     999902    2    1    2    0    0 -0.25637810689E-02  0.23452373688E-01  0.41100241268E-02  0.10199825763E+01  0.10197014155E+01 0.  0.
     999903    2    3    3    0    0  0.56274035976E-01 -0.82452328718E-01  0.78581530827E-01  0.12856589479E+00  0.19722542451E-01 0.  0.
         14    1    1    2    0    0  0.25637810689E-02 -0.23452373688E-01 -0.41100241268E-02  0.23947423730E-01  0.00000000000E+00 0. -1.
     999901    1    3    3    0    0 -0.58837817045E-01  0.10590470241E+00 -0.74471506700E-01  0.89141668148E+00  0.88000000000E+00 0.  1.
        -11    1    4    4    0    0  0.17849290768E-01 -0.37673880877E-01  0.23568659380E-01  0.47892184198E-01  0.51100000000E-03 0. -1.
         11    1    4    4    0    0  0.38424745208E-01 -0.44778447840E-01  0.55012871446E-01  0.80673710594E-01  0.51100000000E-03 0.  1.
</event>
<event>
 8    1  0.1116619E+005  0.1043930E+01  0.7957747E-01            NaN
         13   -1    0    0    0    0  0.00000000000E+00  0.00000000000E+00  0.74505805969E-08  0.10566000000E+00  0.10566000000E+00 0.  1.
     999900   -1    0    0    0    0 -0.00000000000E+00 -0.00000000000E+00 -0.74505805969E-08  0.93827000000E+00  0.93827000000E+00 0. -1.
     999902    2    1    2    0    0 -0.15380777184E-01  0.88762005324E-02  0.14775216401E-01  0.10208288688E+01  0.10205674486E+01 0.  0.
     999903    2    3    3    0    0  0.19556417131E-02 -0.12323815883E+00 -0.23605173571E-01  0.12997096223E+00  0.33819794177E-01 0.  0.
         14    1    1    2    0    0  0.15380777184E-01 -0.88762005324E-02 -0.14775216401E-01  0.23101131192E-01  0.00000000000E+00 0. -1.
     999901    1    3    3    0    0 -0.17336418898E-01  0.13211435936E+00  0.38380389972E-01  0.89085790657E+00  0.88000000000E+00 0.  1.
        -11    1    4    4    0    0  0.16611495186E-01 -0.82673702003E-01 -0.11060027119E-01  0.85049797742E-01  0.51100000000E-03 0.  1.
         11    1    4    4    0    0 -0.14655853473E-01 -0.40564456828E-01 -0.12545146452E-01  0.44921164492E-01  0.51100000000E-03 0. -1.
</event>
<event>
 8    1  0.1116619E+005  0.1043930E+01  0.7957747E-01            NaN
         13   -1    0    0    0    0  0.00000000000E+00  0.00000000000E+00  0.74505805969E-08  0.10566000000E+00  0.10566000000E+00 0.  1.
     999900   -1    0    0    0    0 -0.00000000000E+00 -0.00000000000E+00 -0.74505805969E-08  0.93827000000E+00  0.93827000000E+00 0. -1.
     999902    2    1    2    0    0 -0.95453385227E-02 -0.19802960357E-01  0.96702709164E-02  0.10199136542E+01  0.10196308534E+01 0.  0.
     999903    2    3    3    0    0 -0.75520578146E-01  0.90646452741E-01 -0.47133907420E-01  0.12874671148E+00  0.20832027538E-01 0.  0.
         14    1    1    2    0    0  0.95453385227E-02  0.19802960357E-01 -0.96702709164E-02  0.24016345809E-01  0.00000000000E+00 0. -1.
     999901    1    3    3    0    0  0.65975239623E-01 -0.11044941310E+00  0.56804178337E-01  0.89116694271E+00  0.88000000000E+00 0.  1.
        -11    1    4    4    0    0 -0.56598250937E-01  0.67133798363E-01 -0.24948166746E-01  0.91285163290E-01  0.51100000000E-03 0.  1.
         11    1    4    4    0    0 -0.18922327209E-01  0.23512654378E-01 -0.22185740675E-01  0.37461548195E-01  0.51100000000E-03 0. -1.
</event>
<event>
 8    1  0.1116619E+005  0.1043930E+01  0.7957747E-01            NaN
         13   -1    0    0    0    0  0.00000000000E+00  0.00000000000E+00  0.74505805969E-08  0.10566000000E+00  0.10566000000E+00 0.  1.
     999900   -1    0    0    0    0 -0.00000000000E+00 -0.00000000000E+00 -0.74505805969E-08  0.93827000000E+00  0.93827000000E+00 0. -1.
     999902    2    1    2    0    0  0.99536867381E-02 -0.11504324197E-01  0.18803232285E-01  0.10197434976E+01  0.10194566268E+01 0.  0.
     999903    2    3    3    0    0 -0.45322058176E-01  0.55092000861E-01  0.10798013698E+00  0.13101238030E+00  0.20379310443E-01 0.  0.
         14    1    1    2    0    0 -0.99536867381E-02  0.11504324197E-01 -0.18803232285E-01  0.24186502419E-01  0.00000000000E+00 0. -1.
     999901    1    3    3    0    0  0.55275744914E-01 -0.66596325059E-01 -0.89176904696E-01  0.88873111728E+00  0.88000000000E+00 0. -1.
        -11    1    4    4    0    0 -0.14671747271E-01  0.27658587914E-01  0.60995319236E-01  0.68563457782E-01  0.51100000000E-03 0. -1.
         11    1    4    4    0    0 -0.30650310905E-01  0.27433412948E-01  0.46984817744E-01  0.62448922521E-01  0.51100000000E-03 0.  1.
</event>
<event>
 8    1  0.1116619E+005  0.1043930E+01  0.7957747E-01            NaN
         13   -1    0    0    0    0  0.00000000000E+00  0.00000000000E+00  0.74505805969E-08  0.10566000000E+00  0.10566000000E+00 0.  1.
     999900   -1    0    0    0    0 -0.00000000000E+00 -0.00000000000E+00 -0.74505805969E-08  0.93827000000E+00  0.93827000000E+00 0. -1.
     999902    2    1    2    0    0  0.80382995021E-02  0.16142228428E-01 -0.15845009599E-01  0.10199247896E+01  0.10196422541E+01 0.  0.
     999903    2    3    3    0    0 -0.60100543261E-01 -0.40060026995E-01  0.10323128438E+00  0.12752310918E+00  0.19712032809E-01 0.  0.
         14    1    1    2    0    0 -0.80382995021E-02 -0.16142228428E-01  0.15845009599E-01  0.24005210407E-01  0.00000000000E+00 0.  1.
     999901    1    3    3    0    0  0.68138842763E-01  0.56202255423E-01 -0.11907629398E+00  0.89240168041E+00  0.88000000000E+00 0. -1.
        -11    1    4    4    0    0 -0.48489264274E-02 -0.11315729901E-01  0.13304815813E-01  0.18133865432E-01  0.51100000000E-03 0.  1.
         11    1    4    4    0    0 -0.55251616833E-01 -0.28744297094E-01  0.89926468571E-01  0.10938924375E+00  0.51100000000E-03 0. -1.
</event>
<event>
 8    1  0.1116619E+005  0.1043930E+01  0.7957747E-01            NaN
         13   -1    0    0    0    0  0.00000000000E+00  0.00000000000E+00  0.74505805969E-08  0.10566000000E+00  0.10566000000E+00 0. -1.
     999900   -1    0    0    0    0 -0.00000000000E+00 -0.00000000000E+00 -0.74505805969E-08  0.93827000000E+00  0.93827000000E+00 0.  1.
     999902    2    1    2    0    0 -0.23109565447E-01  0.46361900053E-02 -0.48160595541E-02  0.10198729698E+01  0.10195891986E+01 0.  0.
     999903    2    3    3    0    0 -0.67984488293E-01  0.60785036230E-01  0.92805552346E-01  0.13156197090E+00  0.19467161161E-01 0.  0.
         14    1    1    2    0    0  0.23109565447E-01 -0.46361900053E-02  0.48160595541E-02  0.24057030210E-01  0.00000000000E+00 0. -1.
     999901    1    3    3    0    0  0.44874922846E-01 -0.56148846225E-01 -0.97621611900E-01  0.88831099889E+00  0.88000000000E+00 0. -1.
        -11    1    4    4    0    0 -0.80694475677E-02  0.14099264519E-01  0.24547142273E-01  0.29440254055E-01  0.51100000000E-03 0. -1.
         11    1    4    4    0    0 -0.59915040725E-01  0.46685771711E-01  0.68258410073E-01  0.10212171685E+00  0.51100000000E-03 0.  1.
</event>
<event>
 8    1  0.1116619E+005  0.1043930E+01  0.7957747E-01            NaN
         13   -1    0    0    0    0  0.00000000000E+00  0.00000000000E+00  0.74505805969E-08  0.10566000000E+00  0.10566000000E+00 0.  1.
     999900   -1    0    0    0    0 -0.00000000000E+00 -0.00000000000E+00 -0.74505805969E-08  0.93827000000E+00  0.93827000000E+00 0. -1.
     999902    2    1    2    0    0  0.86574243954E-02  0.15097037160E-01  0.19384009220E-01  0.10178798303E+01  0.10175464302E+01 0.  0.
     999903    2    3    3    0    0  0.63567758771E-01 -0.10257154648E+00  0.38191443490E-01  0.12815247881E+00  0.20067121562E-01 0.  0.
         14    1    1    2    0    0 -0.86574243954E-02 -0.15097037160E-01 -0.19384009220E-01  0.26050169704E-01  0.00000000000E+00 0. -1.
     999901    1    3    3    0    0 -0.54910334375E-01  0.11766858364E+00 -0.18807434270E-01  0.88972735148E+00  0.88000000000E+00 0. -1.
        -11    1    4    4    0    0  0.39945046533E-01 -0.71527941867E-01  0.16701868415E-01  0.83612599169E-01  0.51100000000E-03 0.  1.
         11    1    4    4    0    0  0.23622712238E-01 -0.31043604610E-01  0.21489575075E-01  0.44539879642E-01  0.51100000000E-03 0. -1.
</event>
<event>
 8    1  0.1116619E+005  0.1043930E+01  0.7957747E-01            NaN
         13   -1    0    0    0    0  0.00000000000E+00  0.00000000000E+00  0.74505805969E-08  0.10566000000E+00  0.10566000000E+00 0. -1.
     999900   -1    0    0    0    0 -0.00000000000E+00 -0.00000000000E+00 -0.74505805969E-08  0.93827000000E+00  0.93827000000E+00 0. -1.
     999902    2    1    2    0    0 -0.25427847628E-02 -0.91170162244E-02 -0.20556317402E-01  0.10212993145E+01  0.10210485502E+01 0.  0.
     999903    2    3    3    0    0 -0.10462323581E+00  0.67931482368E-02  0.74566010693E-01  0.13016419060E+00  0.19760015939E-01 0.  0.
         14    1    1    2    0    0  0.25427847628E-02  0.91170162244E-02  0.20556317402E-01  0.22630685458E-01  0.00000000000E+00 0. -1.
     999901    1    3    3    0    0  0.10208045105E+00 -0.15910164461E-01 -0.95122328095E-01  0.89113512394E+00  0.88000000000E+00 0. -1.
        -11    1    4    4    0    0 -0.84413463984E-01  0.59671049019E-02  0.68970650983E-01  0.10917165869E+00  0.51100000000E-03 0.  1.
         11    1    4    4    0    0 -0.20209771825E-01  0.82604333486E-03  0.55953597102E-02  0.20992531913E-01  0.51100000000E-03 0. -1.
</event>
<event>
 8    1  0.1116619E+005  0.1043930E+01  0.7957747E-01            NaN
         13   -1    0    0    0    0  0.00000000000E+00  0.00000000000E+00  0.74505805969E-08  0.10566000000E+00  0.10566000000E+00 0. -1.
     999900   -1    0    0    0    0 -0.00000000000E+00 -0.00000000000E+00 -0.74505805969E-08  0.93827000000E+00  0.93827000000E+00 0.  1.
     999902    2    1    2    0    0 -0.18535786834E-01  0.79742592529E-02 -0.11526084913E-01  0.10206917807E+01  0.10204272126E+01 0.  0.
     999903    2    3    3    0    0  0.30566527200E-01 -0.22639233764E-01 -0.12435444598E+00  0.13160322363E+00  0.20212192991E-01 0.  0.
         14    1    1    2    0    0  0.18535786834E-01 -0.79742592529E-02  0.11526084913E-01  0.23238219330E-01  0.00000000000E+00 0.  1.
     999901    1    3    3    0    0 -0.49102314034E-01  0.30613493017E-01  0.11282836106E+00  0.88908855704E+00  0.88000000000E+00 0. -1.
        -11    1    4    4    0    0  0.31460537369E-01 -0.19048427907E-01 -0.92720572858E-01  0.99749555234E-01  0.51100000000E-03 0. -1.
         11    1    4    4    0    0 -0.89401016859E-03 -0.35908058565E-02 -0.31633873118E-01  0.31853668397E-01  0.51100000000E-03 0.  1.
</event>
<event>
 8    1  0.1116619E+005  0.1043930E+01  0.7957747E-01            NaN
         13   -1    0    0    0    0  0.00000000000E+00  0.00000000000E+00  0.74505805969E-08  0.10566000000E+00  0.10566000000E+00 0. -1.
     999900   -1    0    0    0    0 -0.00000000000E+00 -0.00000000000E+00 -0.74505805969E-08  0.93827000000E+00  0.93827000000E+00 0.  1.
     999902    2    1    2    0    0  0.16653881607E-01 -0.30906837663E-02 -0.16496100543E-01  0.10202862813E+01  0.10200122894E+01 0.  0.
     999903    2    3    3    0    0  0.89104625840E-01 -0.57026562945E-01  0.74661481913E-01  0.13097874498E+00  0.19734019522E-01 0.  0.
         14    1    1    2    0    0 -0.16653881607E-01  0.30906837663E-02  0.16496100543E-01  0.23643718656E-01  0.00000000000E+00 0. -1.
     999901    1    3    3    0    0 -0.72450744234E-01  0.53935879179E-01 -0.91157582456E-01  0.88930753637E+00  0.88000000000E+00 0.  1.
        -11    1    4    4    0    0  0.36653529439E-01 -0.13267979160E-01  0.22320906916E-01  0.44922204953E-01  0.51100000000E-03 0.  1.
         11    1    4    4    0    0  0.52451096401E-01 -0.43758583785E-01  0.52340574997E-01  0.86056540022E-01  0.51100000000E-03 0. -1.
</event>
<event>
 8    1  0.1116619E+005  0.1043930E+01  0.7957747E-01            NaN
         13   -1    0    0    0    0  0.00000000000E+00  0.00000000000E+00  0.74505805969E-08  0.10566000000E+00  0.10566000000E+00 0.  1.
     999900   -1    0    0    0    0 -0.00000000000E+00 -0.00000000000E+00 -0.74505805969E-08  0.93827000000E+00  0.93827000000E+00 0.  1.
     999902    2    1    2    0    0  0.16847161254E-01 -0.13306915344E-01  0.10551201817E-01  0.10200086978E+01  0.10197281574E+01 0.  0.
     999903    2    3    3    0    0 -0.29336720703E-01 -0.28168257340E-01 -0.12073661020E+00  0.12894736434E+00  0.19899744347E-01 0.  0.
         14    1    1    2    0    0 -0.16847161254E-01  0.13306915344E-01 -0.10551201817E-01  0.23921302183E-01  0.00000000000E+00 0. -1.
     999901    1    3    3    0    0  0.46183881958E-01  0.14861341996E-01  0.13128781201E+00  0.89106133348E+00  0.88000000000E+00 0. -1.
        -11    1    4    4    0    0 -0.28890832980E-01 -0.17016831750E-01 -0.98690335142E-01  0.10423193448E+00  0.51100000000E-03 0. -1.
         11    1    4    4    0    0 -0.44588772343E-03 -0.11151425591E-01 -0.22046275054E-01  0.24715429863E-01  0.51100000000E-03 0.  1.
</event>
<event>
 8    1  0.1116619E+005  0.1043930E+01  0.7957747E-01            NaN
         13   -1    0    0    0    0  0.00000000000E+00  0.00000000000E+00  0.74505805969E-08  0.10566000000E+00  0.10566000000E+00 0.  1.
     999900   -1    0    0    0    0 -0.00000000000E+00 -0.00000000000E+00 -0.74505805969E-08  0.93827000000E+00  0.93827000000E+00 0.  1.
     999902    2    1    2    0    0 -0.90683573913E-02 -0.14717088901E-01 -0.13707692398E-01  0.10218680726E+01  0.10216298885E+01 0.  0.
     999903    2    3    3    0    0 -0.57181180043E-01 -0.84710288320E-01 -0.85734260002E-01  0.13484962962E+00  0.19711391961E-01 0.  0.
         14    1    1    2    0    0  0.90683573913E-02  0.14717088901E-01  0.13707692398E-01  0.22061927440E-01  0.00000000000E+00 0.  1.
     999901    1    3    3    0    0  0.48112822652E-01  0.69993199419E-01  0.72026567604E-01  0.88701844294E+00  0.88000000000E+00 0. -1.
        -11    1    4    4    0    0 -0.44003558770E-01 -0.59534213071E-01 -0.72050316440E-01  0.10330607403E+00  0.51100000000E-03 0. -1.
         11    1    4    4    0    0 -0.13177621273E-01 -0.25176075249E-01 -0.13683943563E-01  0.31543555598E-01  0.51100000000E-03 0.  1.
</event>
<event>
 8    1  0.1116619E+005  0.1043930E+01  0.7957747E-01            NaN
         13   -1    0    0    0    0  0.00000000000E+00  0.00000000000E+00  0.74505805969E-08  0.10566000000E+00  0.10566000000E+00 0.  1.
     999900   -1    0    0    0    0 -0.00000000000E+00 -0.00000000000E+00 -0.74505805969E-08  0.93827000000E+00  0.93827000000E+00 0. -1.
     999902    2    1    2    0    0 -0.13220553318E-01  0.97258223877E-02  0.17053988237E-01  0.10202611773E+01  0.10199865964E+01 0.  0.
     999903    2    3    3    0    0 -0.90676895558E-01  0.23014708055E-02 -0.91168420730E-01  0.13022370861E+00  0.20467955182E-01 0.  0.
         14    1    1    2    0    0  0.13220553318E-01 -0.97258223877E-02 -0.17053988237E-01  0.23668822657E-01  0.00000000000E+00 0.  1.
     999901    1    3    3    0    0  0.77456342240E-01  0.74243515822E-02  0.10822240897E+00  0.89003746874E+00  0.88000000000E+00 0.  1.
        -11    1    4    4    0    0 -0.78065781655E-01  0.10385137773E-02 -0.66799033058E-01  0.10275075043E+00  0.51100000000E-03 0.  1.
         11    1    4    4    0    0 -0.12611113903E-01  0.12629570282E-02 -0.24369387672E-01  0.27472958174E-01  0.51100000000E-03 0. -1.
</event>
<event>
 8    1  0.1116619E+005  0.1043930E+01  0.7957747E-01            NaN
         13   -1    0    0    0    0  0.00000000000E+00  0.00000000000E+00  0.74505805969E-08  0.10566000000E+00  0.10566000000E+00 0.  1.
     999900   -1    0    0    0    0 -0.00000000000E+00 -0.00000000000E+00 -0.74505805969E-08  0.93827000000E+00  0.93827000000E+00 0.  1.
     999902    2    1    2    0    0 -0.60574804731E-02  0.17515835760E-01  0.15032146350E-01  0.10200665762E+01  0.10197874077E+01 0.  0.
     999903    2    3    3    0    0  0.51215847910E-01 -0.49914949324E-01 -0.10373181882E+00  0.12769220165E+00  0.20747117456E-01 0.  0.
         14    1    1    2    0    0  0.60574804731E-02 -0.17515835760E-01 -0.15032146350E-01  0.23863423810E-01  0.00000000000E+00 0. -1.
     999901    1    3    3    0    0 -0.57273328384E-01  0.67430785084E-01  0.11876396517E+00  0.89237437454E+00  0.88000000000E+00 0. -1.
        -11    1    4    4    0    0  0.96065863441E-02 -0.21933313835E-01 -0.27768102253E-01  0.36669952014E-01  0.51100000000E-03 0.  1.
         11    1    4    4    0    0  0.41609261566E-01 -0.27981635489E-01 -0.75963716564E-01  0.91022249632E-01  0.51100000000E-03 0. -1.
</event>
<event>
 8    1  0.1116619E+005  0.1043930E+01  0.7957747E-01            NaN
         13   -1    0    0    0    0  0.00000000000E+00  0.00000000000E+00  0.74505805969E-08  0.10566000000E+00  0.10566000000E+00 0.  1.
     999900   -1    0    0    0    0 -0.00000000000E+00 -0.00000000000E+00 -0.74505805969E-08  0.93827000000E+00  0.93827000000E+00 0.  1.
     999902    2    1    2    0    0  0.13180487041E-01  0.17666024284E-01  0.87783445719E-02  0.10202050556E+01  0.10199291556E+01 0.  0.
     999903    2    3    3    0    0 -0.10337365817E+00  0.65329914000E-01 -0.38965488318E-01  0.12996003949E+00  0.20425271592E-01 0.  0.
         14    1    1    2    0    0 -0.13180487041E-01 -0.17666024284E-01 -0.87783445719E-02  0.23724944385E-01  0.00000000000E+00 0.  1.
     999901    1    3    3    0    0  0.11655414521E+00 -0.47663889716E-01  0.47743832890E-01  0.89024501612E+00  0.88000000000E+00 0.  1.
        -11    1    4    4    0    0 -0.54170619539E-01  0.46157948680E-01 -0.22044703233E-01  0.74506659496E-01  0.51100000000E-03 0. -1.
         11    1    4    4    0    0 -0.49203038627E-01  0.19171965320E-01 -0.16920785085E-01  0.55453379998E-01  0.51100000000E-03 0.  1.
</event>
<event>
 8    1  0.1116619E+005  0.1043930E+01  0.7957747E-01            NaN
         13   -1    0    0    0    0  0.00000000000E+00  0.00000000000E+00  0.74505805969E-08  0.10566000000E+00  0.10566000000E+00 0.  1.
     999900   -1    0    0    0    0 -0.00000000000E+00 -0.00000000000E+00 -0.74505805969E-08  0.93827000000E+00  0.93827000000E+00 0. -1.
     999902    2    1    2    0    0  0.21670126492E-01 -0.30674860063E-02 -0.84859424422E-02  0.10204562898E+01  0.10201862694E+01 0.  0.
     999903    2    3    3    0    0 -0.86254656264E-01  0.91297513095E-01 -0.19943751196E-01  0.12878157713E+00  0.20293835809E-01 0.  0.
         14    1    1    2    0    0 -0.21670126492E-01  0.30674860063E-02  0.84859424422E-02  0.23473710225E-01  0.00000000000E+00 0.  1.
     999901    1    3    3    0    0  0.10792478276E+00 -0.94364999101E-01  0.11457808754E-01  0.89167471264E+00  0.88000000000E+00 0.  1.
        -11    1    4    4    0    0 -0.45634942385E-01  0.57590080326E-01 -0.37890012159E-02  0.73578413748E-01  0.51100000000E-03 0.  1.
         11    1    4    4    0    0 -0.40619713879E-01  0.33707432769E-01 -0.16154749981E-01  0.55203163382E-01  0.51100000000E-03 0. -1.
</event>
<event>
 8    1  0.1116619E+005  0.1043930E+01  0.7957747E-01            NaN
         13   -1    0    0    0    0  0.00000000000E+00  0.00000000000E+00  0.74505805969E-08  0.10566000000E+00  0.10566000000E+00 0. -1.
     999900   -1    0    0    0    0 -0.00000000000E+00 -0.00000000000E+00 -0.74505805969E-08  0.93827000000E+00  0.93827000000E+00 0.  1.
     999902    2    1    2    0    0  0.22243888138E-01  0.74257799871E-02 -0.50099848607E-02  0.10199501602E+01  0.10196682287E+01 0.  0.
     999903    2    3    3    0    0 -0.11797724901E+00  0.19541882157E-01  0.40016939040E-01  0.12762948293E+00  0.19682811283E-01 0.  0.
         14    1    1    2    0    0 -0.22243888138E-01 -0.74257799871E-02  0.50099848607E-02  0.23979839787E-01  0.00000000000E+00 0.  1.
     999901    1    3    3    0    0  0.14022113715E+00 -0.12116102170E-01 -0.45026923901E-01  0.89232067729E+00  0.88000000000E+00 0.  1.
        -11    1    4    4    0    0 -0.48972145567E-01  0.25876675232E-02  0.80035801951E-02  0.49691905595E-01  0.51100000000E-03 0.  1.
         11    1    4    4    0    0 -0.69005103443E-01  0.16954214634E-01  0.32013358845E-01  0.77937577333E-01  0.51100000000E-03 0. -1.
</event>
<event>
 8    1  0.1116619E+005  0.1043930E+01  0.7957747E-01            NaN
         13   -1    0    0    0    0  0.00000000000E+00  0.00000000000E+00  0.74505805969E-08  0.10566000000E+00  0.10566000000E+00 0.  1.
     999900   -1    0    0    0    0 -0.00000000000E+00 -0.00000000000E+00 -0.74505805969E-08  0.93827000000E+00  0.93827000000E+00 0. -1.
     999902    2    1    2    0    0  0.12215948161E-01  0.89123217814E-02 -0.18595442015E-01  0.10199623273E+01  0.10196806852E+01 0.  0.
     999903    2    3    3    0    0 -0.66612449245E-01  0.10167383529E+00  0.40179524079E-01  0.12964041294E+00  0.20431723700E-01 0.  0.
         14    1    1    2    0    0 -0.12215948161E-01 -0.89123217814E-02  0.18595442015E-01  0.23967672660E-01  0.00000000000E+00 0.  1.
     999901    1    3    3    0    0  0.78828397405E-01 -0.92761513513E-01 -0.58774966094E-01  0.89032191440E+00  0.88000000000E+00 0.  1.
        -11    1    4    4    0    0 -0.19515968041E-01  0.48058223884E-01  0.18052314316E-01  0.54923702211E-01  0.51100000000E-03 0. -1.
         11    1    4    4    0    0 -0.47096481204E-01  0.53615611411E-01  0.22127209763E-01  0.74716710726E-01  0.51100000000E-03 0.  1.
</event>
<event>
 8    1  0.1116619E+005  0.1043930E+01  0.7957747E-01            NaN
         13   -1    0    0    0    0  0.00000000000E+00  0.00000000000E+00  0.74505805969E-08  0.10566000000E+00  0.10566000000E+00 0.  1.
     999900   -1    0    0    0    0 -0.00000000000E+00 -0.00000000000E+00 -0.74505805969E-08  0.93827000000E+00  0.93827000000E+00 0. -1.
     999902    2    1    2    0    0 -0.20999167674E-01  0.87975480656E-03 -0.12298660658E-01  0.10195784895E+01  0.10192876435E+01 0.  0.
     999903    2    3    3    0    0  0.34393035167E-01  0.76583120674E-01 -0.97934192635E-01  0.13045940853E+00  0.19511431181E-01 0.  0.
         14    1    1    2    0    0  0.20999167674E-01 -0.87975480656E-03  0.12298660658E-01  0.24351510539E-01  0.00000000000E+00 0. -1.
     999901    1    3    3    0    0 -0.55392202841E-01 -0.75703365867E-01  0.85635531977E-01  0.88911908093E+00  0.88000000000E+00 0.  1.
        -11    1    4    4    0    0  0.10882324010E-01  0.26466143279E-01 -0.20217234919E-01  0.35041110495E-01  0.51100000000E-03 0.  1.
         11    1    4    4    0    0  0.23510711157E-01  0.50116977395E-01 -0.77716957716E-01  0.95418298035E-01  0.51100000000E-03 0. -1.
</event>
<event>
 8    1  0.1116619E+005  0.1043930E+01  0.7957747E-01            NaN
         13   -1    0    0    0    0  0.00000000000E+00  0.00000000000E+00  0.74505805969E-08  0.10566000000E+00  0.10566000000E+00 0.  1.
     999900   -1    0    0    0    0 -0.00000000000E+00 -0.00000000000E+00 -0.74505805969E-08  0.93827000000E+00  0.93827000000E+00 0.  1.
     999902    2    1    2    0    0 -0.38430737956E-02 -0.53195153428E-02  0.19709759219E-01  0.10231564334E+01  0.10229455245E+01 0.  0.
     999903    2    3    3    0    0  0.11172849739E+00 -0.19686321369E-01  0.68760321038E-01  0.13412935240E+00  0.19796288770E-01 0.  0.
         14    1    1    2    0    0  0.38430737956E-02  0.53195153428E-02 -0.19709759219E-01  0.20773566572E-01  0.00000000000E+00 0. -1.
     999901    1    3    3    0    0 -0.11557157118E+00  0.14366806026E-01 -0.49050561820E-01  0.88902708103E+00  0.88000000000E+00 0.  1.
        -11    1    4    4    0    0  0.82638019869E-01 -0.22402214489E-01  0.55527667693E-01  0.10205138187E+00  0.51100000000E-03 0.  1.
         11    1    4    4    0    0  0.29090477518E-01  0.27158931197E-02  0.13232653345E-01  0.32077970528E-01  0.51100000000E-03 0. -1.
</event>
<event>
 8    1  0.1116619E+005  0.1043930E+01  0.7957747E-01            NaN
         13   -1    0    0    0    0  0.00000000000E+00  0.00000000000E+00  0.74505805969E-08  0.10566000000E+00  0.10566000000E+00 0.  1.
     999900   -1    0    0    0    0 -0.00000000000E+00 -0.00000000000E+00 -0.74505805969E-08  0.93827000000E+00  0.93827000000E+00 0. -1.
     999902    2    1    2    0    0 -0.14978338932E-01  0.15438192883E-01 -0.12312690739E-01  0.10191451096E+01  0.10188436895E+01 0.  0.
     999903    2    3    3    0    0  0.11020685330E+00  0.62370443812E-01  0.16715559223E-01  0.12857416479E+00  0.14706568436E-01 0.  0.
         14    1    1    2    0    0  0.14978338932E-01 -0.15438192883E-01  0.12312690739E-01  0.24784890354E-01  0.00000000000E+00 0. -1.
     999901    1    3    3    0    0 -0.12518519223E+00 -0.46932250930E-01 -0.29028249962E-01  0.89057094486E+00  0.88000000000E+00 0. -1.
        -11    1    4    4    0    0  0.10671492271E-01  0.33359612643E-02 -0.19227766682E-02  0.11356389213E-01  0.51100000000E-03 0.  1.
         11    1    4    4    0    0  0.99535361027E-01  0.59034482548E-01  0.18638335891E-01  0.11721777557E+00  0.51100000000E-03 0. -1.
</event>
<event>
 8    1  0.1116619E+005  0.1043930E+01  0.7957747E-01            NaN
         13   -1    0    0    0    0  0.00000000000E+00  0.00000000000E+00  0.74505805969E-08  0.10566000000E+00  0.10566000000E+00 0. -1.
     999900   -1    0    0    0    0 -0.00000000000E+00 -0.00000000000E+00 -0.74505805969E-08  0.93827000000E+00  0.93827000000E+00 0. -1.
     999902    2    1    2    0    0 -0.10249029690E-02  0.72948593334E-02 -0.22979732984E-01  0.10197984123E+01  0.10195128582E+01 0.  0.
     999903    2    3    3    0    0 -0.79919280343E-01 -0.89874116108E-01  0.41431752150E-01  0.12861101783E+00  0.18967227135E-01 0.  0.
         14    1    1    2    0    0  0.10249029690E-02 -0.72948593334E-02  0.22979732984E-01  0.24131587739E-01  0.00000000000E+00 0. -1.
     999901    1    3    3    0    0  0.78894377374E-01  0.97168975441E-01 -0.64411485134E-01  0.89118739443E+00  0.88000000000E+00 0.  1.
        -11    1    4    4    0    0 -0.66300473014E-01 -0.64162514377E-01  0.27035050511E-01  0.96144350069E-01  0.51100000000E-03 0. -1.
         11    1    4    4    0    0 -0.13618807329E-01 -0.25711601731E-01  0.14396701639E-01  0.32466667764E-01  0.51100000000E-03 0.  1.
</event>
<event>
 8    1  0.1116619E+005  0.1043930E+01  0.7957747E-01            NaN
         13   -1    0    0    0    0  0.00000000000E+00  0.00000000000E+00  0.74505805969E-08  0.10566000000E+00  0.10566000000E+00 0.  1.
     999900   -1    0    0    0    0 -0.00000000000E+00 -0.00000000000E+00 -0.74505805969E-08  0.93827000000E+00  0.93827000000E+00 0. -1.
     999902    2    1    2    0    0 -0.13658646391E-01 -0.13730041179E-01  0.12751625344E-01  0.10207421454E+01  0.10204787361E+01 0.  0.
     999903    2    3    3    0    0 -0.11925951010E+00  0.43390689272E-02  0.55709961699E-01  0.13320428490E+00  0.19953030196E-01 0.  0.
         14    1    1    2    0    0  0.13658646391E-01  0.13730041179E-01 -0.12751625344E-01  0.23187854600E-01  0.00000000000E+00 0.  1.
     999901    1    3    3    0    0  0.10560086371E+00 -0.18069110107E-01 -0.42958336356E-01  0.88753786050E+00  0.88000000000E+00 0. -1.
        -11    1    4    4    0    0 -0.89535656561E-01 -0.52351025252E-02  0.39279421506E-01  0.97914116291E-01  0.51100000000E-03 0.  1.
         11    1    4    4    0    0 -0.29723853544E-01  0.95741714524E-02  0.16430540194E-01  0.35290168610E-01  0.51100000000E-03 0. -1.
</event>
<event>
 8    1  0.1128881E+005  0.1043930E+01  0.7957747E-01            NaN
         13   -1    0    0    0    0  0.00000000000E+00  0.00000000000E+00  0.74505805969E-08  0.10566000000E+00  0.10566000000E+00 0. -1.
     999900   -1    0    0    0    0 -0.00000000000E+00 -0.00000000000E+00 -0.74505805969E-08  0.93827000000E+00  0.93827000000E+00 0.  1.
     999902    2    1    2    0    0  0.19501472361E-01 -0.97402881014E-02 -0.71661259607E-02  0.10209836714E+01  0.10207257826E+01 0.  0.
     999903    2    3    3    0    0  0.69939279989E-01  0.94206138997E-02 -0.11113727293E+00  0.13322181591E+00  0.20403625837E-01 0.  0.
         14    1    1    2    0    0 -0.19501472361E-01  0.97402881014E-02  0.71661259607E-02  0.22946328635E-01  0.00000000000E+00 0.  1.
     999901    1    3    3    0    0 -0.50437807628E-01 -0.19160902001E-01  0.10397114697E+00  0.88776185546E+00  0.88000000000E+00 0.  1.
        -11    1    4    4    0    0  0.47369139040E-01  0.10323955299E-01 -0.58767020265E-01  0.76185583795E-01  0.51100000000E-03 0. -1.
         11    1    4    4    0    0  0.22570140949E-01 -0.90334139952E-03 -0.52370252667E-01  0.57036232112E-01  0.51100000000E-03 0.  1.
</event>
<event>
 8    1  0.1116619E+005  0.1043930E+01  0.7957747E-01            NaN
         13   -1    0    0    0    0  0.00000000000E+00  0.00000000000E+00  0.74505805969E-08  0.10566000000E+00  0.10566000000E+00 0. -1.
     999900   -1    0    0    0    0 -0.00000000000E+00 -0.00000000000E+00 -0.74505805969E-08  0.93827000000E+00  0.93827000000E+00 0. -1.
     999902    2    1    2    0    0 -0.23418025310E-01 -0.51644343697E-03  0.18285770561E-02  0.10204350151E+01  0.10201644993E+01 0.  0.
     999903    2    3    3    0    0 -0.10458981995E+00  0.59884278393E-01 -0.53499446807E-01  0.13291132655E+00  0.16675511428E-01 0.  0.
         14    1    1    2    0    0  0.23418025310E-01  0.51644343697E-03 -0.18285770561E-02  0.23494984939E-01  0.00000000000E+00 0. -1.
     999901    1    3    3    0    0  0.81171794638E-01 -0.60400721830E-01  0.55328023863E-01  0.88752368851E+00  0.88000000000E+00 0.  1.
        -11    1    4    4    0    0 -0.59725033864E-01  0.29667072473E-01 -0.37455989179E-01  0.76488084729E-01  0.51100000000E-03 0. -1.
         11    1    4    4    0    0 -0.44864786085E-01  0.30217205920E-01 -0.16043457628E-01  0.56423241822E-01  0.51100000000E-03 0.  1.
</event>
<event>
 8    1  0.1116619E+005  0.1043930E+01  0.7957747E-01            NaN
         13   -1    0    0    0    0  0.00000000000E+00  0.00000000000E+00  0.74505805969E-08  0.10566000000E+00  0.10566000000E+00 0.  1.
     999900   -1    0    0    0    0 -0.00000000000E+00 -0.00000000000E+00 -0.74505805969E-08  0.93827000000E+00  0.93827000000E+00 0. -1.
     999902    2    1    2    0    0 -0.14384949638E-01 -0.75092385335E-02  0.16855269327E-01  0.10205330869E+01  0.10202648508E+01 0.  0.
     999903    2    3    3    0    0 -0.18194018701E-01  0.12573537150E+00 -0.19426873853E-01  0.12975532053E+00  0.17850316921E-01 0.  0.
         14    1    1    2    0    0  0.14384949638E-01  0.75092385335E-02 -0.16855269327E-01  0.23396913120E-01  0.00000000000E+00 0. -1.
     999901    1    3    3    0    0  0.38090690634E-02 -0.13324461004E+00  0.36282143180E-01  0.89077776635E+00  0.88000000000E+00 0. -1.
        -11    1    4    4    0    0 -0.93332283601E-02  0.10849680981E+00 -0.16086445473E-01  0.11008043304E+00  0.51100000000E-03 0. -1.
         11    1    4    4    0    0 -0.88607903410E-02  0.17238561699E-01 -0.33404283798E-02  0.19674887488E-01  0.51100000000E-03 0.  1.
</event>
<event>
 8    1  0.1116619E+005  0.1043930E+01  0.7957747E-01            NaN
         13   -1    0    0    0    0  0.00000000000E+00  0.00000000000E+00  0.74505805969E-08  0.10566000000E+00  0.10566000000E+00 0. -1.
     999900   -1    0    0    0    0 -0.00000000000E+00 -0.00000000000E+00 -0.74505805969E-08  0.93827000000E+00  0.93827000000E+00 0. -1.
     999902    2    1    2    0    0  0.25431690617E-01 -0.53299083202E-02 -0.28892774246E-02  0.10177856558E+01  0.10174498093E+01 0.  0.
     999903    2    3    3    0    0 -0.98579698654E-01  0.53454846051E-01 -0.53120439302E-01  0.12573316762E+00  0.20289672637E-01 0.  0.
         14    1    1    2    0    0 -0.25431690617E-01  0.53299083202E-02  0.28892774246E-02  0.26144344214E-01  0.00000000000E+00 0.  1.
     999901    1    3    3    0    0  0.12401138927E+00 -0.58784754371E-01  0.50231161877E-01  0.89205248816E+00  0.88000000000E+00 0.  1.
        -11    1    4    4    0    0 -0.56888447859E-01  0.22681492260E-01 -0.20906335321E-01  0.64715388962E-01  0.51100000000E-03 0.  1.
         11    1    4    4    0    0 -0.41691250795E-01  0.30773353791E-01 -0.32214103980E-01  0.61017778660E-01  0.51100000000E-03 0. -1.
</event>
<event>
 8    1  0.1116619E+005  0.1043930E+01  0.7957747E-01            NaN
         13   -1    0    0    0    0  0.00000000000E+00  0.00000000000E+00  0.74505805969E-08  0.10566000000E+00  0.10566000000E+00 0. -1.
     999900   -1    0    0    0    0 -0.00000000000E+00 -0.00000000000E+00 -0.74505805969E-08  0.93827000000E+00  0.93827000000E+00 0. -1.
     999902    2    1    2    0    0 -0.21659163608E-01  0.84241565835E-02 -0.19682750607E-02  0.10206070523E+01  0.10203405291E+01 0.  0.
     999903    2    3    3    0    0 -0.57007953031E-01 -0.10550363205E+00  0.48835195682E-01  0.13110715316E+00  0.20573920144E-01 0.  0.
         14    1    1    2    0    0  0.21659163608E-01 -0.84241565835E-02  0.19682750607E-02  0.23322947693E-01  0.00000000000E+00 0.  1.
     999901    1    3    3    0    0  0.35348789422E-01  0.11392778863E+00 -0.50803470742E-01  0.88949989914E+00  0.88000000000E+00 0.  1.
        -11    1    4    4    0    0 -0.13349322838E-01 -0.42684089811E-01  0.12661357152E-01  0.46483405955E-01  0.51100000000E-03 0.  1.
         11    1    4    4    0    0 -0.43658630192E-01 -0.62819542234E-01  0.36173838530E-01  0.84623747210E-01  0.51100000000E-03 0. -1.
</event>
<event>
 8    1  0.1116619E+005  0.1043930E+01  0.7957747E-01            NaN
         13   -1    0    0    0    0  0.00000000000E+00  0.00000000000E+00  0.74505805969E-08  0.10566000000E+00  0.10566000000E+00 0. -1.
     999900   -1    0    0    0    0 -0.00000000000E+00 -0.00000000000E+00 -0.74505805969E-08  0.93827000000E+00  0.93827000000E+00 0.  1.
     999902    2    1    2    0    0  0.21964125293E-01  0.54735269796E-03  0.87814352742E-02  0.10202691462E+01  0.10199947523E+01 0.  0.
     999903    2    3    3    0    0 -0.28050069285E-01  0.12873419602E-01 -0.12355038098E+00  0.12888535619E+00  0.19854648877E-01 0.  0.
         14    1    1    2    0    0 -0.21964125293E-01 -0.54735269796E-03 -0.87814352742E-02  0.23660853753E-01  0.00000000000E+00 0.  1.
     999901    1    3    3    0    0  0.50014194577E-01 -0.12326066904E-01  0.13233181625E+00  0.89138379006E+00  0.88000000000E+00 0. -1.
        -11    1    4    4    0    0 -0.27841404644E-01  0.13535550466E-01 -0.87353405106E-01  0.92678117393E-01  0.51100000000E-03 0.  1.
         11    1    4    4    0    0 -0.20866464034E-03 -0.66213086362E-03 -0.36196975869E-01  0.36207238797E-01  0.51100000000E-03 0. -1.
</event>
<event>
 8    1  0.1116619E+005  0.1043930E+01  0.7957747E-01            NaN
         13   -1    0    0    0    0  0.00000000000E+00  0.00000000000E+00  0.74505805969E-08  0.10566000000E+00  0.10566000000E+00 0. -1.
     999900   -1    0    0    0    0 -0.00000000000E+00 -0.00000000000E+00 -0.74505805969E-08  0.93827000000E+00  0.93827000000E+00 0. -1.
     999902    2    1    2    0    0  0.14136781307E-02 -0.21667484264E-01 -0.87701208018E-02  0.10205121995E+01  0.10202434788E+01 0.  0.
     999903    2    3    3    0    0 -0.64679118267E-01  0.10502905933E+00  0.26965909595E-01  0.12826933138E+00  0.22613479351E-01 0.  0.
         14    1    1    2    0    0 -0.14136781307E-02  0.21667484264E-01  0.87701208018E-02  0.23417800475E-01  0.00000000000E+00 0. -1.
     999901    1    3    3    0    0  0.66092796397E-01 -0.12669654359E+00 -0.35736030397E-01  0.89224286815E+00  0.88000000000E+00 0. -1.
        -11    1    4    4    0    0 -0.73080593821E-02  0.28476873033E-01  0.10342725781E-01  0.31170067810E-01  0.51100000000E-03 0. -1.
         11    1    4    4    0    0 -0.57371058885E-01  0.76552186295E-01  0.16623183814E-01  0.97099263566E-01  0.51100000000E-03 0.  1.
</event>
<event>
 8    1  0.1116619E+005  0.1043930E+01  0.7957747E-01            NaN
         13   -1    0    0    0    0  0.00000000000E+00  0.00000000000E+00  0.74505805969E-08  0.10566000000E+00  0.10566000000E+00 0.  1.
     999900   -1    0    0    0    0 -0.00000000000E+00 -0.00000000000E+00 -0.74505805969E-08  0.93827000000E+00  0.93827000000E+00 0.  1.
     999902    2    1    2    0    0  0.22503875247E-01 -0.87417251986E-03 -0.89916266961E-02  0.10196805066E+01  0.10193921216E+01 0.  0.
     999903    2    3    3    0    0 -0.58438354863E-01  0.10412682048E+00 -0.45140484608E-01  0.12901581490E+00  0.18707781310E-01 0.  0.
         14    1    1    2    0    0 -0.22503875247E-01  0.87417251986E-03  0.89916266961E-02  0.24249493384E-01  0.00000000000E+00 0. -1.
     999901    1    3    3    0    0  0.80942230110E-01 -0.10500099300E+00  0.36148857912E-01  0.89066469172E+00  0.88000000000E+00 0. -1.
        -11    1    4    4    0    0 -0.23281829286E-01  0.36944206635E-01 -0.73212435437E-02  0.44280692258E-01  0.51100000000E-03 0.  1.
         11    1    4    4    0    0 -0.35156525577E-01  0.67182613841E-01 -0.37819241065E-01  0.84735122640E-01  0.51100000000E-03 0. -1.
</event>
<event>
 8    1  0.1116619E+005  0.1043930E+01  0.7957747E-01            NaN
         13   -1    0    0    0    0  0.00000000000E+00  0.00000000000E+00  0.74505805969E-08  0.10566000000E+00  0.10566000000E+00 0. -1.
     999900   -1    0    0    0    0 -0.00000000000E+00 -0.00000000000E+00 -0.74505805969E-08  0.93827000000E+00  0.93827000000E+00 0. -1.
     999902    2    1    2    0    0 -0.18122928416E-02 -0.67669863281E-02  0.20351348489E-01  0.10224066663E+01  0.10221800905E+01 0.  0.
     999903    2    3    3    0    0 -0.61823332729E-01 -0.10246405181E+00 -0.52391941810E-01  0.13220958723E+00  0.20333543910E-01 0.  0.
         14    1    1    2    0    0  0.18122928416E-02  0.67669863281E-02 -0.20351348489E-01  0.21523333724E-01  0.00000000000E+00 0.  1.
     999901    1    3    3    0    0  0.60011039888E-01  0.95697065478E-01  0.72743290299E-01  0.89019707904E+00  0.88000000000E+00 0.  1.
        -11    1    4    4    0    0 -0.44971357310E-01 -0.77909477065E-01 -0.29597045379E-01  0.94702459371E-01  0.51100000000E-03 0.  1.
         11    1    4    4    0    0 -0.16851975420E-01 -0.24554574740E-01 -0.22794896432E-01  0.37507127863E-01  0.51100000000E-03 0. -1.
</event>
<event>
 8    1  0.1116619E+005  0.1043930E+01  0.7957747E-01            NaN
         13   -1    0    0    0    0  0.00000000000E+00  0.00000000000E+00  0.74505805969E-08  0.10566000000E+00  0.10566000000E+00 0.  1.
     999900   -1    0    0    0    0 -0.00000000000E+00 -0.00000000000E+00 -0.74505805969E-08  0.93827000000E+00  0.93827000000E+00 0. -1.
     999902    2    1    2    0    0 -0.10880717217E-01  0.14057814069E-01 -0.15792267996E-01  0.10201516932E+01  0.10198745361E+01 0.  0.
     999903    2    3    3    0    0 -0.64801244183E-01  0.11406325341E+00  0.11998185141E-02  0.13268493774E+00  0.19855128133E-01 0.  0.
         14    1    1    2    0    0  0.10880717217E-01 -0.14057814069E-01  0.15792267996E-01  0.23778306752E-01  0.00000000000E+00 0.  1.
     999901    1    3    3    0    0  0.53920526966E-01 -0.10000543934E+00 -0.16992086510E-01  0.88746675551E+00  0.88000000000E+00 0. -1.
        -11    1    4    4    0    0 -0.56900703593E-01  0.90914307075E-01 -0.52550595832E-02  0.10738239182E+00  0.51100000000E-03 0. -1.
         11    1    4    4    0    0 -0.79005405899E-02  0.23148946333E-01  0.64548780973E-02  0.25302545923E-01  0.51100000000E-03 0.  1.
</event>
<event>
 8    1  0.1116619E+005  0.1043930E+01  0.7957747E-01            NaN
         13   -1    0    0    0    0  0.00000000000E+00  0.00000000000E+00  0.74505805969E-08  0.10566000000E+00  0.10566000000E+00 0.  1.
     999900   -1    0    0    0    0 -0.00000000000E+00 -0.00000000000E+00 -0.74505805969E-08  0.93827000000E+00  0.93827000000E+00 0. -1.
     999902    2    1    2    0    0  0.95698844705E-02 -0.56444555112E-02  0.19964953870E-01  0.10210817627E+01  0.10208260988E+01 0.  0.
     999903    2    3    3    0    0 -0.39316947173E-01 -0.27464120913E-01  0.12300619943E+00  0.13345373336E+00  0.19474947425E-01 0.  0.
         14    1    1    2    0    0 -0.95698844705E-02  0.56444555112E-02 -0.19964953870E-01  0.22848237346E-01  0.00000000000E+00 0. -1.
     999901    1    3    3    0    0  0.48886831644E-01  0.21819665402E-01 -0.10304124556E+00  0.88762802930E+00  0.88000000000E+00 0. -1.
        -11    1    4    4    0    0 -0.33568060811E-01 -0.30384731592E-01  0.10658293189E+00  0.11580254363E+00  0.51100000000E-03 0. -1.
         11    1    4    4    0    0 -0.57488863620E-02  0.29206106783E-02  0.16423267535E-01  0.17651189724E-01  0.51100000000E-03 0.  1.
</event>
<event>
 8    1  0.1116619E+005  0.1043930E+01  0.7957747E-01            NaN
         13   -1    0    0    0    0  0.00000000000E+00  0.00000000000E+00  0.74505805969E-08  0.10566000000E+00  0.10566000000E+00 0.  1.
     999900   -1    0    0    0    0 -0.00000000000E+00 -0.00000000000E+00 -0.74505805969E-08  0.93827000000E+00  0.93827000000E+00 0. -1.
     999902    2    1    2    0    0 -0.20861302803E-01 -0.96556008075E-02  0.49161954325E-02  0.10204226914E+01  0.10201518884E+01 0.  0.
     999903    2    3    3    0    0 -0.12553812964E+00 -0.18753830941E-01 -0.31546867849E-01  0.13342236958E+00  0.26358976953E-01 0.  0.
         14    1    1    2    0    0  0.20861302803E-01  0.96556008075E-02 -0.49161954325E-02  0.23507308632E-01  0.00000000000E+00 0.  1.
     999901    1    3    3    0    0  0.10467682683E+00  0.90982301337E-02  0.36463063281E-01  0.88700032179E+00  0.88000000000E+00 0.  1.
        -11    1    4    4    0    0 -0.44645421240E-01 -0.18238158937E-01 -0.17555151476E-01  0.51325320686E-01  0.51100000000E-03 0. -1.
         11    1    4    4    0    0 -0.80892708395E-01 -0.51567200371E-03 -0.13991716373E-01  0.82097048894E-01  0.51100000000E-03 0.  1.
</event>
<event>
 8    1  0.1116619E+005  0.1043930E+01  0.7957747E-01            NaN
         13   -1    0    0    0    0  0.00000000000E+00  0.00000000000E+00  0.74505805969E-08  0.10566000000E+00  0.10566000000E+00 0.  1.
     999900   -1    0    0    0    0 -0.00000000000E+00 -0.00000000000E+00 -0.74505805969E-08  0.93827000000E+00  0.93827000000E+00 0.  1.
     999902    2    1    2    0    0  0.20230074526E-01 -0.94698835827E-02  0.39091381322E-02  0.10212536694E+01  0.10210018811E+01 0.  0.
     999903    2    3    3    0    0  0.99043643389E-01 -0.51561854657E-01 -0.70563557612E-01  0.13359974182E+00  0.20035149105E-01 0.  0.
         14    1    1    2    0    0 -0.20230074526E-01  0.94698835827E-02 -0.39091381322E-02  0.22676330641E-01  0.00000000000E+00 0. -1.
     999901    1    3    3    0    0 -0.78813568863E-01  0.42091971074E-01  0.74472695744E-01  0.88765392754E+00  0.88000000000E+00 0. -1.
        -11    1    4    4    0    0  0.33211394514E-01 -0.12502240830E-01 -0.32440256957E-01  0.48082576301E-01  0.51100000000E-03 0. -1.
         11    1    4    4    0    0  0.65832248875E-01 -0.39059613827E-01 -0.38123300655E-01  0.85517165517E-01  0.51100000000E-03 0.  1.
</event>
<event>
 8    1  0.1116619E+005  0.1043930E+01  0.7957747E-01            NaN
         13   -1    0    0    0    0  0.00000000000E+00  0.00000000000E+00  0.74505805969E-08  0.10566000000E+00  0.10566000000E+00 0. -1.
     999900   -1    0    0    0    0 -0.00000000000E+00 -0.00000000000E+00 -0.74505805969E-08  0.93827000000E+00  0.93827000000E+00 0. -1.
     999902    2    1    2    0    0  0.73389598001E-02 -0.60342971189E-02 -0.19199737083E-01  0.10225079792E+01  0.10222835539E+01 0.  0.
     999903    2    3    3    0    0 -0.45296977355E-02  0.13907001153E-01  0.12768949532E+00  0.13003110719E+00  0.19737243461E-01 0.  0.
         14    1    1    2    0    0 -0.73389598001E-02  0.60342971189E-02  0.19199737083E-01  0.21422020836E-01  0.00000000000E+00 0. -1.
     999901    1    3    3    0    0  0.11868657536E-01 -0.19941298272E-01 -0.14688923240E+00  0.89247687197E+00  0.88000000000E+00 0. -1.
        -11    1    4    4    0    0  0.55318402137E-02  0.11379340030E-01  0.47005594424E-01  0.48681389296E-01  0.51100000000E-03 0. -1.
         11    1    4    4    0    0 -0.10061537949E-01  0.25276611235E-02  0.80683900898E-01  0.81349717896E-01  0.51100000000E-03 0.  1.
</event>
<event>
 8    1  0.1116619E+005  0.1043930E+01  0.7957747E-01            NaN
         13   -1    0    0    0    0  0.00000000000E+00  0.00000000000E+00  0.74505805969E-08  0.10566000000E+00  0.10566000000E+00 0.  1.
     999900   -1    0    0    0    0 -0.00000000000E+00 -0.00000000000E+00 -0.74505805969E-08  0.93827000000E+00  0.93827000000E+00 0.  1.
     999902    2    1    2    0    0 -0.96179049137E-02  0.16389829027E-01  0.87471600138E-02  0.10230100717E+01  0.10227961495E+01 0.  0.
     999903    2    3    3    0    0 -0.90031142185E-01  0.59175132554E-01 -0.77507169345E-01  0.13411374467E+00  0.19282954494E-01 0.  0.
         14    1    1    2    0    0  0.96179049137E-02 -0.16389829027E-01 -0.87471600138E-02  0.20919928269E-01  0.00000000000E+00 0. -1.
     999901    1    3    3    0    0  0.80413237271E-01 -0.42785303527E-01  0.86254329359E-01  0.88889632706E+00  0.88000000000E+00 0. -1.
        -11    1    4    4    0    0 -0.53181176045E-01  0.44589478298E-01 -0.43661788608E-01  0.81994341060E-01  0.51100000000E-03 0.  1.
         11    1    4    4    0    0 -0.36849966140E-01  0.14585654257E-01 -0.33845380737E-01  0.52119403612E-01  0.51100000000E-03 0. -1.
</event>
<event>
 8    1  0.1116619E+005  0.1043930E+01  0.7957747E-01            NaN
         13   -1    0    0    0    0  0.00000000000E+00  0.00000000000E+00  0.74505805969E-08  0.10566000000E+00  0.10566000000E+00 0. -1.
     999900   -1    0    0    0    0 -0.00000000000E+00 -0.00000000000E+00 -0.74505805969E-08  0.93827000000E+00  0.93827000000E+00 0.  1.
     999902    2    1    2    0    0 -0.34075423791E-02 -0.17770323894E-02 -0.22588002034E-01  0.10210174047E+01  0.10207602821E+01 0.  0.
     999903    2    3    3    0    0 -0.74004995633E-01  0.10035852874E+00 -0.38875738678E-01  0.13215241851E+00  0.20108828672E-01 0.  0.
         14    1    1    2    0    0  0.34075423791E-02  0.17770323894E-02  0.22588002034E-01  0.22912595337E-01  0.00000000000E+00 0. -1.
     999901    1    3    3    0    0  0.70597453254E-01 -0.10213556112E+00  0.16287736644E-01  0.88886498616E+00  0.88000000000E+00 0.  1.
        -11    1    4    4    0    0 -0.48753229556E-01  0.49295353213E-01 -0.21802697201E-01  0.72681001415E-01  0.51100000000E-03 0. -1.
         11    1    4    4    0    0 -0.25251766078E-01  0.51063175522E-01 -0.17073041477E-01  0.59471417090E-01  0.51100000000E-03 0.  1.
</event>
<event>
 8    1  0.1116619E+005  0.1043930E+01  0.7957747E-01            NaN
         13   -1    0    0    0    0  0.00000000000E+00  0.00000000000E+00  0.74505805969E-08  0.10566000000E+00  0.10566000000E+00 0.  1.
     999900   -1    0    0    0    0 -0.00000000000E+00 -0.00000000000E+00 -0.74505805969E-08  0.93827000000E+00  0.93827000000E+00 0. -1.
     999902    2    1    2    0    0  0.22723864306E-01 -0.49484942465E-02 -0.57915724789E-02  0.10199632748E+01  0.10196816553E+01 0.  0.
     999903    2    3    3    0    0  0.75764233375E-01 -0.98013204085E-01 -0.43150958769E-01  0.13268088194E+00  0.19884766904E-01 0.  0.
         14    1    1    2    0    0 -0.22723864306E-01  0.49484942465E-02  0.57915724789E-02  0.23966725185E-01  0.00000000000E+00 0. -1.
     999901    1    3    3    0    0 -0.53040369070E-01  0.93064709839E-01  0.37359386290E-01  0.88728239288E+00  0.88000000000E+00 0.  1.
        -11    1    4    4    0    0  0.26867035047E-01 -0.50019920889E-01 -0.22998120264E-01  0.61261772049E-01  0.51100000000E-03 0.  1.
         11    1    4    4    0    0  0.48897198328E-01 -0.47993283197E-01 -0.20152838505E-01  0.71419109888E-01  0.51100000000E-03 0. -1.
</event>
<event>
 8    1  0.1116619E+005  0.1043930E+01  0.7957747E-01            NaN
         13   -1    0    0    0    0  0.00000000000E+00  0.00000000000E+00  0.74505805969E-08  0.10566000000E+00  0.10566000000E+00 0. -1.
     999900   -1    0    0    0    0 -0.00000000000E+00 -0.00000000000E+00 -0.74505805969E-08  0.93827000000E+00  0.93827000000E+00 0. -1.
     999902    2    1    2    0    0 -0.14494024317E-01 -0.15395498720E-01  0.11257293604E-01  0.10199753599E+01  0.10196940277E+01 0.  0.
     999903    2    3    3    0    0  0.96023215038E-01  0.73443737070E-01  0.36870584140E-01  0.12825650812E+00  0.21814022098E-01 0.  0.
         14    1    1    2    0    0  0.14494024317E-01  0.15395498720E-01 -0.11257293604E-01  0.23954640073E-01  0.00000000000E+00 0.  1.
     999901    1    3    3    0    0 -0.11051723935E+00 -0.88839235790E-01 -0.25613290536E-01  0.89171885180E+00  0.88000000000E+00 0. -1.
        -11    1    4    4    0    0  0.54609074031E-01  0.36860202313E-01  0.30584165677E-01  0.72639368060E-01  0.51100000000E-03 0.  1.
         11    1    4    4    0    0  0.41414141007E-01  0.36583534757E-01  0.62864184635E-02  0.55617140063E-01  0.51100000000E-03 0. -1.
</event>
<event>
 8    1  0.1116619E+005  0.1043930E+01  0.7957747E-01            NaN
         13   -1    0    0    0    0  0.00000000000E+00  0.00000000000E+00  0.74505805969E-08  0.10566000000E+00  0.10566000000E+00 0.  1.
     999900   -1    0    0    0    0 -0.00000000000E+00 -0.00000000000E+00 -0.74505805969E-08  0.93827000000E+00  0.93827000000E+00 0.  1.
     999902    2    1    2    0    0  0.17324788317E-01  0.12474182622E-01  0.10361787614E-01  0.10201998469E+01  0.10199238244E+01 0.  0.
     999903    2    3    3    0    0 -0.63078041021E-01 -0.91531817847E-01  0.62146446640E-01  0.12892911701E+00  0.20090381905E-01 0.  0.
         14    1    1    2    0    0 -0.17324788317E-01 -0.12474182622E-01 -0.10361787614E-01  0.23730153073E-01  0.00000000000E+00 0. -1.
     999901    1    3    3    0    0  0.80402829337E-01  0.10400600047E+00 -0.51784659026E-01  0.89127072992E+00  0.88000000000E+00 0.  1.
        -11    1    4    4    0    0 -0.42401262651E-01 -0.71074609695E-01  0.37765446097E-01  0.90972288405E-01  0.51100000000E-03 0. -1.
         11    1    4    4    0    0 -0.20676778370E-01 -0.20457208152E-01  0.24381000543E-01  0.37956828603E-01  0.51100000000E-03 0.  1.
</event>
<event>
 8    1  0.1116619E+005  0.1043930E+01  0.7957747E-01            NaN
         13   -1    0    0    0    0  0.00000000000E+00  0.00000000000E+00  0.74505805969E-08  0.10566000000E+00  0.10566000000E+00 0. -1.
     999900   -1    0    0    0    0 -0.00000000000E+00 -0.00000000000E+00 -0.74505805969E-08  0.93827000000E+00  0.93827000000E+00 0.  1.
     999902    2    1    2    0    0 -0.12865075729E-01 -0.19337773461E-02  0.19108869535E-01  0.10208129378E+01  0.10205511528E+01 0.  0.
     999903    2    3    3    0    0 -0.78735641253E-01 -0.89206241757E-02 -0.10126751621E+00  0.13015126151E+00  0.20133611060E-01 0.  0.
         14    1    1    2    0    0  0.12865075729E-01  0.19337773461E-02 -0.19108869535E-01  0.23117062167E-01  0.00000000000E+00 0.  1.
     999901    1    3    3    0    0  0.65870565523E-01  0.69868468295E-02  0.12037638574E+00  0.89066167633E+00  0.88000000000E+00 0. -1.
        -11    1    4    4    0    0 -0.50609929353E-01  0.26512680941E-02 -0.55101671775E-01  0.74865542975E-01  0.51100000000E-03 0. -1.
         11    1    4    4    0    0 -0.28125711900E-01 -0.11571892270E-01 -0.46165844431E-01  0.55285718532E-01  0.51100000000E-03 0.  1.
</event>
<event>
 8    1  0.1116619E+005  0.1043930E+01  0.7957747E-01            NaN
         13   -1    0    0    0    0  0.00000000000E+00  0.00000000000E+00  0.74505805969E-08  0.10566000000E+00  0.10566000000E+00 0.  1.
     999900   -1    0    0    0    0 -0.00000000000E+00 -0.00000000000E+00 -0.74505805969E-08  0.93827000000E+00  0.93827000000E+00 0.  1.
     999902    2    1    2    0    0  0.15816847422E-01 -0.91191486059E-02 -0.14571118791E-01  0.10205708682E+01  0.10203035078E+01 0.  0.
     999903    2    3    3    0    0 -0.83040640448E-01 -0.46469195207E-01  0.84460334291E-01  0.12873284618E+00  0.19582225327E-01 0.  0.
         14    1    1    2    0    0 -0.15816847422E-01  0.91191486059E-02  0.14571118791E-01  0.23359131758E-01  0.00000000000E+00 0.  1.
     999901    1    3    3    0    0  0.98857487871E-01  0.37350046601E-01 -0.99031453082E-01  0.89183802206E+00  0.88000000000E+00 0.  1.
        -11    1    4    4    0    0 -0.33478076001E-01 -0.24240534036E-01  0.47820632596E-01  0.63209643931E-01  0.51100000000E-03 0.  1.
         11    1    4    4    0    0 -0.49562564448E-01 -0.22228661171E-01  0.36639701695E-01  0.65523202252E-01  0.51100000000E-03 0. -1.
</event>
<event>
 8    1  0.1116619E+005  0.1043930E+01  0.7957747E-01            NaN
         13   -1    0    0    0    0  0.00000000000E+00  0.00000000000E+00  0.74505805969E-08  0.10566000000E+00  0.10566000000E+00 0.  1.
     999900   -1    0    0    0    0 -0.00000000000E+00 -0.00000000000E+00 -0.74505805969E-08  0.93827000000E+00  0.93827000000E+00 0.  1.
     999902    2    1    2    0    0  0.18600263684E-01 -0.82268772101E-02 -0.13015293631E-01  0.10197835885E+01  0.10194976794E+01 0.  0.
     999903    2    3    3    0    0 -0.11312916767E+00 -0.42497472603E-01 -0.40718693638E-01  0.12888819897E+00  0.18705936689E-01 0.  0.
         14    1    1    2    0    0 -0.18600263684E-01  0.82268772101E-02  0.13015293631E-01  0.24146411453E-01  0.00000000000E+00 0.  1.
     999901    1    3    3    0    0  0.13172943135E+00  0.34270595393E-01  0.27703400007E-01  0.89089538957E+00  0.88000000000E+00 0. -1.
        -11    1    4    4    0    0 -0.49446439370E-01 -0.25626717383E-01 -0.11760065749E-01  0.56923099684E-01  0.51100000000E-03 0.  1.
         11    1    4    4    0    0 -0.63682728300E-01 -0.16870755221E-01 -0.28958627888E-01  0.71965099289E-01  0.51100000000E-03 0. -1.
</event>
<event>
 8    1  0.1116619E+005  0.1043930E+01  0.7957747E-01            NaN
         13   -1    0    0    0    0  0.00000000000E+00  0.00000000000E+00  0.74505805969E-08  0.10566000000E+00  0.10566000000E+00 0.  1.
     999900   -1    0    0    0    0 -0.00000000000E+00 -0.00000000000E+00 -0.74505805969E-08  0.93827000000E+00  0.93827000000E+00 0.  1.
     999902    2    1    2    0    0 -0.11271975321E-01 -0.19944713948E-01 -0.62823290696E-02  0.10201746490E+01  0.10198980330E+01 0.  0.
     999903    2    3    3    0    0  0.26990433362E-01 -0.11165633438E+00  0.61972609605E-01  0.13195521109E+00  0.19389504744E-01 0.  0.
         14    1    1    2    0    0  0.11271975321E-01  0.19944713948E-01  0.62823290696E-02  0.23755350990E-01  0.00000000000E+00 0. -1.
     999901    1    3    3    0    0 -0.38262408683E-01  0.91711620428E-01 -0.68254938674E-01  0.88821943792E+00  0.88000000000E+00 0.  1.
        -11    1    4    4    0    0  0.25814279893E-01 -0.68662131814E-01  0.36067410166E-01  0.81743407005E-01  0.51100000000E-03 0. -1.
         11    1    4    4    0    0  0.11761534687E-02 -0.42994202562E-01  0.25905199438E-01  0.50211804089E-01  0.51100000000E-03 0.  1.
</event>
<event>
 8    1  0.1116619E+005  0.1043930E+01  0.7957747E-01            NaN
         13   -1    0    0    0    0  0.00000000000E+00  0.00000000000E+00  0.74505805969E-08  0.10566000000E+00  0.10566000000E+00 0.  1.
     999900   -1    0    0    0    0 -0.00000000000E+00 -0.00000000000E+00 -0.74505805969E-08  0.93827000000E+00  0.93827000000E+00 0. -1.
     999902    2    1    2    0    0 -0.19415007814E-01 -0.11946279439E-01  0.70438577819E-02  0.10200705773E+01  0.10197915035E+01 0.  0.
     999903    2    3    3    0    0  0.28008600985E-01  0.12061600378E+00 -0.26748489921E-01  0.12823893375E+00  0.19925870652E-01 0.  0.
         14    1    1    2    0    0  0.19415007814E-01  0.11946279439E-01 -0.70438577819E-02  0.23859422737E-01  0.00000000000E+00 0. -1.
     999901    1    3    3    0    0 -0.47423608799E-01 -0.13256228321E+00  0.33792347703E-01  0.89183164351E+00  0.88000000000E+00 0. -1.
        -11    1    4    4    0    0  0.23801334192E-01  0.10879270370E+00 -0.29857323886E-01  0.11529994275E+00  0.51100000000E-03 0. -1.
         11    1    4    4    0    0  0.42072667928E-02  0.11823300075E-01  0.31088339653E-02  0.12938991002E-01  0.51100000000E-03 0.  1.
</event>
<event>
 8    1  0.1116619E+005  0.1043930E+01  0.7957747E-01            NaN
         13   -1    0    0    0    0  0.00000000000E+00  0.00000000000E+00  0.74505805969E-08  0.10566000000E+00  0.10566000000E+00 0.  1.
     999900   -1    0    0    0    0 -0.00000000000E+00 -0.00000000000E+00 -0.74505805969E-08  0.93827000000E+00  0.93827000000E+00 0.  1.
     999902    2    1    2    0    0  0.21022848440E-01 -0.55627828326E-02  0.74055972343E-02  0.10209572427E+01  0.10206987527E+01 0.  0.
     999903    2    3    3    0    0 -0.23128712120E-01  0.10032571917E+00  0.78336128534E-01  0.13068038941E+00  0.18456107181E-01 0.  0.
         14    1    1    2    0    0 -0.21022848440E-01  0.55627828326E-02 -0.74055972343E-02  0.22972757339E-01  0.00000000000E+00 0. -1.
     999901    1    3    3    0    0  0.44151560560E-01 -0.10588850200E+00 -0.70930531300E-01  0.89027685325E+00  0.88000000000E+00 0.  1.
        -11    1    4    4    0    0 -0.16816344714E-01  0.48618686938E-01  0.48196580341E-01  0.70496366195E-01  0.51100000000E-03 0. -1.
         11    1    4    4    0    0 -0.63123674056E-02  0.51707032232E-01  0.30139548194E-01  0.60184023219E-01  0.51100000000E-03 0.  1.
</event>
<event>
 7    1  0.1301229E+005  0.1043930E+01  0.7957747E-01            NaN
         13   -1    0    0    0    0  0.00000000000E+00  0.00000000000E+00  0.74505805969E-08  0.10566000000E+00  0.10566000000E+00 0.  1.
     999900   -1    0    0    0    0 -0.00000000000E+00 -0.00000000000E+00 -0.74505805969E-08  0.93827000000E+00  0.93827000000E+00 0.  1.
     999903    2    1    2    0    0 -0.78494368481E-01  0.87342468430E-02 -0.84001052101E-01  0.11708590880E+00  0.20378428188E-01 0.  0.
         14    1    1    2    0    0  0.26837225845E-01  0.94273482483E-02  0.33144207596E-01  0.43676653755E-01  0.00000000000E+00 0.  1.
     999901    1    1    2    0    0  0.51657142636E-01 -0.18161595091E-01  0.50856844505E-01  0.88316743744E+00  0.88000000000E+00 0. -1.
        -11    1    3    3    0    0 -0.13345914601E-01 -0.26997432474E-02 -0.24892198861E-01  0.28377539275E-01  0.51100000000E-03 0.  1.
         11    1    3    3    0    0 -0.65148453881E-01  0.11433990090E-01 -0.59108853239E-01  0.88708369530E-01  0.51100000000E-03 0. -1.
</event>
<event>
 8    1  0.1116619E+005  0.1043930E+01  0.7957747E-01            NaN
         13   -1    0    0    0    0  0.00000000000E+00  0.00000000000E+00  0.74505805969E-08  0.10566000000E+00  0.10566000000E+00 0. -1.
     999900   -1    0    0    0    0 -0.00000000000E+00 -0.00000000000E+00 -0.74505805969E-08  0.93827000000E+00  0.93827000000E+00 0. -1.
     999902    2    1    2    0    0  0.61591915078E-02 -0.46888285287E-03 -0.21922705104E-01  0.10211536858E+01  0.10208996471E+01 0.  0.
     999903    2    3    3    0    0 -0.11215556852E+00 -0.62347517430E-01 -0.17316225789E-01  0.13107022478E+00  0.20333904450E-01 0.  0.
         14    1    1    2    0    0 -0.61591915078E-02  0.46888285287E-03  0.21922705104E-01  0.22776314237E-01  0.00000000000E+00 0. -1.
     999901    1    3    3    0    0  0.11831476002E+00  0.61878634577E-01 -0.46064793150E-02  0.89008346098E+00  0.88000000000E+00 0.  1.
        -11    1    4    4    0    0 -0.31700637029E-01 -0.28087143739E-01 -0.30430269428E-02  0.42465741080E-01  0.51100000000E-03 0.  1.
         11    1    4    4    0    0 -0.80454931488E-01 -0.34260373691E-01 -0.14273198846E-01  0.88604483704E-01  0.51100000000E-03 0. -1.
</event>
<event>
 8    1  0.1116619E+005  0.1043930E+01  0.7957747E-01            NaN
         13   -1    0    0    0    0  0.00000000000E+00  0.00000000000E+00  0.74505805969E-08  0.10566000000E+00  0.10566000000E+00 0.  1.
     999900   -1    0    0    0    0 -0.00000000000E+00 -0.00000000000E+00 -0.74505805969E-08  0.93827000000E+00  0.93827000000E+00 0. -1.
     999902    2    1    2    0    0 -0.15907318913E-01 -0.64213741570E-02  0.15857967494E-01  0.10205686650E+01  0.10203012535E+01 0.  0.
     999903    2    3    3    0    0  0.58752098239E-01 -0.21964078384E-01  0.11409061692E+00  0.13182502498E+00  0.20662491451E-01 0.  0.
         14    1    1    2    0    0  0.15907318913E-01  0.64213741570E-02 -0.15857967494E-01  0.23361335025E-01  0.00000000000E+00 0. -1.
     999901    1    3    3    0    0 -0.74659417153E-01  0.15542704227E-01 -0.98232649430E-01  0.88874364000E+00  0.88000000000E+00 0. -1.
        -11    1    4    4    0    0  0.38833362404E-01 -0.17864696676E-01  0.93854161313E-01  0.10313118898E+00  0.51100000000E-03 0. -1.
         11    1    4    4    0    0  0.19918735835E-01 -0.40993817071E-02  0.20236455612E-01  0.28693836000E-01  0.51100000000E-03 0.  1.
</event>
<event>
 8    1  0.1116619E+005  0.1043930E+01  0.7957747E-01            NaN
         13   -1    0    0    0    0  0.00000000000E+00  0.00000000000E+00  0.74505805969E-08  0.10566000000E+00  0.10566000000E+00 0.  1.
     999900   -1    0    0    0    0 -0.00000000000E+00 -0.00000000000E+00 -0.74505805969E-08  0.93827000000E+00  0.93827000000E+00 0.  1.
     999902    2    1    2    0    0  0.11340240050E-01  0.97043991970E-02 -0.16651778860E-01  0.10215680200E+01  0.10213232404E+01 0.  0.
     999903    2    3    3    0    0  0.99100362940E-01 -0.60750395590E-01 -0.61882760385E-01  0.13324850604E+00  0.20351801640E-01 0.  0.
         14    1    1    2    0    0 -0.11340240050E-01 -0.97043991970E-02  0.16651778860E-01  0.22361979951E-01  0.00000000000E+00 0.  1.
     999901    1    3    3    0    0 -0.87760122890E-01  0.70454794787E-01  0.45230981525E-01  0.88831951401E+00  0.88000000000E+00 0. -1.
        -11    1    4    4    0    0  0.14410200607E-01 -0.14398666515E-01 -0.18033637702E-01  0.27211186830E-01  0.51100000000E-03 0. -1.
         11    1    4    4    0    0  0.84690162333E-01 -0.46351729075E-01 -0.43849122683E-01  0.10603731921E+00  0.51100000000E-03 0.  1.
</event>
<event>
 8    1  0.1116619E+005  0.1043930E+01  0.7957747E-01            NaN
         13   -1    0    0    0    0  0.00000000000E+00  0.00000000000E+00  0.74505805969E-08  0.10566000000E+00  0.10566000000E+00 0.  1.
     999900   -1    0    0    0    0 -0.00000000000E+00 -0.00000000000E+00 -0.74505805969E-08  0.93827000000E+00  0.93827000000E+00 0. -1.
     999902    2    1    2    0    0 -0.17348876220E-01  0.12621724893E-01  0.95512559336E-02  0.10204455810E+01  0.10201753113E+01 0.  0.
     999903    2    3    3    0    0 -0.21104541415E-01  0.12850460015E+00  0.15129836191E-01  0.13282287605E+00  0.21311277096E-01 0.  0.
         14    1    1    2    0    0  0.17348876220E-01 -0.12621724893E-01 -0.95512559336E-02  0.23484418990E-01  0.00000000000E+00 0. -1.
     999901    1    3    3    0    0  0.37556651948E-02 -0.11588287526E+00 -0.55785802576E-02  0.88762270496E+00  0.88000000000E+00 0. -1.
        -11    1    4    4    0    0 -0.16574837881E-01  0.77146080390E-01  0.18849886198E-01  0.81128430905E-01  0.51100000000E-03 0.  1.
         11    1    4    4    0    0 -0.45297035340E-02  0.51358519760E-01 -0.37200500071E-02  0.51694445147E-01  0.51100000000E-03 0. -1.
</event>
<event>
 8    1  0.1116619E+005  0.1043930E+01  0.7957747E-01            NaN
         13   -1    0    0    0    0  0.00000000000E+00  0.00000000000E+00  0.74505805969E-08  0.10566000000E+00  0.10566000000E+00 0.  1.
     999900   -1    0    0    0    0 -0.00000000000E+00 -0.00000000000E+00 -0.74505805969E-08  0.93827000000E+00  0.93827000000E+00 0.  1.
     999902    2    1    2    0    0 -0.21069108792E-01  0.95882290240E-02 -0.54873371436E-02  0.10201402470E+01  0.10198628197E+01 0.  0.
     999903    2    3    3    0    0  0.94860156205E-01 -0.55053260399E-02  0.83189761990E-01  0.12799057465E+00  0.20791653330E-01 0.  0.
         14    1    1    2    0    0  0.21069108792E-01 -0.95882290240E-02  0.54873371436E-02  0.23789753047E-01  0.00000000000E+00 0.  1.
     999901    1    3    3    0    0 -0.11592926500E+00  0.15093555064E-01 -0.88677099133E-01  0.89214967231E+00  0.88000000000E+00 0.  1.
        -11    1    4    4    0    0  0.68371295474E-01 -0.11046693727E-01  0.51462093222E-01  0.86285987547E-01  0.51100000000E-03 0.  1.
         11    1    4    4    0    0  0.26488860730E-01  0.55413676867E-02  0.31727668768E-01  0.41704587099E-01  0.51100000000E-03 0. -1.
</event>
<event>
 8    1  0.1116619E+005  0.1043930E+01  0.7957747E-01            NaN
         13   -1    0    0    0    0  0.00000000000E+00  0.00000000000E+00  0.74505805969E-08  0.10566000000E+00  0.10566000000E+00 0.  1.
     999900   -1    0    0    0    0 -0.00000000000E+00 -0.00000000000E+00 -0.74505805969E-08  0.93827000000E+00  0.93827000000E+00 0.  1.
     999902    2    1    2    0    0 -0.88583879990E-02 -0.20872458078E-01  0.49159806352E-02  0.10207287628E+01  0.10204650458E+01 0.  0.
     999903    2    3    3    0    0  0.12041193129E+00 -0.37518355538E-01 -0.27751246355E-01  0.13052931933E+00  0.19002929585E-01 0.  0.
         14    1    1    2    0    0  0.88583879990E-02  0.20872458078E-01 -0.49159806352E-02  0.23201237246E-01  0.00000000000E+00 0. -1.
     999901    1    3    3    0    0 -0.12927031928E+00  0.16645897460E-01  0.32667226990E-01  0.89019944342E+00  0.88000000000E+00 0.  1.
        -11    1    4    4    0    0  0.59983544894E-01 -0.18106073239E-01 -0.23480862872E-01  0.66913881881E-01  0.51100000000E-03 0.  1.
         11    1    4    4    0    0  0.60428386392E-01 -0.19412282299E-01 -0.42703834823E-02  0.63615437451E-01  0.51100000000E-03 0. -1.
</event>
<event>
 8    1  0.1116619E+005  0.1043930E+01  0.7957747E-01            NaN
         13   -1    0    0    0    0  0.00000000000E+00  0.00000000000E+00  0.74505805969E-08  0.10566000000E+00  0.10566000000E+00 0. -1.
     999900   -1    0    0    0    0 -0.00000000000E+00 -0.00000000000E+00 -0.74505805969E-08  0.93827000000E+00  0.93827000000E+00 0. -1.
     999902    2    1    2    0    0  0.17227979293E-01  0.75708809402E-02  0.13633971820E-01  0.10206919558E+01  0.10204273918E+01 0.  0.
     999903    2    3    3    0    0 -0.37343425152E-01  0.75743973210E-01 -0.96123352619E-01  0.12958462282E+00  0.20513280418E-01 0.  0.
         14    1    1    2    0    0 -0.17227979293E-01 -0.75708809402E-02 -0.13633971820E-01  0.23238044159E-01  0.00000000000E+00 0.  1.
     999901    1    3    3    0    0  0.54571404445E-01 -0.68173092270E-01  0.10975732444E+00  0.89110733302E+00  0.88000000000E+00 0.  1.
        -11    1    4    4    0    0 -0.36390548701E-02  0.22376765984E-01 -0.35103935634E-01  0.41791264569E-01  0.51100000000E-03 0. -1.
         11    1    4    4    0    0 -0.33704370282E-01  0.53367207226E-01 -0.61019416984E-01  0.87793358253E-01  0.51100000000E-03 0.  1.
</event>
<event>
 8    1  0.1116619E+005  0.1043930E+01  0.7957747E-01            NaN
         13   -1    0    0    0    0  0.00000000000E+00  0.00000000000E+00  0.74505805969E-08  0.10566000000E+00  0.10566000000E+00 0.  1.
     999900   -1    0    0    0    0 -0.00000000000E+00 -0.00000000000E+00 -0.74505805969E-08  0.93827000000E+00  0.93827000000E+00 0. -1.
     999902    2    1    2    0    0 -0.20027512533E-01 -0.10737412332E-01 -0.46475659143E-02  0.10207353206E+01  0.10204717545E+01 0.  0.
     999903    2    3    3    0    0  0.12346150089E+00  0.95893131128E-02  0.17752761682E-01  0.12860077506E+00  0.29804390101E-01 0.  0.
         14    1    1    2    0    0  0.20027512533E-01  0.10737412332E-01  0.46475659143E-02  0.23194679363E-01  0.00000000000E+00 0. -1.
     999901    1    3    3    0    0 -0.14348901343E+00 -0.20326725444E-01 -0.22400327596E-01  0.89213454558E+00  0.88000000000E+00 0. -1.
        -11    1    4    4    0    0  0.93994242707E-01  0.14080507814E-01  0.24159066763E-02  0.95075107618E-01  0.51100000000E-03 0.  1.
         11    1    4    4    0    0  0.29467258185E-01 -0.44911947012E-02  0.15336855005E-01  0.33525667439E-01  0.51100000000E-03 0. -1.
</event>
<event>
 8    1  0.1442712E+005  0.1043930E+01  0.7957747E-01            NaN
         13   -1    0    0    0    0  0.00000000000E+00  0.00000000000E+00  0.74505805969E-08  0.10566000000E+00  0.10566000000E+00 0.  1.
     999900   -1    0    0    0    0 -0.00000000000E+00 -0.00000000000E+00 -0.74505805969E-08  0.93827000000E+00  0.93827000000E+00 0. -1.
     999902    2    1    2    0    0 -0.19208348823E-01 -0.16264379711E-02  0.15095982404E-01  0.10194454202E+01  0.10191513480E+01 0.  0.
     999903    2    3    3    0    0  0.54728994117E-01  0.35871734620E-01 -0.10709554038E+00  0.12714299841E+00  0.20343134795E-01 0.  0.
         14    1    1    2    0    0  0.19208348823E-01  0.16264379711E-02 -0.15095982404E-01  0.24484579836E-01  0.00000000000E+00 0. -1.
     999901    1    3    3    0    0 -0.73937342940E-01 -0.37498172591E-01  0.12219152279E+00  0.89230242175E+00  0.88000000000E+00 0.  1.
        -11    1    4    4    0    0  0.28844928697E-01  0.30650398345E-01 -0.64154734376E-01  0.76730488687E-01  0.51100000000E-03 0. -1.
         11    1    4    4    0    0  0.25884065420E-01  0.52213362747E-02 -0.42940806005E-01  0.50412509723E-01  0.51100000000E-03 0.  1.
</event>
<event>
 8    1  0.1116619E+005  0.1043930E+01  0.7957747E-01            NaN
         13   -1    0    0    0    0  0.00000000000E+00  0.00000000000E+00  0.74505805969E-08  0.10566000000E+00  0.10566000000E+00 0.  1.
     999900   -1    0    0    0    0 -0.00000000000E+00 -0.00000000000E+00 -0.74505805969E-08  0.93827000000E+00  0.93827000000E+00 0. -1.
     999902    2    1    2    0    0  0.10695021186E-01  0.18069338345E-01 -0.12082625203E-01  0.10197045114E+01  0.10194167039E+01 0.  0.
     999903    2    3    3    0    0 -0.34820194864E-01  0.12191669487E+00 -0.31932453960E-01  0.13220807532E+00  0.19574654645E-01 0.  0.
         14    1    1    2    0    0 -0.10695021186E-01 -0.18069338345E-01  0.12082625203E-01  0.24225488606E-01  0.00000000000E+00 0.  1.
     999901    1    3    3    0    0  0.45515216050E-01 -0.10384735653E+00  0.19849828757E-01  0.88749643608E+00  0.88000000000E+00 0.  1.
        -11    1    4    4    0    0 -0.36315727456E-02  0.26758756685E-01  0.29342646659E-03  0.27010490555E-01  0.51100000000E-03 0. -1.
         11    1    4    4    0    0 -0.31188622118E-01  0.95157938185E-01 -0.32225880427E-01  0.10519758476E+00  0.51100000000E-03 0.  1.
</event>
<event>
 8    1  0.1116619E+005  0.1043930E+01  0.7957747E-01            NaN
         13   -1    0    0    0    0  0.00000000000E+00  0.00000000000E+00  0.74505805969E-08  0.10566000000E+00  0.10566000000E+00 0.  1.
     999900   -1    0    0    0    0 -0.00000000000E+00 -0.00000000000E+00 -0.74505805969E-08  0.93827000000E+00  0.93827000000E+00 0.  1.
     999902    2    1    2    0    0 -0.28229863713E-02 -0.23041995304E-01 -0.34969564531E-02  0.10204538098E+01  0.10201837318E+01 0.  0.
     999903    2    3    3    0    0 -0.59212478300E-01 -0.40750331196E-01 -0.10931648849E+00  0.13214579270E+00  0.18593245966E-01 0.  0.
         14    1    1    2    0    0  0.28229863713E-02  0.23041995304E-01  0.34969564531E-02  0.23476190153E-01  0.00000000000E+00 0. -1.
     999901    1    3    3    0    0  0.56389491929E-01  0.17708335892E-01  0.10581953203E+00  0.88830801714E+00  0.88000000000E+00 0. -1.
        -11    1    4    4    0    0 -0.46593970606E-01 -0.21823051701E-01 -0.73825070872E-01  0.89986920676E-01  0.51100000000E-03 0. -1.
         11    1    4    4    0    0 -0.12618507694E-01 -0.18927279495E-01 -0.35491417614E-01  0.42158872029E-01  0.51100000000E-03 0.  1.
</event>
<event>
 8    1  0.1116619E+005  0.1043930E+01  0.7957747E-01            NaN
         13   -1    0    0    0    0  0.00000000000E+00  0.00000000000E+00  0.74505805969E-08  0.10566000000E+00  0.10566000000E+00 0.  1.
     999900   -1    0    0    0    0 -0.00000000000E+00 -0.00000000000E+00 -0.74505805969E-08  0.93827000000E+00  0.93827000000E+00 0.  1.
     999902    2    1    2    0    0  0.77375991360E-02  0.10856069184E-01 -0.19841540174E-01  0.10200257871E+01  0.10197456521E+01 0.  0.
     999903    2    3    3    0    0 -0.30852666194E-01  0.10184667812E+00 -0.76561309370E-01  0.13267826119E+00  0.20426797229E-01 0.  0.
         14    1    1    2    0    0 -0.77375991360E-02 -0.10856069184E-01  0.19841540174E-01  0.23904212913E-01  0.00000000000E+00 0.  1.
     999901    1    3    3    0    0  0.38590265330E-01 -0.90990608937E-01  0.56719769196E-01  0.88734752589E+00  0.88000000000E+00 0. -1.
        -11    1    4    4    0    0 -0.22915778781E-01  0.73465053392E-01 -0.65953115152E-01  0.10135246177E+00  0.51100000000E-03 0.  1.
         11    1    4    4    0    0 -0.79368874132E-02  0.28381624729E-01 -0.10608194219E-01  0.31325799426E-01  0.51100000000E-03 0. -1.
</event>
<event>
 8    1  0.1116619E+005  0.1043930E+01  0.7957747E-01            NaN
         13   -1    0    0    0    0  0.00000000000E+00  0.00000000000E+00  0.74505805969E-08  0.10566000000E+00  0.10566000000E+00 0.  1.
     999900   -1    0    0    0    0 -0.00000000000E+00 -0.00000000000E+00 -0.74505805969E-08  0.93827000000E+00  0.93827000000E+00 0.  1.
     999902    2    1    2    0    0 -0.75839119602E-02  0.25135569812E-02  0.22193559602E-01  0.10203421265E+01  0.10200694424E+01 0.  0.
     999903    2    3    3    0    0 -0.11110714971E+00 -0.15300734422E-01  0.68413473506E-01  0.13289033051E+00  0.20013130546E-01 0.  0.
         14    1    1    2    0    0  0.75839119602E-02 -0.25135569812E-02 -0.22193559602E-01  0.23587873518E-01  0.00000000000E+00 0. -1.
     999901    1    3    3    0    0  0.10352323775E+00  0.17814291403E-01 -0.46219913904E-01  0.88745179597E+00  0.88000000000E+00 0.  1.
        -11    1    4    4    0    0 -0.50416450770E-01 -0.11332907216E-01  0.41948323871E-01  0.66559569491E-01  0.51100000000E-03 0. -1.
         11    1    4    4    0    0 -0.60690698944E-01 -0.39678272058E-02  0.26465149635E-01  0.66330761018E-01  0.51100000000E-03 0.  1.
</event>
<event>
 8    1  0.1116619E+005  0.1043930E+01  0.7957747E-01            NaN
         13   -1    0    0    0    0  0.00000000000E+00  0.00000000000E+00  0.74505805969E-08  0.10566000000E+00  0.10566000000E+00 0. -1.
     999900   -1    0    0    0    0 -0.00000000000E+00 -0.00000000000E+00 -0.74505805969E-08  0.93827000000E+00  0.93827000000E+00 0.  1.
     999902    2    1    2    0    0 -0.24105565967E-02  0.23515300017E-01 -0.34561889922E-02  0.10200401411E+01  0.10197603464E+01 0.  0.
     999903    2    3    3    0    0  0.94872902751E-01 -0.61431440046E-02  0.85960772149E-01  0.12968117541E+00  0.19731878091E-01 0.  0.
         14    1    1    2    0    0  0.24105565967E-02 -0.23515300017E-01  0.34561889922E-02  0.23889858944E-01  0.00000000000E+00 0. -1.
     999901    1    3    3    0    0 -0.97283459348E-01  0.29658444022E-01 -0.89416961141E-01  0.89035896564E+00  0.88000000000E+00 0.  1.
        -11    1    4    4    0    0  0.47899693689E-01 -0.10454434045E-01  0.52572942990E-01  0.71887768795E-01  0.51100000000E-03 0.  1.
         11    1    4    4    0    0  0.46973209061E-01  0.43112900403E-02  0.33387829159E-01  0.57793406616E-01  0.51100000000E-03 0. -1.
</event>
<event>
 8    1  0.1116619E+005  0.1043930E+01  0.7957747E-01            NaN
         13   -1    0    0    0    0  0.00000000000E+00  0.00000000000E+00  0.74505805969E-08  0.10566000000E+00  0.10566000000E+00 0. -1.
     999900   -1    0    0    0    0 -0.00000000000E+00 -0.00000000000E+00 -0.74505805969E-08  0.93827000000E+00  0.93827000000E+00 0.  1.
     999902    2    1    2    0    0 -0.53006670087E-02  0.23283930125E-01 -0.41304023349E-02  0.10196957536E+01  0.10194077356E+01 0.  0.
     999903    2    3    3    0    0  0.36495715600E-01 -0.81244346268E-01  0.88547538728E-01  0.12769670717E+00  0.23091153035E-01 0.  0.
         14    1    1    2    0    0  0.53006670087E-02 -0.23283930125E-01  0.41304023349E-02  0.24234246352E-01  0.00000000000E+00 0.  1.
     999901    1    3    3    0    0 -0.41796382608E-01  0.10452827639E+00 -0.92677941063E-01  0.89199904648E+00  0.88000000000E+00 0.  1.
        -11    1    4    4    0    0  0.12062802383E-01 -0.52641503682E-01  0.57832127765E-01  0.79129357599E-01  0.51100000000E-03 0. -1.
         11    1    4    4    0    0  0.24432913217E-01 -0.28602842586E-01  0.30715410963E-01  0.48567349567E-01  0.51100000000E-03 0.  1.
</event>
<event>
 8    1  0.1116619E+005  0.1043930E+01  0.7957747E-01            NaN
         13   -1    0    0    0    0  0.00000000000E+00  0.00000000000E+00  0.74505805969E-08  0.10566000000E+00  0.10566000000E+00 0. -1.
     999900   -1    0    0    0    0 -0.00000000000E+00 -0.00000000000E+00 -0.74505805969E-08  0.93827000000E+00  0.93827000000E+00 0. -1.
     999902    2    1    2    0    0 -0.23619181189E-01  0.27011579091E-02  0.22219563270E-02  0.10200532526E+01  0.10197737686E+01 0.  0.
     999903    2    3    3    0    0 -0.26142343857E-01 -0.41742443441E-02  0.12698300667E+00  0.13122314673E+00  0.19849025110E-01 0.  0.
         14    1    1    2    0    0  0.23619181189E-01 -0.27011579091E-02 -0.22219563270E-02  0.23876747350E-01  0.00000000000E+00 0.  1.
     999901    1    3    3    0    0  0.25231626680E-02  0.68754022532E-02 -0.12476105034E+00  0.88883010592E+00  0.88000000000E+00 0. -1.
        -11    1    4    4    0    0 -0.25567221607E-01  0.10152276627E-02  0.81126553212E-01  0.85067574698E-01  0.51100000000E-03 0.  1.
         11    1    4    4    0    0 -0.57512224989E-03 -0.51894720068E-02  0.45856453454E-01  0.46155572033E-01  0.51100000000E-03 0. -1.
</event>
<event>
 8    1  0.1116619E+005  0.1043930E+01  0.7957747E-01            NaN
         13   -1    0    0    0    0  0.00000000000E+00  0.00000000000E+00  0.74505805969E-08  0.10566000000E+00  0.10566000000E+00 0.  1.
     999900   -1    0    0    0    0 -0.00000000000E+00 -0.00000000000E+00 -0.74505805969E-08  0.93827000000E+00  0.93827000000E+00 0. -1.
     999902    2    1    2    0    0  0.20202003853E-02  0.20250122784E-01  0.92371350307E-02  0.10215810997E+01  0.10213366095E+01 0.  0.
     999903    2    3    3    0    0 -0.83819490123E-01 -0.12182785883E-01  0.99489021100E-01  0.13221854763E+00  0.20237386732E-01 0.  0.
         14    1    1    2    0    0 -0.20202003853E-02 -0.20250122784E-01 -0.92371350307E-02  0.22348900330E-01  0.00000000000E+00 0.  1.
     999901    1    3    3    0    0  0.85839690509E-01  0.32432908667E-01 -0.90251886069E-01  0.88936255204E+00  0.88000000000E+00 0. -1.
        -11    1    4    4    0    0 -0.61715965509E-01 -0.16971745820E-01  0.67336776095E-01  0.92905344791E-01  0.51100000000E-03 0. -1.
         11    1    4    4    0    0 -0.22103524615E-01  0.47889599367E-02  0.32152245005E-01  0.39313202840E-01  0.51100000000E-03 0.  1.
</event>
<event>
 8    1  0.1116619E+005  0.1043930E+01  0.7957747E-01            NaN
         13   -1    0    0    0    0  0.00000000000E+00  0.00000000000E+00  0.74505805969E-08  0.10566000000E+00  0.10566000000E+00 0. -1.
     999900   -1    0    0    0    0 -0.00000000000E+00 -0.00000000000E+00 -0.74505805969E-08  0.93827000000E+00  0.93827000000E+00 0. -1.
     999902    2    1    2    0    0 -0.17765909058E-02 -0.16559024007E-01 -0.15407952627E-01  0.10212416207E+01  0.10209895618E+01 0.  0.
     999903    2    3    3    0    0 -0.92609247525E-01  0.88435531606E-01  0.12872800097E-01  0.12990878208E+00  0.17699341851E-01 0.  0.
         14    1    1    2    0    0  0.17765909058E-02  0.16559024007E-01  0.15407952627E-01  0.22688379305E-01  0.00000000000E+00 0. -1.
     999901    1    3    3    0    0  0.90832656619E-01 -0.10499455561E+00 -0.28280752724E-01  0.89133283861E+00  0.88000000000E+00 0.  1.
        -11    1    4    4    0    0 -0.48320945418E-01  0.34127272818E-01  0.73026564487E-02  0.59608509697E-01  0.51100000000E-03 0.  1.
         11    1    4    4    0    0 -0.44288302108E-01  0.54308258787E-01  0.55701436484E-02  0.70300272384E-01  0.51100000000E-03 0. -1.
</event>
<event>
 8    1  0.1116619E+005  0.1043930E+01  0.7957747E-01            NaN
         13   -1    0    0    0    0  0.00000000000E+00  0.00000000000E+00  0.74505805969E-08  0.10566000000E+00  0.10566000000E+00 0.  1.
     999900   -1    0    0    0    0 -0.00000000000E+00 -0.00000000000E+00 -0.74505805969E-08  0.93827000000E+00  0.93827000000E+00 0.  1.
     999902    2    1    2    0    0 -0.14476218436E-01 -0.10913247526E-01 -0.14561125162E-01  0.10206773391E+01  0.10204124384E+01 0.  0.
     999903    2    3    3    0    0 -0.74222896509E-01 -0.10454369657E+00 -0.32208516515E-01  0.13352021835E+00  0.18757326910E-01 0.  0.
         14    1    1    2    0    0  0.14476218436E-01  0.10913247526E-01  0.14561125162E-01  0.23252660875E-01  0.00000000000E+00 0. -1.
     999901    1    3    3    0    0  0.59746678073E-01  0.93630449041E-01  0.17647391353E-01  0.88715712078E+00  0.88000000000E+00 0.  1.
        -11    1    4    4    0    0 -0.71261085283E-02 -0.22391336294E-01 -0.61156584548E-02  0.24286122851E-01  0.51100000000E-03 0. -1.
         11    1    4    4    0    0 -0.67096787981E-01 -0.82152360273E-01 -0.26092858060E-01  0.10923409549E+00  0.51100000000E-03 0.  1.
</event>
<event>
 8    1  0.1116619E+005  0.1043930E+01  0.7957747E-01            NaN
         13   -1    0    0    0    0  0.00000000000E+00  0.00000000000E+00  0.74505805969E-08  0.10566000000E+00  0.10566000000E+00 0.  1.
     999900   -1    0    0    0    0 -0.00000000000E+00 -0.00000000000E+00 -0.74505805969E-08  0.93827000000E+00  0.93827000000E+00 0. -1.
     999902    2    1    2    0    0  0.56452358741E-02  0.27439025237E-01  0.48259591372E-02  0.10155036271E+01  0.10151056881E+01 0.  0.
     999903    2    3    3    0    0  0.31985676237E-01 -0.79374061717E-01  0.88544126517E-01  0.12471095432E+00  0.19734098142E-01 0.  0.
         14    1    1    2    0    0 -0.56452358741E-02 -0.27439025237E-01 -0.48259591372E-02  0.28426372889E-01  0.00000000000E+00 0. -1.
     999901    1    3    3    0    0 -0.26340440363E-01  0.10681308695E+00 -0.83718167380E-01  0.89079267279E+00  0.88000000000E+00 0. -1.
        -11    1    4    4    0    0  0.16780468871E-01 -0.62686197976E-01  0.60680067782E-01  0.88845232282E-01  0.51100000000E-03 0.  1.
         11    1    4    4    0    0  0.15205207365E-01 -0.16687863742E-01  0.27864058736E-01  0.35865722041E-01  0.51100000000E-03 0. -1.
</event>
<event>
 8    1  0.1116619E+005  0.1043930E+01  0.7957747E-01            NaN
         13   -1    0    0    0    0  0.00000000000E+00  0.00000000000E+00  0.74505805969E-08  0.10566000000E+00  0.10566000000E+00 0. -1.
     999900   -1    0    0    0    0 -0.00000000000E+00 -0.00000000000E+00 -0.74505805969E-08  0.93827000000E+00  0.93827000000E+00 0.  1.
     999902    2    1    2    0    0  0.23073474678E-01 -0.13465532374E-02  0.35526600816E-02  0.10205458209E+01  0.10202778801E+01 0.  0.
     999903    2    3    3    0    0  0.13039553498E-01 -0.12733206424E+00  0.20885874126E-01  0.13134760402E+00  0.20796365182E-01 0.  0.
         14    1    1    2    0    0 -0.23073474678E-01  0.13465532374E-02 -0.35526600816E-02  0.23384179118E-01  0.00000000000E+00 0. -1.
     999901    1    3    3    0    0  0.10033921180E-01  0.12598551101E+00 -0.17333214044E-01  0.88919821686E+00  0.88000000000E+00 0. -1.
        -11    1    4    4    0    0  0.14620737587E-01 -0.47688780467E-01  0.10946642819E-01  0.51069324061E-01  0.51100000000E-03 0.  1.
         11    1    4    4    0    0 -0.15811840886E-02 -0.79643283775E-01  0.99392313066E-02  0.80278279961E-01  0.51100000000E-03 0. -1.
</event>
<event>
 8    1  0.1116619E+005  0.1043930E+01  0.7957747E-01            NaN
         13   -1    0    0    0    0  0.00000000000E+00  0.00000000000E+00  0.74505805969E-08  0.10566000000E+00  0.10566000000E+00 0.  1.
     999900   -1    0    0    0    0 -0.00000000000E+00 -0.00000000000E+00 -0.74505805969E-08  0.93827000000E+00  0.93827000000E+00 0.  1.
     999902    2    1    2    0    0  0.10870990433E-01  0.60888929549E-02  0.14191859609E-01  0.10250445048E+01  0.10248705161E+01 0.  0.
     999903    2    3    3    0    0  0.26336792697E-01 -0.12021378258E+00  0.52162841615E-01  0.13508194807E+00  0.19524099902E-01 0.  0.
         14    1    1    2    0    0 -0.10870990433E-01 -0.60888929549E-02 -0.14191859609E-01  0.18885495216E-01  0.00000000000E+00 0. -1.
     999901    1    3    3    0    0 -0.15465802264E-01  0.12630267553E+00 -0.37970982006E-01  0.88996255672E+00  0.88000000000E+00 0. -1.
        -11    1    4    4    0    0  0.21962856802E-01 -0.57305544468E-01  0.22205562229E-01  0.65265922353E-01  0.51100000000E-03 0. -1.
         11    1    4    4    0    0  0.43739358949E-02 -0.62908238108E-01  0.29957279385E-01  0.69816025712E-01  0.51100000000E-03 0.  1.
</event>
<event>
 8    1  0.1116619E+005  0.1043930E+01  0.7957747E-01            NaN
         13   -1    0    0    0    0  0.00000000000E+00  0.00000000000E+00  0.74505805969E-08  0.10566000000E+00  0.10566000000E+00 0. -1.
     999900   -1    0    0    0    0 -0.00000000000E+00 -0.00000000000E+00 -0.74505805969E-08  0.93827000000E+00  0.93827000000E+00 0.  1.
     999902    2    1    2    0    0 -0.40862915631E-02 -0.22748774425E-01  0.65691014977E-02  0.10199017331E+01  0.10196186481E+01 0.  0.
     999903    2    3    3    0    0 -0.50730899553E-01  0.12875967147E-01  0.11807304240E+00  0.13092593448E+00  0.21469566332E-01 0.  0.
         14    1    1    2    0    0  0.40862915631E-02  0.22748774425E-01 -0.65691014977E-02  0.24028266917E-01  0.00000000000E+00 0. -1.
     999901    1    3    3    0    0  0.46644607990E-01 -0.35624741572E-01 -0.11150394090E+00  0.88897579860E+00  0.88000000000E+00 0. -1.
        -11    1    4    4    0    0 -0.36223992264E-01 -0.10078679097E-02  0.81637004321E-01  0.89319958625E-01  0.51100000000E-03 0.  1.
         11    1    4    4    0    0 -0.14506907289E-01  0.13883835057E-01  0.36436038078E-01  0.41605975854E-01  0.51100000000E-03 0. -1.
</event>
<event>
 8    1  0.1116619E+005  0.1043930E+01  0.7957747E-01            NaN
         13   -1    0    0    0    0  0.00000000000E+00  0.00000000000E+00  0.74505805969E-08  0.10566000000E+00  0.10566000000E+00 0.  1.
     999900   -1    0    0    0    0 -0.00000000000E+00 -0.00000000000E+00 -0.74505805969E-08  0.93827000000E+00  0.93827000000E+00 0. -1.
     999902    2    1    2    0    0  0.26794963884E-02 -0.61781655300E-02  0.22724234060E-01  0.10202289400E+01  0.10199536018E+01 0.  0.
     999903    2    3    3    0    0 -0.11115096932E+00  0.27244699551E-01 -0.55850806961E-01  0.12879834828E+00  0.19310366331E-01 0.  0.
         14    1    1    2    0    0 -0.26794963884E-02  0.61781655300E-02 -0.22724234060E-01  0.23701059973E-01  0.00000000000E+00 0. -1.
     999901    1    3    3    0    0  0.11383046570E+00 -0.33422865081E-01  0.78575041021E-01  0.89143059175E+00  0.88000000000E+00 0.  1.
        -11    1    4    4    0    0 -0.75594083188E-01  0.95562800388E-02 -0.39743971338E-01  0.85939701419E-01  0.51100000000E-03 0.  1.
         11    1    4    4    0    0 -0.35556886127E-01  0.17688419512E-01 -0.16106835623E-01  0.42858646860E-01  0.51100000000E-03 0. -1.
</event>
<event>
 7    1  0.1116619E+005  0.1043930E+01  0.7957747E-01            NaN
         13   -1    0    0    0    0  0.00000000000E+00  0.00000000000E+00  0.74505805969E-08  0.10566000000E+00  0.10566000000E+00 0. -1.
     999900   -1    0    0    0    0 -0.00000000000E+00 -0.00000000000E+00 -0.74505805969E-08  0.93827000000E+00  0.93827000000E+00 0. -1.
     999903    2    1    2    0    0  0.18474835463E-01 -0.89481388389E-02 -0.11086864898E+00  0.11442300382E+00  0.19477621563E-01 0.  0.
         14    1    1    2    0    0 -0.21743464713E-02 -0.39989493924E-01  0.15136511721E-01  0.42813565537E-01  0.00000000000E+00 0. -1.
     999901    1    1    2    0    0 -0.16300488991E-01  0.48937632763E-01  0.95732137262E-01  0.88669343064E+00  0.88000000000E+00 0.  1.
        -11    1    3    3    0    0  0.65742467807E-02 -0.76066332158E-02 -0.16737308619E-01  0.19531518385E-01  0.51100000000E-03 0.  1.
         11    1    3    3    0    0  0.11900588682E-01 -0.13415056231E-02 -0.94131340363E-01  0.94891485434E-01  0.51100000000E-03 0. -1.
</event>
<event>
 8    1  0.1116619E+005  0.1043930E+01  0.7957747E-01            NaN
         13   -1    0    0    0    0  0.00000000000E+00  0.00000000000E+00  0.74505805969E-08  0.10566000000E+00  0.10566000000E+00 0.  1.
     999900   -1    0    0    0    0 -0.00000000000E+00 -0.00000000000E+00 -0.74505805969E-08  0.93827000000E+00  0.93827000000E+00 0. -1.
     999902    2    1    2    0    0  0.10378572871E-01 -0.20858161396E-01  0.20920101597E-02  0.10205386730E+01  0.10202705665E+01 0.  0.
     999903    2    3    3    0    0  0.45802943336E-01  0.96840187226E-01  0.69778849346E-01  0.12942179208E+00  0.20124138949E-01 0.  0.
         14    1    1    2    0    0 -0.10378572871E-01  0.20858161396E-01 -0.20920101597E-02  0.23391326986E-01  0.00000000000E+00 0.  1.
     999901    1    3    3    0    0 -0.35424370464E-01 -0.11769834862E+00 -0.67686839186E-01  0.89111688094E+00  0.88000000000E+00 0.  1.
        -11    1    4    4    0    0  0.23336116844E-01  0.50676103036E-01  0.24386907787E-01  0.60890263267E-01  0.51100000000E-03 0.  1.
         11    1    4    4    0    0  0.22466826492E-01  0.46164084189E-01  0.45391941559E-01  0.68531528811E-01  0.51100000000E-03 0. -1.
</event>
<event>
 8    1  0.1116619E+005  0.1043930E+01  0.7957747E-01            NaN
         13   -1    0    0    0    0  0.00000000000E+00  0.00000000000E+00  0.74505805969E-08  0.10566000000E+00  0.10566000000E+00 0.  1.
     999900   -1    0    0    0    0 -0.00000000000E+00 -0.00000000000E+00 -0.74505805969E-08  0.93827000000E+00  0.93827000000E+00 0.  1.
     999902    2    1    2    0    0  0.14005301138E-01 -0.53418240665E-02  0.19889541640E-01  0.10190246309E+01  0.10187202368E+01 0.  0.
     999903    2    3    3    0    0  0.37222053212E-01 -0.10897112253E+00  0.60506575867E-01  0.13170969663E+00  0.20644894554E-01 0.  0.
         14    1    1    2    0    0 -0.14005301138E-01  0.53418240665E-02 -0.19889541640E-01  0.24905369119E-01  0.00000000000E+00 0. -1.
     999901    1    3    3    0    0 -0.23216752074E-01  0.10362929847E+00 -0.40617034228E-01  0.88731493425E+00  0.88000000000E+00 0. -1.
        -11    1    4    4    0    0  0.33975298463E-01 -0.72647920743E-01  0.46015261666E-01  0.92464624161E-01  0.51100000000E-03 0. -1.
         11    1    4    4    0    0  0.32467547493E-02 -0.36323201791E-01  0.14491314202E-01  0.39245072468E-01  0.51100000000E-03 0.  1.
</event>
<event>
 8    1  0.1116619E+005  0.1043930E+01  0.7957747E-01            NaN
         13   -1    0    0    0    0  0.00000000000E+00  0.00000000000E+00  0.74505805969E-08  0.10566000000E+00  0.10566000000E+00 0. -1.
     999900   -1    0    0    0    0 -0.00000000000E+00 -0.00000000000E+00 -0.74505805969E-08  0.93827000000E+00  0.93827000000E+00 0.  1.
     999902    2    1    2    0    0  0.77011848084E-02  0.22609955002E-02 -0.21384383759E-01  0.10210889795E+01  0.10208334790E+01 0.  0.
     999903    2    3    3    0    0 -0.34164499319E-01  0.12458140409E+00 -0.14918190788E-01  0.13161900840E+00  0.20329084956E-01 0.  0.
         14    1    1    2    0    0 -0.77011848084E-02 -0.22609955002E-02  0.21384383759E-01  0.22841020487E-01  0.00000000000E+00 0. -1.
     999901    1    3    3    0    0  0.41865684128E-01 -0.12232040859E+00 -0.64661929716E-02  0.88946997112E+00  0.88000000000E+00 0.  1.
        -11    1    4    4    0    0 -0.17034237321E-01  0.42471808525E-01  0.29486044855E-02  0.45858207007E-01  0.51100000000E-03 0. -1.
         11    1    4    4    0    0 -0.17130261998E-01  0.82109595570E-01 -0.17866795273E-01  0.85760801390E-01  0.51100000000E-03 0.  1.
</event>
<event>
 8    1  0.1116619E+005  0.1043930E+01  0.7957747E-01            NaN
         13   -1    0    0    0    0  0.00000000000E+00  0.00000000000E+00  0.74505805969E-08  0.10566000000E+00  0.10566000000E+00 0. -1.
     999900   -1    0    0    0    0 -0.00000000000E+00 -0.00000000000E+00 -0.74505805969E-08  0.93827000000E+00  0.93827000000E+00 0. -1.
     999902    2    1    2    0    0 -0.22561958658E-01  0.27953163486E-02  0.75784791122E-03  0.10211829100E+01  0.10209295301E+01 0.  0.
     999903    2    3    3    0    0  0.19718156858E-01  0.18928105567E-01 -0.12645857876E+00  0.13088414310E+00  0.19794137567E-01 0.  0.
         14    1    1    2    0    0  0.22561958658E-01 -0.27953163486E-02 -0.75784791122E-03  0.22747090043E-01  0.00000000000E+00 0. -1.
     999901    1    3    3    0    0 -0.42280115516E-01 -0.16132789218E-01  0.12721642667E+00  0.89029876686E+00  0.88000000000E+00 0.  1.
        -11    1    4    4    0    0  0.19687385717E-01  0.99257074373E-02 -0.10927722466E+00  0.11148042776E+00  0.51100000000E-03 0. -1.
         11    1    4    4    0    0  0.30771141461E-04  0.90023981297E-02 -0.17181354103E-01  0.19403715334E-01  0.51100000000E-03 0.  1.
</event>
<event>
 8    1  0.1116619E+005  0.1043930E+01  0.7957747E-01            NaN
         13   -1    0    0    0    0  0.00000000000E+00  0.00000000000E+00  0.74505805969E-08  0.10566000000E+00  0.10566000000E+00 0. -1.
     999900   -1    0    0    0    0 -0.00000000000E+00 -0.00000000000E+00 -0.74505805969E-08  0.93827000000E+00  0.93827000000E+00 0.  1.
     999902    2    1    2    0    0 -0.86899521788E-02  0.11833833515E-01 -0.19109202614E-01  0.10198319397E+01  0.10195471881E+01 0.  0.
     999903    2    3    3    0    0 -0.71746499397E-01  0.51431357669E-01 -0.97573521628E-01  0.13320871567E+00  0.20765959673E-01 0.  0.
         14    1    1    2    0    0  0.86899521788E-02 -0.11833833515E-01  0.19109202614E-01  0.24098060276E-01  0.00000000000E+00 0. -1.
     999901    1    3    3    0    0  0.63056547218E-01 -0.39597524154E-01  0.78464319014E-01  0.88662322405E+00  0.88000000000E+00 0. -1.
        -11    1    4    4    0    0 -0.14474969606E-01  0.13332287131E-01 -0.35307237494E-01  0.40424457519E-01  0.51100000000E-03 0. -1.
         11    1    4    4    0    0 -0.57271529791E-01  0.38099070538E-01 -0.62266284134E-01  0.92784258155E-01  0.51100000000E-03 0.  1.
</event>
<event>
 8    1  0.1116619E+005  0.1043930E+01  0.7957747E-01            NaN
         13   -1    0    0    0    0  0.00000000000E+00  0.00000000000E+00  0.74505805969E-08  0.10566000000E+00  0.10566000000E+00 0. -1.
     999900   -1    0    0    0    0 -0.00000000000E+00 -0.00000000000E+00 -0.74505805969E-08  0.93827000000E+00  0.93827000000E+00 0. -1.
     999902    2    1    2    0    0 -0.19954361614E-01 -0.13341759819E-01 -0.17345546810E-02  0.10198636795E+01  0.10195796864E+01 0.  0.
     999903    2    3    3    0    0 -0.68073036053E-01  0.10737947373E+00 -0.22804880594E-01  0.13006989345E+00  0.15291337015E-01 0.  0.
         14    1    1    2    0    0  0.19954361614E-01  0.13341759819E-01  0.17345546810E-02  0.24066320501E-01  0.00000000000E+00 0. -1.
     999901    1    3    3    0    0  0.48118674439E-01 -0.12072123355E+00  0.21070325913E-01  0.88979378605E+00  0.88000000000E+00 0.  1.
        -11    1    4    4    0    0 -0.53742372746E-01  0.72828602820E-01 -0.13417437035E-01  0.91501566952E-01  0.51100000000E-03 0. -1.
         11    1    4    4    0    0 -0.14330663307E-01  0.34550870907E-01 -0.93874435596E-02  0.38568326497E-01  0.51100000000E-03 0.  1.
</event>
<event>
 8    1  0.1116619E+005  0.1043930E+01  0.7957747E-01            NaN
         13   -1    0    0    0    0  0.00000000000E+00  0.00000000000E+00  0.74505805969E-08  0.10566000000E+00  0.10566000000E+00 0. -1.
     999900   -1    0    0    0    0 -0.00000000000E+00 -0.00000000000E+00 -0.74505805969E-08  0.93827000000E+00  0.93827000000E+00 0. -1.
     999902    2    1    2    0    0  0.10409785861E-01 -0.69398172707E-02 -0.19840389378E-01  0.10204743875E+01  0.10202047882E+01 0.  0.
     999903    2    3    3    0    0  0.41098681717E-01 -0.60309195420E-01  0.10516506099E+00  0.12951060518E+00  0.19672470821E-01 0.  0.
         14    1    1    2    0    0 -0.10409785861E-01  0.69398172707E-02  0.19840389378E-01  0.23455612465E-01  0.00000000000E+00 0. -1.
     999901    1    3    3    0    0 -0.30688895856E-01  0.53369378149E-01 -0.12500545037E+00  0.89096378236E+00  0.88000000000E+00 0. -1.
        -11    1    4    4    0    0  0.74423733481E-02 -0.61716748445E-02  0.26774108300E-01  0.28470905986E-01  0.51100000000E-03 0.  1.
         11    1    4    4    0    0  0.33656308369E-01 -0.54137520575E-01  0.78390952694E-01  0.10103969919E+00  0.51100000000E-03 0. -1.
</event>
<event>
 8    1  0.1116619E+005  0.1043930E+01  0.7957747E-01            NaN
         13   -1    0    0    0    0  0.00000000000E+00  0.00000000000E+00  0.74505805969E-08  0.10566000000E+00  0.10566000000E+00 0.  1.
     999900   -1    0    0    0    0 -0.00000000000E+00 -0.00000000000E+00 -0.74505805969E-08  0.93827000000E+00  0.93827000000E+00 0.  1.
     999902    2    1    2    0    0  0.22081273209E-01 -0.75511585700E-02 -0.36736024789E-02  0.10203059026E+01  0.10200323705E+01 0.  0.
     999903    2    3    3    0    0 -0.18108926254E-01  0.67673112941E-01 -0.10782477932E+00  0.13006918645E+00  0.19601704100E-01 0.  0.
         14    1    1    2    0    0 -0.22081273209E-01  0.75511585700E-02  0.36736024789E-02  0.23624097390E-01  0.00000000000E+00 0. -1.
     999901    1    3    3    0    0  0.40190199463E-01 -0.75224271511E-01  0.10415117684E+00  0.89023671616E+00  0.88000000000E+00 0. -1.
        -11    1    4    4    0    0 -0.13909056552E-01  0.28421671861E-01 -0.61803430009E-01  0.69434705785E-01  0.51100000000E-03 0.  1.
         11    1    4    4    0    0 -0.41998697020E-02  0.39251441080E-01 -0.46021349313E-01  0.60634480668E-01  0.51100000000E-03 0. -1.
</event>
<event>
 8    1  0.1116619E+005  0.1043930E+01  0.7957747E-01            NaN
         13   -1    0    0    0    0  0.00000000000E+00  0.00000000000E+00  0.74505805969E-08  0.10566000000E+00  0.10566000000E+00 0. -1.
     999900   -1    0    0    0    0 -0.00000000000E+00 -0.00000000000E+00 -0.74505805969E-08  0.93827000000E+00  0.93827000000E+00 0.  1.
     999902    2    1    2    0    0  0.16018490179E-01 -0.12887172585E-01 -0.11557028903E-01  0.10203453405E+01  0.10200727316E+01 0.  0.
     999903    2    3    3    0    0  0.11528928019E+00 -0.57958684611E-01 -0.27525660810E-01  0.13347380071E+00  0.20168446300E-01 0.  0.
         14    1    1    2    0    0 -0.16018490179E-01  0.12887172585E-01  0.11557028903E-01  0.23584659462E-01  0.00000000000E+00 0. -1.
     999901    1    3    3    0    0 -0.99270790008E-01  0.45071512026E-01  0.15968631907E-01  0.88687153982E+00  0.88000000000E+00 0. -1.
        -11    1    4    4    0    0  0.79097470618E-01 -0.45514349264E-01 -0.11505843726E-01  0.91981581896E-01  0.51100000000E-03 0. -1.
         11    1    4    4    0    0  0.36191809569E-01 -0.12444335347E-01 -0.16019817084E-01  0.41492218819E-01  0.51100000000E-03 0.  1.
</event>
<event>
 8    1  0.1116619E+005  0.1043930E+01  0.7957747E-01            NaN
         13   -1    0    0    0    0  0.00000000000E+00  0.00000000000E+00  0.74505805969E-08  0.10566000000E+00  0.10566000000E+00 0. -1.
     999900   -1    0    0    0    0 -0.00000000000E+00 -0.00000000000E+00 -0.74505805969E-08  0.93827000000E+00  0.93827000000E+00 0.  1.
     999902    2    1    2    0    0 -0.20736954840E-01 -0.12784739110E-01 -0.11353055281E-02  0.10195423029E+01  0.10192505814E+01 0.  0.
     999903    2    3    3    0    0  0.67897750105E-01 -0.55987122062E-01  0.91602296358E-01  0.12919247301E+00  0.23559543272E-01 0.  0.
         14    1    1    2    0    0  0.20736954840E-01  0.12784739110E-01  0.11353055281E-02  0.24387697079E-01  0.00000000000E+00 0. -1.
     999901    1    3    3    0    0 -0.88634704945E-01  0.43202382952E-01 -0.92737601886E-01  0.89034982991E+00  0.88000000000E+00 0.  1.
        -11    1    4    4    0    0  0.20317416523E-01 -0.15395244190E-01  0.42971422588E-01  0.49966140916E-01  0.51100000000E-03 0. -1.
         11    1    4    4    0    0  0.47580333582E-01 -0.40591877871E-01  0.48630873771E-01  0.79226332097E-01  0.51100000000E-03 0.  1.
</event>
<event>
 8    1  0.1116619E+005  0.1043930E+01  0.7957747E-01            NaN
         13   -1    0    0    0    0  0.00000000000E+00  0.00000000000E+00  0.74505805969E-08  0.10566000000E+00  0.10566000000E+00 0.  1.
     999900   -1    0    0    0    0 -0.00000000000E+00 -0.00000000000E+00 -0.74505805969E-08  0.93827000000E+00  0.93827000000E+00 0. -1.
     999902    2    1    2    0    0  0.85631141288E-02 -0.17437921587E-01 -0.20239087837E-01  0.10158759680E+01  0.10154885296E+01 0.  0.
     999903    2    3    3    0    0 -0.53402855866E-01  0.10687048653E+00 -0.29947351728E-01  0.12492893698E+00  0.20910033819E-01 0.  0.
         14    1    1    2    0    0 -0.85631141288E-02  0.17437921587E-01  0.20239087837E-01  0.28054031962E-01  0.00000000000E+00 0.  1.
     999901    1    3    3    0    0  0.61965969995E-01 -0.12430840811E+00  0.97082638908E-02  0.89094703106E+00  0.88000000000E+00 0.  1.
        -11    1    4    4    0    0 -0.40500166823E-01  0.62208436497E-01 -0.24234715965E-01  0.78087999481E-01  0.51100000000E-03 0.  1.
         11    1    4    4    0    0 -0.12902689044E-01  0.44662050029E-01 -0.57126357625E-02  0.46840937498E-01  0.51100000000E-03 0. -1.
</event>
<event>
 8    1  0.1116619E+005  0.1043930E+01  0.7957747E-01            NaN
         13   -1    0    0    0    0  0.00000000000E+00  0.00000000000E+00  0.74505805969E-08  0.10566000000E+00  0.10566000000E+00 0. -1.
     999900   -1    0    0    0    0 -0.00000000000E+00 -0.00000000000E+00 -0.74505805969E-08  0.93827000000E+00  0.93827000000E+00 0.  1.
     999902    2    1    2    0    0 -0.13792039456E-01  0.18353769349E-01 -0.36780443064E-02  0.10206789955E+01  0.10204141329E+01 0.  0.
     999903    2    3    3    0    0 -0.23042237107E-01 -0.35203664571E-01  0.12169884603E+00  0.13013234902E+00  0.18803628506E-01 0.  0.
         14    1    1    2    0    0  0.13792039456E-01 -0.18353769349E-01  0.36780443064E-02  0.23251004528E-01  0.00000000000E+00 0. -1.
     999901    1    3    3    0    0  0.92501976510E-02  0.53557433920E-01 -0.12537689034E+00  0.89054664646E+00  0.88000000000E+00 0.  1.
        -11    1    4    4    0    0 -0.14340561172E-01 -0.29138486914E-01  0.10812560533E+00  0.11289867477E+00  0.51100000000E-03 0.  1.
         11    1    4    4    0    0 -0.87016759347E-02 -0.60651776571E-02  0.13573240696E-01  0.17233674248E-01  0.51100000000E-03 0. -1.
</event>
<event>
 8    1  0.1116619E+005  0.1043930E+01  0.7957747E-01            NaN
         13   -1    0    0    0    0  0.00000000000E+00  0.00000000000E+00  0.74505805969E-08  0.10566000000E+00  0.10566000000E+00 0.  1.
     999900   -1    0    0    0    0 -0.00000000000E+00 -0.00000000000E+00 -0.74505805969E-08  0.93827000000E+00  0.93827000000E+00 0. -1.
     999902    2    1    2    0    0  0.17700404668E-01 -0.13004270023E-01 -0.69393169721E-02  0.10208959060E+01  0.10206360181E+01 0.  0.
     999903    2    3    3    0    0 -0.11492093198E+00  0.42989751719E-01  0.31885084765E-01  0.12835398346E+00  0.20078522838E-01 0.  0.
         14    1    1    2    0    0 -0.17700404668E-01  0.13004270023E-01  0.69393169721E-02  0.23034093954E-01  0.00000000000E+00 0.  1.
     999901    1    3    3    0    0  0.13262133665E+00 -0.55994021741E-01 -0.38824401737E-01  0.89254192259E+00  0.88000000000E+00 0.  1.
        -11    1    4    4    0    0 -0.97249952108E-01  0.43697965734E-01  0.26531983655E-01  0.10986934364E+00  0.51100000000E-03 0.  1.
         11    1    4    4    0    0 -0.17670979872E-01 -0.70821401551E-03  0.53531011100E-02  0.18484639819E-01  0.51100000000E-03 0. -1.
</event>
<event>
 8    1  0.1116619E+005  0.1043930E+01  0.7957747E-01            NaN
         13   -1    0    0    0    0  0.00000000000E+00  0.00000000000E+00  0.74505805969E-08  0.10566000000E+00  0.10566000000E+00 0. -1.
     999900   -1    0    0    0    0 -0.00000000000E+00 -0.00000000000E+00 -0.74505805969E-08  0.93827000000E+00  0.93827000000E+00 0.  1.
     999902    2    1    2    0    0  0.17277853444E-01  0.82954930393E-02 -0.16378410543E-01  0.10187190548E+01  0.10184070507E+01 0.  0.
     999903    2    3    3    0    0 -0.11775233933E+00  0.25091738709E-01 -0.38534115031E-01  0.12798556940E+00  0.20005478811E-01 0.  0.
         14    1    1    2    0    0 -0.17277853444E-01 -0.82954930393E-02  0.16378410543E-01  0.25210945169E-01  0.00000000000E+00 0. -1.
     999901    1    3    3    0    0  0.13503019278E+00 -0.16796245670E-01  0.22155704488E-01  0.89073348543E+00  0.88000000000E+00 0.  1.
        -11    1    4    4    0    0 -0.22021826789E-01  0.11096323288E-01 -0.13197013275E-01  0.27973407479E-01  0.51100000000E-03 0.  1.
         11    1    4    4    0    0 -0.95730512546E-01  0.13995415422E-01 -0.25337101757E-01  0.10001216192E+00  0.51100000000E-03 0. -1.
</event>
<event>
 8    1  0.1116619E+005  0.1043930E+01  0.7957747E-01            NaN
         13   -1    0    0    0    0  0.00000000000E+00  0.00000000000E+00  0.74505805969E-08  0.10566000000E+00  0.10566000000E+00 0.  1.
     999900   -1    0    0    0    0 -0.00000000000E+00 -0.00000000000E+00 -0.74505805969E-08  0.93827000000E+00  0.93827000000E+00 0. -1.
     999902    2    1    2    0    0  0.77977561645E-02  0.16635408241E-01  0.13820733042E-01  0.10209396875E+01  0.10206807978E+01 0.  0.
     999903    2    3    3    0    0  0.51567335095E-01  0.64154478135E-01  0.10399669783E+00  0.13397545895E+00  0.18950549546E-01 0.  0.
         14    1    1    2    0    0 -0.77977561645E-02 -0.16635408241E-01 -0.13820733042E-01  0.22990312533E-01  0.00000000000E+00 0. -1.
     999901    1    3    3    0    0 -0.43769578931E-01 -0.47519069893E-01 -0.90175964787E-01  0.88696422852E+00  0.88000000000E+00 0. -1.
        -11    1    4    4    0    0  0.34491864832E-01  0.33063913859E-01  0.70628165881E-01  0.85273149795E-01  0.51100000000E-03 0. -1.
         11    1    4    4    0    0  0.17075470263E-01  0.31090564276E-01  0.33368531948E-01  0.48702309155E-01  0.51100000000E-03 0.  1.
</event>
<event>
 8    1  0.1116619E+005  0.1043930E+01  0.7957747E-01            NaN
         13   -1    0    0    0    0  0.00000000000E+00  0.00000000000E+00  0.74505805969E-08  0.10566000000E+00  0.10566000000E+00 0.  1.
     999900   -1    0    0    0    0 -0.00000000000E+00 -0.00000000000E+00 -0.74505805969E-08  0.93827000000E+00  0.93827000000E+00 0.  1.
     999902    2    1    2    0    0  0.13139030075E-01  0.20225487955E-01  0.51019459046E-03  0.10198060540E+01  0.10195206829E+01 0.  0.
     999903    2    3    3    0    0 -0.83881440207E-01 -0.86612551081E-01  0.34805859035E-01  0.12739161501E+00  0.21893965728E-01 0.  0.
         14    1    1    2    0    0 -0.13139030075E-01 -0.20225487955E-01 -0.51019459046E-03  0.24123946046E-01  0.00000000000E+00 0. -1.
     999901    1    3    3    0    0  0.97020470282E-01  0.10683803904E+00 -0.34295664445E-01  0.89241443895E+00  0.88000000000E+00 0.  1.
        -11    1    4    4    0    0 -0.43323814843E-01 -0.35200467703E-01  0.70521017554E-02  0.56267389483E-01  0.51100000000E-03 0.  1.
         11    1    4    4    0    0 -0.40557625363E-01 -0.51412083378E-01  0.27753757280E-01  0.71124225525E-01  0.51100000000E-03 0. -1.
</event>
<event>
 8    1  0.1116619E+005  0.1043930E+01  0.7957747E-01            NaN
         13   -1    0    0    0    0  0.00000000000E+00  0.00000000000E+00  0.74505805969E-08  0.10566000000E+00  0.10566000000E+00 0.  1.
     999900   -1    0    0    0    0 -0.00000000000E+00 -0.00000000000E+00 -0.74505805969E-08  0.93827000000E+00  0.93827000000E+00 0.  1.
     999902    2    1    2    0    0 -0.85922102762E-02 -0.21942019810E-01  0.39497824941E-02  0.10200369238E+01  0.10197570528E+01 0.  0.
     999903    2    3    3    0    0 -0.31727517731E-01 -0.11772822977E+00  0.49911189558E-01  0.13334493021E+00  0.20571147353E-01 0.  0.
         14    1    1    2    0    0  0.85922102762E-02  0.21942019810E-01 -0.39497824941E-02  0.23893076247E-01  0.00000000000E+00 0. -1.
     999901    1    3    3    0    0  0.23135307455E-01  0.95786209962E-01 -0.45961407064E-01  0.88669199354E+00  0.88000000000E+00 0. -1.
        -11    1    4    4    0    0 -0.30009940597E-01 -0.80219178695E-01  0.39860475462E-01  0.94471327874E-01  0.51100000000E-03 0.  1.
         11    1    4    4    0    0 -0.17175771343E-02 -0.37509051077E-01  0.10050714097E-01  0.38873602339E-01  0.51100000000E-03 0. -1.
</event>
<event>
 8    1  0.1116619E+005  0.1043930E+01  0.7957747E-01            NaN
         13   -1    0    0    0    0  0.00000000000E+00  0.00000000000E+00  0.74505805969E-08  0.10566000000E+00  0.10566000000E+00 0.  1.
     999900   -1    0    0    0    0 -0.00000000000E+00 -0.00000000000E+00 -0.74505805969E-08  0.93827000000E+00  0.93827000000E+00 0. -1.
     999902    2    1    2    0    0  0.22864119371E-01 -0.42954659511E-02 -0.23944531952E-02  0.10205429868E+01  0.10202749803E+01 0.  0.
     999903    2    3    3    0    0  0.18294870841E-01  0.30166108080E-01  0.12434886186E+00  0.13078327423E+00  0.19923077033E-01 0.  0.
         14    1    1    2    0    0 -0.22864119371E-01  0.42954659511E-02  0.23944531952E-02  0.23387013244E-01  0.00000000000E+00 0.  1.
     999901    1    3    3    0    0  0.45692485301E-02 -0.34461574031E-01 -0.12674331505E+00  0.88975971252E+00  0.88000000000E+00 0. -1.
        -11    1    4    4    0    0  0.10613261530E-01  0.28092965585E-01  0.11293370015E+00  0.11685947880E+00  0.51100000000E-03 0.  1.
         11    1    4    4    0    0  0.76816093107E-02  0.20731424948E-02  0.11415161710E-01  0.13923795434E-01  0.51100000000E-03 0. -1.
</event>
<event>
 8    1  0.1116619E+005  0.1043930E+01  0.7957747E-01            NaN
         13   -1    0    0    0    0  0.00000000000E+00  0.00000000000E+00  0.74505805969E-08  0.10566000000E+00  0.10566000000E+00 0.  1.
     999900   -1    0    0    0    0 -0.00000000000E+00 -0.00000000000E+00 -0.74505805969E-08  0.93827000000E+00  0.93827000000E+00 0. -1.
     999902    2    1    2    0    0  0.23402756365E-01  0.11721003824E-03 -0.86162863737E-02  0.10189912122E+01  0.10186859906E+01 0.  0.
     999903    2    3    3    0    0  0.82394638863E-01 -0.48377015164E-01  0.85819290981E-01  0.13065016831E+00  0.23985488630E-01 0.  0.
         14    1    1    2    0    0 -0.23402756365E-01 -0.11721003824E-03  0.86162863737E-02  0.24938787752E-01  0.00000000000E+00 0. -1.
     999901    1    3    3    0    0 -0.58991882499E-01  0.48494225202E-01 -0.94435577355E-01  0.88834104394E+00  0.88000000000E+00 0. -1.
        -11    1    4    4    0    0  0.44643129833E-01 -0.39188035011E-01  0.56379086371E-01  0.81899777963E-01  0.51100000000E-03 0.  1.
         11    1    4    4    0    0  0.37751509031E-01 -0.91889801527E-02  0.29440204610E-01  0.48750390345E-01  0.51100000000E-03 0. -1.
</event>
<event>
 8    1  0.1116619E+005  0.1043930E+01  0.7957747E-01            NaN
         13   -1    0    0    0    0  0.00000000000E+00  0.00000000000E+00  0.74505805969E-08  0.10566000000E+00  0.10566000000E+00 0. -1.
     999900   -1    0    0    0    0 -0.00000000000E+00 -0.00000000000E+00 -0.74505805969E-08  0.93827000000E+00  0.93827000000E+00 0. -1.
     999902    2    1    2    0    0 -0.14291838835E-01  0.16579054413E-01  0.89047223506E-02  0.10202991773E+01  0.10200254876E+01 0.  0.
     999903    2    3    3    0    0 -0.11650565061E+00 -0.55717493261E-03 -0.57841823293E-01  0.13170679883E+00  0.20667057581E-01 0.  0.
         14    1    1    2    0    0  0.14291838835E-01 -0.16579054413E-01 -0.89047223506E-02  0.23630822725E-01  0.00000000000E+00 0.  1.
     999901    1    3    3    0    0  0.10221381177E+00  0.17136229346E-01  0.66746545643E-01  0.88859237844E+00  0.88000000000E+00 0. -1.
        -11    1    4    4    0    0 -0.87858120010E-01  0.84592584393E-02 -0.44272113491E-01  0.98746592139E-01  0.51100000000E-03 0. -1.
         11    1    4    4    0    0 -0.28647530598E-01 -0.90164333719E-02 -0.13569709801E-01  0.32960206692E-01  0.51100000000E-03 0.  1.
</event>
<event>
 8    1  0.1116619E+005  0.1043930E+01  0.7957747E-01            NaN
         13   -1    0    0    0    0  0.00000000000E+00  0.00000000000E+00  0.74505805969E-08  0.10566000000E+00  0.10566000000E+00 0. -1.
     999900   -1    0    0    0    0 -0.00000000000E+00 -0.00000000000E+00 -0.74505805969E-08  0.93827000000E+00  0.93827000000E+00 0.  1.
     999902    2    1    2    0    0 -0.13640844635E-01 -0.18035826633E-01 -0.76519883035E-02  0.10200570737E+01  0.10197776802E+01 0.  0.
     999903    2    3    3    0    0 -0.81667942805E-01 -0.33791153185E-01 -0.97049362588E-01  0.13277594186E+00  0.19984420019E-01 0.  0.
         14    1    1    2    0    0  0.13640844635E-01  0.18035826633E-01  0.76519883035E-02  0.23872926291E-01  0.00000000000E+00 0. -1.
     999901    1    3    3    0    0  0.68027098170E-01  0.15755326552E-01  0.89397374285E-01  0.88728113185E+00  0.88000000000E+00 0. -1.
        -11    1    4    4    0    0 -0.40097694321E-01 -0.22315731249E-01 -0.37588044305E-01  0.59320646884E-01  0.51100000000E-03 0.  1.
         11    1    4    4    0    0 -0.41570248484E-01 -0.11475421936E-01 -0.59461318283E-01  0.73455294979E-01  0.51100000000E-03 0. -1.
</event>
<event>
 8    1  0.1116619E+005  0.1043930E+01  0.7957747E-01            NaN
         13   -1    0    0    0    0  0.00000000000E+00  0.00000000000E+00  0.74505805969E-08  0.10566000000E+00  0.10566000000E+00 0. -1.
     999900   -1    0    0    0    0 -0.00000000000E+00 -0.00000000000E+00 -0.74505805969E-08  0.93827000000E+00  0.93827000000E+00 0.  1.
     999902    2    1    2    0    0 -0.46335407346E-02  0.22607547111E-01  0.12530815778E-02  0.10208185072E+01  0.10205568497E+01 0.  0.
     999903    2    3    3    0    0  0.41616547090E-02  0.79898429736E-01 -0.10363366500E+00  0.13269642646E+00  0.21617738746E-01 0.  0.
         14    1    1    2    0    0  0.46335407346E-02 -0.22607547111E-01 -0.12530815778E-02  0.23111492802E-01  0.00000000000E+00 0.  1.
     999901    1    3    3    0    0 -0.87951954436E-02 -0.57290882625E-01  0.10488674658E+00  0.88812208074E+00  0.88000000000E+00 0. -1.
        -11    1    4    4    0    0 -0.44778043143E-02  0.64971814434E-01 -0.75667729180E-01  0.99836134554E-01  0.51100000000E-03 0.  1.
         11    1    4    4    0    0  0.86394590233E-02  0.14926615302E-01 -0.27965935820E-01  0.32860291902E-01  0.51100000000E-03 0. -1.
</event>
<event>
 8    1  0.1116619E+005  0.1043930E+01  0.7957747E-01            NaN
         13   -1    0    0    0    0  0.00000000000E+00  0.00000000000E+00  0.74505805969E-08  0.10566000000E+00  0.10566000000E+00 0. -1.
     999900   -1    0    0    0    0 -0.00000000000E+00 -0.00000000000E+00 -0.74505805969E-08  0.93827000000E+00  0.93827000000E+00 0.  1.
     999902    2    1    2    0    0  0.15058781957E-01 -0.16228955720E-01  0.74328169978E-02  0.10205763560E+01  0.10203091227E+01 0.  0.
     999903    2    3    3    0    0 -0.83294864838E-01 -0.95222639782E-01  0.29012153272E-01  0.13131873886E+00  0.19937916201E-01 0.  0.
         14    1    1    2    0    0 -0.15058781957E-01  0.16228955720E-01 -0.74328169978E-02  0.23353643962E-01  0.00000000000E+00 0.  1.
     999901    1    3    3    0    0  0.98353646794E-01  0.78993684062E-01 -0.21579336274E-01  0.88925761718E+00  0.88000000000E+00 0. -1.
        -11    1    4    4    0    0 -0.73215218832E-01 -0.80052414028E-01  0.17831925457E-01  0.10994132957E+00  0.51100000000E-03 0.  1.
         11    1    4    4    0    0 -0.10079646005E-01 -0.15170225753E-01  0.11180227815E-01  0.21377409291E-01  0.51100000000E-03 0. -1.
</event>
<event>
 8    1  0.1116619E+005  0.1043930E+01  0.7957747E-01            NaN
         13   -1    0    0    0    0  0.00000000000E+00  0.00000000000E+00  0.74505805969E-08  0.10566000000E+00  0.10566000000E+00 0.  1.
     999900   -1    0    0    0    0 -0.00000000000E+00 -0.00000000000E+00 -0.74505805969E-08  0.93827000000E+00  0.93827000000E+00 0. -1.
     999902    2    1    2    0    0 -0.14336271013E-01  0.15537455284E-01  0.10857824489E-01  0.10201637732E+01  0.10198869009E+01 0.  0.
     999903    2    3    3    0    0 -0.42958163118E-01  0.13286796122E-01 -0.12031903207E+00  0.12997747480E+00  0.19887979974E-01 0.  0.
         14    1    1    2    0    0  0.14336271013E-01 -0.15537455284E-01 -0.10857824489E-01  0.23766226791E-01  0.00000000000E+00 0. -1.
     999901    1    3    3    0    0  0.28621892105E-01  0.22506591620E-02  0.13117685656E+00  0.89018629841E+00  0.88000000000E+00 0.  1.
        -11    1    4    4    0    0 -0.75732043163E-02  0.16069875309E-02 -0.47983261221E-01  0.48606484248E-01  0.51100000000E-03 0. -1.
         11    1    4    4    0    0 -0.35384958801E-01  0.11679808591E-01 -0.72335770851E-01  0.81370990554E-01  0.51100000000E-03 0.  1.
</event>
<event>
 8    1  0.1116619E+005  0.1043930E+01  0.7957747E-01            NaN
         13   -1    0    0    0    0  0.00000000000E+00  0.00000000000E+00  0.74505805969E-08  0.10566000000E+00  0.10566000000E+00 0. -1.
     999900   -1    0    0    0    0 -0.00000000000E+00 -0.00000000000E+00 -0.74505805969E-08  0.93827000000E+00  0.93827000000E+00 0. -1.
     999902    2    1    2    0    0 -0.21144840951E-01 -0.21306480616E-02  0.18788675964E-01  0.10155635003E+01  0.10151672596E+01 0.  0.
     999903    2    3    3    0    0  0.73396497181E-02 -0.12433622083E+00  0.11796029073E-01  0.12663467002E+00  0.19591505301E-01 0.  0.
         14    1    1    2    0    0  0.21144840951E-01  0.21306480616E-02 -0.18788675964E-01  0.28366499687E-01  0.00000000000E+00 0.  1.
     999901    1    3    3    0    0 -0.28484490669E-01  0.12220557277E+00  0.69926468906E-02  0.88892883030E+00  0.88000000000E+00 0.  1.
        -11    1    4    4    0    0  0.98813414383E-02 -0.12236746274E+00  0.12117849829E-01  0.12336344780E+00  0.51100000000E-03 0.  1.
         11    1    4    4    0    0 -0.25416917202E-02 -0.19687580845E-02 -0.32182075567E-03  0.32712222172E-02  0.51100000000E-03 0. -1.
</event>
<event>
 8    1  0.1116619E+005  0.1043930E+01  0.7957747E-01            NaN
         13   -1    0    0    0    0  0.00000000000E+00  0.00000000000E+00  0.74505805969E-08  0.10566000000E+00  0.10566000000E+00 0.  1.
     999900   -1    0    0    0    0 -0.00000000000E+00 -0.00000000000E+00 -0.74505805969E-08  0.93827000000E+00  0.93827000000E+00 0. -1.
     999902    2    1    2    0    0  0.13428426866E-02 -0.21329248837E-01 -0.10581613129E-01  0.10200823456E+01  0.10198035503E+01 0.  0.
     999903    2    3    3    0    0  0.23108946973E-01 -0.19136995010E-01  0.12442898689E+00  0.12951711423E+00  0.19795506834E-01 0.  0.
         14    1    1    2    0    0 -0.13428426866E-02  0.21329248837E-01  0.10581613129E-01  0.23847654368E-01  0.00000000000E+00 0.  1.
     999901    1    3    3    0    0 -0.21766104287E-01 -0.21922538266E-02 -0.13501060002E+00  0.89056523141E+00  0.88000000000E+00 0. -1.
        -11    1    4    4    0    0 -0.74043663528E-03 -0.98196776675E-02  0.25882173083E-01  0.27696973127E-01  0.51100000000E-03 0. -1.
         11    1    4    4    0    0  0.23849383609E-01 -0.93173173428E-02  0.98546813806E-01  0.10182014110E+00  0.51100000000E-03 0.  1.
</event>
<event>
 8    1  0.1116619E+005  0.1043930E+01  0.7957747E-01            NaN
         13   -1    0    0    0    0  0.00000000000E+00  0.00000000000E+00  0.74505805969E-08  0.10566000000E+00  0.10566000000E+00 0.  1.
     999900   -1    0    0    0    0 -0.00000000000E+00 -0.00000000000E+00 -0.74505805969E-08  0.93827000000E+00  0.93827000000E+00 0. -1.
     999902    2    1    2    0    0  0.86836473058E-02 -0.25433811673E-01  0.11960999504E-01  0.10145131678E+01  0.10140865928E+01 0.  0.
     999903    2    3    3    0    0  0.65170815024E-01 -0.21460088673E-01 -0.10288311930E+00  0.12524618753E+00  0.19846932206E-01 0.  0.
         14    1    1    2    0    0 -0.86836473058E-02  0.25433811673E-01 -0.11960999504E-01  0.29416832186E-01  0.00000000000E+00 0. -1.
     999901    1    3    3    0    0 -0.56487167718E-01 -0.39737229997E-02  0.11484411881E+00  0.88926698028E+00  0.88000000000E+00 0.  1.
        -11    1    4    4    0    0  0.20075587803E-01  0.92713635920E-03 -0.20621071717E-01  0.28798932744E-01  0.51100000000E-03 0.  1.
         11    1    4    4    0    0  0.45095227221E-01 -0.22387225032E-01 -0.82262047584E-01  0.96447254790E-01  0.51100000000E-03 0. -1.
</event>
<event>
 8    1  0.1116619E+005  0.1043930E+01  0.7957747E-01            NaN
         13   -1    0    0    0    0  0.00000000000E+00  0.00000000000E+00  0.74505805969E-08  0.10566000000E+00  0.10566000000E+00 0. -1.
     999900   -1    0    0    0    0 -0.00000000000E+00 -0.00000000000E+00 -0.74505805969E-08  0.93827000000E+00  0.93827000000E+00 0. -1.
     999902    2    1    2    0    0 -0.20682870702E-01  0.87145077186E-02 -0.85164997790E-02  0.10199246974E+01  0.10196421597E+01 0.  0.
     999903    2    3    3    0    0 -0.71082746178E-01  0.10376919684E+00 -0.38004145229E-01  0.13288182209E+00  0.19810617595E-01 0.  0.
         14    1    1    2    0    0  0.20682870702E-01 -0.87145077186E-02  0.85164997790E-02  0.24005302617E-01  0.00000000000E+00 0. -1.
     999901    1    3    3    0    0  0.50399875476E-01 -0.95054689125E-01  0.29487645450E-01  0.88704287529E+00  0.88000000000E+00 0.  1.
        -11    1    4    4    0    0 -0.45288332423E-01  0.69361408261E-01 -0.15262830237E-01  0.84233325457E-01  0.51100000000E-03 0. -1.
         11    1    4    4    0    0 -0.25794413755E-01  0.34407788583E-01 -0.22741314992E-01  0.48648496634E-01  0.51100000000E-03 0.  1.
</event>
<event>
 8    1  0.1116619E+005  0.1043930E+01  0.7957747E-01            NaN
         13   -1    0    0    0    0  0.00000000000E+00  0.00000000000E+00  0.74505805969E-08  0.10566000000E+00  0.10566000000E+00 0.  1.
     999900   -1    0    0    0    0 -0.00000000000E+00 -0.00000000000E+00 -0.74505805969E-08  0.93827000000E+00  0.93827000000E+00 0.  1.
     999902    2    1    2    0    0 -0.12840208221E-01 -0.19751237693E-01  0.78739077374E-03  0.10203587819E+01  0.10200864873E+01 0.  0.
     999903    2    3    3    0    0 -0.92510842807E-02 -0.60362840564E-01  0.11534887391E+00  0.13199707770E+00  0.19713212036E-01 0.  0.
         14    1    1    2    0    0  0.12840208221E-01  0.19751237693E-01 -0.78739077374E-03  0.23571218081E-01  0.00000000000E+00 0. -1.
     999901    1    3    3    0    0 -0.35891239404E-02  0.40611602871E-01 -0.11456148314E+00  0.88836170422E+00  0.88000000000E+00 0.  1.
        -11    1    4    4    0    0 -0.13619668013E-01 -0.24953371262E-01  0.53907885637E-01  0.60946594236E-01  0.51100000000E-03 0. -1.
         11    1    4    4    0    0  0.43685837321E-02 -0.35409469303E-01  0.61440988273E-01  0.71050483468E-01  0.51100000000E-03 0.  1.
</event>
<event>
 8    1  0.1116619E+005  0.1043930E+01  0.7957747E-01            NaN
         13   -1    0    0    0    0  0.00000000000E+00  0.00000000000E+00  0.74505805969E-08  0.10566000000E+00  0.10566000000E+00 0.  1.
     999900   -1    0    0    0    0 -0.00000000000E+00 -0.00000000000E+00 -0.74505805969E-08  0.93827000000E+00  0.93827000000E+00 0. -1.
     999902    2    1    2    0    0 -0.16862927216E-01  0.72963950087E-02  0.15665207370E-01  0.10197847227E+01  0.10194988407E+01 0.  0.
     999903    2    3    3    0    0  0.10264580067E+00  0.38251410513E-01 -0.63791930572E-01  0.12762218941E+00  0.14787901197E-01 0.  0.
         14    1    1    2    0    0  0.16862927216E-01 -0.72963950087E-02 -0.15665207370E-01  0.24145277309E-01  0.00000000000E+00 0. -1.
     999901    1    3    3    0    0 -0.11950872788E+00 -0.30955015504E-01  0.79457137942E-01  0.89216253328E+00  0.88000000000E+00 0. -1.
        -11    1    4    4    0    0  0.46329597468E-01  0.21581374676E-01 -0.22612873389E-01  0.55890880279E-01  0.51100000000E-03 0. -1.
         11    1    4    4    0    0  0.56316203200E-01  0.16670035836E-01 -0.41179057183E-01  0.71731309128E-01  0.51100000000E-03 0.  1.
</event>
<event>
 8    1  0.1116619E+005  0.1043930E+01  0.7957747E-01            NaN
         13   -1    0    0    0    0  0.00000000000E+00  0.00000000000E+00  0.74505805969E-08  0.10566000000E+00  0.10566000000E+00 0. -1.
     999900   -1    0    0    0    0 -0.00000000000E+00 -0.00000000000E+00 -0.74505805969E-08  0.93827000000E+00  0.93827000000E+00 0. -1.
     999902    2    1    2    0    0  0.18081761747E-01 -0.13071513986E-02  0.11398057634E-01  0.10225156480E+01  0.10222913851E+01 0.  0.
     999903    2    3    3    0    0 -0.50639582631E-01 -0.10896475266E+00 -0.48982596330E-01  0.13124767168E+00  0.19722371273E-01 0.  0.
         14    1    1    2    0    0 -0.18081761747E-01  0.13071513986E-02 -0.11398057634E-01  0.21414351975E-01  0.00000000000E+00 0.  1.
     999901    1    3    3    0    0  0.68721344378E-01  0.10765760126E+00  0.60380653964E-01  0.89126797634E+00  0.88000000000E+00 0.  1.
        -11    1    4    4    0    0 -0.27909221464E-01 -0.70980969366E-01 -0.39818253307E-01  0.86040554811E-01  0.51100000000E-03 0.  1.
         11    1    4    4    0    0 -0.22730361166E-01 -0.37983783290E-01 -0.91643430226E-02  0.45207116871E-01  0.51100000000E-03 0. -1.
</event>
<event>
 8    1  0.1116619E+005  0.1043930E+01  0.7957747E-01            NaN
         13   -1    0    0    0    0  0.00000000000E+00  0.00000000000E+00  0.74505805969E-08  0.10566000000E+00  0.10566000000E+00 0.  1.
     999900   -1    0    0    0    0 -0.00000000000E+00 -0.00000000000E+00 -0.74505805969E-08  0.93827000000E+00  0.93827000000E+00 0.  1.
     999902    2    1    2    0    0 -0.27062835641E-02  0.22963758418E-01 -0.41974819065E-02  0.10204294250E+01  0.10201587790E+01 0.  0.
     999903    2    3    3    0    0  0.12423173105E+00  0.19924544331E-01  0.29329832216E-01  0.13068419338E+00  0.19687784941E-01 0.  0.
         14    1    1    2    0    0  0.27062835641E-02 -0.22963758418E-01  0.41974819065E-02  0.23500575009E-01  0.00000000000E+00 0.  1.
     999901    1    3    3    0    0 -0.12693801461E+00  0.30392140870E-02 -0.33527314123E-01  0.88974523161E+00  0.88000000000E+00 0. -1.
        -11    1    4    4    0    0  0.83101094607E-01  0.40513762150E-02  0.21055991844E-01  0.85824364184E-01  0.51100000000E-03 0.  1.
         11    1    4    4    0    0  0.41130636443E-01  0.15873168116E-01  0.82738403726E-02  0.44859829199E-01  0.51100000000E-03 0. -1.
</event>
<event>
 8    1  0.1116619E+005  0.1043930E+01  0.7957747E-01            NaN
         13   -1    0    0    0    0  0.00000000000E+00  0.00000000000E+00  0.74505805969E-08  0.10566000000E+00  0.10566000000E+00 0.  1.
     999900   -1    0    0    0    0 -0.00000000000E+00 -0.00000000000E+00 -0.74505805969E-08  0.93827000000E+00  0.93827000000E+00 0.  1.
     999902    2    1    2    0    0  0.22997544786E-01  0.98451324855E-03  0.60276471764E-02  0.10201352766E+01  0.10198577321E+01 0.  0.
     999903    2    3    3    0    0  0.13038763484E+00 -0.24781060372E-01  0.17794696198E-02  0.13322234779E+00  0.11401366909E-01 0.  0.
         14    1    1    2    0    0 -0.22997544786E-01 -0.98451324855E-03 -0.60276471764E-02  0.23794723428E-01  0.00000000000E+00 0. -1.
     999901    1    3    3    0    0 -0.10739009005E+00  0.25765573621E-01  0.42481775566E-02  0.88691292878E+00  0.88000000000E+00 0.  1.
        -11    1    4    4    0    0  0.66344400349E-01 -0.88099866933E-02 -0.33828464499E-02  0.67014178308E-01  0.51100000000E-03 0. -1.
         11    1    4    4    0    0  0.64043234488E-01 -0.15971073679E-01  0.51623160697E-02  0.66208169483E-01  0.51100000000E-03 0.  1.
</event>
<event>
 8    1  0.1116619E+005  0.1043930E+01  0.7957747E-01            NaN
         13   -1    0    0    0    0  0.00000000000E+00  0.00000000000E+00  0.74505805969E-08  0.10566000000E+00  0.10566000000E+00 0. -1.
     999900   -1    0    0    0    0 -0.00000000000E+00 -0.00000000000E+00 -0.74505805969E-08  0.93827000000E+00  0.93827000000E+00 0. -1.
     999902    2    1    2    0    0  0.11604322173E-01 -0.15654584765E-01  0.11977012517E-01  0.10210569778E+01  0.10208007527E+01 0.  0.
     999903    2    3    3    0    0  0.12747878584E+00  0.29004527885E-01  0.66511269879E-03  0.13226606492E+00  0.20044103334E-01 0.  0.
         14    1    1    2    0    0 -0.11604322173E-01  0.15654584765E-01 -0.11977012517E-01  0.22873022234E-01  0.00000000000E+00 0.  1.
     999901    1    3    3    0    0 -0.11587446367E+00 -0.44659112650E-01  0.11311899818E-01  0.88879091284E+00  0.88000000000E+00 0. -1.
        -11    1    4    4    0    0  0.72164417494E-01  0.20836214327E-01 -0.85362858097E-02  0.75597488557E-01  0.51100000000E-03 0. -1.
         11    1    4    4    0    0  0.55314368347E-01  0.81683135571E-02  0.92013985085E-02  0.56668576367E-01  0.51100000000E-03 0.  1.
</event>
<event>
 8    1  0.1116619E+005  0.1043930E+01  0.7957747E-01            NaN
         13   -1    0    0    0    0  0.00000000000E+00  0.00000000000E+00  0.74505805969E-08  0.10566000000E+00  0.10566000000E+00 0. -1.
     999900   -1    0    0    0    0 -0.00000000000E+00 -0.00000000000E+00 -0.74505805969E-08  0.93827000000E+00  0.93827000000E+00 0.  1.
     999902    2    1    2    0    0  0.20188988162E-01  0.80459263628E-02 -0.10005414408E-01  0.10200042713E+01  0.10197236258E+01 0.  0.
     999903    2    3    3    0    0 -0.30052059233E-01 -0.43543236798E-01 -0.11747549683E+00  0.13054633349E+00  0.21040748499E-01 0.  0.
         14    1    1    2    0    0 -0.20188988162E-01 -0.80459263628E-02  0.10005414408E-01  0.23925728652E-01  0.00000000000E+00 0. -1.
     999901    1    3    3    0    0  0.50241047396E-01  0.51589163161E-01  0.10747008242E+00  0.88945793786E+00  0.88000000000E+00 0. -1.
        -11    1    4    4    0    0 -0.29955490673E-01 -0.29100321455E-01 -0.77488541101E-01  0.88027809545E-01  0.51100000000E-03 0.  1.
         11    1    4    4    0    0 -0.96568560578E-04 -0.14442915343E-01 -0.39986955730E-01  0.42518523947E-01  0.51100000000E-03 0. -1.
</event>
<event>
 8    1  0.1116619E+005  0.1043930E+01  0.7957747E-01            NaN
         13   -1    0    0    0    0  0.00000000000E+00  0.00000000000E+00  0.74505805969E-08  0.10566000000E+00  0.10566000000E+00 0. -1.
     999900   -1    0    0    0    0 -0.00000000000E+00 -0.00000000000E+00 -0.74505805969E-08  0.93827000000E+00  0.93827000000E+00 0. -1.
     999902    2    1    2    0    0 -0.15687482159E-01 -0.75676070586E-02  0.17949860870E-01  0.10189187370E+01  0.10186117166E+01 0.  0.
     999903    2    3    3    0    0  0.11552482687E+00  0.12045483741E-01 -0.48038226973E-01  0.12653105714E+00  0.14538152218E-01 0.  0.
         14    1    1    2    0    0  0.15687482159E-01  0.75676070586E-02 -0.17949860870E-01  0.25011263030E-01  0.00000000000E+00 0. -1.
     999901    1    3    3    0    0 -0.13121230903E+00 -0.19613090800E-01  0.65988087844E-01  0.89238767983E+00  0.88000000000E+00 0. -1.
        -11    1    4    4    0    0  0.67681788766E-01  0.13145930716E-01 -0.32405951514E-01  0.76184295228E-01  0.51100000000E-03 0.  1.
         11    1    4    4    0    0  0.47843038101E-01 -0.11004469749E-02 -0.15632275459E-01  0.50346761915E-01  0.51100000000E-03 0. -1.
</event>
<event>
 8    1  0.1116619E+005  0.1043930E+01  0.7957747E-01            NaN
         13   -1    0    0    0    0  0.00000000000E+00  0.00000000000E+00  0.74505805969E-08  0.10566000000E+00  0.10566000000E+00 0. -1.
     999900   -1    0    0    0    0 -0.00000000000E+00 -0.00000000000E+00 -0.74505805969E-08  0.93827000000E+00  0.93827000000E+00 0. -1.
     999902    2    1    2    0    0  0.24887660861E-01 -0.59728005465E-03 -0.45713242171E-02  0.10186189468E+01  0.10183044287E+01 0.  0.
     999903    2    3    3    0    0 -0.27388294907E-01 -0.10402844594E+00 -0.67907535866E-01  0.12876375788E+00  0.19915713730E-01 0.  0.
         14    1    1    2    0    0 -0.24887660861E-01  0.59728005465E-03  0.45713242171E-02  0.25311053153E-01  0.00000000000E+00 0. -1.
     999901    1    3    3    0    0  0.52275955768E-01  0.10343116588E+00  0.63336211649E-01  0.88985518897E+00  0.88000000000E+00 0.  1.
        -11    1    4    4    0    0 -0.47225758534E-02 -0.54115961783E-01 -0.29388004801E-01  0.61763710944E-01  0.51100000000E-03 0. -1.
         11    1    4    4    0    0 -0.22665719054E-01 -0.49912484155E-01 -0.38519531065E-01  0.67000046935E-01  0.51100000000E-03 0.  1.
</event>
<event>
 8    1  0.1116619E+005  0.1043930E+01  0.7957747E-01            NaN
         13   -1    0    0    0    0  0.00000000000E+00  0.00000000000E+00  0.74505805969E-08  0.10566000000E+00  0.10566000000E+00 0. -1.
     999900   -1    0    0    0    0 -0.00000000000E+00 -0.00000000000E+00 -0.74505805969E-08  0.93827000000E+00  0.93827000000E+00 0. -1.
     999902    2    1    2    0    0 -0.21369725129E-01 -0.75273904070E-02  0.33958322905E-02  0.10210202109E+01  0.10207631521E+01 0.  0.
     999903    2    3    3    0    0 -0.10884640351E+00  0.10539019893E-01 -0.73427324078E-01  0.13316866827E+00  0.19588562744E-01 0.  0.
         14    1    1    2    0    0  0.21369725129E-01  0.75273904070E-02 -0.33958322905E-02  0.22909789073E-01  0.00000000000E+00 0. -1.
     999901    1    3    3    0    0  0.87476678381E-01 -0.18066410300E-01  0.76823156369E-01  0.88785154266E+00  0.88000000000E+00 0.  1.
        -11    1    4    4    0    0 -0.36706255778E-01 -0.49211634213E-02 -0.20160540562E-01  0.42169604924E-01  0.51100000000E-03 0. -1.
         11    1    4    4    0    0 -0.72140147732E-01  0.15460183314E-01 -0.53266783517E-01  0.90999063347E-01  0.51100000000E-03 0.  1.
</event>
<event>
 8    1  0.1116619E+005  0.1043930E+01  0.7957747E-01            NaN
         13   -1    0    0    0    0  0.00000000000E+00  0.00000000000E+00  0.74505805969E-08  0.10566000000E+00  0.10566000000E+00 0.  1.
     999900   -1    0    0    0    0 -0.00000000000E+00 -0.00000000000E+00 -0.74505805969E-08  0.93827000000E+00  0.93827000000E+00 0.  1.
     999902    2    1    2    0    0  0.21051282428E-01 -0.11009158517E-01 -0.49207563320E-04  0.10201737275E+01  0.10198970898E+01 0.  0.
     999903    2    3    3    0    0  0.59812702040E-01  0.97997532376E-01  0.58716055202E-01  0.13065798145E+00  0.21044174989E-01 0.  0.
         14    1    1    2    0    0 -0.21051282428E-01  0.11009158517E-01  0.49207563320E-04  0.23756272530E-01  0.00000000000E+00 0.  1.
     999901    1    3    3    0    0 -0.38761419612E-01 -0.10900669089E+00 -0.58765262765E-01  0.88951574602E+00  0.88000000000E+00 0.  1.
        -11    1    4    4    0    0  0.33622066536E-01  0.48957529745E-01  0.19096637732E-01  0.62387705284E-01  0.51100000000E-03 0.  1.
         11    1    4    4    0    0  0.26190635504E-01  0.49040002631E-01  0.39619417470E-01  0.68270276166E-01  0.51100000000E-03 0. -1.
</event>
<event>
 8    1  0.1116619E+005  0.1043930E+01  0.7957747E-01            NaN
         13   -1    0    0    0    0  0.00000000000E+00  0.00000000000E+00  0.74505805969E-08  0.10566000000E+00  0.10566000000E+00 0. -1.
     999900   -1    0    0    0    0 -0.00000000000E+00 -0.00000000000E+00 -0.74505805969E-08  0.93827000000E+00  0.93827000000E+00 0. -1.
     999902    2    1    2    0    0  0.93508041656E-02 -0.15184737928E-01  0.88095890758E-02  0.10240397344E+01  0.10238465486E+01 0.  0.
     999903    2    3    3    0    0 -0.96226448847E-01  0.40606449592E-01 -0.77628494289E-01  0.13177813871E+00  0.20757685553E-01 0.  0.
         14    1    1    2    0    0 -0.93508041656E-02  0.15184737928E-01 -0.88095890758E-02  0.19890265563E-01  0.00000000000E+00 0.  1.
     999901    1    3    3    0    0  0.10557725301E+00 -0.55791187519E-01  0.86438083365E-01  0.89226159573E+00  0.88000000000E+00 0. -1.
        -11    1    4    4    0    0 -0.48364603295E-01  0.14370207950E-01 -0.48142871984E-01  0.69739766076E-01  0.51100000000E-03 0.  1.
         11    1    4    4    0    0 -0.47861845552E-01  0.26236241641E-01 -0.29485622305E-01  0.62038372632E-01  0.51100000000E-03 0. -1.
</event>
<event>
 8    1  0.1116619E+005  0.1043930E+01  0.7957747E-01            NaN
         13   -1    0    0    0    0  0.00000000000E+00  0.00000000000E+00  0.74505805969E-08  0.10566000000E+00  0.10566000000E+00 0.  1.
     999900   -1    0    0    0    0 -0.00000000000E+00 -0.00000000000E+00 -0.74505805969E-08  0.93827000000E+00  0.93827000000E+00 0.  1.
     999902    2    1    2    0    0 -0.20436580483E-01 -0.25993410516E-02 -0.10070512840E-01  0.10209991120E+01  0.10207415741E+01 0.  0.
     999903    2    3    3    0    0 -0.12144752549E+00 -0.50937690390E-01  0.10064171141E-01  0.13367436168E+00  0.20576629482E-01 0.  0.
         14    1    1    2    0    0  0.20436580483E-01  0.25993410516E-02  0.10070512840E-01  0.22930888003E-01  0.00000000000E+00 0.  1.
     999901    1    3    3    0    0  0.10101094500E+00  0.48338349338E-01 -0.20134683981E-01  0.88732475032E+00  0.88000000000E+00 0.  1.
        -11    1    4    4    0    0 -0.51986657911E-01 -0.32839766854E-01  0.58215540197E-02  0.61767422644E-01  0.51100000000E-03 0.  1.
         11    1    4    4    0    0 -0.69460867574E-01 -0.18097923536E-01  0.42426171212E-02  0.71906939036E-01  0.51100000000E-03 0. -1.
</event>
<event>
 8    1  0.1116619E+005  0.1043930E+01  0.7957747E-01            NaN
         13   -1    0    0    0    0  0.00000000000E+00  0.00000000000E+00  0.74505805969E-08  0.10566000000E+00  0.10566000000E+00 0. -1.
     999900   -1    0    0    0    0 -0.00000000000E+00 -0.00000000000E+00 -0.74505805969E-08  0.93827000000E+00  0.93827000000E+00 0. -1.
     999902    2    1    2    0    0 -0.20825552466E-01 -0.10214214743E-01 -0.44851259191E-02  0.10203047979E+01  0.10200312400E+01 0.  0.
     999903    2    3    3    0    0 -0.59339972814E-01 -0.54102582331E-01  0.10268090144E+00  0.13188254089E+00  0.20032855056E-01 0.  0.
         14    1    1    2    0    0  0.20825552466E-01  0.10214214743E-01  0.44851259191E-02  0.23625202070E-01  0.00000000000E+00 0. -1.
     999901    1    3    3    0    0  0.38514420347E-01  0.43888367588E-01 -0.10716602736E+00  0.88842225704E+00  0.88000000000E+00 0. -1.
        -11    1    4    4    0    0 -0.43489524640E-01 -0.44024410376E-01  0.64835199835E-01  0.89628966975E-01  0.51100000000E-03 0. -1.
         11    1    4    4    0    0 -0.15850448174E-01 -0.10078171954E-01  0.37845701609E-01  0.42253573914E-01  0.51100000000E-03 0.  1.
</event>
<event>
 8    1  0.1116619E+005  0.1043930E+01  0.7957747E-01            NaN
         13   -1    0    0    0    0  0.00000000000E+00  0.00000000000E+00  0.74505805969E-08  0.10566000000E+00  0.10566000000E+00 0. -1.
     999900   -1    0    0    0    0 -0.00000000000E+00 -0.00000000000E+00 -0.74505805969E-08  0.93827000000E+00  0.93827000000E+00 0.  1.
     999902    2    1    2    0    0  0.10700418798E-01 -0.60421207894E-02 -0.19243433791E-01  0.10210976561E+01  0.10208423518E+01 0.  0.
     999903    2    3    3    0    0 -0.30987384222E-01 -0.62537960610E-01 -0.11197804797E+00  0.13344380375E+00  0.19923630059E-01 0.  0.
         14    1    1    2    0    0 -0.10700418798E-01  0.60421207894E-02  0.19243433791E-01  0.22832343948E-01  0.00000000000E+00 0. -1.
     999901    1    3    3    0    0  0.41687803020E-01  0.56495839821E-01  0.92734614178E-01  0.88765385230E+00  0.88000000000E+00 0. -1.
        -11    1    4    4    0    0 -0.27520856497E-01 -0.33611538969E-01 -0.66914360303E-01  0.79780485271E-01  0.51100000000E-03 0.  1.
         11    1    4    4    0    0 -0.34665277248E-02 -0.28926421641E-01 -0.45063687665E-01  0.53663318481E-01  0.51100000000E-03 0. -1.
</event>
<event>
 8    1  0.1116619E+005  0.1043930E+01  0.7957747E-01            NaN
         13   -1    0    0    0    0  0.00000000000E+00  0.00000000000E+00  0.74505805969E-08  0.10566000000E+00  0.10566000000E+00 0.  1.
     999900   -1    0    0    0    0 -0.00000000000E+00 -0.00000000000E+00 -0.74505805969E-08  0.93827000000E+00  0.93827000000E+00 0. -1.
     999902    2    1    2    0    0  0.44480725666E-02 -0.16903173340E-01  0.15618550858E-01  0.10204898262E+01  0.10202205857E+01 0.  0.
     999903    2    3    3    0    0 -0.20124188617E-01 -0.11879207462E+00 -0.49884192157E-01  0.13185280602E+00  0.19498458138E-01 0.  0.
         14    1    1    2    0    0 -0.44480725666E-02  0.16903173340E-01 -0.15618550858E-01  0.23440173835E-01  0.00000000000E+00 0.  1.
     999901    1    3    3    0    0  0.24572261184E-01  0.10188890128E+00  0.65502743015E-01  0.88863702014E+00  0.88000000000E+00 0.  1.
        -11    1    4    4    0    0  0.21879240757E-02 -0.23732492700E-01 -0.48646506509E-02  0.24329902763E-01  0.51100000000E-03 0.  1.
         11    1    4    4    0    0 -0.22312112693E-01 -0.95059581917E-01 -0.45019541506E-01  0.10752290326E+00  0.51100000000E-03 0. -1.
</event>
<event>
 8    1  0.1116619E+005  0.1043930E+01  0.7957747E-01            NaN
         13   -1    0    0    0    0  0.00000000000E+00  0.00000000000E+00  0.74505805969E-08  0.10566000000E+00  0.10566000000E+00 0. -1.
     999900   -1    0    0    0    0 -0.00000000000E+00 -0.00000000000E+00 -0.74505805969E-08  0.93827000000E+00  0.93827000000E+00 0. -1.
     999902    2    1    2    0    0  0.11728804272E-01 -0.17566596496E-01  0.11128588953E-01  0.10200554182E+01  0.10197759855E+01 0.  0.
     999903    2    3    3    0    0 -0.11045815282E-01  0.12205657954E+00 -0.30172645524E-01  0.12780035014E+00  0.20067942439E-01 0.  0.
         14    1    1    2    0    0 -0.11728804272E-01  0.17566596496E-01 -0.11128588953E-01  0.23874581759E-01  0.00000000000E+00 0.  1.
     999901    1    3    3    0    0  0.22774619553E-01 -0.13962317604E+00  0.41301234476E-01  0.89225506810E+00  0.88000000000E+00 0.  1.
        -11    1    4    4    0    0 -0.21773301533E-02  0.96666049455E-01 -0.28695922675E-01  0.10086021507E+00  0.51100000000E-03 0. -1.
         11    1    4    4    0    0 -0.88684851283E-02  0.25390530085E-01 -0.14767228483E-02  0.26940135075E-01  0.51100000000E-03 0.  1.
</event>
<event>
 8    1  0.1116619E+005  0.1043930E+01  0.7957747E-01            NaN
         13   -1    0    0    0    0  0.00000000000E+00  0.00000000000E+00  0.74505805969E-08  0.10566000000E+00  0.10566000000E+00 0. -1.
     999900   -1    0    0    0    0 -0.00000000000E+00 -0.00000000000E+00 -0.74505805969E-08  0.93827000000E+00  0.93827000000E+00 0.  1.
     999902    2    1    2    0    0  0.15478265517E-01 -0.59732228070E-02 -0.15767802346E-01  0.10210415819E+01  0.10207850078E+01 0.  0.
     999903    2    3    3    0    0 -0.41343377792E-01  0.11520683598E+00  0.36749544666E-01  0.12937383122E+00  0.20128815867E-01 0.  0.
         14    1    1    2    0    0 -0.15478265517E-01  0.59732228070E-02  0.15767802346E-01  0.22888418140E-01  0.00000000000E+00 0. -1.
     999901    1    3    3    0    0  0.56821643309E-01 -0.12118005878E+00 -0.52517347013E-01  0.89166775064E+00  0.88000000000E+00 0. -1.
        -11    1    4    4    0    0 -0.38375054926E-01  0.92604277031E-01  0.23349119449E-01  0.10292540729E+00  0.51100000000E-03 0. -1.
         11    1    4    4    0    0 -0.29683228657E-02  0.22602558946E-01  0.13400425218E-01  0.26448423933E-01  0.51100000000E-03 0.  1.
</event>
<event>
 8    1  0.1116619E+005  0.1043930E+01  0.7957747E-01            NaN
         13   -1    0    0    0    0  0.00000000000E+00  0.00000000000E+00  0.74505805969E-08  0.10566000000E+00  0.10566000000E+00 0. -1.
     999900   -1    0    0    0    0 -0.00000000000E+00 -0.00000000000E+00 -0.74505805969E-08  0.93827000000E+00  0.93827000000E+00 0. -1.
     999902    2    1    2    0    0 -0.15249287714E-01 -0.10985775043E-01  0.14010341505E-01  0.10204882062E+01  0.10202189281E+01 0.  0.
     999903    2    3    3    0    0 -0.45094177778E-01  0.49658592728E-01 -0.10881981465E+00  0.12939017336E+00  0.20015099336E-01 0.  0.
         14    1    1    2    0    0  0.15249287714E-01  0.10985775043E-01 -0.14010341505E-01  0.23441793834E-01  0.00000000000E+00 0. -1.
     999901    1    3    3    0    0  0.29844890064E-01 -0.60644367771E-01  0.12283015615E+00  0.89109803280E+00  0.88000000000E+00 0.  1.
        -11    1    4    4    0    0 -0.18009689671E-01  0.18139140107E-01 -0.24628262142E-01  0.35499151300E-01  0.51100000000E-03 0. -1.
         11    1    4    4    0    0 -0.27084488107E-01  0.31519452622E-01 -0.84191552506E-01  0.93891022063E-01  0.51100000000E-03 0.  1.
</event>
<event>
 8    1  0.1116619E+005  0.1043930E+01  0.7957747E-01            NaN
         13   -1    0    0    0    0  0.00000000000E+00  0.00000000000E+00  0.74505805969E-08  0.10566000000E+00  0.10566000000E+00 0.  1.
     999900   -1    0    0    0    0 -0.00000000000E+00 -0.00000000000E+00 -0.74505805969E-08  0.93827000000E+00  0.93827000000E+00 0. -1.
     999902    2    1    2    0    0  0.14813655604E-01 -0.13494629495E-01 -0.10862093950E-01  0.10211367005E+01  0.10208822785E+01 0.  0.
     999903    2    3    3    0    0  0.78167725103E-01  0.99874826510E-01  0.22878998569E-01  0.13096546247E+00  0.23309430832E-01 0.  0.
         14    1    1    2    0    0 -0.14813655604E-01  0.13494629495E-01  0.10862093950E-01  0.22793299510E-01  0.00000000000E+00 0.  1.
     999901    1    3    3    0    0 -0.63354069499E-01 -0.11336945601E+00 -0.33741092518E-01  0.89017123802E+00  0.88000000000E+00 0. -1.
        -11    1    4    4    0    0  0.39756089405E-01  0.39339958796E-01  0.19344928656E-01  0.59183328636E-01  0.51100000000E-03 0.  1.
         11    1    4    4    0    0  0.38411635699E-01  0.60534867715E-01  0.35340699129E-02  0.71782133832E-01  0.51100000000E-03 0. -1.
</event>
<event>
 8    1  0.1116619E+005  0.1043930E+01  0.7957747E-01            NaN
         13   -1    0    0    0    0  0.00000000000E+00  0.00000000000E+00  0.74505805969E-08  0.10566000000E+00  0.10566000000E+00 0. -1.
     999900   -1    0    0    0    0 -0.00000000000E+00 -0.00000000000E+00 -0.74505805969E-08  0.93827000000E+00  0.93827000000E+00 0.  1.
     999902    2    1    2    0    0 -0.28138282254E-02 -0.14841059314E-01  0.17409495457E-01  0.10208808091E+01  0.10206205765E+01 0.  0.
     999903    2    3    3    0    0  0.11206086480E+00  0.61875599321E-02  0.66310037127E-01  0.13181969704E+00  0.19582854404E-01 0.  0.
         14    1    1    2    0    0  0.28138282254E-02  0.14841059314E-01 -0.17409495457E-01  0.23049190939E-01  0.00000000000E+00 0.  1.
     999901    1    3    3    0    0 -0.11487469303E+00 -0.21028619246E-01 -0.48900541670E-01  0.88906111202E+00  0.88000000000E+00 0.  1.
        -11    1    4    4    0    0  0.37886083863E-01  0.63480373105E-02  0.32414643750E-01  0.50265526741E-01  0.51100000000E-03 0. -1.
         11    1    4    4    0    0  0.74174780941E-01 -0.16047737841E-03  0.33895393377E-01  0.81554170303E-01  0.51100000000E-03 0.  1.
</event>
<event>
 8    1  0.1116619E+005  0.1043930E+01  0.7957747E-01            NaN
         13   -1    0    0    0    0  0.00000000000E+00  0.00000000000E+00  0.74505805969E-08  0.10566000000E+00  0.10566000000E+00 0. -1.
     999900   -1    0    0    0    0 -0.00000000000E+00 -0.00000000000E+00 -0.74505805969E-08  0.93827000000E+00  0.93827000000E+00 0.  1.
     999902    2    1    2    0    0  0.73105249057E-02 -0.39769507713E-02 -0.22364867149E-01  0.10200669073E+01  0.10197877466E+01 0.  0.
     999903    2    3    3    0    0  0.56576594148E-01 -0.11557877602E+00 -0.19344986781E-01  0.13164626779E+00  0.19928543325E-01 0.  0.
         14    1    1    2    0    0 -0.73105249057E-02  0.39769507713E-02  0.22364867149E-01  0.23863092725E-01  0.00000000000E+00 0. -1.
     999901    1    3    3    0    0 -0.49266069242E-01  0.11160182525E+00 -0.30198803683E-02  0.88842063948E+00  0.88000000000E+00 0.  1.
        -11    1    4    4    0    0  0.26618589538E-01 -0.51555973445E-01  0.11908539590E-02  0.58036600185E-01  0.51100000000E-03 0. -1.
         11    1    4    4    0    0  0.29958004610E-01 -0.64022802574E-01 -0.20535840740E-01  0.73609667610E-01  0.51100000000E-03 0.  1.
</event>
<event>
 8    1  0.1116619E+005  0.1043930E+01  0.7957747E-01            NaN
         13   -1    0    0    0    0  0.00000000000E+00  0.00000000000E+00  0.74505805969E-08  0.10566000000E+00  0.10566000000E+00 0.  1.
     999900   -1    0    0    0    0 -0.00000000000E+00 -0.00000000000E+00 -0.74505805969E-08  0.93827000000E+00  0.93827000000E+00 0.  1.
     999902    2    1    2    0    0  0.29098189702E-02  0.18572753470E-01  0.11190487522E-01  0.10220521292E+01  0.10218179455E+01 0.  0.
     999903    2    3    3    0    0 -0.11545782567E+00  0.37878734087E-01 -0.47418169410E-01  0.13198550541E+00  0.20158939582E-01 0.  0.
         14    1    1    2    0    0 -0.29098189702E-02 -0.18572753470E-01 -0.11190487522E-01  0.21877870758E-01  0.00000000000E+00 0. -1.
     999901    1    3    3    0    0  0.11836764464E+00 -0.19305980617E-01  0.58608656932E-01  0.89006662383E+00  0.88000000000E+00 0. -1.
        -11    1    4    4    0    0 -0.25410837479E-01  0.52939026346E-02 -0.21150151559E-02  0.26047465839E-01  0.51100000000E-03 0. -1.
         11    1    4    4    0    0 -0.90046988189E-01  0.32584831453E-01 -0.45303154254E-01  0.10593803958E+00  0.51100000000E-03 0.  1.
</event>
<event>
 7    1  0.1116619E+005  0.1043930E+01  0.7957747E-01            NaN
         13   -1    0    0    0    0  0.00000000000E+00  0.00000000000E+00  0.74505805969E-08  0.10566000000E+00  0.10566000000E+00 0.  1.
     999900   -1    0    0    0    0 -0.00000000000E+00 -0.00000000000E+00 -0.74505805969E-08  0.93827000000E+00  0.93827000000E+00 0.  1.
     999903    2    1    2    0    0  0.78886858424E-01 -0.92542299203E-02  0.84364866243E-02  0.84625262963E-01  0.27955028556E-01 0.  0.
         14    1    1    2    0    0  0.12377390080E-01 -0.36194728453E-01  0.59589012529E-01  0.70810370478E-01  0.00000000000E+00 0. -1.
     999901    1    1    2    0    0 -0.91264248504E-01  0.45448958374E-01 -0.68025499153E-01  0.88849436656E+00  0.88000000000E+00 0.  1.
        -11    1    3    3    0    0  0.25027578483E-01 -0.16026550216E-01  0.57385775781E-02  0.30272469179E-01  0.51100000000E-03 0. -1.
         11    1    3    3    0    0  0.53859279941E-01  0.67723202958E-02  0.26979090462E-02  0.54352793784E-01  0.51100000000E-03 0.  1.
</event>
<event>
 8    1  0.1116619E+005  0.1043930E+01  0.7957747E-01            NaN
         13   -1    0    0    0    0  0.00000000000E+00  0.00000000000E+00  0.74505805969E-08  0.10566000000E+00  0.10566000000E+00 0. -1.
     999900   -1    0    0    0    0 -0.00000000000E+00 -0.00000000000E+00 -0.74505805969E-08  0.93827000000E+00  0.93827000000E+00 0.  1.
     999902    2    1    2    0    0  0.29096353476E-02  0.23157029738E-01  0.36327995438E-02  0.10203098553E+01  0.10200364158E+01 0.  0.
     999903    2    3    3    0    0  0.23009702445E-01  0.11281125341E+00  0.64343374817E-01  0.13344590491E+00  0.20295673201E-01 0.  0.
         14    1    1    2    0    0 -0.29096353476E-02 -0.23157029738E-01 -0.36327995438E-02  0.23620144721E-01  0.00000000000E+00 0. -1.
     999901    1    3    3    0    0 -0.20100067098E-01 -0.89654223673E-01 -0.60710575273E-01  0.88686395037E+00  0.88000000000E+00 0.  1.
        -11    1    4    4    0    0  0.14838903430E-01  0.50158512388E-01  0.39515591664E-01  0.65557703785E-01  0.51100000000E-03 0.  1.
         11    1    4    4    0    0  0.81707990156E-02  0.62652741023E-01  0.24827783153E-01  0.67888201122E-01  0.51100000000E-03 0. -1.
</event>
<event>
 8    1  0.1116619E+005  0.1043930E+01  0.7957747E-01            NaN
         13   -1    0    0    0    0  0.00000000000E+00  0.00000000000E+00  0.74505805969E-08  0.10566000000E+00  0.10566000000E+00 0.  1.
     999900   -1    0    0    0    0 -0.00000000000E+00 -0.00000000000E+00 -0.74505805969E-08  0.93827000000E+00  0.93827000000E+00 0.  1.
     999902    2    1    2    0    0 -0.16750952099E-01 -0.79459299392E-02 -0.14105625303E-01  0.10206340591E+01  0.10203681599E+01 0.  0.
     999903    2    3    3    0    0  0.80723393134E-01 -0.48417376097E-01 -0.89060237509E-01  0.13116377860E+00  0.20290451090E-01 0.  0.
         14    1    1    2    0    0  0.16750952099E-01  0.79459299392E-02  0.14105625303E-01  0.23295940935E-01  0.00000000000E+00 0.  1.
     999901    1    3    3    0    0 -0.97474345233E-01  0.40471446158E-01  0.74954612206E-01  0.88947028046E+00  0.88000000000E+00 0. -1.
        -11    1    4    4    0    0  0.15249054489E-01 -0.96434911841E-02 -0.72975579428E-02  0.19469105217E-01  0.51100000000E-03 0. -1.
         11    1    4    4    0    0  0.65474338645E-01 -0.38773884913E-01 -0.81762679566E-01  0.11169467339E+00  0.51100000000E-03 0.  1.
</event>
<event>
 8    1  0.1116619E+005  0.1043930E+01  0.7957747E-01            NaN
         13   -1    0    0    0    0  0.00000000000E+00  0.00000000000E+00  0.74505805969E-08  0.10566000000E+00  0.10566000000E+00 0.  1.
     999900   -1    0    0    0    0 -0.00000000000E+00 -0.00000000000E+00 -0.74505805969E-08  0.93827000000E+00  0.93827000000E+00 0.  1.
     999902    2    1    2    0    0 -0.14590268742E-01 -0.58148575631E-02  0.18791997750E-01  0.10194386201E+01  0.10191443825E+01 0.  0.
     999903    2    3    3    0    0 -0.47624872182E-01  0.56910451400E-01  0.10739307093E+00  0.13215292789E+00  0.20596036962E-01 0.  0.
         14    1    1    2    0    0  0.14590268742E-01  0.58148575631E-02 -0.18791997750E-01  0.24491379909E-01  0.00000000000E+00 0. -1.
     999901    1    3    3    0    0  0.33034603440E-01 -0.62725308963E-01 -0.88601073178E-01  0.88728569220E+00  0.88000000000E+00 0.  1.
        -11    1    4    4    0    0 -0.33190623800E-01  0.25056993939E-01  0.65378218871E-01  0.77485760481E-01  0.51100000000E-03 0. -1.
         11    1    4    4    0    0 -0.14434248382E-01  0.31853457461E-01  0.42014852057E-01  0.54667167413E-01  0.51100000000E-03 0.  1.
</event>
<event>
 8    1  0.1116619E+005  0.1043930E+01  0.7957747E-01            NaN
         13   -1    0    0    0    0  0.00000000000E+00  0.00000000000E+00  0.74505805969E-08  0.10566000000E+00  0.10566000000E+00 0. -1.
     999900   -1    0    0    0    0 -0.00000000000E+00 -0.00000000000E+00 -0.74505805969E-08  0.93827000000E+00  0.93827000000E+00 0. -1.
     999902    2    1    2    0    0  0.45537403168E-02  0.24268798120E-01  0.47741270698E-02  0.10187803797E+01  0.10184699105E+01 0.  0.
     999903    2    3    3    0    0 -0.59364840345E-01  0.53637937905E-01  0.10165100722E+00  0.13067382006E+00  0.18479916932E-01 0.  0.
         14    1    1    2    0    0 -0.45537403168E-02 -0.24268798120E-01 -0.47741270698E-02  0.25149620322E-01  0.00000000000E+00 0. -1.
     999901    1    3    3    0    0  0.63918580662E-01 -0.29369139786E-01 -0.96876880146E-01  0.88810655962E+00  0.88000000000E+00 0. -1.
        -11    1    4    4    0    0 -0.17913433898E-01  0.18095770089E-01  0.46773808499E-01  0.53257847230E-01  0.51100000000E-03 0.  1.
         11    1    4    4    0    0 -0.41451406447E-01  0.35542167816E-01  0.54877198718E-01  0.77415972832E-01  0.51100000000E-03 0. -1.
</event>
<event>
 8    1  0.1116619E+005  0.1043930E+01  0.7957747E-01            NaN
         13   -1    0    0    0    0  0.00000000000E+00  0.00000000000E+00  0.74505805969E-08  0.10566000000E+00  0.10566000000E+00 0. -1.
     999900   -1    0    0    0    0 -0.00000000000E+00 -0.00000000000E+00 -0.74505805969E-08  0.93827000000E+00  0.93827000000E+00 0.  1.
     999902    2    1    2    0    0 -0.19349302514E-01  0.13078877491E-02 -0.14357077963E-01  0.10198005208E+01  0.10195150173E+01 0.  0.
     999903    2    3    3    0    0  0.10293453016E+00 -0.29460783133E-01 -0.69350791739E-01  0.12911294630E+00  0.19929007606E-01 0.  0.
         14    1    1    2    0    0  0.19349302514E-01 -0.13078877491E-02  0.14357077963E-01  0.24129479185E-01  0.00000000000E+00 0. -1.
     999901    1    3    3    0    0 -0.12228383268E+00  0.30768670882E-01  0.54993713776E-01  0.89068757452E+00  0.88000000000E+00 0. -1.
        -11    1    4    4    0    0  0.19399166759E-01 -0.10493310312E-01 -0.22344467675E-01  0.31400216383E-01  0.51100000000E-03 0. -1.
         11    1    4    4    0    0  0.83535363406E-01 -0.18967472821E-01 -0.47006324064E-01  0.97712729915E-01  0.51100000000E-03 0.  1.
</event>
<event>
 8    1  0.1116619E+005  0.1043930E+01  0.7957747E-01            NaN
         13   -1    0    0    0    0  0.00000000000E+00  0.00000000000E+00  0.74505805969E-08  0.10566000000E+00  0.10566000000E+00 0.  1.
     999900   -1    0    0    0    0 -0.00000000000E+00 -0.00000000000E+00 -0.74505805969E-08  0.93827000000E+00  0.93827000000E+00 0.  1.
     999902    2    1    2    0    0 -0.17137344224E-01 -0.17231612069E-01  0.31053218832E-02  0.10194297950E+01  0.10191353428E+01 0.  0.
     999903    2    3    3    0    0 -0.10459433229E+00  0.74869095172E-01  0.29715968325E-02  0.13031153350E+00  0.20661791187E-01 0.  0.
         14    1    1    2    0    0  0.17137344224E-01  0.17231612069E-01 -0.31053218832E-02  0.24500205010E-01  0.00000000000E+00 0. -1.
     999901    1    3    3    0    0  0.87456988070E-01 -0.92100707241E-01  0.13372505074E-03  0.88911826149E+00  0.88000000000E+00 0.  1.
        -11    1    4    4    0    0 -0.16087530618E-01  0.19895738215E-01 -0.39340780875E-02  0.25891835236E-01  0.51100000000E-03 0. -1.
         11    1    4    4    0    0 -0.88506801676E-01  0.54973356957E-01  0.69056749199E-02  0.10441969826E+00  0.51100000000E-03 0.  1.
</event>
<event>
 8    1  0.1116619E+005  0.1043930E+01  0.7957747E-01            NaN
         13   -1    0    0    0    0  0.00000000000E+00  0.00000000000E+00  0.74505805969E-08  0.10566000000E+00  0.10566000000E+00 0. -1.
     999900   -1    0    0    0    0 -0.00000000000E+00 -0.00000000000E+00 -0.74505805969E-08  0.93827000000E+00  0.93827000000E+00 0. -1.
     999902    2    1    2    0    0 -0.15008796752E-01 -0.96643470726E-02 -0.23062239466E-01  0.10147661444E+01  0.10143469807E+01 0.  0.
     999903    2    3    3    0    0  0.54983648281E-01 -0.11056164612E+00  0.11512537775E-01  0.12556727883E+00  0.19685624600E-01 0.  0.
         14    1    1    2    0    0  0.15008796752E-01  0.96643470726E-02  0.23062239466E-01  0.29163855600E-01  0.00000000000E+00 0. -1.
     999901    1    3    3    0    0 -0.69992445033E-01  0.10089729904E+00 -0.34574777240E-01  0.88919886557E+00  0.88000000000E+00 0.  1.
        -11    1    4    4    0    0  0.37451052203E-01 -0.86505965587E-01  0.15493546832E-01  0.95531013329E-01  0.51100000000E-03 0. -1.
         11    1    4    4    0    0  0.17532596078E-01 -0.24055680529E-01 -0.39810090578E-02  0.30036265498E-01  0.51100000000E-03 0.  1.
</event>
<event>
 8    1  0.1116619E+005  0.1043930E+01  0.7957747E-01            NaN
         13   -1    0    0    0    0  0.00000000000E+00  0.00000000000E+00  0.74505805969E-08  0.10566000000E+00  0.10566000000E+00 0. -1.
     999900   -1    0    0    0    0 -0.00000000000E+00 -0.00000000000E+00 -0.74505805969E-08  0.93827000000E+00  0.93827000000E+00 0.  1.
     999902    2    1    2    0    0  0.21038478734E-01 -0.13003469236E-01 -0.71514355589E-03  0.10191869357E+01  0.10188865446E+01 0.  0.
     999903    2    3    3    0    0  0.47776519012E-01 -0.83122268001E-01 -0.88325803034E-01  0.13165823399E+00  0.18453614545E-01 0.  0.
         14    1    1    2    0    0 -0.21038478734E-01  0.13003469236E-01  0.71514355589E-03  0.24743064279E-01  0.00000000000E+00 0.  1.
     999901    1    3    3    0    0 -0.26738040278E-01  0.70118798765E-01  0.87610659478E-01  0.88752870173E+00  0.88000000000E+00 0. -1.
        -11    1    4    4    0    0  0.45647744586E-02 -0.18648248735E-01 -0.11174375638E-01  0.22219859105E-01  0.51100000000E-03 0. -1.
         11    1    4    4    0    0  0.43211744554E-01 -0.64474019266E-01 -0.77151427397E-01  0.10943837489E+00  0.51100000000E-03 0.  1.
</event>
<event>
 8    1  0.1116619E+005  0.1043930E+01  0.7957747E-01            NaN
         13   -1    0    0    0    0  0.00000000000E+00  0.00000000000E+00  0.74505805969E-08  0.10566000000E+00  0.10566000000E+00 0.  1.
     999900   -1    0    0    0    0 -0.00000000000E+00 -0.00000000000E+00 -0.74505805969E-08  0.93827000000E+00  0.93827000000E+00 0.  1.
     999902    2    1    2    0    0  0.99633432674E-02 -0.13876149450E-01 -0.17597585843E-01  0.10194046914E+01  0.10191096281E+01 0.  0.
     999903    2    3    3    0    0 -0.94020512514E-02  0.47110772618E-01 -0.12022573053E+00  0.13113279655E+00  0.20826919702E-01 0.  0.
         14    1    1    2    0    0 -0.99633432674E-02  0.13876149450E-01  0.17597585843E-01  0.24525308564E-01  0.00000000000E+00 0.  1.
     999901    1    3    3    0    0  0.19365394519E-01 -0.60986922069E-01  0.10262814469E+00  0.88827189489E+00  0.88000000000E+00 0. -1.
        -11    1    4    4    0    0  0.61723325120E-02  0.99854222889E-02 -0.33914497633E-01  0.35892347619E-01  0.51100000000E-03 0. -1.
         11    1    4    4    0    0 -0.15574383763E-01  0.37125350329E-01 -0.86311232898E-01  0.95240448928E-01  0.51100000000E-03 0.  1.
</event>
<event>
 7    1  0.1116619E+005  0.1043930E+01  0.7957747E-01            NaN
         13   -1    0    0    0    0  0.00000000000E+00  0.00000000000E+00  0.74505805969E-08  0.10566000000E+00  0.10566000000E+00 0. -1.
     999900   -1    0    0    0    0 -0.00000000000E+00 -0.00000000000E+00 -0.74505805969E-08  0.93827000000E+00  0.93827000000E+00 0. -1.
     999903    2    1    2    0    0 -0.62319023745E-01 -0.84750392465E-01 -0.25147959054E-01  0.10996775264E+00  0.19854395811E-01 0.  0.
         14    1    1    2    0    0  0.69750432215E-02 -0.41232423079E-01 -0.83307206367E-02  0.42639944268E-01  0.00000000000E+00 0.  1.
     999901    1    1    2    0    0  0.55343980523E-01  0.12598281554E+00  0.33478679690E-01  0.89132230309E+00  0.88000000000E+00 0.  1.
        -11    1    3    3    0    0 -0.16592924764E-01 -0.30468531212E-01 -0.89360107461E-04  0.34697631802E-01  0.51100000000E-03 0.  1.
         11    1    3    3    0    0 -0.45726098980E-01 -0.54281861253E-01 -0.25058598946E-01  0.75270120840E-01  0.51100000000E-03 0. -1.
</event>
<event>
 8    1  0.1116619E+005  0.1043930E+01  0.7957747E-01            NaN
         13   -1    0    0    0    0  0.00000000000E+00  0.00000000000E+00  0.74505805969E-08  0.10566000000E+00  0.10566000000E+00 0. -1.
     999900   -1    0    0    0    0 -0.00000000000E+00 -0.00000000000E+00 -0.74505805969E-08  0.93827000000E+00  0.93827000000E+00 0. -1.
     999902    2    1    2    0    0 -0.17458793446E-01 -0.16515268220E-01  0.14639063299E-02  0.10198529035E+01  0.10195686530E+01 0.  0.
     999903    2    3    3    0    0 -0.11704634829E+00 -0.52034856560E-01 -0.29710864881E-01  0.13297569184E+00  0.19807200284E-01 0.  0.
         14    1    1    2    0    0  0.17458793446E-01  0.16515268220E-01 -0.14639063299E-02  0.24077096476E-01  0.00000000000E+00 0.  1.
     999901    1    3    3    0    0  0.99587554849E-01  0.35519588340E-01  0.31174771211E-01  0.88687721168E+00  0.88000000000E+00 0.  1.
        -11    1    4    4    0    0 -0.22453945190E-01 -0.71181067310E-02  0.17771243954E-02  0.23627661547E-01  0.51100000000E-03 0.  1.
         11    1    4    4    0    0 -0.94592403105E-01 -0.44916749829E-01 -0.31487989276E-01  0.10934803030E+00  0.51100000000E-03 0. -1.
</event>
<event>
 8    1  0.1116619E+005  0.1043930E+01  0.7957747E-01            NaN
         13   -1    0    0    0    0  0.00000000000E+00  0.00000000000E+00  0.74505805969E-08  0.10566000000E+00  0.10566000000E+00 0.  1.
     999900   -1    0    0    0    0 -0.00000000000E+00 -0.00000000000E+00 -0.74505805969E-08  0.93827000000E+00  0.93827000000E+00 0.  1.
     999902    2    1    2    0    0  0.13980753699E-01  0.47438501116E-02  0.18832851701E-01  0.10200000629E+01  0.10197193174E+01 0.  0.
     999903    2    3    3    0    0  0.90601675848E-01  0.77678099154E-01 -0.50185022961E-01  0.13098170681E+00  0.19877631490E-01 0.  0.
         14    1    1    2    0    0 -0.13980753699E-01 -0.47438501116E-02 -0.18832851701E-01  0.23929937130E-01  0.00000000000E+00 0. -1.
     999901    1    3    3    0    0 -0.76620922150E-01 -0.72934249043E-01  0.69017874662E-01  0.88901835606E+00  0.88000000000E+00 0. -1.
        -11    1    4    4    0    0  0.85262173050E-01  0.68753631615E-01 -0.50393450976E-01  0.12056724694E+00  0.51100000000E-03 0. -1.
         11    1    4    4    0    0  0.53395027983E-02  0.89244675386E-02  0.20842801486E-03  0.10414459862E-01  0.51100000000E-03 0.  1.
</event>
<event>
 8    1  0.1116619E+005  0.1043930E+01  0.7957747E-01            NaN
         13   -1    0    0    0    0  0.00000000000E+00  0.00000000000E+00  0.74505805969E-08  0.10566000000E+00  0.10566000000E+00 0.  1.
     999900   -1    0    0    0    0 -0.00000000000E+00 -0.00000000000E+00 -0.74505805969E-08  0.93827000000E+00  0.93827000000E+00 0.  1.
     999902    2    1    2    0    0 -0.60778842480E-02  0.14949568753E-01 -0.18504075281E-01  0.10193773813E+01  0.10190816525E+01 0.  0.
     999903    2    3    3    0    0  0.62984735903E-01  0.66930246954E-01  0.87715270554E-01  0.12878533899E+00  0.21094073473E-01 0.  0.
         14    1    1    2    0    0  0.60778842480E-02 -0.14949568753E-01  0.18504075281E-01  0.24552618696E-01  0.00000000000E+00 0.  1.
     999901    1    3    3    0    0 -0.69062620151E-01 -0.51980678201E-01 -0.10621934583E+00  0.89059204232E+00  0.88000000000E+00 0.  1.
        -11    1    4    4    0    0  0.45105051697E-01  0.32834178036E-01  0.52013647670E-01  0.76277320357E-01  0.51100000000E-03 0.  1.
         11    1    4    4    0    0  0.17879684206E-01  0.34096068918E-01  0.35701622884E-01  0.52508018631E-01  0.51100000000E-03 0. -1.
</event>
<event>
 8    1  0.1116619E+005  0.1043930E+01  0.7957747E-01            NaN
         13   -1    0    0    0    0  0.00000000000E+00  0.00000000000E+00  0.74505805969E-08  0.10566000000E+00  0.10566000000E+00 0.  1.
     999900   -1    0    0    0    0 -0.00000000000E+00 -0.00000000000E+00 -0.74505805969E-08  0.93827000000E+00  0.93827000000E+00 0.  1.
     999902    2    1    2    0    0  0.16282160067E-01  0.10382190625E-01  0.14228670726E-01  0.10199434686E+01  0.10196613778E+01 0.  0.
     999903    2    3    3    0    0  0.61263402498E-01  0.11193215349E+00 -0.26962386992E-01  0.13200630281E+00  0.20412794996E-01 0.  0.
         14    1    1    2    0    0 -0.16282160067E-01 -0.10382190625E-01 -0.14228670726E-01  0.23986531413E-01  0.00000000000E+00 0. -1.
     999901    1    3    3    0    0 -0.44981242432E-01 -0.10154996286E+00  0.41191057718E-01  0.88793716577E+00  0.88000000000E+00 0. -1.
        -11    1    4    4    0    0  0.58448697624E-01  0.97444606727E-01 -0.18933157557E-01  0.11519734029E+00  0.51100000000E-03 0. -1.
         11    1    4    4    0    0  0.28147048740E-02  0.14487546762E-01 -0.80292294350E-02  0.16808962521E-01  0.51100000000E-03 0.  1.
</event>
<event>
 8    1  0.1116619E+005  0.1043930E+01  0.7957747E-01            NaN
         13   -1    0    0    0    0  0.00000000000E+00  0.00000000000E+00  0.74505805969E-08  0.10566000000E+00  0.10566000000E+00 0. -1.
     999900   -1    0    0    0    0 -0.00000000000E+00 -0.00000000000E+00 -0.74505805969E-08  0.93827000000E+00  0.93827000000E+00 0. -1.
     999902    2    1    2    0    0  0.20378849504E-01  0.15119288013E-02  0.11722098390E-01  0.10203717525E+01  0.10200997609E+01 0.  0.
     999903    2    3    3    0    0  0.47444563443E-01  0.12128713357E+00  0.58681534370E-02  0.13182635621E+00  0.19549874582E-01 0.  0.
         14    1    1    2    0    0 -0.20378849504E-01 -0.15119288013E-02 -0.11722098390E-01  0.23558247526E-01  0.00000000000E+00 0.  1.
     999901    1    3    3    0    0 -0.27065713939E-01 -0.11977520477E+00  0.58539449530E-02  0.88854539626E+00  0.88000000000E+00 0.  1.
        -11    1    4    4    0    0  0.58811712399E-02  0.22609267196E-01  0.80901745560E-02  0.24728105136E-01  0.51100000000E-03 0.  1.
         11    1    4    4    0    0  0.41563392203E-01  0.98677866378E-01 -0.22220211190E-02  0.10709825107E+00  0.51100000000E-03 0. -1.
</event>
<event>
 8    1  0.1116619E+005  0.1043930E+01  0.7957747E-01            NaN
         13   -1    0    0    0    0  0.00000000000E+00  0.00000000000E+00  0.74505805969E-08  0.10566000000E+00  0.10566000000E+00 0.  1.
     999900   -1    0    0    0    0 -0.00000000000E+00 -0.00000000000E+00 -0.74505805969E-08  0.93827000000E+00  0.93827000000E+00 0.  1.
     999902    2    1    2    0    0  0.57471485366E-02 -0.17351475613E-01 -0.14683478484E-01  0.10204841483E+01  0.10202147759E+01 0.  0.
     999903    2    3    3    0    0  0.81968376736E-01 -0.10272120079E+00 -0.71031766535E-03  0.13296349228E+00  0.20207074324E-01 0.  0.
         14    1    1    2    0    0 -0.57471485366E-02  0.17351475613E-01  0.14683478484E-01  0.23445851716E-01  0.00000000000E+00 0.  1.
     999901    1    3    3    0    0 -0.76221228200E-01  0.85369725176E-01 -0.13973160819E-01  0.88752065600E+00  0.88000000000E+00 0. -1.
        -11    1    4    4    0    0  0.20049195453E-01 -0.39609771014E-01 -0.31997763852E-02  0.44512963146E-01  0.51100000000E-03 0.  1.
         11    1    4    4    0    0  0.61919181283E-01 -0.63111429775E-01  0.24894587199E-02  0.88450529137E-01  0.51100000000E-03 0. -1.
</event>
<event>
 8    1  0.1116619E+005  0.1043930E+01  0.7957747E-01            NaN
         13   -1    0    0    0    0  0.00000000000E+00  0.00000000000E+00  0.74505805969E-08  0.10566000000E+00  0.10566000000E+00 0.  1.
     999900   -1    0    0    0    0 -0.00000000000E+00 -0.00000000000E+00 -0.74505805969E-08  0.93827000000E+00  0.93827000000E+00 0.  1.
     999902    2    1    2    0    0  0.14325543173E-01 -0.12148440910E-01  0.13931684307E-01  0.10205441575E+01  0.10202761781E+01 0.  0.
     999903    2    3    3    0    0 -0.22810146892E-01 -0.10744445800E+00  0.71724615242E-01  0.13273763956E+00  0.20254534553E-01 0.  0.
         14    1    1    2    0    0 -0.14325543173E-01  0.12148440910E-01 -0.13931684307E-01  0.23385842541E-01  0.00000000000E+00 0. -1.
     999901    1    3    3    0    0  0.37135690065E-01  0.95296017088E-01 -0.57792930935E-01  0.88780651789E+00  0.88000000000E+00 0.  1.
        -11    1    4    4    0    0 -0.37053223915E-02 -0.14749605156E-01  0.19188594224E-01  0.24489661811E-01  0.51100000000E-03 0.  1.
         11    1    4    4    0    0 -0.19104824500E-01 -0.92694852841E-01  0.52536021017E-01  0.10824797775E+00  0.51100000000E-03 0. -1.
</event>
<event>
 8    1  0.1116619E+005  0.1043930E+01  0.7957747E-01            NaN
         13   -1    0    0    0    0  0.00000000000E+00  0.00000000000E+00  0.74505805969E-08  0.10566000000E+00  0.10566000000E+00 0.  1.
     999900   -1    0    0    0    0 -0.00000000000E+00 -0.00000000000E+00 -0.74505805969E-08  0.93827000000E+00  0.93827000000E+00 0. -1.
     999902    2    1    2    0    0  0.13937424213E-01 -0.16884844858E-01 -0.44372956739E-02  0.10215908108E+01  0.10213465354E+01 0.  0.
     999903    2    3    3    0    0 -0.11944576565E+00  0.44370388867E-01 -0.10668455840E-01  0.12941251792E+00  0.19943959057E-01 0.  0.
         14    1    1    2    0    0 -0.13937424213E-01  0.16884844858E-01  0.44372956739E-02  0.22339189163E-01  0.00000000000E+00 0.  1.
     999901    1    3    3    0    0  0.13338318987E+00 -0.61255233725E-01  0.62311601658E-02  0.89217829292E+00  0.88000000000E+00 0.  1.
        -11    1    4    4    0    0 -0.56268961891E-01  0.11335329699E-01 -0.89675222988E-02  0.58097877318E-01  0.51100000000E-03 0.  1.
         11    1    4    4    0    0 -0.63176803764E-01  0.33035059168E-01 -0.17009335410E-02  0.71314640601E-01  0.51100000000E-03 0. -1.
</event>
<event>
 8    1  0.1116619E+005  0.1043930E+01  0.7957747E-01            NaN
         13   -1    0    0    0    0  0.00000000000E+00  0.00000000000E+00  0.74505805969E-08  0.10566000000E+00  0.10566000000E+00 0.  1.
     999900   -1    0    0    0    0 -0.00000000000E+00 -0.00000000000E+00 -0.74505805969E-08  0.93827000000E+00  0.93827000000E+00 0. -1.
     999902    2    1    2    0    0 -0.15109043040E-01 -0.18784254667E-01 -0.30708086720E-02  0.10196285336E+01  0.10193388961E+01 0.  0.
     999903    2    3    3    0    0  0.22848844038E-01  0.11362982190E+00  0.49279225737E-01  0.12737587038E+00  0.19035865240E-01 0.  0.
         14    1    1    2    0    0  0.15109043040E-01  0.18784254667E-01  0.30708086720E-02  0.24301466434E-01  0.00000000000E+00 0.  1.
     999901    1    3    3    0    0 -0.37957887078E-01 -0.13241407657E+00 -0.52350034409E-01  0.89225266319E+00  0.88000000000E+00 0. -1.
        -11    1    4    4    0    0 -0.30971177846E-02  0.19226747910E-01  0.98437733114E-02  0.21827069611E-01  0.51100000000E-03 0.  1.
         11    1    4    4    0    0  0.25945961823E-01  0.94403073993E-01  0.39435452426E-01  0.10554880077E+00  0.51100000000E-03 0. -1.
</event>
<event>
 8    1  0.1116619E+005  0.1043930E+01  0.7957747E-01            NaN
         13   -1    0    0    0    0  0.00000000000E+00  0.00000000000E+00  0.74505805969E-08  0.10566000000E+00  0.10566000000E+00 0.  1.
     999900   -1    0    0    0    0 -0.00000000000E+00 -0.00000000000E+00 -0.74505805969E-08  0.93827000000E+00  0.93827000000E+00 0.  1.
     999902    2    1    2    0    0  0.17766893557E-01 -0.27944695128E-02 -0.15724634685E-01  0.10200399246E+01  0.10197601248E+01 0.  0.
     999903    2    3    3    0    0  0.99994307528E-01  0.57561102542E-01 -0.62785811233E-01  0.13289906937E+00  0.20198081170E-01 0.  0.
         14    1    1    2    0    0 -0.17766893557E-01  0.27944695128E-02  0.15724634685E-01  0.23890075398E-01  0.00000000000E+00 0.  1.
     999901    1    3    3    0    0 -0.82227413971E-01 -0.60355572055E-01  0.47061176549E-01  0.88714085523E+00  0.88000000000E+00 0. -1.
        -11    1    4    4    0    0  0.74934884764E-01  0.51821033186E-01 -0.44865304035E-01  0.10155694492E+00  0.51100000000E-03 0.  1.
         11    1    4    4    0    0  0.25059422764E-01  0.57400693556E-02 -0.17920507198E-01  0.31342124445E-01  0.51100000000E-03 0. -1.
</event>
<event>
 8    1  0.1116619E+005  0.1043930E+01  0.7957747E-01            NaN
         13   -1    0    0    0    0  0.00000000000E+00  0.00000000000E+00  0.74505805969E-08  0.10566000000E+00  0.10566000000E+00 0. -1.
     999900   -1    0    0    0    0 -0.00000000000E+00 -0.00000000000E+00 -0.74505805969E-08  0.93827000000E+00  0.93827000000E+00 0. -1.
     999902    2    1    2    0    0  0.83788277161E-02  0.20723195934E-01 -0.81003236799E-02  0.10201545747E+01  0.10198774855E+01 0.  0.
     999903    2    3    3    0    0 -0.74150382420E-01 -0.72934677001E-01 -0.73682176413E-01  0.12892853880E+00  0.19384495717E-01 0.  0.
         14    1    1    2    0    0 -0.83788277161E-02 -0.20723195934E-01  0.81003236799E-02  0.23775425282E-01  0.00000000000E+00 0. -1.
     999901    1    3    3    0    0  0.82529210136E-01  0.93657872935E-01  0.65581852733E-01  0.89122603592E+00  0.88000000000E+00 0. -1.
        -11    1    4    4    0    0 -0.46005838387E-01 -0.47398383528E-01 -0.57665076836E-01  0.87685039398E-01  0.51100000000E-03 0. -1.
         11    1    4    4    0    0 -0.28144544033E-01 -0.25536293474E-01 -0.16017099577E-01  0.41243499404E-01  0.51100000000E-03 0.  1.
</event>
<event>
 8    1  0.1116619E+005  0.1043930E+01  0.7957747E-01            NaN
         13   -1    0    0    0    0  0.00000000000E+00  0.00000000000E+00  0.74505805969E-08  0.10566000000E+00  0.10566000000E+00 0. -1.
     999900   -1    0    0    0    0 -0.00000000000E+00 -0.00000000000E+00 -0.74505805969E-08  0.93827000000E+00  0.93827000000E+00 0.  1.
     999902    2    1    2    0    0  0.10840674752E-01  0.20960696565E-01  0.96363288413E-03  0.10203122182E+01  0.10200388340E+01 0.  0.
     999903    2    3    3    0    0 -0.11248267527E+00  0.56454729055E-01  0.28673782936E-01  0.13057274653E+00  0.19686737680E-01 0.  0.
         14    1    1    2    0    0 -0.10840674752E-01 -0.20960696565E-01 -0.96363288413E-03  0.23617781816E-01  0.00000000000E+00 0. -1.
     999901    1    3    3    0    0  0.12332335002E+00 -0.35494032490E-01 -0.27710150052E-01  0.88973947165E+00  0.88000000000E+00 0. -1.
        -11    1    4    4    0    0 -0.24363725335E-01  0.19716029274E-01  0.18342866046E-02  0.31399660044E-01  0.51100000000E-03 0.  1.
         11    1    4    4    0    0 -0.88118949934E-01  0.36738699781E-01  0.26839496331E-01  0.99173086487E-01  0.51100000000E-03 0. -1.
</event>
<event>
 8    1  0.1116619E+005  0.1043930E+01  0.7957747E-01            NaN
         13   -1    0    0    0    0  0.00000000000E+00  0.00000000000E+00  0.74505805969E-08  0.10566000000E+00  0.10566000000E+00 0.  1.
     999900   -1    0    0    0    0 -0.00000000000E+00 -0.00000000000E+00 -0.74505805969E-08  0.93827000000E+00  0.93827000000E+00 0.  1.
     999902    2    1    2    0    0  0.12667652327E-01  0.29368313765E-02  0.19674663266E-01  0.10203463877E+01  0.10200738033E+01 0.  0.
     999903    2    3    3    0    0  0.46773288661E-02  0.72320942110E-01  0.10984658114E+00  0.13298570858E+00  0.19150227824E-01 0.  0.
         14    1    1    2    0    0 -0.12667652327E-01 -0.29368313765E-02 -0.19674663266E-01  0.23583612290E-01  0.00000000000E+00 0. -1.
     999901    1    3    3    0    0  0.79903234609E-02 -0.69384110734E-01 -0.90171917873E-01  0.88736067913E+00  0.88000000000E+00 0.  1.
        -11    1    4    4    0    0 -0.30298868944E-02  0.41360201135E-01  0.48333300243E-01  0.63688425054E-01  0.51100000000E-03 0. -1.
         11    1    4    4    0    0  0.77072157606E-02  0.30960740975E-01  0.61513280897E-01  0.69297283527E-01  0.51100000000E-03 0.  1.
</event>
<event>
 8    1  0.1116619E+005  0.1043930E+01  0.7957747E-01            NaN
         13   -1    0    0    0    0  0.00000000000E+00  0.00000000000E+00  0.74505805969E-08  0.10566000000E+00  0.10566000000E+00 0.  1.
     999900   -1    0    0    0    0 -0.00000000000E+00 -0.00000000000E+00 -0.74505805969E-08  0.93827000000E+00  0.93827000000E+00 0.  1.
     999902    2    1    2    0    0  0.19182242730E-01 -0.62244356513E-02  0.11830358540E-01  0.10205492511E+01  0.10202813899E+01 0.  0.
     999903    2    3    3    0    0 -0.12586349879E+00  0.83546511773E-02  0.15365966940E-01  0.12854963372E+00  0.19428712394E-01 0.  0.
         14    1    1    2    0    0 -0.19182242730E-01  0.62244356513E-02 -0.11830358540E-01  0.23380748887E-01  0.00000000000E+00 0. -1.
     999901    1    3    3    0    0  0.14504574152E+00 -0.14579086829E-01 -0.35356084000E-02  0.89199961739E+00  0.88000000000E+00 0.  1.
        -11    1    4    4    0    0 -0.19055970913E-01  0.82859786037E-02  0.35921936754E-02  0.21093895924E-01  0.51100000000E-03 0. -1.
         11    1    4    4    0    0 -0.10680752788E+00  0.68672573693E-04  0.11773773264E-01  0.10745573779E+00  0.51100000000E-03 0.  1.
</event>
<event>
 7    1  0.1116619E+005  0.1043930E+01  0.7957747E-01            NaN
         13   -1    0    0    0    0  0.00000000000E+00  0.00000000000E+00  0.74505805969E-08  0.10566000000E+00  0.10566000000E+00 0. -1.
     999900   -1    0    0    0    0 -0.00000000000E+00 -0.00000000000E+00 -0.74505805969E-08  0.93827000000E+00  0.93827000000E+00 0.  1.
     999902    2    1    2    0    0  0.18318392774E-01 -0.69458440360E-02 -0.14260213143E-01  0.10196985753E+01  0.10194106251E+01 0.  0.
         14    1    1    2    0    0 -0.18318392774E-01  0.69458440360E-02  0.14260213143E-01  0.24231424681E-01  0.00000000000E+00 0. -1.
     999901    1    3    3    0    0  0.94400283278E-01 -0.96548443133E-01  0.46631478078E-02  0.89031160854E+00  0.88000000000E+00 0. -1.
        -11    1    3    3    0    0 -0.28719822668E-01  0.36612790960E-01 -0.32850258383E-01  0.56962490051E-01  0.51100000000E-03 0. -1.
         11    1    3    3    0    0 -0.47362067836E-01  0.52989808138E-01  0.13926897432E-01  0.72424476728E-01  0.51100000000E-03 0.  1.
</event>
<event>
 8    1  0.1116619E+005  0.1043930E+01  0.7957747E-01            NaN
         13   -1    0    0    0    0  0.00000000000E+00  0.00000000000E+00  0.74505805969E-08  0.10566000000E+00  0.10566000000E+00 0.  1.
     999900   -1    0    0    0    0 -0.00000000000E+00 -0.00000000000E+00 -0.74505805969E-08  0.93827000000E+00  0.93827000000E+00 0. -1.
     999902    2    1    2    0    0 -0.22769148225E-01 -0.38458892307E-02 -0.55457283163E-02  0.10201817353E+01  0.10199052862E+01 0.  0.
     999903    2    3    3    0    0 -0.12385237030E+00  0.32248834728E-02  0.44450964008E-01  0.13295713978E+00  0.18759086218E-01 0.  0.
         14    1    1    2    0    0  0.22769148225E-01  0.38458892307E-02  0.55457283163E-02  0.23748264724E-01  0.00000000000E+00 0.  1.
     999901    1    3    3    0    0  0.10108322207E+00 -0.70707727035E-02 -0.49996692325E-01  0.88722459550E+00  0.88000000000E+00 0. -1.
        -11    1    4    4    0    0 -0.52705755087E-01 -0.24150733858E-02  0.99880509949E-02  0.53700572459E-01  0.51100000000E-03 0. -1.
         11    1    4    4    0    0 -0.71146615208E-01  0.56399568586E-02  0.34462913013E-01  0.79256567320E-01  0.51100000000E-03 0.  1.
</event>
<event>
 8    1  0.1116619E+005  0.1043930E+01  0.7957747E-01            NaN
         13   -1    0    0    0    0  0.00000000000E+00  0.00000000000E+00  0.74505805969E-08  0.10566000000E+00  0.10566000000E+00 0. -1.
     999900   -1    0    0    0    0 -0.00000000000E+00 -0.00000000000E+00 -0.74505805969E-08  0.93827000000E+00  0.93827000000E+00 0.  1.
     999902    2    1    2    0    0  0.17997325106E-02 -0.11658004065E-01  0.19902351934E-01  0.10207944925E+01  0.10205322847E+01 0.  0.
     999903    2    3    3    0    0 -0.86425596806E-01 -0.92724460674E-01  0.33408504761E-01  0.13257273228E+00  0.19803832042E-01 0.  0.
         14    1    1    2    0    0 -0.17997325106E-02  0.11658004065E-01 -0.19902351934E-01  0.23135507524E-01  0.00000000000E+00 0.  1.
     999901    1    3    3    0    0  0.88225329317E-01  0.81066456609E-01 -0.13506152827E-01  0.88822176020E+00  0.88000000000E+00 0. -1.
        -11    1    4    4    0    0 -0.72114306120E-01 -0.74915487022E-01  0.34861874799E-01  0.10967412994E+00  0.51100000000E-03 0.  1.
         11    1    4    4    0    0 -0.14311290686E-01 -0.17808973652E-01 -0.14533700384E-02  0.22898602340E-01  0.51100000000E-03 0. -1.
</event>
<event>
 8    1  0.1116619E+005  0.1043930E+01  0.7957747E-01            NaN
         13   -1    0    0    0    0  0.00000000000E+00  0.00000000000E+00  0.74505805969E-08  0.10566000000E+00  0.10566000000E+00 0. -1.
     999900   -1    0    0    0    0 -0.00000000000E+00 -0.00000000000E+00 -0.74505805969E-08  0.93827000000E+00  0.93827000000E+00 0.  1.
     999902    2    1    2    0    0 -0.20241495455E-01  0.25113148729E-02  0.12211355900E-01  0.10201572834E+01  0.10198802581E+01 0.  0.
     999903    2    3    3    0    0  0.11693027202E+00  0.13952381151E-01  0.48072492726E-01  0.12873537830E+00  0.19861410176E-01 0.  0.
         14    1    1    2    0    0  0.20241495455E-01 -0.25113148729E-02 -0.12211355900E-01  0.23772716579E-01  0.00000000000E+00 0. -1.
     999901    1    3    3    0    0 -0.13717176748E+00 -0.11441066278E-01 -0.35861136826E-01  0.89142190512E+00  0.88000000000E+00 0.  1.
        -11    1    4    4    0    0  0.31789296792E-01 -0.33861068010E-02  0.75074971637E-02  0.32842788318E-01  0.51100000000E-03 0. -1.
         11    1    4    4    0    0  0.85140975232E-01  0.17338487952E-01  0.40564995562E-01  0.95892589984E-01  0.51100000000E-03 0.  1.
</event>
<event>
 8    1  0.1116619E+005  0.1043930E+01  0.7957747E-01            NaN
         13   -1    0    0    0    0  0.00000000000E+00  0.00000000000E+00  0.74505805969E-08  0.10566000000E+00  0.10566000000E+00 0. -1.
     999900   -1    0    0    0    0 -0.00000000000E+00 -0.00000000000E+00 -0.74505805969E-08  0.93827000000E+00  0.93827000000E+00 0.  1.
     999902    2    1    2    0    0  0.20476715100E-01  0.67834723369E-02 -0.74541277771E-02  0.10211073056E+01  0.10208522196E+01 0.  0.
     999903    2    3    3    0    0 -0.91573688642E-01  0.15741150811E-02  0.88531148714E-01  0.12880937124E+00  0.19127768737E-01 0.  0.
         14    1    1    2    0    0 -0.20476715100E-01 -0.67834723369E-02  0.74541277771E-02  0.22822694388E-01  0.00000000000E+00 0. -1.
     999901    1    3    3    0    0  0.11205040374E+00  0.52093572558E-02 -0.95985276491E-01  0.89229793437E+00  0.88000000000E+00 0.  1.
        -11    1    4    4    0    0 -0.69098164446E-01 -0.43676078999E-02  0.57305454162E-01  0.89876629478E-01  0.51100000000E-03 0. -1.
         11    1    4    4    0    0 -0.22475524195E-01  0.59417229810E-02  0.31225694552E-01  0.38932741762E-01  0.51100000000E-03 0.  1.
</event>
<event>
 8    1  0.1116619E+005  0.1043930E+01  0.7957747E-01            NaN
         13   -1    0    0    0    0  0.00000000000E+00  0.00000000000E+00  0.74505805969E-08  0.10566000000E+00  0.10566000000E+00 0.  1.
     999900   -1    0    0    0    0 -0.00000000000E+00 -0.00000000000E+00 -0.74505805969E-08  0.93827000000E+00  0.93827000000E+00 0. -1.
     999902    2    1    2    0    0  0.22350368548E-01 -0.58478337481E-02 -0.85781942768E-02  0.10192861052E+01  0.10189881465E+01 0.  0.
     999903    2    3    3    0    0 -0.20076493492E-01 -0.41217225409E-01  0.11829899538E+00  0.12847251429E+00  0.20214088153E-01 0.  0.
         14    1    1    2    0    0 -0.22350368548E-01  0.58478337481E-02  0.85781942768E-02  0.24643894799E-01  0.00000000000E+00 0.  1.
     999901    1    3    3    0    0  0.42426862041E-01  0.35369391661E-01 -0.12687718966E+00  0.89081359091E+00  0.88000000000E+00 0. -1.
        -11    1    4    4    0    0 -0.17404085639E-01 -0.13772431102E-01  0.45569027175E-01  0.50689046293E-01  0.51100000000E-03 0.  1.
         11    1    4    4    0    0 -0.26724078535E-02 -0.27444794307E-01  0.72729968205E-01  0.77783468002E-01  0.51100000000E-03 0. -1.
</event>
<event>
 7    1  0.1116619E+005  0.1043930E+01  0.7957747E-01            NaN
         13   -1    0    0    0    0  0.00000000000E+00  0.00000000000E+00  0.74505805969E-08  0.10566000000E+00  0.10566000000E+00 0. -1.
     999900   -1    0    0    0    0 -0.00000000000E+00 -0.00000000000E+00 -0.74505805969E-08  0.93827000000E+00  0.93827000000E+00 0. -1.
     999903    2    1    2    0    0  0.20854286105E-01  0.50225425350E-01  0.40100592592E-01  0.70493417933E-01  0.20094025111E-01 0.  0.
         14    1    1    2    0    0 -0.23155551119E-01 -0.77601830416E-01 -0.45704682672E-01  0.92990008332E-01  0.00000000000E+00 0.  1.
     999901    1    1    2    0    0  0.23012650136E-02  0.27376405066E-01  0.56040900796E-02  0.88044657373E+00  0.88000000000E+00 0. -1.
        -11    1    3    3    0    0  0.93618547838E-02  0.51028112385E-02  0.12191962864E-01  0.16204569942E-01  0.51100000000E-03 0. -1.
         11    1    3    3    0    0  0.11492431321E-01  0.45122614111E-01  0.27908629728E-01  0.54288847991E-01  0.51100000000E-03 0.  1.
</event>
<event>
 8    1  0.1116619E+005  0.1043930E+01  0.7957747E-01            NaN
         13   -1    0    0    0    0  0.00000000000E+00  0.00000000000E+00  0.74505805969E-08  0.10566000000E+00  0.10566000000E+00 0. -1.
     999900   -1    0    0    0    0 -0.00000000000E+00 -0.00000000000E+00 -0.74505805969E-08  0.93827000000E+00  0.93827000000E+00 0. -1.
     999902    2    1    2    0    0  0.57426046789E-02  0.16280320729E-01  0.16544595255E-01  0.10200187059E+01  0.10197384030E+01 0.  0.
     999903    2    3    3    0    0 -0.62567535897E-01 -0.51250187958E-01  0.10088225703E+00  0.13078336808E+00  0.19641315341E-01 0.  0.
         14    1    1    2    0    0 -0.57426046789E-02 -0.16280320729E-01 -0.16544595255E-01  0.23911294061E-01  0.00000000000E+00 0. -1.
     999901    1    3    3    0    0  0.68310140576E-01  0.67530508687E-01 -0.84337661774E-01  0.88923533786E+00  0.88000000000E+00 0. -1.
        -11    1    4    4    0    0 -0.21739015309E-01 -0.30407838616E-01  0.45815127601E-01  0.59131281687E-01  0.51100000000E-03 0. -1.
         11    1    4    4    0    0 -0.40828520588E-01 -0.20842349341E-01  0.55067129428E-01  0.71652086389E-01  0.51100000000E-03 0.  1.
</event>
<event>
 8    1  0.1116619E+005  0.1043930E+01  0.7957747E-01            NaN
         13   -1    0    0    0    0  0.00000000000E+00  0.00000000000E+00  0.74505805969E-08  0.10566000000E+00  0.10566000000E+00 0.  1.
     999900   -1    0    0    0    0 -0.00000000000E+00 -0.00000000000E+00 -0.74505805969E-08  0.93827000000E+00  0.93827000000E+00 0.  1.
     999902    2    1    2    0    0 -0.15169861593E-01 -0.14804560207E-01  0.80222745711E-02  0.10212660067E+01  0.10210144954E+01 0.  0.
     999903    2    3    3    0    0 -0.59729025763E-01  0.11547849966E-01  0.11662791254E+00  0.13307956610E+00  0.20178988415E-01 0.  0.
         14    1    1    2    0    0  0.15169861593E-01  0.14804560207E-01 -0.80222745711E-02  0.22663993314E-01  0.00000000000E+00 0. -1.
     999901    1    3    3    0    0  0.44559164170E-01 -0.26352410173E-01 -0.10860563797E+00  0.88818644058E+00  0.88000000000E+00 0.  1.
        -11    1    4    4    0    0 -0.25340700119E-01  0.13512928326E-01  0.64388285120E-01  0.70504345229E-01  0.51100000000E-03 0.  1.
         11    1    4    4    0    0 -0.34388325644E-01 -0.19650783592E-02  0.52239627421E-01  0.62575220876E-01  0.51100000000E-03 0. -1.
</event>
<event>
 8    1  0.1116619E+005  0.1043930E+01  0.7957747E-01            NaN
         13   -1    0    0    0    0  0.00000000000E+00  0.00000000000E+00  0.74505805969E-08  0.10566000000E+00  0.10566000000E+00 0.  1.
     999900   -1    0    0    0    0 -0.00000000000E+00 -0.00000000000E+00 -0.74505805969E-08  0.93827000000E+00  0.93827000000E+00 0. -1.
     999902    2    1    2    0    0  0.18704380619E-01  0.53737276294E-02  0.12379941131E-01  0.10208650104E+01  0.10206044169E+01 0.  0.
     999903    2    3    3    0    0  0.10450029041E+00  0.46387906810E-01 -0.66035840429E-01  0.13227503981E+00  0.79878245467E-02 0.  0.
         14    1    1    2    0    0 -0.18704380619E-01 -0.53737276294E-02 -0.12379941131E-01  0.23064989603E-01  0.00000000000E+00 0. -1.
     999901    1    3    3    0    0 -0.85795909794E-01 -0.41014179180E-01  0.78415781560E-01  0.88858997059E+00  0.88000000000E+00 0.  1.
        -11    1    4    4    0    0  0.20284556514E-01  0.10370583437E-01 -0.16575193319E-01  0.28178189941E-01  0.51100000000E-03 0. -1.
         11    1    4    4    0    0  0.84215733899E-01  0.36017323373E-01 -0.49460647109E-01  0.10409684987E+00  0.51100000000E-03 0.  1.
</event>
<event>
 8    1  0.1116619E+005  0.1043930E+01  0.7957747E-01            NaN
         13   -1    0    0    0    0  0.00000000000E+00  0.00000000000E+00  0.74505805969E-08  0.10566000000E+00  0.10566000000E+00 0.  1.
     999900   -1    0    0    0    0 -0.00000000000E+00 -0.00000000000E+00 -0.74505805969E-08  0.93827000000E+00  0.93827000000E+00 0. -1.
     999902    2    1    2    0    0  0.15866716081E-01  0.14720123632E-01 -0.69835102695E-02  0.10211878775E+01  0.10209346096E+01 0.  0.
     999903    2    3    3    0    0 -0.37178589587E-01 -0.12061230848E+00  0.18342089742E-01  0.12890425801E+00  0.18716276240E-01 0.  0.
         14    1    1    2    0    0 -0.15866716081E-01 -0.14720123632E-01  0.69835102695E-02  0.22742122474E-01  0.00000000000E+00 0.  1.
     999901    1    3    3    0    0  0.53045305668E-01  0.13533243212E+00 -0.25325600011E-01  0.89228361951E+00  0.88000000000E+00 0. -1.
        -11    1    4    4    0    0 -0.91890462229E-02 -0.45384857674E-01 -0.10777220900E-02  0.46321123502E-01  0.51100000000E-03 0. -1.
         11    1    4    4    0    0 -0.27989543364E-01 -0.75227450810E-01  0.19419811832E-01  0.82583134511E-01  0.51100000000E-03 0.  1.
</event>
<event>
 8    1  0.1116619E+005  0.1043930E+01  0.7957747E-01            NaN
         13   -1    0    0    0    0  0.00000000000E+00  0.00000000000E+00  0.74505805969E-08  0.10566000000E+00  0.10566000000E+00 0.  1.
     999900   -1    0    0    0    0 -0.00000000000E+00 -0.00000000000E+00 -0.74505805969E-08  0.93827000000E+00  0.93827000000E+00 0. -1.
     999902    2    1    2    0    0  0.21877516965E-01 -0.73642988665E-02  0.60862089687E-02  0.10200574093E+01  0.10197780237E+01 0.  0.
     999903    2    3    3    0    0  0.66139966735E-01  0.10455059994E+00 -0.36563651737E-01  0.13084251985E+00  0.21852716616E-01 0.  0.
         14    1    1    2    0    0 -0.21877516965E-01  0.73642988665E-02 -0.60862089687E-02  0.23872590683E-01  0.00000000000E+00 0. -1.
     999901    1    3    3    0    0 -0.44262449770E-01 -0.11191489881E+00  0.42649860706E-01  0.88921488947E+00  0.88000000000E+00 0.  1.
        -11    1    4    4    0    0  0.52110587286E-01  0.63117913009E-01 -0.25233667823E-01  0.85652690341E-01  0.51100000000E-03 0.  1.
         11    1    4    4    0    0  0.14029379449E-01  0.41432686935E-01 -0.11329983914E-01  0.45189829507E-01  0.51100000000E-03 0. -1.
</event>
<event>
 8    1  0.1116619E+005  0.1043930E+01  0.7957747E-01            NaN
         13   -1    0    0    0    0  0.00000000000E+00  0.00000000000E+00  0.74505805969E-08  0.10566000000E+00  0.10566000000E+00 0.  1.
     999900   -1    0    0    0    0 -0.00000000000E+00 -0.00000000000E+00 -0.74505805969E-08  0.93827000000E+00  0.93827000000E+00 0.  1.
     999902    2    1    2    0    0 -0.20552814739E-01  0.37585800850E-02  0.12058170873E-01  0.10198064720E+01  0.10195211110E+01 0.  0.
     999903    2    3    3    0    0  0.10649297929E+00 -0.61556689704E-01 -0.26576383718E-01  0.12745040683E+00  0.20182203678E-01 0.  0.
         14    1    1    2    0    0  0.20552814739E-01 -0.37585800850E-02 -0.12058170873E-01  0.24123527991E-01  0.00000000000E+00 0. -1.
     999901    1    3    3    0    0 -0.12704579403E+00  0.65315269789E-01  0.38634554590E-01  0.89235606518E+00  0.88000000000E+00 0. -1.
        -11    1    4    4    0    0  0.25555392577E-01 -0.22591872586E-01 -0.13265977707E-02  0.34139299632E-01  0.51100000000E-03 0. -1.
         11    1    4    4    0    0  0.80937586711E-01 -0.38964817118E-01 -0.25249785947E-01  0.93311107201E-01  0.51100000000E-03 0.  1.
</event>
<event>
 8    1  0.1116619E+005  0.1043930E+01  0.7957747E-01            NaN
         13   -1    0    0    0    0  0.00000000000E+00  0.00000000000E+00  0.74505805969E-08  0.10566000000E+00  0.10566000000E+00 0. -1.
     999900   -1    0    0    0    0 -0.00000000000E+00 -0.00000000000E+00 -0.74505805969E-08  0.93827000000E+00  0.93827000000E+00 0.  1.
     999902    2    1    2    0    0 -0.16992816088E-01 -0.46741149826E-02 -0.16494610320E-01  0.10197913315E+01  0.10195056078E+01 0.  0.
     999903    2    3    3    0    0  0.46703700731E-01 -0.97863684042E-01  0.65364206855E-01  0.12881298829E+00  0.23701689791E-01 0.  0.
         14    1    1    2    0    0  0.16992816088E-01  0.46741149826E-02  0.16494610320E-01  0.24138668544E-01  0.00000000000E+00 0.  1.
     999901    1    3    3    0    0 -0.63696516819E-01  0.93189569059E-01 -0.81858817175E-01  0.89097834316E+00  0.88000000000E+00 0.  1.
        -11    1    4    4    0    0  0.38681213777E-01 -0.76804536524E-01  0.39890883133E-01  0.94798295385E-01  0.51100000000E-03 0. -1.
         11    1    4    4    0    0  0.80224869538E-02 -0.21059147518E-01  0.25473323723E-01  0.34014692907E-01  0.51100000000E-03 0.  1.
</event>
<event>
 8    1  0.1116619E+005  0.1043930E+01  0.7957747E-01            NaN
         13   -1    0    0    0    0  0.00000000000E+00  0.00000000000E+00  0.74505805969E-08  0.10566000000E+00  0.10566000000E+00 0.  1.
     999900   -1    0    0    0    0 -0.00000000000E+00 -0.00000000000E+00 -0.74505805969E-08  0.93827000000E+00  0.93827000000E+00 0. -1.
     999902    2    1    2    0    0  0.51821088872E-02 -0.37549814352E-02  0.21274583293E-01  0.10217137440E+01  0.10214721790E+01 0.  0.
     999903    2    3    3    0    0  0.62917797368E-01 -0.23236864221E-01 -0.10956501708E+00  0.12995595481E+00  0.19633036897E-01 0.  0.
         14    1    1    2    0    0 -0.51821088872E-02  0.37549814352E-02 -0.21274583293E-01  0.22216256039E-01  0.00000000000E+00 0. -1.
     999901    1    3    3    0    0 -0.57735688481E-01  0.19481882785E-01  0.13083960038E+00  0.89175778915E+00  0.88000000000E+00 0.  1.
        -11    1    4    4    0    0  0.83731991903E-02 -0.11116964286E-01 -0.24451946615E-01  0.28139939123E-01  0.51100000000E-03 0. -1.
         11    1    4    4    0    0  0.54544598178E-01 -0.12119899934E-01 -0.85113070470E-01  0.10181601569E+00  0.51100000000E-03 0.  1.
</event>
<event>
 8    1  0.1116619E+005  0.1043930E+01  0.7957747E-01            NaN
         13   -1    0    0    0    0  0.00000000000E+00  0.00000000000E+00  0.74505805969E-08  0.10566000000E+00  0.10566000000E+00 0. -1.
     999900   -1    0    0    0    0 -0.00000000000E+00 -0.00000000000E+00 -0.74505805969E-08  0.93827000000E+00  0.93827000000E+00 0.  1.
     999902    2    1    2    0    0 -0.13403792001E-01 -0.16084632694E-01 -0.68574429070E-03  0.10229813176E+01  0.10227668008E+01 0.  0.
     999903    2    3    3    0    0 -0.49060219828E-04  0.64925867034E-01 -0.11317971761E+00  0.13202904954E+00  0.20165585270E-01 0.  0.
         14    1    1    2    0    0  0.13403792001E-01  0.16084632694E-01  0.68574429070E-03  0.20948682396E-01  0.00000000000E+00 0.  1.
     999901    1    3    3    0    0 -0.13354731781E-01 -0.81010499728E-01  0.11249397332E+00  0.89095226806E+00  0.88000000000E+00 0. -1.
        -11    1    4    4    0    0 -0.24738924157E-02  0.21852109338E-01 -0.57676224620E-01  0.61728784482E-01  0.51100000000E-03 0.  1.
         11    1    4    4    0    0  0.24248321959E-02  0.43073757697E-01 -0.55503492986E-01  0.70300265063E-01  0.51100000000E-03 0. -1.
</event>
<event>
 8    1  0.1116619E+005  0.1043930E+01  0.7957747E-01            NaN
         13   -1    0    0    0    0  0.00000000000E+00  0.00000000000E+00  0.74505805969E-08  0.10566000000E+00  0.10566000000E+00 0.  1.
     999900   -1    0    0    0    0 -0.00000000000E+00 -0.00000000000E+00 -0.74505805969E-08  0.93827000000E+00  0.93827000000E+00 0. -1.
     999902    2    1    2    0    0 -0.17357480331E-01  0.13311486634E-01  0.11848469089E-01  0.10190530223E+01  0.10187493304E+01 0.  0.
     999903    2    3    3    0    0  0.55849387483E-01 -0.63198979878E-01 -0.92317509931E-01  0.12660490158E+00  0.19824563683E-01 0.  0.
         14    1    1    2    0    0  0.17357480331E-01 -0.13311486634E-01 -0.11848469089E-01  0.24876977703E-01  0.00000000000E+00 0. -1.
     999901    1    3    3    0    0 -0.73206867814E-01  0.76510466512E-01  0.10416597902E+00  0.89244812071E+00  0.88000000000E+00 0.  1.
        -11    1    4    4    0    0  0.13521601669E-01 -0.86072483914E-02 -0.27732350270E-01  0.32035336881E-01  0.51100000000E-03 0.  1.
         11    1    4    4    0    0  0.42327785814E-01 -0.54591731486E-01 -0.64585159661E-01  0.94569564703E-01  0.51100000000E-03 0. -1.
</event>
<event>
 8    1  0.1116619E+005  0.1043930E+01  0.7957747E-01            NaN
         13   -1    0    0    0    0  0.00000000000E+00  0.00000000000E+00  0.74505805969E-08  0.10566000000E+00  0.10566000000E+00 0.  1.
     999900   -1    0    0    0    0 -0.00000000000E+00 -0.00000000000E+00 -0.74505805969E-08  0.93827000000E+00  0.93827000000E+00 0. -1.
     999902    2    1    2    0    0  0.15474849947E-01 -0.88273964596E-02 -0.15801926489E-01  0.10201162479E+01  0.10198382540E+01 0.  0.
     999903    2    3    3    0    0  0.19332462140E-02  0.70916393908E-01  0.10473686720E+00  0.12822385083E+00  0.20944502991E-01 0.  0.
         14    1    1    2    0    0 -0.15474849947E-01  0.88273964596E-02  0.15801926489E-01  0.23813752117E-01  0.00000000000E+00 0.  1.
     999901    1    3    3    0    0  0.13541603733E-01 -0.79743790368E-01 -0.12053879369E+00  0.89189239705E+00  0.88000000000E+00 0. -1.
        -11    1    4    4    0    0  0.77999244712E-02  0.21265041605E-01  0.22174269865E-01  0.31701737827E-01  0.51100000000E-03 0.  1.
         11    1    4    4    0    0 -0.58666782571E-02  0.49651352303E-01  0.82562597334E-01  0.96522113005E-01  0.51100000000E-03 0. -1.
</event>
<event>
 8    1  0.1116619E+005  0.1043930E+01  0.7957747E-01            NaN
         13   -1    0    0    0    0  0.00000000000E+00  0.00000000000E+00  0.74505805969E-08  0.10566000000E+00  0.10566000000E+00 0. -1.
     999900   -1    0    0    0    0 -0.00000000000E+00 -0.00000000000E+00 -0.74505805969E-08  0.93827000000E+00  0.93827000000E+00 0.  1.
     999902    2    1    2    0    0  0.23623515709E-01  0.21939055740E-02 -0.41107644926E-02  0.10198513352E+01  0.10195670472E+01 0.  0.
     999903    2    3    3    0    0 -0.11241814526E+00 -0.24194291688E-01  0.51025961956E-01  0.12730232861E+00  0.19468716991E-01 0.  0.
         14    1    1    2    0    0 -0.23623515709E-01 -0.21939055740E-02  0.41107644926E-02  0.24078664847E-01  0.00000000000E+00 0. -1.
     999901    1    3    3    0    0  0.13604166097E+00  0.26388197262E-01 -0.55136726449E-01  0.89254900654E+00  0.88000000000E+00 0.  1.
        -11    1    4    4    0    0 -0.45267564263E-01 -0.16695143260E-01  0.13940679094E-01  0.50224335111E-01  0.51100000000E-03 0.  1.
         11    1    4    4    0    0 -0.67150581002E-01 -0.74991484281E-02  0.37085282862E-01  0.77077993500E-01  0.51100000000E-03 0. -1.
</event>
<event>
 8    1  0.1116619E+005  0.1043930E+01  0.7957747E-01            NaN
         13   -1    0    0    0    0  0.00000000000E+00  0.00000000000E+00  0.74505805969E-08  0.10566000000E+00  0.10566000000E+00 0.  1.
     999900   -1    0    0    0    0 -0.00000000000E+00 -0.00000000000E+00 -0.74505805969E-08  0.93827000000E+00  0.93827000000E+00 0. -1.
     999902    2    1    2    0    0  0.14579758472E-01 -0.17446231680E-01 -0.32122085257E-02  0.10209678868E+01  0.10207096391E+01 0.  0.
     999903    2    3    3    0    0 -0.12053104474E+00  0.22608386309E-01  0.34360175648E-01  0.12896397115E+00  0.20303012236E-01 0.  0.
         14    1    1    2    0    0 -0.14579758472E-01  0.17446231680E-01  0.32122085257E-02  0.22962113155E-01  0.00000000000E+00 0.  1.
     999901    1    3    3    0    0  0.13511080321E+00 -0.40054617989E-01 -0.37572384174E-01  0.89200391570E+00  0.88000000000E+00 0. -1.
        -11    1    4    4    0    0 -0.51015814939E-01  0.23055356875E-02  0.70050821488E-02  0.51548629135E-01  0.51100000000E-03 0.  1.
         11    1    4    4    0    0 -0.69515229801E-01  0.20302850621E-01  0.27355093499E-01  0.77415342013E-01  0.51100000000E-03 0. -1.
</event>
<event>
 8    1  0.1204538E+005  0.1043930E+01  0.7957747E-01            NaN
         13   -1    0    0    0    0  0.00000000000E+00  0.00000000000E+00  0.74505805969E-08  0.10566000000E+00  0.10566000000E+00 0. -1.
     999900   -1    0    0    0    0 -0.00000000000E+00 -0.00000000000E+00 -0.74505805969E-08  0.93827000000E+00  0.93827000000E+00 0.  1.
     999902    2    1    2    0    0 -0.61478925628E-02 -0.16415081841E-01  0.15003610378E-01  0.10208570761E+01  0.10205963011E+01 0.  0.
     999903    2    3    3    0    0  0.73534250444E-01 -0.72081128686E-01  0.81846626790E-01  0.13298549665E+00  0.19577969776E-01 0.  0.
         14    1    1    2    0    0  0.61478925628E-02  0.16415081841E-01 -0.15003610378E-01  0.23072923941E-01  0.00000000000E+00 0.  1.
     999901    1    3    3    0    0 -0.79682143007E-01  0.55666046844E-01 -0.66843016412E-01  0.88787157941E+00  0.88000000000E+00 0.  1.
        -11    1    4    4    0    0  0.32199468528E-01 -0.45218867328E-01  0.42920836644E-01  0.70171298087E-01  0.51100000000E-03 0.  1.
         11    1    4    4    0    0  0.41334781916E-01 -0.26862261358E-01  0.38925790145E-01  0.62814198560E-01  0.51100000000E-03 0. -1.
</event>
<event>
 8    1  0.1116619E+005  0.1043930E+01  0.7957747E-01            NaN
         13   -1    0    0    0    0  0.00000000000E+00  0.00000000000E+00  0.74505805969E-08  0.10566000000E+00  0.10566000000E+00 0.  1.
     999900   -1    0    0    0    0 -0.00000000000E+00 -0.00000000000E+00 -0.74505805969E-08  0.93827000000E+00  0.93827000000E+00 0.  1.
     999902    2    1    2    0    0 -0.10152566854E-01 -0.53526284880E-02  0.20606160527E-01  0.10203431584E+01  0.10200704984E+01 0.  0.
     999903    2    3    3    0    0  0.61636092339E-01  0.98469400275E-01  0.56434723431E-01  0.13061493519E+00  0.19497502812E-01 0.  0.
         14    1    1    2    0    0  0.10152566854E-01  0.53526284880E-02 -0.20606160527E-01  0.23586841610E-01  0.00000000000E+00 0. -1.
     999901    1    3    3    0    0 -0.71788659193E-01 -0.10382202876E+00 -0.35828562904E-01  0.88972822320E+00  0.88000000000E+00 0.  1.
        -11    1    4    4    0    0  0.40623082187E-01  0.70432237035E-01  0.29792147446E-01  0.86595427076E-01  0.51100000000E-03 0. -1.
         11    1    4    4    0    0  0.21013010152E-01  0.28037163240E-01  0.26642575985E-01  0.44019508111E-01  0.51100000000E-03 0.  1.
</event>
<event>
 8    1  0.1116619E+005  0.1043930E+01  0.7957747E-01            NaN
         13   -1    0    0    0    0  0.00000000000E+00  0.00000000000E+00  0.74505805969E-08  0.10566000000E+00  0.10566000000E+00 0. -1.
     999900   -1    0    0    0    0 -0.00000000000E+00 -0.00000000000E+00 -0.74505805969E-08  0.93827000000E+00  0.93827000000E+00 0.  1.
     999902    2    1    2    0    0  0.52694226432E-02 -0.18353822213E-01  0.13749742776E-01  0.10203994872E+01  0.10201281432E+01 0.  0.
     999903    2    3    3    0    0  0.14755787222E-01  0.30951394992E-01  0.12569111073E+00  0.13188844880E+00  0.20508181344E-01 0.  0.
         14    1    1    2    0    0 -0.52694226432E-02  0.18353822213E-01 -0.13749742776E-01  0.23530512770E-01  0.00000000000E+00 0.  1.
     999901    1    3    3    0    0 -0.94863645791E-02 -0.49305217205E-01 -0.11194136795E+00  0.88851103843E+00  0.88000000000E+00 0.  1.
        -11    1    4    4    0    0  0.44690313228E-02  0.23083111455E-02  0.39958107860E-02  0.64442351095E-02  0.51100000000E-03 0. -1.
         11    1    4    4    0    0  0.10286755899E-01  0.28643083846E-01  0.12169529994E+00  0.12544421369E+00  0.51100000000E-03 0.  1.
</event>
<event>
 8    1  0.1116619E+005  0.1043930E+01  0.7957747E-01            NaN
         13   -1    0    0    0    0  0.00000000000E+00  0.00000000000E+00  0.74505805969E-08  0.10566000000E+00  0.10566000000E+00 0.  1.
     999900   -1    0    0    0    0 -0.00000000000E+00 -0.00000000000E+00 -0.74505805969E-08  0.93827000000E+00  0.93827000000E+00 0.  1.
     999902    2    1    2    0    0  0.20191842425E-01 -0.53180158453E-02  0.12677312459E-01  0.10195024327E+01  0.10192097450E+01 0.  0.
     999903    2    3    3    0    0  0.46588312806E-01  0.10796348213E+00 -0.50640476999E-01  0.12959310367E+00  0.20083083547E-01 0.  0.
         14    1    1    2    0    0 -0.20191842425E-01  0.53180158453E-02 -0.12677312459E-01  0.24427567301E-01  0.00000000000E+00 0.  1.
     999901    1    3    3    0    0 -0.26396470381E-01 -0.11328149797E+00  0.63317789459E-01  0.88990932903E+00  0.88000000000E+00 0. -1.
        -11    1    4    4    0    0  0.26545492261E-02  0.16398994932E-01 -0.13646630785E-01  0.21505006839E-01  0.51100000000E-03 0.  1.
         11    1    4    4    0    0  0.43933763580E-01  0.91564487196E-01 -0.36993846215E-01  0.10808809683E+00  0.51100000000E-03 0. -1.
</event>
<event>
 8    1  0.1116619E+005  0.1043930E+01  0.7957747E-01            NaN
         13   -1    0    0    0    0  0.00000000000E+00  0.00000000000E+00  0.74505805969E-08  0.10566000000E+00  0.10566000000E+00 0.  1.
     999900   -1    0    0    0    0 -0.00000000000E+00 -0.00000000000E+00 -0.74505805969E-08  0.93827000000E+00  0.93827000000E+00 0. -1.
     999902    2    1    2    0    0 -0.20065601358E-01 -0.13014033819E-01  0.92494851793E-03  0.10199957366E+01  0.10197148885E+01 0.  0.
     999903    2    3    3    0    0 -0.12839630468E+00 -0.50543146999E-02  0.26535376398E-01  0.13294737692E+00  0.21441121196E-01 0.  0.
         14    1    1    2    0    0  0.20065601358E-01  0.13014033819E-01 -0.92494851793E-03  0.23934263387E-01  0.00000000000E+00 0.  1.
     999901    1    3    3    0    0  0.10833070332E+00 -0.79597191189E-02 -0.25610427880E-01  0.88704835969E+00  0.88000000000E+00 0.  1.
        -11    1    4    4    0    0 -0.34821688527E-01 -0.41361027698E-02  0.16724690423E-01  0.38854005311E-01  0.51100000000E-03 0.  1.
         11    1    4    4    0    0 -0.93574616153E-01 -0.91821193009E-03  0.98106859748E-02  0.94093371613E-01  0.51100000000E-03 0. -1.
</event>
<event>
 8    1  0.1116619E+005  0.1043930E+01  0.7957747E-01            NaN
         13   -1    0    0    0    0  0.00000000000E+00  0.00000000000E+00  0.74505805969E-08  0.10566000000E+00  0.10566000000E+00 0. -1.
     999900   -1    0    0    0    0 -0.00000000000E+00 -0.00000000000E+00 -0.74505805969E-08  0.93827000000E+00  0.93827000000E+00 0.  1.
     999902    2    1    2    0    0  0.11863372017E-02  0.20666925810E-01  0.21619364969E-02  0.10231164662E+01  0.10229047367E+01 0.  0.
     999903    2    3    3    0    0 -0.50044334525E-01  0.27853047809E-01 -0.11870076046E+00  0.13335019716E+00  0.20302139245E-01 0.  0.
         14    1    1    2    0    0 -0.11863372017E-02 -0.20666925810E-01 -0.21619364969E-02  0.20813533766E-01  0.00000000000E+00 0. -1.
     999901    1    3    3    0    0  0.51230671727E-01 -0.71861219993E-02  0.12086269695E+00  0.88976626908E+00  0.88000000000E+00 0. -1.
        -11    1    4    4    0    0 -0.36602647631E-01  0.28666754354E-01 -0.82160318720E-01  0.94404002627E-01  0.51100000000E-03 0.  1.
         11    1    4    4    0    0 -0.13441686894E-01 -0.81370654481E-03 -0.36540441737E-01  0.38946194528E-01  0.51100000000E-03 0. -1.
</event>
<event>
 8    1  0.1116619E+005  0.1043930E+01  0.7957747E-01            NaN
         13   -1    0    0    0    0  0.00000000000E+00  0.00000000000E+00  0.74505805969E-08  0.10566000000E+00  0.10566000000E+00 0.  1.
     999900   -1    0    0    0    0 -0.00000000000E+00 -0.00000000000E+00 -0.74505805969E-08  0.93827000000E+00  0.93827000000E+00 0. -1.
     999902    2    1    2    0    0  0.23282921075E-01 -0.61719074289E-02  0.33798209834E-02  0.10196069647E+01  0.10193168067E+01 0.  0.
     999903    2    3    3    0    0  0.47422740873E-01  0.73338957215E-01 -0.94654993055E-01  0.13027264443E+00  0.19592732803E-01 0.  0.
         14    1    1    2    0    0 -0.23282921075E-01  0.61719074289E-02 -0.33798209834E-02  0.24323035275E-01  0.00000000000E+00 0. -1.
     999901    1    3    3    0    0 -0.24139819798E-01 -0.79510864644E-01  0.98034814038E-01  0.88933432030E+00  0.88000000000E+00 0.  1.
        -11    1    4    4    0    0  0.35440020248E-02  0.14773738397E-01 -0.24893457274E-01  0.29167938437E-01  0.51100000000E-03 0. -1.
         11    1    4    4    0    0  0.43878738848E-01  0.58565218818E-01 -0.69761535780E-01  0.10110470599E+00  0.51100000000E-03 0.  1.
</event>
<event>
 8    1  0.1116619E+005  0.1043930E+01  0.7957747E-01            NaN
         13   -1    0    0    0    0  0.00000000000E+00  0.00000000000E+00  0.74505805969E-08  0.10566000000E+00  0.10566000000E+00 0. -1.
     999900   -1    0    0    0    0 -0.00000000000E+00 -0.00000000000E+00 -0.74505805969E-08  0.93827000000E+00  0.93827000000E+00 0. -1.
     999902    2    1    2    0    0 -0.12698293107E-01 -0.11894890077E-01 -0.96560082832E-02  0.10240309158E+01  0.10238375569E+01 0.  0.
     999903    2    3    3    0    0 -0.24209532092E-02  0.10772168600E-01 -0.13313628157E+00  0.13506140157E+00  0.19859810998E-01 0.  0.
         14    1    1    2    0    0  0.12698293107E-01  0.11894890077E-01  0.96560082832E-02  0.19899084244E-01  0.00000000000E+00 0.  1.
     999901    1    3    3    0    0 -0.10277339898E-01 -0.22667058677E-01  0.12348027329E+00  0.88896951419E+00  0.88000000000E+00 0.  1.
        -11    1    4    4    0    0  0.86590423541E-02  0.31705407904E-02 -0.50293322764E-01  0.51134242724E-01  0.51100000000E-03 0.  1.
         11    1    4    4    0    0 -0.11079995563E-01  0.76016278097E-02 -0.82842958805E-01  0.83927158844E-01  0.51100000000E-03 0. -1.
</event>
<event>
 8    1  0.1116619E+005  0.1043930E+01  0.7957747E-01            NaN
         13   -1    0    0    0    0  0.00000000000E+00  0.00000000000E+00  0.74505805969E-08  0.10566000000E+00  0.10566000000E+00 0.  1.
     999900   -1    0    0    0    0 -0.00000000000E+00 -0.00000000000E+00 -0.74505805969E-08  0.93827000000E+00  0.93827000000E+00 0. -1.
     999902    2    1    2    0    0 -0.92654895876E-02 -0.19277140409E-01  0.74060696072E-02  0.10212957934E+01  0.10210449502E+01 0.  0.
     999903    2    3    3    0    0 -0.31013705616E-01 -0.78582053010E-01 -0.10005146376E+00  0.13251169196E+00  0.20299362405E-01 0.  0.
         14    1    1    2    0    0  0.92654895876E-02  0.19277140409E-01 -0.74060696072E-02  0.22634206561E-01  0.00000000000E+00 0. -1.
     999901    1    3    3    0    0  0.21748216029E-01  0.59304912601E-01  0.10745753337E+00  0.88878410148E+00  0.88000000000E+00 0.  1.
        -11    1    4    4    0    0 -0.20574304565E-01 -0.34382490182E-01 -0.58800489871E-01  0.71156281307E-01  0.51100000000E-03 0. -1.
         11    1    4    4    0    0 -0.10439401052E-01 -0.44199562828E-01 -0.41250973893E-01  0.61355410655E-01  0.51100000000E-03 0.  1.
</event>
<event>
 8    1  0.1116619E+005  0.1043930E+01  0.7957747E-01            NaN
         13   -1    0    0    0    0  0.00000000000E+00  0.00000000000E+00  0.74505805969E-08  0.10566000000E+00  0.10566000000E+00 0. -1.
     999900   -1    0    0    0    0 -0.00000000000E+00 -0.00000000000E+00 -0.74505805969E-08  0.93827000000E+00  0.93827000000E+00 0. -1.
     999902    2    1    2    0    0 -0.14931942293E-02  0.19111272917E-01 -0.17536411435E-01  0.10179493128E+01  0.10176177118E+01 0.  0.
     999903    2    3    3    0    0  0.52823537267E-01 -0.77821562964E-01 -0.84902495415E-01  0.12840759300E+00  0.20821970615E-01 0.  0.
         14    1    1    2    0    0  0.14931942293E-02 -0.19111272917E-01  0.17536411435E-01  0.25980687203E-01  0.00000000000E+00 0. -1.
     999901    1    3    3    0    0 -0.54316731496E-01  0.96932835881E-01  0.67366083979E-01  0.88954171980E+00  0.88000000000E+00 0.  1.
        -11    1    4    4    0    0  0.81943875832E-02 -0.14975672369E-01 -0.27212948676E-01  0.32128249989E-01  0.51100000000E-03 0.  1.
         11    1    4    4    0    0  0.44629149683E-01 -0.62845890594E-01 -0.57689546739E-01  0.96279343008E-01  0.51100000000E-03 0. -1.
</event>
<event>
 8    1  0.1116619E+005  0.1043930E+01  0.7957747E-01            NaN
         13   -1    0    0    0    0  0.00000000000E+00  0.00000000000E+00  0.74505805969E-08  0.10566000000E+00  0.10566000000E+00 0. -1.
     999900   -1    0    0    0    0 -0.00000000000E+00 -0.00000000000E+00 -0.74505805969E-08  0.93827000000E+00  0.93827000000E+00 0. -1.
     999902    2    1    2    0    0  0.26438223297E-01  0.12929599999E-02  0.33832314006E-02  0.10172448421E+01  0.10168947690E+01 0.  0.
     999903    2    3    3    0    0  0.41458035875E-01  0.95664696987E-01  0.73776217604E-01  0.12927705440E+00  0.19978076038E-01 0.  0.
         14    1    1    2    0    0 -0.26438223297E-01 -0.12929599999E-02 -0.33832314006E-02  0.26685157886E-01  0.00000000000E+00 0. -1.
     999901    1    3    3    0    0 -0.15019812577E-01 -0.94371736987E-01 -0.70392986203E-01  0.88796778771E+00  0.88000000000E+00 0. -1.
        -11    1    4    4    0    0  0.10473468610E-01  0.49194493316E-01  0.34408989035E-01  0.60942853271E-01  0.51100000000E-03 0. -1.
         11    1    4    4    0    0  0.30984567264E-01  0.46470203671E-01  0.39367228569E-01  0.68334201129E-01  0.51100000000E-03 0.  1.
</event>
<event>
 7    1  0.1116619E+005  0.1043930E+01  0.7957747E-01            NaN
         13   -1    0    0    0    0  0.00000000000E+00  0.00000000000E+00  0.74505805969E-08  0.10566000000E+00  0.10566000000E+00 0.  1.
     999900   -1    0    0    0    0 -0.00000000000E+00 -0.00000000000E+00 -0.74505805969E-08  0.93827000000E+00  0.93827000000E+00 0. -1.
     999902    2    1    2    0    0  0.10571421523E-01  0.20169971447E-01  0.26214402007E-02  0.10210072024E+01  0.10207498482E+01 0.  0.
         14    1    1    2    0    0 -0.10571421523E-01 -0.20169971447E-01 -0.26214402007E-02  0.22922797603E-01  0.00000000000E+00 0. -1.
     999901    1    3    3    0    0 -0.95657130282E-01 -0.38497456002E-01 -0.40502679348E-01  0.88694577496E+00  0.88000000000E+00 0. -1.
        -11    1    3    3    0    0  0.94664179449E-01  0.58980761186E-01  0.48089948656E-01  0.12146168673E+00  0.51100000000E-03 0. -1.
         11    1    3    3    0    0  0.11564372357E-01 -0.31333373673E-03 -0.49658291072E-02  0.12599740702E-01  0.51100000000E-03 0.  1.
</event>
<event>
 8    1  0.1446354E+005  0.1043930E+01  0.7957747E-01            NaN
         13   -1    0    0    0    0  0.00000000000E+00  0.00000000000E+00  0.74505805969E-08  0.10566000000E+00  0.10566000000E+00 0.  1.
     999900   -1    0    0    0    0 -0.00000000000E+00 -0.00000000000E+00 -0.74505805969E-08  0.93827000000E+00  0.93827000000E+00 0.  1.
     999902    2    1    2    0    0  0.18721300398E-01 -0.14754908560E-01  0.12209856782E-02  0.10200619205E+01  0.10197826417E+01 0.  0.
     999903    2    3    3    0    0  0.10016270122E+00  0.74732365471E-01  0.33919320173E-01  0.13118068257E+00  0.20984709547E-01 0.  0.
         14    1    1    2    0    0 -0.18721300398E-01  0.14754908560E-01 -0.12209856782E-02  0.23868079547E-01  0.00000000000E+00 0.  1.
     999901    1    3    3    0    0 -0.81441400818E-01 -0.89487274031E-01 -0.32698334495E-01  0.88888123788E+00  0.88000000000E+00 0. -1.
        -11    1    4    4    0    0  0.48311579867E-01  0.30269088028E-01  0.25149031801E-01  0.62313412366E-01  0.51100000000E-03 0. -1.
         11    1    4    4    0    0  0.51851121350E-01  0.44463277443E-01  0.87702883724E-02  0.68867270204E-01  0.51100000000E-03 0.  1.
</event>
<event>
 8    1  0.1116619E+005  0.1043930E+01  0.7957747E-01            NaN
         13   -1    0    0    0    0  0.00000000000E+00  0.00000000000E+00  0.74505805969E-08  0.10566000000E+00  0.10566000000E+00 0.  1.
     999900   -1    0    0    0    0 -0.00000000000E+00 -0.00000000000E+00 -0.74505805969E-08  0.93827000000E+00  0.93827000000E+00 0.  1.
     999902    2    1    2    0    0 -0.17441098131E-01 -0.16283727112E-01  0.84989484683E-03  0.10200537776E+01  0.10197743061E+01 0.  0.
     999903    2    3    3    0    0 -0.11039763697E+00 -0.21988718971E-01  0.67359095780E-01  0.13264353494E+00  0.19644784758E-01 0.  0.
         14    1    1    2    0    0  0.17441098131E-01  0.16283727112E-01 -0.84989484683E-03  0.23876222354E-01  0.00000000000E+00 0.  1.
     999901    1    3    3    0    0  0.92956538836E-01  0.57049918590E-02 -0.66509200933E-01  0.88741024270E+00  0.88000000000E+00 0.  1.
        -11    1    4    4    0    0 -0.71929430911E-01 -0.72410934163E-02  0.50184728327E-01  0.88005934705E-01  0.51100000000E-03 0. -1.
         11    1    4    4    0    0 -0.38468206056E-01 -0.14747625555E-01  0.17174367453E-01  0.44637600238E-01  0.51100000000E-03 0.  1.
</event>
<event>
 7    1  0.1116619E+005  0.1043930E+01  0.7957747E-01            NaN
         13   -1    0    0    0    0  0.00000000000E+00  0.00000000000E+00  0.74505805969E-08  0.10566000000E+00  0.10566000000E+00 0. -1.
     999900   -1    0    0    0    0 -0.00000000000E+00 -0.00000000000E+00 -0.74505805969E-08  0.93827000000E+00  0.93827000000E+00 0.  1.
     999903    2    1    2    0    0  0.14428464721E-01 -0.10626320265E+00 -0.54355315716E-02  0.10915545781E+00  0.19629572966E-01 0.  0.
         14    1    1    2    0    0 -0.16721731839E-01 -0.39361591026E-01 -0.10833965443E-02  0.42779959232E-01  0.00000000000E+00 0.  1.
     999901    1    1    2    0    0  0.22932671179E-02  0.14562479367E+00  0.65189281159E-02  0.89199458296E+00  0.88000000000E+00 0.  1.
        -11    1    3    3    0    0 -0.18353774264E-02 -0.54020715149E-01  0.97652357107E-03  0.54063120468E-01  0.51100000000E-03 0. -1.
         11    1    3    3    0    0  0.16263842148E-01 -0.52242487498E-01 -0.64120551427E-02  0.55092337339E-01  0.51100000000E-03 0.  1.
</event>
<event>
 8    1  0.1116619E+005  0.1043930E+01  0.7957747E-01            NaN
         13   -1    0    0    0    0  0.00000000000E+00  0.00000000000E+00  0.74505805969E-08  0.10566000000E+00  0.10566000000E+00 0.  1.
     999900   -1    0    0    0    0 -0.00000000000E+00 -0.00000000000E+00 -0.74505805969E-08  0.93827000000E+00  0.93827000000E+00 0. -1.
     999902    2    1    2    0    0  0.11329749459E-01  0.18494059318E-01 -0.32952668909E-02  0.10219925381E+01  0.10217570629E+01 0.  0.
     999903    2    3    3    0    0 -0.12782911272E+00  0.13798403296E-01 -0.15082161749E-01  0.13096719105E+00  0.19855869045E-01 0.  0.
         14    1    1    2    0    0 -0.11329749459E-01 -0.18494059318E-01  0.32952668909E-02  0.21937461948E-01  0.00000000000E+00 0.  1.
     999901    1    3    3    0    0  0.13915886218E+00  0.46956560215E-02  0.11786894859E-01  0.89102534700E+00  0.88000000000E+00 0. -1.
        -11    1    4    4    0    0 -0.54761792684E-01  0.14980391850E-01 -0.26445454035E-02  0.56837670777E-01  0.51100000000E-03 0.  1.
         11    1    4    4    0    0 -0.73067320039E-01 -0.11819885538E-02 -0.12437616346E-01  0.74129520273E-01  0.51100000000E-03 0. -1.
</event>
<event>
 8    1  0.1116619E+005  0.1043930E+01  0.7957747E-01            NaN
         13   -1    0    0    0    0  0.00000000000E+00  0.00000000000E+00  0.74505805969E-08  0.10566000000E+00  0.10566000000E+00 0. -1.
     999900   -1    0    0    0    0 -0.00000000000E+00 -0.00000000000E+00 -0.74505805969E-08  0.93827000000E+00  0.93827000000E+00 0. -1.
     999902    2    1    2    0    0  0.91660801454E-03  0.29463225267E-01 -0.33301976618E-02  0.10142650033E+01  0.10138310929E+01 0.  0.
     999903    2    3    3    0    0 -0.97791646859E-01 -0.35831817724E-01 -0.65017245172E-01  0.12420205380E+00  0.18755869531E-01 0.  0.
         14    1    1    2    0    0 -0.91660801454E-03 -0.29463225267E-01  0.33301976618E-02  0.29664996711E-01  0.00000000000E+00 0. -1.
     999901    1    3    3    0    0  0.98708254874E-01  0.65295042991E-01  0.61687047510E-01  0.89006294949E+00  0.88000000000E+00 0. -1.
        -11    1    4    4    0    0 -0.37885018931E-01 -0.43283901370E-02 -0.23878383847E-01  0.44993865768E-01  0.51100000000E-03 0. -1.
         11    1    4    4    0    0 -0.59906627928E-01 -0.31503427586E-01 -0.41138861325E-01  0.79208188033E-01  0.51100000000E-03 0.  1.
</event>
<event>
 8    1  0.1116619E+005  0.1043930E+01  0.7957747E-01            NaN
         13   -1    0    0    0    0  0.00000000000E+00  0.00000000000E+00  0.74505805969E-08  0.10566000000E+00  0.10566000000E+00 0.  1.
     999900   -1    0    0    0    0 -0.00000000000E+00 -0.00000000000E+00 -0.74505805969E-08  0.93827000000E+00  0.93827000000E+00 0. -1.
     999902    2    1    2    0    0 -0.17022232553E-01 -0.11875151806E-01 -0.93030150958E-02  0.10211852925E+01  0.10209319663E+01 0.  0.
     999903    2    3    3    0    0  0.10583188578E+00 -0.70938327976E-01  0.18004777311E-01  0.13027154315E+00  0.20343758883E-01 0.  0.
         14    1    1    2    0    0  0.17022232553E-01  0.11875151806E-01  0.93030150958E-02  0.22744707547E-01  0.00000000000E+00 0. -1.
     999901    1    3    3    0    0 -0.12285411833E+00  0.59063176169E-01 -0.27307792406E-01  0.89091374930E+00  0.88000000000E+00 0. -1.
        -11    1    4    4    0    0  0.75355840523E-01 -0.56437663957E-01  0.56161203264E-02  0.94316035447E-01  0.51100000000E-03 0. -1.
         11    1    4    4    0    0  0.30476045255E-01 -0.14500664018E-01  0.12388656984E-01  0.35955507704E-01  0.51100000000E-03 0.  1.
</event>
<event>
 8    1  0.1116619E+005  0.1043930E+01  0.7957747E-01            NaN
         13   -1    0    0    0    0  0.00000000000E+00  0.00000000000E+00  0.74505805969E-08  0.10566000000E+00  0.10566000000E+00 0. -1.
     999900   -1    0    0    0    0 -0.00000000000E+00 -0.00000000000E+00 -0.74505805969E-08  0.93827000000E+00  0.93827000000E+00 0. -1.
     999902    2    1    2    0    0 -0.54619282685E-02  0.24678037082E-01 -0.67055028980E-02  0.10177803930E+01  0.10174444096E+01 0.  0.
     999903    2    3    3    0    0  0.34980089611E-01 -0.19842409820E-01 -0.11968526837E+00  0.12852112016E+00  0.23995561391E-01 0.  0.
         14    1    1    2    0    0  0.54619282685E-02 -0.24678037082E-01  0.67055028980E-02  0.26149606952E-01  0.00000000000E+00 0.  1.
     999901    1    3    3    0    0 -0.40442017879E-01  0.44520446902E-01  0.11297976547E+00  0.88925927288E+00  0.88000000000E+00 0.  1.
        -11    1    4    4    0    0 -0.31362977728E-02 -0.44082931659E-02 -0.10031031830E-01  0.11408423771E-01  0.51100000000E-03 0.  1.
         11    1    4    4    0    0  0.38116387383E-01 -0.15434116654E-01 -0.10965423654E+00  0.11711269639E+00  0.51100000000E-03 0. -1.
</event>
<event>
 8    1  0.1116619E+005  0.1043930E+01  0.7957747E-01            NaN
         13   -1    0    0    0    0  0.00000000000E+00  0.00000000000E+00  0.74505805969E-08  0.10566000000E+00  0.10566000000E+00 0. -1.
     999900   -1    0    0    0    0 -0.00000000000E+00 -0.00000000000E+00 -0.74505805969E-08  0.93827000000E+00  0.93827000000E+00 0. -1.
     999902    2    1    2    0    0  0.62295292678E-02  0.16459322075E-01 -0.16752980558E-01  0.10196322907E+01  0.10193427439E+01 0.  0.
     999903    2    3    3    0    0 -0.81619035568E-01 -0.95501314531E-01 -0.18128984825E-01  0.12819836279E+00  0.17999780218E-01 0.  0.
         14    1    1    2    0    0 -0.62295292678E-02 -0.16459322075E-01  0.16752980558E-01  0.24297709268E-01  0.00000000000E+00 0. -1.
     999901    1    3    3    0    0  0.87848564836E-01  0.11196063661E+00  0.13760042665E-02  0.89143392794E+00  0.88000000000E+00 0. -1.
        -11    1    4    4    0    0 -0.48543230578E-01 -0.44079556157E-01 -0.12928709882E-01  0.66834610541E-01  0.51100000000E-03 0. -1.
         11    1    4    4    0    0 -0.33075804990E-01 -0.51421758374E-01 -0.52002749433E-02  0.61363752252E-01  0.51100000000E-03 0.  1.
</event>
<event>
 8    1  0.1116619E+005  0.1043930E+01  0.7957747E-01            NaN
         13   -1    0    0    0    0  0.00000000000E+00  0.00000000000E+00  0.74505805969E-08  0.10566000000E+00  0.10566000000E+00 0. -1.
     999900   -1    0    0    0    0 -0.00000000000E+00 -0.00000000000E+00 -0.74505805969E-08  0.93827000000E+00  0.93827000000E+00 0. -1.
     999902    2    1    2    0    0 -0.17805673779E-01  0.14671278605E-01 -0.37582453866E-02  0.10205545248E+01  0.10202867857E+01 0.  0.
     999903    2    3    3    0    0  0.85041187285E-01 -0.62541416003E-01 -0.70438258389E-01  0.12871064762E+00  0.21481394656E-01 0.  0.
         14    1    1    2    0    0  0.17805673779E-01 -0.14671278605E-01  0.37582453866E-02  0.23375475247E-01  0.00000000000E+00 0.  1.
     999901    1    3    3    0    0 -0.10284686106E+00  0.77212694608E-01  0.66680013003E-01  0.89184387713E+00  0.88000000000E+00 0.  1.
        -11    1    4    4    0    0  0.76595015335E-01 -0.46546665948E-01 -0.58497063905E-01  0.10703063156E+00  0.51100000000E-03 0. -1.
         11    1    4    4    0    0  0.84461719500E-02 -0.15994750056E-01 -0.11941194484E-01  0.21680016067E-01  0.51100000000E-03 0.  1.
</event>
<event>
 8    1  0.1116619E+005  0.1043930E+01  0.7957747E-01            NaN
         13   -1    0    0    0    0  0.00000000000E+00  0.00000000000E+00  0.74505805969E-08  0.10566000000E+00  0.10566000000E+00 0. -1.
     999900   -1    0    0    0    0 -0.00000000000E+00 -0.00000000000E+00 -0.74505805969E-08  0.93827000000E+00  0.93827000000E+00 0.  1.
     999902    2    1    2    0    0  0.50625245476E-02  0.20202490318E-01  0.12700784286E-01  0.10195357447E+01  0.10192438644E+01 0.  0.
     999903    2    3    3    0    0 -0.21894693824E-02  0.10279799502E+00  0.81882566575E-01  0.13293508612E+00  0.19868589655E-01 0.  0.
         14    1    1    2    0    0 -0.50625245476E-02 -0.20202490318E-01 -0.12700784286E-01  0.24394255294E-01  0.00000000000E+00 0. -1.
     999901    1    3    3    0    0  0.72519939300E-02 -0.82595504704E-01 -0.69181782289E-01  0.88660065859E+00  0.88000000000E+00 0.  1.
        -11    1    4    4    0    0 -0.77942341971E-02  0.68824871293E-01  0.45695777114E-01  0.82981794161E-01  0.51100000000E-03 0.  1.
         11    1    4    4    0    0  0.56047648147E-02  0.33973123730E-01  0.36186789461E-01  0.49953291954E-01  0.51100000000E-03 0. -1.
</event>
<event>
 8    1  0.1116619E+005  0.1043930E+01  0.7957747E-01            NaN
         13   -1    0    0    0    0  0.00000000000E+00  0.00000000000E+00  0.74505805969E-08  0.10566000000E+00  0.10566000000E+00 0.  1.
     999900   -1    0    0    0    0 -0.00000000000E+00 -0.00000000000E+00 -0.74505805969E-08  0.93827000000E+00  0.93827000000E+00 0.  1.
     999902    2    1    2    0    0  0.14137586412E-01 -0.18303600670E-01  0.49436199549E-02  0.10202797880E+01  0.10200056438E+01 0.  0.
     999903    2    3    3    0    0  0.56423880713E-01 -0.48271176796E-01  0.10827942304E+00  0.13271881859E+00  0.19393053690E-01 0.  0.
         14    1    1    2    0    0 -0.14137586412E-01  0.18303600670E-01 -0.49436199549E-02  0.23650211950E-01  0.00000000000E+00 0.  1.
     999901    1    3    3    0    0 -0.42286294301E-01  0.29967576126E-01 -0.10333580308E+00  0.88756096946E+00  0.88000000000E+00 0. -1.
        -11    1    4    4    0    0  0.26096369238E-01 -0.33196448742E-01  0.51451258745E-01  0.66562135212E-01  0.51100000000E-03 0.  1.
         11    1    4    4    0    0  0.30327511475E-01 -0.15074728053E-01  0.56828164292E-01  0.66156683381E-01  0.51100000000E-03 0. -1.
</event>
<event>
 8    1  0.1116619E+005  0.1043930E+01  0.7957747E-01            NaN
         13   -1    0    0    0    0  0.00000000000E+00  0.00000000000E+00  0.74505805969E-08  0.10566000000E+00  0.10566000000E+00 0. -1.
     999900   -1    0    0    0    0 -0.00000000000E+00 -0.00000000000E+00 -0.74505805969E-08  0.93827000000E+00  0.93827000000E+00 0. -1.
     999902    2    1    2    0    0 -0.16651960930E-01  0.16768446030E-01  0.40590199280E-03  0.10202945744E+01  0.10200207769E+01 0.  0.
     999903    2    3    3    0    0  0.65935768649E-01  0.40057101847E-01  0.10285417138E+00  0.13020539774E+00  0.20551594469E-01 0.  0.
         14    1    1    2    0    0  0.16651960930E-01 -0.16768446030E-01 -0.40590199280E-03  0.23635425562E-01  0.00000000000E+00 0.  1.
     999901    1    3    3    0    0 -0.82587729579E-01 -0.23288655817E-01 -0.10244826939E+00  0.89008917669E+00  0.88000000000E+00 0. -1.
        -11    1    4    4    0    0  0.19904593575E-01  0.18151551267E-02  0.25614965660E-01  0.32494233647E-01  0.51100000000E-03 0.  1.
         11    1    4    4    0    0  0.46031175074E-01  0.38241946720E-01  0.77239205723E-01  0.97711164098E-01  0.51100000000E-03 0. -1.
</event>
<event>
 8    1  0.1116619E+005  0.1043930E+01  0.7957747E-01            NaN
         13   -1    0    0    0    0  0.00000000000E+00  0.00000000000E+00  0.74505805969E-08  0.10566000000E+00  0.10566000000E+00 0. -1.
     999900   -1    0    0    0    0 -0.00000000000E+00 -0.00000000000E+00 -0.74505805969E-08  0.93827000000E+00  0.93827000000E+00 0.  1.
     999902    2    1    2    0    0 -0.10914025504E-02  0.10657253838E-01 -0.21746543354E-01  0.10196878803E+01  0.10193996728E+01 0.  0.
     999903    2    3    3    0    0  0.93513465084E-01 -0.49670417672E-01 -0.74446661891E-01  0.13099962709E+00  0.20166266067E-01 0.  0.
         14    1    1    2    0    0  0.10914025504E-02 -0.10657253838E-01  0.21746543354E-01  0.24242119684E-01  0.00000000000E+00 0. -1.
     999901    1    3    3    0    0 -0.94604867634E-01  0.60327671510E-01  0.52700118537E-01  0.88868825323E+00  0.88000000000E+00 0. -1.
        -11    1    4    4    0    0  0.37042090838E-01 -0.21718671993E-01 -0.18588543937E-01  0.46793293253E-01  0.51100000000E-03 0.  1.
         11    1    4    4    0    0  0.56471374246E-01 -0.27951745679E-01 -0.55858117954E-01  0.84206333836E-01  0.51100000000E-03 0. -1.
</event>
<event>
 8    1  0.1116619E+005  0.1043930E+01  0.7957747E-01            NaN
         13   -1    0    0    0    0  0.00000000000E+00  0.00000000000E+00  0.74505805969E-08  0.10566000000E+00  0.10566000000E+00 0.  1.
     999900   -1    0    0    0    0 -0.00000000000E+00 -0.00000000000E+00 -0.74505805969E-08  0.93827000000E+00  0.93827000000E+00 0. -1.
     999902    2    1    2    0    0  0.61741921172E-02 -0.20214927773E-01 -0.65719988670E-02  0.10217950701E+01  0.10215552898E+01 0.  0.
     999903    2    3    3    0    0  0.75604148274E-01 -0.72009598889E-01 -0.82174461152E-01  0.13431609058E+00  0.19667245709E-01 0.  0.
         14    1    1    2    0    0 -0.61741921172E-02  0.20214927773E-01  0.65719988670E-02  0.22134929914E-01  0.00000000000E+00 0.  1.
     999901    1    3    3    0    0 -0.69429956157E-01  0.51794671116E-01  0.75602462285E-01  0.88747897951E+00  0.88000000000E+00 0.  1.
        -11    1    4    4    0    0  0.46538114442E-01 -0.36194607917E-01 -0.36174180624E-01  0.69171368375E-01  0.51100000000E-03 0.  1.
         11    1    4    4    0    0  0.29066033832E-01 -0.35814990972E-01 -0.46000280528E-01  0.65144722202E-01  0.51100000000E-03 0. -1.
</event>
<event>
 8    1  0.1116619E+005  0.1043930E+01  0.7957747E-01            NaN
         13   -1    0    0    0    0  0.00000000000E+00  0.00000000000E+00  0.74505805969E-08  0.10566000000E+00  0.10566000000E+00 0. -1.
     999900   -1    0    0    0    0 -0.00000000000E+00 -0.00000000000E+00 -0.74505805969E-08  0.93827000000E+00  0.93827000000E+00 0.  1.
     999902    2    1    2    0    0 -0.22951186912E-01  0.68520560136E-02 -0.13455964879E-02  0.10199400379E+01  0.10196578655E+01 0.  0.
     999903    2    3    3    0    0 -0.44791370175E-01  0.71777232569E-01  0.98118478302E-01  0.13169155107E+00  0.23604891058E-01 0.  0.
         14    1    1    2    0    0  0.22951186912E-01 -0.68520560136E-02  0.13455964879E-02  0.23989962113E-01  0.00000000000E+00 0.  1.
     999901    1    3    3    0    0  0.21840183263E-01 -0.64925176555E-01 -0.99464074790E-01  0.88824848682E+00  0.88000000000E+00 0.  1.
        -11    1    4    4    0    0 -0.24769762322E-01  0.56370282083E-01  0.78104266462E-01  0.99456962492E-01  0.51100000000E-03 0. -1.
         11    1    4    4    0    0 -0.20021607853E-01  0.15406950486E-01  0.20014211840E-01  0.32234588579E-01  0.51100000000E-03 0.  1.
</event>
<event>
 8    1  0.1116619E+005  0.1043930E+01  0.7957747E-01            NaN
         13   -1    0    0    0    0  0.00000000000E+00  0.00000000000E+00  0.74505805969E-08  0.10566000000E+00  0.10566000000E+00 0.  1.
     999900   -1    0    0    0    0 -0.00000000000E+00 -0.00000000000E+00 -0.74505805969E-08  0.93827000000E+00  0.93827000000E+00 0. -1.
     999902    2    1    2    0    0  0.82791337957E-02  0.18440133054E-01 -0.23234002536E-01  0.10131338730E+01  0.10126657115E+01 0.  0.
     999903    2    3    3    0    0 -0.51200534907E-01 -0.63780783179E-01  0.86348468004E-01  0.12054974370E+00  0.19664681584E-01 0.  0.
         14    1    1    2    0    0 -0.82791337957E-02 -0.18440133054E-01  0.23234002536E-01  0.30796126985E-01  0.00000000000E+00 0.  1.
     999901    1    3    3    0    0  0.59479668703E-01  0.82220916233E-01 -0.10958247054E+00  0.89258412931E+00  0.88000000000E+00 0. -1.
        -11    1    4    4    0    0 -0.66730546745E-02 -0.20573072567E-01  0.17149970763E-01  0.27607310476E-01  0.51100000000E-03 0. -1.
         11    1    4    4    0    0 -0.44527480233E-01 -0.43207710611E-01  0.69198497241E-01  0.92942433224E-01  0.51100000000E-03 0.  1.
</event>
<event>
 8    1  0.1116619E+005  0.1043930E+01  0.7957747E-01            NaN
         13   -1    0    0    0    0  0.00000000000E+00  0.00000000000E+00  0.74505805969E-08  0.10566000000E+00  0.10566000000E+00 0.  1.
     999900   -1    0    0    0    0 -0.00000000000E+00 -0.00000000000E+00 -0.74505805969E-08  0.93827000000E+00  0.93827000000E+00 0. -1.
     999902    2    1    2    0    0  0.23270600310E-01  0.42614066918E-02 -0.16200691049E-02  0.10202170278E+01  0.10199414095E+01 0.  0.
     999903    2    3    3    0    0 -0.61456781373E-03 -0.10140201352E-01 -0.12871726738E+00  0.13064881493E+00  0.19944336135E-01 0.  0.
         14    1    1    2    0    0 -0.23270600310E-01 -0.42614066918E-02  0.16200691049E-02  0.23712972181E-01  0.00000000000E+00 0.  1.
     999901    1    3    3    0    0  0.23885168123E-01  0.14401608043E-01  0.12709719828E+00  0.88956821289E+00  0.88000000000E+00 0.  1.
        -11    1    4    4    0    0  0.83815937935E-02  0.29023685924E-03 -0.57411579014E-01  0.58023149500E-01  0.51100000000E-03 0.  1.
         11    1    4    4    0    0 -0.89961616072E-02 -0.10430438211E-01 -0.71305688366E-01  0.72625665431E-01  0.51100000000E-03 0. -1.
</event>
<event>
 8    1  0.1116619E+005  0.1043930E+01  0.7957747E-01            NaN
         13   -1    0    0    0    0  0.00000000000E+00  0.00000000000E+00  0.74505805969E-08  0.10566000000E+00  0.10566000000E+00 0. -1.
     999900   -1    0    0    0    0 -0.00000000000E+00 -0.00000000000E+00 -0.74505805969E-08  0.93827000000E+00  0.93827000000E+00 0. -1.
     999902    2    1    2    0    0  0.11569748931E-01 -0.16254536223E-01  0.11961237119E-01  0.10206675790E+01  0.10204024532E+01 0.  0.
     999903    2    3    3    0    0  0.18900056426E-01  0.71794492940E-03 -0.12681947042E+00  0.12959974581E+00  0.18846444235E-01 0.  0.
         14    1    1    2    0    0 -0.11569748931E-01  0.16254536223E-01 -0.11961237119E-01  0.23262421017E-01  0.00000000000E+00 0.  1.
     999901    1    3    3    0    0 -0.73303074958E-02 -0.16972481153E-01  0.13878070754E+00  0.89106783317E+00  0.88000000000E+00 0.  1.
        -11    1    4    4    0    0  0.21611170993E-01  0.41301515580E-02 -0.11210754084E+00  0.11424737502E+00  0.51100000000E-03 0. -1.
         11    1    4    4    0    0 -0.27111145665E-02 -0.34122066286E-02 -0.14711929573E-01  0.15352370795E-01  0.51100000000E-03 0.  1.
</event>
<event>
 8    1  0.1116619E+005  0.1043930E+01  0.7957747E-01            NaN
         13   -1    0    0    0    0  0.00000000000E+00  0.00000000000E+00  0.74505805969E-08  0.10566000000E+00  0.10566000000E+00 0. -1.
     999900   -1    0    0    0    0 -0.00000000000E+00 -0.00000000000E+00 -0.74505805969E-08  0.93827000000E+00  0.93827000000E+00 0. -1.
     999902    2    1    2    0    0  0.16272777071E-01 -0.15629999466E-01  0.73280768003E-02  0.10202065756E+01  0.10199307114E+01 0.  0.
     999903    2    3    3    0    0  0.10449555349E+00  0.43059324341E-02  0.79165766731E-01  0.13265863132E+00  0.19830080369E-01 0.  0.
         14    1    1    2    0    0 -0.16272777071E-01  0.15629999466E-01 -0.73280768003E-02  0.23723424426E-01  0.00000000000E+00 0. -1.
     999901    1    3    3    0    0 -0.88222776419E-01 -0.19935931900E-01 -0.71837689931E-01  0.88754794426E+00  0.88000000000E+00 0. -1.
        -11    1    4    4    0    0  0.64266124204E-01 -0.15399503086E-02  0.59085926106E-01  0.87315027069E-01  0.51100000000E-03 0. -1.
         11    1    4    4    0    0  0.40229429286E-01  0.58458827426E-02  0.20079840625E-01  0.45343604248E-01  0.51100000000E-03 0.  1.
</event>
<event>
 8    1  0.1116619E+005  0.1043930E+01  0.7957747E-01            NaN
         13   -1    0    0    0    0  0.00000000000E+00  0.00000000000E+00  0.74505805969E-08  0.10566000000E+00  0.10566000000E+00 0.  1.
     999900   -1    0    0    0    0 -0.00000000000E+00 -0.00000000000E+00 -0.74505805969E-08  0.93827000000E+00  0.93827000000E+00 0.  1.
     999902    2    1    2    0    0  0.45444015244E-02  0.11046862774E-01 -0.22158102053E-01  0.10187572717E+01  0.10184462246E+01 0.  0.
     999903    2    3    3    0    0  0.28938978831E-02 -0.16128550680E-01 -0.12927448339E+00  0.13184400290E+00  0.20061013290E-01 0.  0.
         14    1    1    2    0    0 -0.45444015244E-02 -0.11046862774E-01  0.22158102053E-01  0.25172728278E-01  0.00000000000E+00 0.  1.
     999901    1    3    3    0    0  0.16505036413E-02  0.27175413454E-01  0.10711638133E+00  0.88691326882E+00  0.88000000000E+00 0. -1.
        -11    1    4    4    0    0  0.10176003478E-01 -0.31300165144E-02 -0.43733828931E-01  0.45013964101E-01  0.51100000000E-03 0. -1.
         11    1    4    4    0    0 -0.72821055945E-02 -0.12998534166E-01 -0.85540654456E-01  0.86830038801E-01  0.51100000000E-03 0.  1.
</event>
<event>
 8    1  0.1116619E+005  0.1043930E+01  0.7957747E-01            NaN
         13   -1    0    0    0    0  0.00000000000E+00  0.00000000000E+00  0.74505805969E-08  0.10566000000E+00  0.10566000000E+00 0. -1.
     999900   -1    0    0    0    0 -0.00000000000E+00 -0.00000000000E+00 -0.74505805969E-08  0.93827000000E+00  0.93827000000E+00 0.  1.
     999902    2    1    2    0    0 -0.18827714668E-01 -0.41343954787E-02  0.10697361897E-01  0.10218843742E+01  0.10216465458E+01 0.  0.
     999903    2    3    3    0    0  0.94895932725E-01  0.79119436498E-01 -0.33379371006E-01  0.12958003884E+00  0.20289918104E-01 0.  0.
         14    1    1    2    0    0  0.18827714668E-01  0.41343954787E-02 -0.10697361897E-01  0.22045625805E-01  0.00000000000E+00 0.  1.
     999901    1    3    3    0    0 -0.11372364739E+00 -0.83253831977E-01  0.44076732903E-01  0.89230433536E+00  0.88000000000E+00 0. -1.
        -11    1    4    4    0    0  0.27415570487E-01  0.34025799291E-01 -0.16299797452E-01  0.46640251292E-01  0.51100000000E-03 0.  1.
         11    1    4    4    0    0  0.67480362237E-01  0.45093637207E-01 -0.17079573554E-01  0.82939787545E-01  0.51100000000E-03 0. -1.
</event>
<event>
 8    1  0.1116619E+005  0.1043930E+01  0.7957747E-01            NaN
         13   -1    0    0    0    0  0.00000000000E+00  0.00000000000E+00  0.74505805969E-08  0.10566000000E+00  0.10566000000E+00 0. -1.
     999900   -1    0    0    0    0 -0.00000000000E+00 -0.00000000000E+00 -0.74505805969E-08  0.93827000000E+00  0.93827000000E+00 0. -1.
     999902    2    1    2    0    0  0.23594748857E-01  0.26812912782E-02 -0.44696014812E-03  0.10201791838E+01  0.10199026747E+01 0.  0.
     999903    2    3    3    0    0 -0.36740749566E-01  0.73520963965E-01  0.98518981759E-01  0.12975631278E+00  0.19377722186E-01 0.  0.
         14    1    1    2    0    0 -0.23594748857E-01 -0.26812912782E-02  0.44696014812E-03  0.23750816195E-01  0.00000000000E+00 0. -1.
     999901    1    3    3    0    0  0.60335498423E-01 -0.70839672687E-01 -0.98965941907E-01  0.89042287103E+00  0.88000000000E+00 0. -1.
        -11    1    4    4    0    0 -0.34503415359E-02  0.84591182007E-02  0.33105781811E-02  0.97304977437E-02  0.51100000000E-03 0. -1.
         11    1    4    4    0    0 -0.33290408031E-01  0.65061845764E-01  0.95208403578E-01  0.12002581503E+00  0.51100000000E-03 0.  1.
</event>
<event>
 8    1  0.1116619E+005  0.1043930E+01  0.7957747E-01            NaN
         13   -1    0    0    0    0  0.00000000000E+00  0.00000000000E+00  0.74505805969E-08  0.10566000000E+00  0.10566000000E+00 0. -1.
     999900   -1    0    0    0    0 -0.00000000000E+00 -0.00000000000E+00 -0.74505805969E-08  0.93827000000E+00  0.93827000000E+00 0. -1.
     999902    2    1    2    0    0 -0.29460019054E-02  0.16949520256E-01  0.14921769546E-01  0.10211566741E+01  0.10209027029E+01 0.  0.
     999903    2    3    3    0    0 -0.31724218718E-01  0.90419309706E-01  0.92080733816E-01  0.13426350048E+00  0.19124549673E-01 0.  0.
         14    1    1    2    0    0  0.29460019054E-02 -0.16949520256E-01 -0.14921769546E-01  0.22773325855E-01  0.00000000000E+00 0.  1.
     999901    1    3    3    0    0  0.28778216812E-01 -0.73469789450E-01 -0.77158964270E-01  0.88689317366E+00  0.88000000000E+00 0. -1.
        -11    1    4    4    0    0 -0.17540994924E-01  0.28329475148E-01  0.24223913081E-01  0.41198358597E-01  0.51100000000E-03 0. -1.
         11    1    4    4    0    0 -0.14183223793E-01  0.62089834559E-01  0.67856820734E-01  0.93065141884E-01  0.51100000000E-03 0.  1.
</event>
<event>
 8    1  0.1116619E+005  0.1043930E+01  0.7957747E-01            NaN
         13   -1    0    0    0    0  0.00000000000E+00  0.00000000000E+00  0.74505805969E-08  0.10566000000E+00  0.10566000000E+00 0.  1.
     999900   -1    0    0    0    0 -0.00000000000E+00 -0.00000000000E+00 -0.74505805969E-08  0.93827000000E+00  0.93827000000E+00 0. -1.
     999902    2    1    2    0    0 -0.41068465225E-02  0.22270349345E-01 -0.64848429733E-02  0.10203739427E+01  0.10201020023E+01 0.  0.
     999903    2    3    3    0    0  0.11250183191E-01  0.21736648644E-01 -0.12830242288E+00  0.13184952209E+00  0.17992671951E-01 0.  0.
         14    1    1    2    0    0  0.41068465225E-02 -0.22270349345E-01  0.64848429733E-02  0.23556057325E-01  0.00000000000E+00 0.  1.
     999901    1    3    3    0    0 -0.15357029713E-01  0.53370070094E-03  0.12181757990E+00  0.88852442058E+00  0.88000000000E+00 0.  1.
        -11    1    4    4    0    0  0.25198985813E-02  0.21129411756E-01 -0.99079122764E-01  0.10133970406E+00  0.51100000000E-03 0.  1.
         11    1    4    4    0    0  0.87302846095E-02  0.60723688876E-03 -0.29223300112E-01  0.30509818033E-01  0.51100000000E-03 0. -1.
</event>
<event>
 8    1  0.1116619E+005  0.1043930E+01  0.7957747E-01            NaN
         13   -1    0    0    0    0  0.00000000000E+00  0.00000000000E+00  0.74505805969E-08  0.10566000000E+00  0.10566000000E+00 0.  1.
     999900   -1    0    0    0    0 -0.00000000000E+00 -0.00000000000E+00 -0.74505805969E-08  0.93827000000E+00  0.93827000000E+00 0.  1.
     999902    2    1    2    0    0 -0.22433751482E-01  0.34191354286E-02 -0.60478652742E-02  0.10204451034E+01  0.10201748226E+01 0.  0.
     999903    2    3    3    0    0  0.10996420931E+00 -0.62972101834E-01 -0.11209821735E-01  0.12805300227E+00  0.14638932643E-01 0.  0.
         14    1    1    2    0    0  0.22433751482E-01 -0.34191354286E-02  0.60478652742E-02  0.23484896572E-01  0.00000000000E+00 0. -1.
     999901    1    3    3    0    0 -0.13239796079E+00  0.66391237262E-01  0.51619564606E-02  0.89239210115E+00  0.88000000000E+00 0. -1.
        -11    1    4    4    0    0  0.92481197708E-01 -0.55816138508E-01 -0.14094521681E-01  0.10893635715E+00  0.51100000000E-03 0. -1.
         11    1    4    4    0    0  0.17483011604E-01 -0.71559633261E-02  0.28846999460E-02  0.19116645120E-01  0.51100000000E-03 0.  1.
</event>
<event>
 8    1  0.1116619E+005  0.1043930E+01  0.7957747E-01            NaN
         13   -1    0    0    0    0  0.00000000000E+00  0.00000000000E+00  0.74505805969E-08  0.10566000000E+00  0.10566000000E+00 0. -1.
     999900   -1    0    0    0    0 -0.00000000000E+00 -0.00000000000E+00 -0.74505805969E-08  0.93827000000E+00  0.93827000000E+00 0. -1.
     999902    2    1    2    0    0 -0.62196877187E-02  0.22674468513E-01 -0.83752676861E-02  0.10189708104E+01  0.10186650830E+01 0.  0.
     999903    2    3    3    0    0 -0.88694486811E-03 -0.10579096906E+00 -0.68654994522E-01  0.12758680095E+00  0.19296831331E-01 0.  0.
         14    1    1    2    0    0  0.62196877187E-02 -0.22674468513E-01  0.83752676861E-02  0.24959189620E-01  0.00000000000E+00 0. -1.
     999901    1    3    3    0    0 -0.53327428506E-02  0.12846543757E+00  0.60279726835E-01  0.89138400943E+00  0.88000000000E+00 0.  1.
        -11    1    4    4    0    0 -0.94701210038E-02 -0.47998482946E-01 -0.35025902650E-01  0.60171525944E-01  0.51100000000E-03 0.  1.
         11    1    4    4    0    0  0.85831761357E-02 -0.57792486110E-01 -0.33629091871E-01  0.67415275009E-01  0.51100000000E-03 0. -1.
</event>
<event>
 8    1  0.1116619E+005  0.1043930E+01  0.7957747E-01            NaN
         13   -1    0    0    0    0  0.00000000000E+00  0.00000000000E+00  0.74505805969E-08  0.10566000000E+00  0.10566000000E+00 0. -1.
     999900   -1    0    0    0    0 -0.00000000000E+00 -0.00000000000E+00 -0.74505805969E-08  0.93827000000E+00  0.93827000000E+00 0.  1.
     999902    2    1    2    0    0 -0.82089398336E-03 -0.21900795718E-01  0.89971299981E-02  0.10202389243E+01  0.10199638207E+01 0.  0.
     999903    2    3    3    0    0 -0.40512764738E-01 -0.11538542843E-01 -0.12110200824E+00  0.12972861741E+00  0.19733111687E-01 0.  0.
         14    1    1    2    0    0  0.82089398336E-03  0.21900795718E-01 -0.89971299981E-02  0.23691075708E-01  0.00000000000E+00 0. -1.
     999901    1    3    3    0    0  0.39691870755E-01 -0.10362252875E-01  0.13009913824E+00  0.89051030688E+00  0.88000000000E+00 0. -1.
        -11    1    4    4    0    0 -0.35174714282E-01 -0.12222425190E-01 -0.79658051141E-01  0.87933579678E-01  0.51100000000E-03 0.  1.
         11    1    4    4    0    0 -0.53380504566E-02  0.68388234733E-03 -0.41443957104E-01  0.41795037734E-01  0.51100000000E-03 0. -1.
</event>
<event>
 8    1  0.1116619E+005  0.1043930E+01  0.7957747E-01            NaN
         13   -1    0    0    0    0  0.00000000000E+00  0.00000000000E+00  0.74505805969E-08  0.10566000000E+00  0.10566000000E+00 0.  1.
     999900   -1    0    0    0    0 -0.00000000000E+00 -0.00000000000E+00 -0.74505805969E-08  0.93827000000E+00  0.93827000000E+00 0.  1.
     999902    2    1    2    0    0  0.20733946741E-01  0.11999611587E-01  0.50686895570E-02  0.10194437010E+01  0.10191495870E+01 0.  0.
     999903    2    3    3    0    0 -0.13298653492E-02  0.10776585472E+00  0.72219816482E-01  0.13143060481E+00  0.21048848034E-01 0.  0.
         14    1    1    2    0    0 -0.20733946741E-01 -0.11999611587E-01 -0.50686895570E-02  0.24486299017E-01  0.00000000000E+00 0.  1.
     999901    1    3    3    0    0  0.22063812090E-01 -0.95766243129E-01 -0.67151126925E-01  0.88801309617E+00  0.88000000000E+00 0.  1.
        -11    1    4    4    0    0 -0.49092397563E-02  0.81617696378E-01  0.63835249977E-01  0.10373403134E+00  0.51100000000E-03 0.  1.
         11    1    4    4    0    0  0.35793744071E-02  0.26148158338E-01  0.83845665051E-02  0.27696573472E-01  0.51100000000E-03 0. -1.
</event>
<event>
 8    1  0.1116619E+005  0.1043930E+01  0.7957747E-01            NaN
         13   -1    0    0    0    0  0.00000000000E+00  0.00000000000E+00  0.74505805969E-08  0.10566000000E+00  0.10566000000E+00 0.  1.
     999900   -1    0    0    0    0 -0.00000000000E+00 -0.00000000000E+00 -0.74505805969E-08  0.93827000000E+00  0.93827000000E+00 0.  1.
     999902    2    1    2    0    0 -0.17041542931E-01 -0.23164254125E-01 -0.14567456393E-03  0.10151720780E+01  0.10147646673E+01 0.  0.
     999903    2    3    3    0    0 -0.12261652778E+00  0.20790237705E-01  0.20903593842E-01  0.12752285313E+00  0.18922763157E-01 0.  0.
         14    1    1    2    0    0  0.17041542931E-01  0.23164254125E-01  0.14567456393E-03  0.28757921964E-01  0.00000000000E+00 0.  1.
     999901    1    3    3    0    0  0.10557498485E+00 -0.43954491830E-01 -0.21049268406E-01  0.88764922491E+00  0.88000000000E+00 0. -1.
        -11    1    4    4    0    0 -0.39286101067E-01  0.13850391258E-01  0.12430290366E-01  0.43474179862E-01  0.51100000000E-03 0. -1.
         11    1    4    4    0    0 -0.83330426714E-01  0.69398464468E-02  0.84733034751E-02  0.84048673266E-01  0.51100000000E-03 0.  1.
</event>
<event>
 8    1  0.1116619E+005  0.1043930E+01  0.7957747E-01            NaN
         13   -1    0    0    0    0  0.00000000000E+00  0.00000000000E+00  0.74505805969E-08  0.10566000000E+00  0.10566000000E+00 0. -1.
     999900   -1    0    0    0    0 -0.00000000000E+00 -0.00000000000E+00 -0.74505805969E-08  0.93827000000E+00  0.93827000000E+00 0. -1.
     999902    2    1    2    0    0 -0.11938645360E-01 -0.24519435332E-01 -0.51343999212E-02  0.10161793960E+01  0.10158004079E+01 0.  0.
     999903    2    3    3    0    0 -0.61927453735E-01 -0.58505860220E-01  0.94157340713E-01  0.12853486812E+00  0.19941472046E-01 0.  0.
         14    1    1    2    0    0  0.11938645360E-01  0.24519435332E-01  0.51343999212E-02  0.27750604040E-01  0.00000000000E+00 0. -1.
     999901    1    3    3    0    0  0.49988808375E-01  0.33986424888E-01 -0.99291740634E-01  0.88764452784E+00  0.88000000000E+00 0. -1.
        -11    1    4    4    0    0 -0.28045619622E-01 -0.26013758806E-01  0.27978842424E-01  0.47395666169E-01  0.51100000000E-03 0.  1.
         11    1    4    4    0    0 -0.33881834113E-01 -0.32492101414E-01  0.66178498289E-01  0.81139201955E-01  0.51100000000E-03 0. -1.
</event>
<event>
 8    1  0.1116619E+005  0.1043930E+01  0.7957747E-01            NaN
         13   -1    0    0    0    0  0.00000000000E+00  0.00000000000E+00  0.74505805969E-08  0.10566000000E+00  0.10566000000E+00 0.  1.
     999900   -1    0    0    0    0 -0.00000000000E+00 -0.00000000000E+00 -0.74505805969E-08  0.93827000000E+00  0.93827000000E+00 0.  1.
     999902    2    1    2    0    0 -0.34427877316E-02  0.15689537940E-02 -0.23879505190E-01  0.10197526310E+01  0.10194659795E+01 0.  0.
     999903    2    3    3    0    0 -0.12430664755E+00 -0.10874038229E-01  0.29829554056E-01  0.12978209009E+00  0.19575527576E-01 0.  0.
         14    1    1    2    0    0  0.34427877316E-02 -0.15689537940E-02  0.23879505190E-01  0.24177368994E-01  0.00000000000E+00 0.  1.
     999901    1    3    3    0    0  0.12086385982E+00  0.12442992023E-01 -0.53709059246E-01  0.88997054092E+00  0.88000000000E+00 0.  1.
        -11    1    4    4    0    0 -0.64860535682E-01  0.40841773157E-02  0.14343835106E-01  0.66555062316E-01  0.51100000000E-03 0.  1.
         11    1    4    4    0    0 -0.59446111866E-01 -0.14958215544E-01  0.15485718950E-01  0.63227027770E-01  0.51100000000E-03 0. -1.
</event>
<event>
 8    1  0.1116619E+005  0.1043930E+01  0.7957747E-01            NaN
         13   -1    0    0    0    0  0.00000000000E+00  0.00000000000E+00  0.74505805969E-08  0.10566000000E+00  0.10566000000E+00 0.  1.
     999900   -1    0    0    0    0 -0.00000000000E+00 -0.00000000000E+00 -0.74505805969E-08  0.93827000000E+00  0.93827000000E+00 0. -1.
     999902    2    1    2    0    0 -0.22030687884E-01  0.93613041501E-02 -0.17809497892E-02  0.10199267293E+01  0.10196442399E+01 0.  0.
     999903    2    3    3    0    0  0.44914440781E-01 -0.11637138652E+00  0.16746830263E-01  0.12828014098E+00  0.24813940744E-01 0.  0.
         14    1    1    2    0    0  0.22030687884E-01 -0.93613041501E-02  0.17809497892E-02  0.24003270740E-01  0.00000000000E+00 0. -1.
     999901    1    3    3    0    0 -0.66945128665E-01  0.12573269067E+00 -0.18527780053E-01  0.89164658828E+00  0.88000000000E+00 0.  1.
        -11    1    4    4    0    0  0.37374637031E-01 -0.74031361401E-01  0.19462202227E-01  0.85185353205E-01  0.51100000000E-03 0. -1.
         11    1    4    4    0    0  0.75398037495E-02 -0.42340025118E-01 -0.27153719635E-02  0.43094787777E-01  0.51100000000E-03 0.  1.
</event>
<event>
 8    1  0.1116619E+005  0.1043930E+01  0.7957747E-01            NaN
         13   -1    0    0    0    0  0.00000000000E+00  0.00000000000E+00  0.74505805969E-08  0.10566000000E+00  0.10566000000E+00 0.  1.
     999900   -1    0    0    0    0 -0.00000000000E+00 -0.00000000000E+00 -0.74505805969E-08  0.93827000000E+00  0.93827000000E+00 0.  1.
     999902    2    1    2    0    0  0.65321874352E-02 -0.22240349826E-01  0.79184706442E-02  0.10194350044E+01  0.10191406789E+01 0.  0.
     999903    2    3    3    0    0  0.75047804015E-01  0.96995448348E-01  0.33407546604E-01  0.12838996721E+00  0.18100542013E-01 0.  0.
         14    1    1    2    0    0 -0.65321874352E-02  0.22240349826E-01 -0.79184706442E-02  0.24494995620E-01  0.00000000000E+00 0.  1.
     999901    1    3    3    0    0 -0.68515616580E-01 -0.11923579817E+00 -0.25489075960E-01  0.89104503718E+00  0.88000000000E+00 0.  1.
        -11    1    4    4    0    0  0.61614266641E-02  0.77855070403E-02  0.82152548787E-02  0.12896853575E-01  0.51100000000E-03 0. -1.
         11    1    4    4    0    0  0.68886377351E-01  0.89209941308E-01  0.25192291726E-01  0.11549311363E+00  0.51100000000E-03 0.  1.
</event>
<event>
 8    1  0.1116619E+005  0.1043930E+01  0.7957747E-01            NaN
         13   -1    0    0    0    0  0.00000000000E+00  0.00000000000E+00  0.74505805969E-08  0.10566000000E+00  0.10566000000E+00 0.  1.
     999900   -1    0    0    0    0 -0.00000000000E+00 -0.00000000000E+00 -0.74505805969E-08  0.93827000000E+00  0.93827000000E+00 0. -1.
     999902    2    1    2    0    0  0.21673914932E-01 -0.65624095539E-02 -0.94538667147E-02  0.10193902485E+01  0.10190948333E+01 0.  0.
     999903    2    3    3    0    0  0.87439388625E-01  0.75879038235E-01  0.57171241641E-01  0.13059297415E+00  0.19562691503E-01 0.  0.
         14    1    1    2    0    0 -0.21673914932E-01  0.65624095539E-02  0.94538667147E-02  0.24539751496E-01  0.00000000000E+00 0.  1.
     999901    1    3    3    0    0 -0.65765473693E-01 -0.82441447789E-01 -0.66625108355E-01  0.88879727436E+00  0.88000000000E+00 0. -1.
        -11    1    4    4    0    0  0.58084652419E-01  0.42496270892E-01  0.27023641256E-01  0.76878463786E-01  0.51100000000E-03 0.  1.
         11    1    4    4    0    0  0.29354736206E-01  0.33382767342E-01  0.30147600385E-01  0.53714510359E-01  0.51100000000E-03 0. -1.
</event>
<event>
 8    1  0.1116619E+005  0.1043930E+01  0.7957747E-01            NaN
         13   -1    0    0    0    0  0.00000000000E+00  0.00000000000E+00  0.74505805969E-08  0.10566000000E+00  0.10566000000E+00 0.  1.
     999900   -1    0    0    0    0 -0.00000000000E+00 -0.00000000000E+00 -0.74505805969E-08  0.93827000000E+00  0.93827000000E+00 0. -1.
     999902    2    1    2    0    0  0.43294998736E-02 -0.50543486588E-02 -0.22620717016E-01  0.10203506054E+01  0.10200781196E+01 0.  0.
     999903    2    3    3    0    0  0.10549991573E+00  0.74754333826E-01 -0.57312630952E-02  0.13080570354E+00  0.18943126911E-01 0.  0.
         14    1    1    2    0    0 -0.43294998736E-02  0.50543486588E-02  0.22620717016E-01  0.23579394560E-01  0.00000000000E+00 0.  1.
     999901    1    3    3    0    0 -0.10117041585E+00 -0.79808682485E-01 -0.16889453920E-01  0.88954490190E+00  0.88000000000E+00 0.  1.
        -11    1    4    4    0    0  0.43467684050E-01  0.42265032214E-01 -0.14478535822E-02  0.60647587798E-01  0.51100000000E-03 0. -1.
         11    1    4    4    0    0  0.62032231678E-01  0.32489301612E-01 -0.42834095130E-02  0.70158115741E-01  0.51100000000E-03 0.  1.
</event>
<event>
 8    1  0.1116619E+005  0.1043930E+01  0.7957747E-01            NaN
         13   -1    0    0    0    0  0.00000000000E+00  0.00000000000E+00  0.74505805969E-08  0.10566000000E+00  0.10566000000E+00 0. -1.
     999900   -1    0    0    0    0 -0.00000000000E+00 -0.00000000000E+00 -0.74505805969E-08  0.93827000000E+00  0.93827000000E+00 0. -1.
     999902    2    1    2    0    0  0.76155541150E-02  0.40369789374E-02  0.22095647377E-01  0.10202126752E+01  0.10199369545E+01 0.  0.
     999903    2    3    3    0    0 -0.76931824965E-02 -0.10229027814E+00  0.80847097124E-01  0.13173556470E+00  0.17190690291E-01 0.  0.
         14    1    1    2    0    0 -0.76155541150E-02 -0.40369789374E-02 -0.22095647377E-01  0.23717324816E-01  0.00000000000E+00 0.  1.
     999901    1    3    3    0    0  0.15308736611E-01  0.10632725708E+00 -0.58751449747E-01  0.88847711049E+00  0.88000000000E+00 0. -1.
        -11    1    4    4    0    0 -0.71010996378E-02 -0.87575142535E-01  0.60774339992E-01  0.10683451094E+00  0.51100000000E-03 0.  1.
         11    1    4    4    0    0 -0.59208285870E-03 -0.14715135609E-01  0.20072757132E-01  0.24901053752E-01  0.51100000000E-03 0. -1.
</event>
<event>
 8    1  0.1116619E+005  0.1043930E+01  0.7957747E-01            NaN
         13   -1    0    0    0    0  0.00000000000E+00  0.00000000000E+00  0.74505805969E-08  0.10566000000E+00  0.10566000000E+00 0. -1.
     999900   -1    0    0    0    0 -0.00000000000E+00 -0.00000000000E+00 -0.74505805969E-08  0.93827000000E+00  0.93827000000E+00 0. -1.
     999902    2    1    2    0    0 -0.58878035143E-02 -0.59913924541E-02 -0.22147495462E-01  0.10202429873E+01  0.10199679792E+01 0.  0.
     999903    2    3    3    0    0 -0.11676540330E+00  0.36915923310E-01  0.40064535192E-01  0.13007153383E+00  0.17790225725E-01 0.  0.
         14    1    1    2    0    0  0.58878035143E-02  0.59913924541E-02  0.22147495462E-01  0.23687012666E-01  0.00000000000E+00 0.  1.
     999901    1    3    3    0    0  0.11087759978E+00 -0.42907315764E-01 -0.62212030654E-01  0.89017145351E+00  0.88000000000E+00 0. -1.
        -11    1    4    4    0    0 -0.94179289336E-01  0.28452257628E-01  0.39272540496E-01  0.10593329534E+00  0.51100000000E-03 0. -1.
         11    1    4    4    0    0 -0.22586113961E-01  0.84636656818E-02  0.79199469615E-03  0.24138238486E-01  0.51100000000E-03 0.  1.
</event>
<event>
 8    1  0.1116619E+005  0.1043930E+01  0.7957747E-01            NaN
         13   -1    0    0    0    0  0.00000000000E+00  0.00000000000E+00  0.74505805969E-08  0.10566000000E+00  0.10566000000E+00 0. -1.
     999900   -1    0    0    0    0 -0.00000000000E+00 -0.00000000000E+00 -0.74505805969E-08  0.93827000000E+00  0.93827000000E+00 0.  1.
     999902    2    1    2    0    0  0.18453506035E-01 -0.13487737756E-01 -0.68566231377E-02  0.10200665502E+01  0.10197873811E+01 0.  0.
     999903    2    3    3    0    0  0.12431873834E+00  0.38893453573E-01  0.97059692908E-02  0.13202063018E+00  0.19167459939E-01 0.  0.
         14    1    1    2    0    0 -0.18453506035E-01  0.13487737756E-01  0.68566231377E-02  0.23863449785E-01  0.00000000000E+00 0. -1.
     999901    1    3    3    0    0 -0.10586523231E+00 -0.52381191329E-01 -0.16562592429E-01  0.88804592003E+00  0.88000000000E+00 0. -1.
        -11    1    4    4    0    0  0.70704340308E-01  0.13673370491E-01  0.10407731865E-01  0.72764323694E-01  0.51100000000E-03 0. -1.
         11    1    4    4    0    0  0.53614398034E-01  0.25220083081E-01 -0.70176257371E-03  0.59256306490E-01  0.51100000000E-03 0.  1.
</event>
<event>
 8    1  0.1116619E+005  0.1043930E+01  0.7957747E-01            NaN
         13   -1    0    0    0    0  0.00000000000E+00  0.00000000000E+00  0.74505805969E-08  0.10566000000E+00  0.10566000000E+00 0.  1.
     999900   -1    0    0    0    0 -0.00000000000E+00 -0.00000000000E+00 -0.74505805969E-08  0.93827000000E+00  0.93827000000E+00 0. -1.
     999902    2    1    2    0    0 -0.21989912570E-01 -0.95326889657E-02  0.15365732957E-02  0.10199135583E+01  0.10196307552E+01 0.  0.
     999903    2    3    3    0    0  0.51233914182E-02 -0.55541489786E-01  0.11667922040E+00  0.13080739469E+00  0.19632315335E-01 0.  0.
         14    1    1    2    0    0  0.21989912570E-01  0.95326889657E-02 -0.15365732957E-02  0.24016441686E-01  0.00000000000E+00 0. -1.
     999901    1    3    3    0    0 -0.27113303988E-01  0.46008800820E-01 -0.11514264711E+00  0.88910616362E+00  0.88000000000E+00 0. -1.
        -11    1    4    4    0    0 -0.44730604639E-02 -0.34649450232E-01  0.82695880644E-01  0.89774509008E-01  0.51100000000E-03 0.  1.
         11    1    4    4    0    0  0.95964518821E-02 -0.20892039554E-01  0.33983339759E-01  0.41032885685E-01  0.51100000000E-03 0. -1.
</event>
<event>
 8    1  0.1116619E+005  0.1043930E+01  0.7957747E-01            NaN
         13   -1    0    0    0    0  0.00000000000E+00  0.00000000000E+00  0.74505805969E-08  0.10566000000E+00  0.10566000000E+00 0.  1.
     999900   -1    0    0    0    0 -0.00000000000E+00 -0.00000000000E+00 -0.74505805969E-08  0.93827000000E+00  0.93827000000E+00 0.  1.
     999902    2    1    2    0    0 -0.86433529517E-02  0.70707034636E-02 -0.25522488920E-01  0.10160714315E+01  0.10156894477E+01 0.  0.
     999903    2    3    3    0    0 -0.10110519096E+00  0.38844725304E-01 -0.68299522195E-01  0.12962422241E+00  0.20160406221E-01 0.  0.
         14    1    1    2    0    0  0.86433529517E-02 -0.70707034636E-02  0.25522488920E-01  0.27858568491E-01  0.00000000000E+00 0.  1.
     999901    1    3    3    0    0  0.92461838009E-01 -0.31774021840E-01  0.42777033276E-01  0.88644720910E+00  0.88000000000E+00 0. -1.
        -11    1    4    4    0    0 -0.51018645625E-01  0.14437260583E-01 -0.22930710860E-01  0.57770367111E-01  0.51100000000E-03 0. -1.
         11    1    4    4    0    0 -0.50086545335E-01  0.24407464721E-01 -0.45368811335E-01  0.71853855294E-01  0.51100000000E-03 0.  1.
</event>
<event>
 8    1  0.1116619E+005  0.1043930E+01  0.7957747E-01            NaN
         13   -1    0    0    0    0  0.00000000000E+00  0.00000000000E+00  0.74505805969E-08  0.10566000000E+00  0.10566000000E+00 0.  1.
     999900   -1    0    0    0    0 -0.00000000000E+00 -0.00000000000E+00 -0.74505805969E-08  0.93827000000E+00  0.93827000000E+00 0. -1.
     999902    2    1    2    0    0  0.53133438587E-02  0.24013338748E-01  0.18304480414E-04  0.10193358463E+01  0.10190391038E+01 0.  0.
     999903    2    3    3    0    0  0.18693154885E-01 -0.73597906163E-01 -0.10147906386E+00  0.12803977302E+00  0.18168578406E-01 0.  0.
         14    1    1    2    0    0 -0.53133438587E-02 -0.24013338748E-01 -0.18304480415E-04  0.24594153693E-01  0.00000000000E+00 0. -1.
     999901    1    3    3    0    0 -0.13379811027E-01  0.97611244911E-01  0.10149736834E+00  0.89129607329E+00  0.88000000000E+00 0.  1.
        -11    1    4    4    0    0  0.16017935858E-01 -0.50701749205E-01 -0.57079672524E-01  0.78010203038E-01  0.51100000000E-03 0.  1.
         11    1    4    4    0    0  0.26752190273E-02 -0.22896156959E-01 -0.44399391339E-01  0.50029569982E-01  0.51100000000E-03 0. -1.
</event>
<event>
 8    1  0.1116619E+005  0.1043930E+01  0.7957747E-01            NaN
         13   -1    0    0    0    0  0.00000000000E+00  0.00000000000E+00  0.74505805969E-08  0.10566000000E+00  0.10566000000E+00 0.  1.
     999900   -1    0    0    0    0 -0.00000000000E+00 -0.00000000000E+00 -0.74505805969E-08  0.93827000000E+00  0.93827000000E+00 0.  1.
     999902    2    1    2    0    0 -0.10370798892E-01 -0.12094463260E-01  0.17415859362E-01  0.10203261514E+01  0.10200530935E+01 0.  0.
     999903    2    3    3    0    0 -0.19931736283E-01 -0.49486002483E-01 -0.11606695709E+00  0.12942368704E+00  0.20804174710E-01 0.  0.
         14    1    1    2    0    0  0.10370798892E-01  0.12094463260E-01 -0.17415859362E-01  0.23603848596E-01  0.00000000000E+00 0. -1.
     999901    1    3    3    0    0  0.95609373914E-02  0.37391539222E-01  0.13348281645E+00  0.89090246437E+00  0.88000000000E+00 0. -1.
        -11    1    4    4    0    0 -0.10324849322E-01 -0.36495697828E-01 -0.98499750700E-01  0.10555093786E+00  0.51100000000E-03 0.  1.
         11    1    4    4    0    0 -0.96068869612E-02 -0.12990304654E-01 -0.17567206389E-01  0.23872749180E-01  0.51100000000E-03 0. -1.
</event>
<event>
 8    1  0.1116619E+005  0.1043930E+01  0.7957747E-01            NaN
         13   -1    0    0    0    0  0.00000000000E+00  0.00000000000E+00  0.74505805969E-08  0.10566000000E+00  0.10566000000E+00 0.  1.
     999900   -1    0    0    0    0 -0.00000000000E+00 -0.00000000000E+00 -0.74505805969E-08  0.93827000000E+00  0.93827000000E+00 0. -1.
     999902    2    1    2    0    0 -0.13399025241E-01 -0.95595270852E-02 -0.16990021573E-01  0.10202745721E+01  0.10200003055E+01 0.  0.
     999903    2    3    3    0    0 -0.93550172775E-01 -0.27293954481E-01 -0.89007647869E-01  0.13352474558E+00  0.20246024901E-01 0.  0.
         14    1    1    2    0    0  0.13399025241E-01  0.95595270852E-02  0.16990021573E-01  0.23655427888E-01  0.00000000000E+00 0.  1.
     999901    1    3    3    0    0  0.80151147534E-01  0.17734427396E-01  0.72017626296E-01  0.88674982654E+00  0.88000000000E+00 0.  1.
        -11    1    4    4    0    0 -0.18339202671E-01 -0.13541255531E-01 -0.24709513372E-01  0.33623104081E-01  0.51100000000E-03 0.  1.
         11    1    4    4    0    0 -0.75210970104E-01 -0.13752698950E-01 -0.64298134497E-01  0.99901641494E-01  0.51100000000E-03 0. -1.
</event>
<event>
 8    1  0.1116619E+005  0.1043930E+01  0.7957747E-01            NaN
         13   -1    0    0    0    0  0.00000000000E+00  0.00000000000E+00  0.74505805969E-08  0.10566000000E+00  0.10566000000E+00 0.  1.
     999900   -1    0    0    0    0 -0.00000000000E+00 -0.00000000000E+00 -0.74505805969E-08  0.93827000000E+00  0.93827000000E+00 0.  1.
     999902    2    1    2    0    0 -0.13120255485E-01  0.13397324248E-01 -0.16110289869E-01  0.10192081303E+01  0.10189082599E+01 0.  0.
     999903    2    3    3    0    0  0.10889132600E+00  0.24149661671E-01  0.59895309505E-01  0.12747987019E+00  0.14937943843E-01 0.  0.
         14    1    1    2    0    0  0.13120255485E-01 -0.13397324248E-01  0.16110289869E-01  0.24721869684E-01  0.00000000000E+00 0.  1.
     999901    1    3    3    0    0 -0.12201158148E+00 -0.10752337423E-01 -0.76005599374E-01  0.89172826013E+00  0.88000000000E+00 0.  1.
        -11    1    4    4    0    0  0.34039833951E-01  0.12143544666E-01  0.25485560944E-01  0.44226133791E-01  0.51100000000E-03 0.  1.
         11    1    4    4    0    0  0.74851492046E-01  0.12006117005E-01  0.34409748561E-01  0.83253736397E-01  0.51100000000E-03 0. -1.
</event>
<event>
 8    1  0.1116619E+005  0.1043930E+01  0.7957747E-01            NaN
         13   -1    0    0    0    0  0.00000000000E+00  0.00000000000E+00  0.74505805969E-08  0.10566000000E+00  0.10566000000E+00 0. -1.
     999900   -1    0    0    0    0 -0.00000000000E+00 -0.00000000000E+00 -0.74505805969E-08  0.93827000000E+00  0.93827000000E+00 0.  1.
     999902    2    1    2    0    0 -0.10775127369E-02  0.93009817263E-02  0.22117312482E-01  0.10199124063E+01  0.10196295758E+01 0.  0.
     999903    2    3    3    0    0 -0.23208501041E-01 -0.26521567393E-01 -0.12071875176E+00  0.12740180307E+00  0.20400351485E-01 0.  0.
         14    1    1    2    0    0  0.10775127369E-02 -0.93009817263E-02 -0.22117312482E-01  0.24017593680E-01  0.00000000000E+00 0.  1.
     999901    1    3    3    0    0  0.22130988304E-01  0.35822549119E-01  0.14283606424E+00  0.89251060325E+00  0.88000000000E+00 0. -1.
        -11    1    4    4    0    0 -0.29966875140E-02 -0.16824882211E-01 -0.37476407349E-01  0.41192220458E-01  0.51100000000E-03 0. -1.
         11    1    4    4    0    0 -0.20211813527E-01 -0.96966851813E-02 -0.83242344412E-01  0.86209582610E-01  0.51100000000E-03 0.  1.
</event>
<event>
 8    1  0.1116619E+005  0.1043930E+01  0.7957747E-01            NaN
         13   -1    0    0    0    0  0.00000000000E+00  0.00000000000E+00  0.74505805969E-08  0.10566000000E+00  0.10566000000E+00 0.  1.
     999900   -1    0    0    0    0 -0.00000000000E+00 -0.00000000000E+00 -0.74505805969E-08  0.93827000000E+00  0.93827000000E+00 0.  1.
     999902    2    1    2    0    0  0.15370212778E-01 -0.34027536603E-02 -0.14856444852E-01  0.10222843047E+01  0.10220551176E+01 0.  0.
     999903    2    3    3    0    0  0.10471351504E-02  0.10614584102E+00 -0.77796369471E-01  0.13314568821E+00  0.20185715932E-01 0.  0.
         14    1    1    2    0    0 -0.15370212778E-01  0.34027536603E-02  0.14856444852E-01  0.21645695344E-01  0.00000000000E+00 0. -1.
     999901    1    3    3    0    0  0.14323077627E-01 -0.10954859468E+00  0.62939924619E-01  0.88913861645E+00  0.88000000000E+00 0. -1.
        -11    1    4    4    0    0  0.11032250677E-02  0.36888166015E-01 -0.39269369572E-01  0.53891542983E-01  0.51100000000E-03 0. -1.
         11    1    4    4    0    0 -0.56089917308E-04  0.69257675004E-01 -0.38526999899E-01  0.79254145224E-01  0.51100000000E-03 0.  1.
</event>
<event>
 8    1  0.1116619E+005  0.1043930E+01  0.7957747E-01            NaN
         13   -1    0    0    0    0  0.00000000000E+00  0.00000000000E+00  0.74505805969E-08  0.10566000000E+00  0.10566000000E+00 0. -1.
     999900   -1    0    0    0    0 -0.00000000000E+00 -0.00000000000E+00 -0.74505805969E-08  0.93827000000E+00  0.93827000000E+00 0.  1.
     999902    2    1    2    0    0  0.32644724719E-04 -0.31691701737E-02  0.23126185591E-01  0.10205876530E+01  0.10203206811E+01 0.  0.
     999903    2    3    3    0    0 -0.76715943669E-01 -0.53544365957E-01  0.92523527136E-01  0.13309455598E+00  0.20030542181E-01 0.  0.
         14    1    1    2    0    0 -0.32644724719E-04  0.31691701737E-02 -0.23126185591E-01  0.23342347038E-01  0.00000000000E+00 0.  1.
     999901    1    3    3    0    0  0.76748588394E-01  0.50375195783E-01 -0.69397341545E-01  0.88749309698E+00  0.88000000000E+00 0.  1.
        -11    1    4    4    0    0 -0.35565492546E-01 -0.25370677830E-01  0.57208932108E-01  0.71984016195E-01  0.51100000000E-03 0. -1.
         11    1    4    4    0    0 -0.41150451123E-01 -0.28173688127E-01  0.35314595028E-01  0.61110539789E-01  0.51100000000E-03 0.  1.
</event>
<event>
 8    1  0.1116619E+005  0.1043930E+01  0.7957747E-01            NaN
         13   -1    0    0    0    0  0.00000000000E+00  0.00000000000E+00  0.74505805969E-08  0.10566000000E+00  0.10566000000E+00 0. -1.
     999900   -1    0    0    0    0 -0.00000000000E+00 -0.00000000000E+00 -0.74505805969E-08  0.93827000000E+00  0.93827000000E+00 0. -1.
     999902    2    1    2    0    0  0.58197094334E-03 -0.14454304981E-01  0.17914169193E-01  0.10209042952E+01  0.10206445987E+01 0.  0.
     999903    2    3    3    0    0  0.29414582694E-01  0.10233136513E+00 -0.69019206243E-01  0.12847635751E+00  0.20139454923E-01 0.  0.
         14    1    1    2    0    0 -0.58197094334E-03  0.14454304981E-01 -0.17914169193E-01  0.23025704778E-01  0.00000000000E+00 0.  1.
     999901    1    3    3    0    0 -0.28832611750E-01 -0.11678567011E+00  0.86933375435E-01  0.89242793771E+00  0.88000000000E+00 0.  1.
        -11    1    4    4    0    0  0.24513060215E-02  0.32468113027E-01 -0.13493476440E-01  0.35249429671E-01  0.51100000000E-03 0.  1.
         11    1    4    4    0    0  0.26963276672E-01  0.69863252103E-01 -0.55525729802E-01  0.93226927839E-01  0.51100000000E-03 0. -1.
</event>
<event>
 8    1  0.1116619E+005  0.1043930E+01  0.7957747E-01            NaN
         13   -1    0    0    0    0  0.00000000000E+00  0.00000000000E+00  0.74505805969E-08  0.10566000000E+00  0.10566000000E+00 0.  1.
     999900   -1    0    0    0    0 -0.00000000000E+00 -0.00000000000E+00 -0.74505805969E-08  0.93827000000E+00  0.93827000000E+00 0.  1.
     999902    2    1    2    0    0 -0.22015029001E-01 -0.90230855824E-02 -0.29840157995E-02  0.10199512193E+01  0.10196693129E+01 0.  0.
     999903    2    3    3    0    0  0.10058857752E+00  0.62931772236E-01  0.41845114601E-01  0.12741617971E+00  0.20134531306E-01 0.  0.
         14    1    1    2    0    0  0.22015029001E-01  0.90230855824E-02  0.29840157995E-02  0.23978780737E-01  0.00000000000E+00 0. -1.
     999901    1    3    3    0    0 -0.12260360653E+00 -0.71954857818E-01 -0.44829130401E-01  0.89253503955E+00  0.88000000000E+00 0. -1.
        -11    1    4    4    0    0  0.39774544600E-01  0.13933043984E-01  0.12170911267E-01  0.43869537436E-01  0.51100000000E-03 0.  1.
         11    1    4    4    0    0  0.60814032925E-01  0.48998728251E-01  0.29674203334E-01  0.83546642274E-01  0.51100000000E-03 0. -1.
</event>
<event>
 8    1  0.1116619E+005  0.1043930E+01  0.7957747E-01            NaN
         13   -1    0    0    0    0  0.00000000000E+00  0.00000000000E+00  0.74505805969E-08  0.10566000000E+00  0.10566000000E+00 0.  1.
     999900   -1    0    0    0    0 -0.00000000000E+00 -0.00000000000E+00 -0.74505805969E-08  0.93827000000E+00  0.93827000000E+00 0. -1.
     999902    2    1    2    0    0 -0.17833722172E-01  0.13285997689E-01 -0.11090239844E-01  0.10190793903E+01  0.10187763498E+01 0.  0.
     999903    2    3    3    0    0  0.42099212250E-01  0.30162978844E-01 -0.11835432856E+00  0.13038238131E+00  0.17597423112E-01 0.  0.
         14    1    1    2    0    0  0.17833722172E-01 -0.13285997689E-01  0.11090239844E-01  0.24850609668E-01  0.00000000000E+00 0. -1.
     999901    1    3    3    0    0 -0.59932934422E-01 -0.16876981155E-01  0.10726408872E+00  0.88869700903E+00  0.88000000000E+00 0.  1.
        -11    1    4    4    0    0  0.32811007419E-01  0.13495501659E-01 -0.81128025080E-01  0.88547774378E-01  0.51100000000E-03 0. -1.
         11    1    4    4    0    0  0.92882048312E-02  0.16667477185E-01 -0.37226303485E-01  0.41834606928E-01  0.51100000000E-03 0.  1.
</event>
<event>
 8    1  0.1116619E+005  0.1043930E+01  0.7957747E-01            NaN
         13   -1    0    0    0    0  0.00000000000E+00  0.00000000000E+00  0.74505805969E-08  0.10566000000E+00  0.10566000000E+00 0.  1.
     999900   -1    0    0    0    0 -0.00000000000E+00 -0.00000000000E+00 -0.74505805969E-08  0.93827000000E+00  0.93827000000E+00 0. -1.
     999902    2    1    2    0    0  0.24934753449E-01  0.44697348950E-02 -0.24468519255E-02  0.10184799009E+01  0.10181618737E+01 0.  0.
     999903    2    3    3    0    0 -0.10587178105E+00  0.36939338889E-01 -0.55299919860E-01  0.12665140201E+00  0.20227400078E-01 0.  0.
         14    1    1    2    0    0 -0.24934753449E-01 -0.44697348950E-02  0.24468519255E-02  0.25450099095E-01  0.00000000000E+00 0.  1.
     999901    1    3    3    0    0  0.13080653450E+00 -0.32469603994E-01  0.52853067934E-01  0.89182849890E+00  0.88000000000E+00 0.  1.
        -11    1    4    4    0    0 -0.30396773546E-01  0.91894298810E-02 -0.59861919963E-02  0.32318803801E-01  0.51100000000E-03 0.  1.
         11    1    4    4    0    0 -0.75475007506E-01  0.27749909008E-01 -0.49313727863E-01  0.94332598209E-01  0.51100000000E-03 0. -1.
</event>
<event>
 8    1  0.1116619E+005  0.1043930E+01  0.7957747E-01            NaN
         13   -1    0    0    0    0  0.00000000000E+00  0.00000000000E+00  0.74505805969E-08  0.10566000000E+00  0.10566000000E+00 0.  1.
     999900   -1    0    0    0    0 -0.00000000000E+00 -0.00000000000E+00 -0.74505805969E-08  0.93827000000E+00  0.93827000000E+00 0. -1.
     999902    2    1    2    0    0 -0.10950498991E-01  0.14292212077E-01 -0.15737072721E-01  0.10200169029E+01  0.10197365572E+01 0.  0.
     999903    2    3    3    0    0  0.88855340727E-01 -0.17812314203E-01  0.87785394964E-01  0.12776760616E+00  0.20142877205E-01 0.  0.
         14    1    1    2    0    0  0.10950498991E-01 -0.14292212077E-01  0.15737072721E-01  0.23913097081E-01  0.00000000000E+00 0.  1.
     999901    1    3    3    0    0 -0.99805839718E-01  0.32104526279E-01 -0.10352246768E+00  0.89224929676E+00  0.88000000000E+00 0. -1.
        -11    1    4    4    0    0  0.74678918595E-01 -0.22048962238E-01  0.70885288941E-01  0.10529996642E+00  0.51100000000E-03 0. -1.
         11    1    4    4    0    0  0.14176422132E-01  0.42366480355E-02  0.16900106023E-01  0.22467639744E-01  0.51100000000E-03 0.  1.
</event>
<event>
 8    1  0.1116619E+005  0.1043930E+01  0.7957747E-01            NaN
         13   -1    0    0    0    0  0.00000000000E+00  0.00000000000E+00  0.74505805969E-08  0.10566000000E+00  0.10566000000E+00 0. -1.
     999900   -1    0    0    0    0 -0.00000000000E+00 -0.00000000000E+00 -0.74505805969E-08  0.93827000000E+00  0.93827000000E+00 0.  1.
     999902    2    1    2    0    0 -0.51164803980E-02 -0.33489601865E-01  0.11152267161E-01  0.10082634209E+01  0.10076323838E+01 0.  0.
     999903    2    3    3    0    0 -0.12546780617E-01  0.67512469240E-01 -0.92217768104E-01  0.11644393693E+00  0.18431453728E-01 0.  0.
         14    1    1    2    0    0  0.51164803980E-02  0.33489601865E-01 -0.11152267161E-01  0.35666579141E-01  0.00000000000E+00 0.  1.
     999901    1    3    3    0    0  0.74303002188E-02 -0.10100207111E+00  0.10337003526E+00  0.89181948393E+00  0.88000000000E+00 0. -1.
        -11    1    4    4    0    0 -0.13275405214E-01  0.31425060678E-01 -0.35697905932E-01  0.49379878808E-01  0.51100000000E-03 0.  1.
         11    1    4    4    0    0  0.72862459745E-03  0.36087408562E-01 -0.56519862172E-01  0.67064058120E-01  0.51100000000E-03 0. -1.
</event>
<event>
 8    1  0.1116619E+005  0.1043930E+01  0.7957747E-01            NaN
         13   -1    0    0    0    0  0.00000000000E+00  0.00000000000E+00  0.74505805969E-08  0.10566000000E+00  0.10566000000E+00 0. -1.
     999900   -1    0    0    0    0 -0.00000000000E+00 -0.00000000000E+00 -0.74505805969E-08  0.93827000000E+00  0.93827000000E+00 0. -1.
     999902    2    1    2    0    0  0.44706908937E-02 -0.20007420367E-01 -0.10114851475E-01  0.10210696814E+01  0.10208137441E+01 0.  0.
     999903    2    3    3    0    0  0.87422069453E-01 -0.90369295335E-01 -0.43360291203E-01  0.13374956783E+00  0.14128137717E-01 0.  0.
         14    1    1    2    0    0 -0.44706908937E-02  0.20007420367E-01  0.10114851475E-01  0.22860318614E-01  0.00000000000E+00 0.  1.
     999901    1    3    3    0    0 -0.82951378559E-01  0.70361874969E-01  0.33245439728E-01  0.88732011355E+00  0.88000000000E+00 0.  1.
        -11    1    4    4    0    0  0.57779789800E-01 -0.49845709273E-01 -0.26712964440E-01  0.80851360115E-01  0.51100000000E-03 0.  1.
         11    1    4    4    0    0  0.29642279653E-01 -0.40523586063E-01 -0.16647326762E-01  0.52898207718E-01  0.51100000000E-03 0. -1.
</event>
<event>
 8    1  0.1116619E+005  0.1043930E+01  0.7957747E-01            NaN
         13   -1    0    0    0    0  0.00000000000E+00  0.00000000000E+00  0.74505805969E-08  0.10566000000E+00  0.10566000000E+00 0.  1.
     999900   -1    0    0    0    0 -0.00000000000E+00 -0.00000000000E+00 -0.74505805969E-08  0.93827000000E+00  0.93827000000E+00 0.  1.
     999902    2    1    2    0    0  0.71343579582E-02 -0.20450040507E-01  0.10786369546E-01  0.10197339468E+01  0.10194468468E+01 0.  0.
     999903    2    3    3    0    0  0.82159547645E-01  0.15421199482E-02  0.10094562187E+00  0.13167926104E+00  0.19920838593E-01 0.  0.
         14    1    1    2    0    0 -0.71343579582E-02  0.20450040507E-01 -0.10786369546E-01  0.24196053153E-01  0.00000000000E+00 0. -1.
     999901    1    3    3    0    0 -0.75025189687E-01 -0.21992160455E-01 -0.90159252321E-01  0.88805468581E+00  0.88000000000E+00 0.  1.
        -11    1    4    4    0    0  0.64233170853E-01 -0.67816092322E-02  0.80915570768E-01  0.10353492732E+00  0.51100000000E-03 0. -1.
         11    1    4    4    0    0  0.17926376792E-01  0.83237291805E-02  0.20030051099E-01  0.28144333717E-01  0.51100000000E-03 0.  1.
</event>
<event>
 8    1  0.1116619E+005  0.1043930E+01  0.7957747E-01            NaN
         13   -1    0    0    0    0  0.00000000000E+00  0.00000000000E+00  0.74505805969E-08  0.10566000000E+00  0.10566000000E+00 0. -1.
     999900   -1    0    0    0    0 -0.00000000000E+00 -0.00000000000E+00 -0.74505805969E-08  0.93827000000E+00  0.93827000000E+00 0. -1.
     999902    2    1    2    0    0  0.83437336139E-02 -0.37047612189E-02  0.26122489372E-01  0.10162582166E+01  0.10158814080E+01 0.  0.
     999903    2    3    3    0    0  0.36316375883E-01 -0.57151865530E-01  0.10951565397E+00  0.13025963782E+00  0.19714966147E-01 0.  0.
         14    1    1    2    0    0 -0.83437336139E-02  0.37047612189E-02 -0.26122489372E-01  0.27671783413E-01  0.00000000000E+00 0.  1.
     999901    1    3    3    0    0 -0.27972642270E-01  0.53447104311E-01 -0.83393164596E-01  0.88599857877E+00  0.88000000000E+00 0.  1.
        -11    1    4    4    0    0  0.35202469071E-01 -0.41767730410E-01  0.91206509349E-01  0.10631390126E+00  0.51100000000E-03 0. -1.
         11    1    4    4    0    0  0.11139068123E-02 -0.15384135120E-01  0.18309144619E-01  0.23945736561E-01  0.51100000000E-03 0.  1.
</event>
<event>
 8    1  0.1116619E+005  0.1043930E+01  0.7957747E-01            NaN
         13   -1    0    0    0    0  0.00000000000E+00  0.00000000000E+00  0.74505805969E-08  0.10566000000E+00  0.10566000000E+00 0.  1.
     999900   -1    0    0    0    0 -0.00000000000E+00 -0.00000000000E+00 -0.74505805969E-08  0.93827000000E+00  0.93827000000E+00 0. -1.
     999902    2    1    2    0    0 -0.11245210064E-01 -0.29659805907E-01  0.28176802012E-02  0.10120850921E+01  0.10115839736E+01 0.  0.
     999903    2    3    3    0    0  0.95001098746E-01  0.53570725610E-01  0.47567939914E-01  0.12067150391E+00  0.20096555491E-01 0.  0.
         14    1    1    2    0    0  0.11245210064E-01  0.29659805907E-01 -0.28176802012E-02  0.31844907875E-01  0.00000000000E+00 0. -1.
     999901    1    3    3    0    0 -0.10624630881E+00 -0.83230531517E-01 -0.44750259713E-01  0.89141358822E+00  0.88000000000E+00 0. -1.
        -11    1    4    4    0    0  0.44604569916E-01  0.36660848324E-01  0.24975451653E-01  0.62909615827E-01  0.51100000000E-03 0.  1.
         11    1    4    4    0    0  0.50396528830E-01  0.16909877286E-01  0.22592488261E-01  0.57761888081E-01  0.51100000000E-03 0. -1.
</event>
<event>
 8    1  0.1116619E+005  0.1043930E+01  0.7957747E-01            NaN
         13   -1    0    0    0    0  0.00000000000E+00  0.00000000000E+00  0.74505805969E-08  0.10566000000E+00  0.10566000000E+00 0.  1.
     999900   -1    0    0    0    0 -0.00000000000E+00 -0.00000000000E+00 -0.74505805969E-08  0.93827000000E+00  0.93827000000E+00 0.  1.
     999902    2    1    2    0    0 -0.76212002708E-02  0.26301865521E-01  0.17278339947E-01  0.10115508114E+01  0.10110324585E+01 0.  0.
     999903    2    3    3    0    0  0.11903216081E+00  0.19133308484E-01  0.98751592839E-02  0.12242356000E+00  0.18848619902E-01 0.  0.
         14    1    1    2    0    0  0.76212002708E-02 -0.26301865521E-01 -0.17278339947E-01  0.32379188606E-01  0.00000000000E+00 0.  1.
     999901    1    3    3    0    0 -0.12665336108E+00  0.71685570369E-02  0.74031806635E-02  0.88912725139E+00  0.88000000000E+00 0. -1.
        -11    1    4    4    0    0  0.24428954296E-01  0.53960273358E-02  0.96702287563E-02  0.26826579435E-01  0.51100000000E-03 0.  1.
         11    1    4    4    0    0  0.94603206514E-01  0.13737281149E-01  0.20493052767E-03  0.95596980567E-01  0.51100000000E-03 0. -1.
</event>
<event>
 8    1  0.1116619E+005  0.1043930E+01  0.7957747E-01            NaN
         13   -1    0    0    0    0  0.00000000000E+00  0.00000000000E+00  0.74505805969E-08  0.10566000000E+00  0.10566000000E+00 0.  1.
     999900   -1    0    0    0    0 -0.00000000000E+00 -0.00000000000E+00 -0.74505805969E-08  0.93827000000E+00  0.93827000000E+00 0. -1.
     999902    2    1    2    0    0  0.16822850151E-01 -0.10442965100E-01  0.12827467330E-01  0.10203374646E+01  0.10200646715E+01 0.  0.
     999903    2    3    3    0    0 -0.67545698605E-01 -0.84697552185E-01  0.71084461810E-01  0.13127859530E+00  0.21094362436E-01 0.  0.
         14    1    1    2    0    0 -0.16822850151E-01  0.10442965100E-01 -0.12827467330E-01  0.23592535374E-01  0.00000000000E+00 0.  1.
     999901    1    3    3    0    0  0.84368548757E-01  0.74254587085E-01 -0.58256994480E-01  0.88905886933E+00  0.88000000000E+00 0. -1.
        -11    1    4    4    0    0 -0.49279332102E-02 -0.84604836005E-02  0.14627139652E-01  0.17609050056E-01  0.51100000000E-03 0. -1.
         11    1    4    4    0    0 -0.62617765395E-01 -0.76237068585E-01  0.56457322159E-01  0.11366954524E+00  0.51100000000E-03 0.  1.
</event>
<event>
 8    1  0.1116619E+005  0.1043930E+01  0.7957747E-01            NaN
         13   -1    0    0    0    0  0.00000000000E+00  0.00000000000E+00  0.74505805969E-08  0.10566000000E+00  0.10566000000E+00 0. -1.
     999900   -1    0    0    0    0 -0.00000000000E+00 -0.00000000000E+00 -0.74505805969E-08  0.93827000000E+00  0.93827000000E+00 0.  1.
     999902    2    1    2    0    0 -0.18169381671E-01 -0.78882246553E-02  0.11924711591E-01  0.10208096785E+01  0.10205478188E+01 0.  0.
     999903    2    3    3    0    0  0.46928102597E-01  0.10143940756E+00  0.63537899506E-01  0.13016152421E+00  0.20316433994E-01 0.  0.
         14    1    1    2    0    0  0.18169381671E-01  0.78882246553E-02 -0.11924711591E-01  0.23120321474E-01  0.00000000000E+00 0.  1.
     999901    1    3    3    0    0 -0.65097484268E-01 -0.10932763222E+00 -0.51613187915E-01  0.89064815432E+00  0.88000000000E+00 0.  1.
        -11    1    4    4    0    0  0.10588218844E-01  0.38110687379E-01  0.14155657064E-01  0.42014028832E-01  0.51100000000E-03 0. -1.
         11    1    4    4    0    0  0.36339883753E-01  0.63328720184E-01  0.49382242442E-01  0.88147495375E-01  0.51100000000E-03 0.  1.
</event>
<event>
 8    1  0.1116619E+005  0.1043930E+01  0.7957747E-01            NaN
         13   -1    0    0    0    0  0.00000000000E+00  0.00000000000E+00  0.74505805969E-08  0.10566000000E+00  0.10566000000E+00 0.  1.
     999900   -1    0    0    0    0 -0.00000000000E+00 -0.00000000000E+00 -0.74505805969E-08  0.93827000000E+00  0.93827000000E+00 0.  1.
     999902    2    1    2    0    0 -0.38181001910E-02 -0.30279163818E-02 -0.22741000503E-01  0.10206727588E+01  0.10204077524E+01 0.  0.
     999903    2    3    3    0    0 -0.76119830216E-01  0.93081637460E-01 -0.50775735085E-01  0.13204992940E+00  0.20014714489E-01 0.  0.
         14    1    1    2    0    0  0.38181001910E-02  0.30279163818E-02  0.22741000503E-01  0.23257241250E-01  0.00000000000E+00 0.  1.
     999901    1    3    3    0    0  0.72301730025E-01 -0.96109553842E-01  0.28034734582E-01  0.88862282935E+00  0.88000000000E+00 0.  1.
        -11    1    4    4    0    0 -0.56967027827E-01  0.54650181164E-01 -0.32038530634E-01  0.85197494839E-01  0.51100000000E-03 0. -1.
         11    1    4    4    0    0 -0.19152802389E-01  0.38431456296E-01 -0.18737204451E-01  0.46852434558E-01  0.51100000000E-03 0.  1.
</event>
<event>
 8    1  0.1116619E+005  0.1043930E+01  0.7957747E-01            NaN
         13   -1    0    0    0    0  0.00000000000E+00  0.00000000000E+00  0.74505805969E-08  0.10566000000E+00  0.10566000000E+00 0. -1.
     999900   -1    0    0    0    0 -0.00000000000E+00 -0.00000000000E+00 -0.74505805969E-08  0.93827000000E+00  0.93827000000E+00 0. -1.
     999902    2    1    2    0    0 -0.17743683181E-01 -0.12085763013E-03 -0.14217788916E-01  0.10211924007E+01  0.10209392347E+01 0.  0.
     999903    2    3    3    0    0 -0.83392203813E-01  0.50656810675E-01  0.85870255150E-01  0.13163873937E+00  0.20849097295E-01 0.  0.
         14    1    1    2    0    0  0.17743683181E-01  0.12085763013E-03  0.14217788916E-01  0.22737599281E-01  0.00000000000E+00 0. -1.
     999901    1    3    3    0    0  0.65648520632E-01 -0.50777668305E-01 -0.10008804407E+00  0.88955366135E+00  0.88000000000E+00 0. -1.
        -11    1    4    4    0    0 -0.22158988186E-01  0.12968769083E-01  0.35638004764E-01  0.43926509462E-01  0.51100000000E-03 0. -1.
         11    1    4    4    0    0 -0.61233215627E-01  0.37688041591E-01  0.50232250386E-01  0.87712229905E-01  0.51100000000E-03 0.  1.
</event>
<event>
 8    1  0.1116619E+005  0.1043930E+01  0.7957747E-01            NaN
         13   -1    0    0    0    0  0.00000000000E+00  0.00000000000E+00  0.74505805969E-08  0.10566000000E+00  0.10566000000E+00 0. -1.
     999900   -1    0    0    0    0 -0.00000000000E+00 -0.00000000000E+00 -0.74505805969E-08  0.93827000000E+00  0.93827000000E+00 0. -1.
     999902    2    1    2    0    0  0.22787680778E-01  0.61629315807E-02 -0.27948808990E-02  0.10201587678E+01  0.10198817775E+01 0.  0.
     999903    2    3    3    0    0 -0.10083662779E+00 -0.44671281974E-01  0.60745236869E-01  0.12779985262E+00  0.21892226710E-01 0.  0.
         14    1    1    2    0    0 -0.22787680778E-01 -0.61629315807E-02  0.27948808990E-02  0.23771232196E-01  0.00000000000E+00 0. -1.
     999901    1    3    3    0    0  0.12362430857E+00  0.50834213555E-01 -0.63540117768E-01  0.89235891518E+00  0.88000000000E+00 0. -1.
        -11    1    4    4    0    0 -0.76204118989E-01 -0.41426933405E-01  0.53516740174E-01  0.10191938561E+00  0.51100000000E-03 0.  1.
         11    1    4    4    0    0 -0.24632508803E-01 -0.32443485694E-02  0.72284966946E-02  0.25880467017E-01  0.51100000000E-03 0. -1.
</event>
<event>
 8    1  0.1116619E+005  0.1043930E+01  0.7957747E-01            NaN
         13   -1    0    0    0    0  0.00000000000E+00  0.00000000000E+00  0.74505805969E-08  0.10566000000E+00  0.10566000000E+00 0. -1.
     999900   -1    0    0    0    0 -0.00000000000E+00 -0.00000000000E+00 -0.74505805969E-08  0.93827000000E+00  0.93827000000E+00 0.  1.
     999902    2    1    2    0    0  0.16838188605E-02 -0.24646597095E-01  0.14838611513E-01  0.10151120475E+01  0.10147029095E+01 0.  0.
     999903    2    3    3    0    0 -0.44862965571E-01  0.11047617453E+00  0.29743454020E-01  0.12345801096E+00  0.11812560872E-01 0.  0.
         14    1    1    2    0    0 -0.16838188605E-02  0.24646597095E-01 -0.14838611513E-01  0.28817952494E-01  0.00000000000E+00 0. -1.
     999901    1    3    3    0    0  0.46546784432E-01 -0.13512277163E+00 -0.14904842507E-01  0.89165403654E+00  0.88000000000E+00 0. -1.
        -11    1    4    4    0    0 -0.20857273445E-01  0.38801970472E-01  0.14199027119E-01  0.46287063638E-01  0.51100000000E-03 0.  1.
         11    1    4    4    0    0 -0.24005692126E-01  0.71674204062E-01  0.15544426901E-01  0.77170947325E-01  0.51100000000E-03 0. -1.
</event>
<event>
 8    1  0.1116619E+005  0.1043930E+01  0.7957747E-01            NaN
         13   -1    0    0    0    0  0.00000000000E+00  0.00000000000E+00  0.74505805969E-08  0.10566000000E+00  0.10566000000E+00 0.  1.
     999900   -1    0    0    0    0 -0.00000000000E+00 -0.00000000000E+00 -0.74505805969E-08  0.93827000000E+00  0.93827000000E+00 0.  1.
     999902    2    1    2    0    0  0.30063565925E-03  0.24574097907E-01 -0.26667361126E-01  0.10076653503E+01  0.10070125785E+01 0.  0.
     999903    2    3    3    0    0  0.29802174400E-01  0.40762597052E-01 -0.11037573972E+00  0.12305272267E+00  0.20233875540E-01 0.  0.
         14    1    1    2    0    0 -0.30063565925E-03 -0.24574097907E-01  0.26667361126E-01  0.36264649718E-01  0.00000000000E+00 0.  1.
     999901    1    3    3    0    0 -0.29501538741E-01 -0.16188499145E-01  0.83708378594E-01  0.88461262762E+00  0.88000000000E+00 0. -1.
        -11    1    4    4    0    0  0.25598208955E-01  0.18359959769E-01 -0.60455615526E-01  0.68172567753E-01  0.51100000000E-03 0.  1.
         11    1    4    4    0    0  0.42039654448E-02  0.22402637283E-01 -0.49920124194E-01  0.54880154913E-01  0.51100000000E-03 0. -1.
</event>
<event>
 8    1  0.1116619E+005  0.1043930E+01  0.7957747E-01            NaN
         13   -1    0    0    0    0  0.00000000000E+00  0.00000000000E+00  0.74505805969E-08  0.10566000000E+00  0.10566000000E+00 0.  1.
     999900   -1    0    0    0    0 -0.00000000000E+00 -0.00000000000E+00 -0.74505805969E-08  0.93827000000E+00  0.93827000000E+00 0.  1.
     999902    2    1    2    0    0 -0.66314847444E-02 -0.10325461676E-01  0.18937508801E-01  0.10213640746E+01  0.10211147594E+01 0.  0.
     999903    2    3    3    0    0  0.53569899705E-01  0.76675677592E-01  0.90836393896E-01  0.13211559719E+00  0.21316352351E-01 0.  0.
         14    1    1    2    0    0  0.66314847444E-02  0.10325461676E-01 -0.18937508801E-01  0.22565925381E-01  0.00000000000E+00 0. -1.
     999901    1    3    3    0    0 -0.60201384449E-01 -0.87001139268E-01 -0.71898885095E-01  0.88924847742E+00  0.88000000000E+00 0. -1.
        -11    1    4    4    0    0  0.38871691883E-01  0.52481856869E-01  0.75803710845E-01  0.10005906970E+00  0.51100000000E-03 0.  1.
         11    1    4    4    0    0  0.14698207822E-01  0.24193820723E-01  0.15032683051E-01  0.32056527495E-01  0.51100000000E-03 0. -1.
</event>
<event>
 8    1  0.1116619E+005  0.1043930E+01  0.7957747E-01            NaN
         13   -1    0    0    0    0  0.00000000000E+00  0.00000000000E+00  0.74505805969E-08  0.10566000000E+00  0.10566000000E+00 0. -1.
     999900   -1    0    0    0    0 -0.00000000000E+00 -0.00000000000E+00 -0.74505805969E-08  0.93827000000E+00  0.93827000000E+00 0.  1.
     999902    2    1    2    0    0  0.11471690551E-01  0.23074195001E-01 -0.80001385510E-02  0.10169481473E+01  0.10165901406E+01 0.  0.
     999903    2    3    3    0    0 -0.85624468889E-01  0.68718242315E-01  0.62323415461E-01  0.12764704784E+00  0.18863038119E-01 0.  0.
         14    1    1    2    0    0 -0.11471690551E-01 -0.23074195001E-01  0.80001385510E-02  0.26981852714E-01  0.00000000000E+00 0. -1.
     999901    1    3    3    0    0  0.97096159441E-01 -0.45644047314E-01 -0.70323554012E-01  0.88930109945E+00  0.88000000000E+00 0.  1.
        -11    1    4    4    0    0 -0.51075608463E-02  0.86860813261E-02  0.14187902104E-02  0.10188683588E-01  0.51100000000E-03 0. -1.
         11    1    4    4    0    0 -0.80516908043E-01  0.60032160989E-01  0.60904625251E-01  0.11745836425E+00  0.51100000000E-03 0.  1.
</event>
<event>
 8    1  0.1116619E+005  0.1043930E+01  0.7957747E-01            NaN
         13   -1    0    0    0    0  0.00000000000E+00  0.00000000000E+00  0.74505805969E-08  0.10566000000E+00  0.10566000000E+00 0.  1.
     999900   -1    0    0    0    0 -0.00000000000E+00 -0.00000000000E+00 -0.74505805969E-08  0.93827000000E+00  0.93827000000E+00 0. -1.
     999902    2    1    2    0    0  0.15930362528E-01  0.96127261658E-02  0.15349567598E-01  0.10198096729E+01  0.10195243885E+01 0.  0.
     999903    2    3    3    0    0 -0.78026616290E-01 -0.97150980935E-01 -0.19436874742E-01  0.12771298553E+00  0.20158090862E-01 0.  0.
         14    1    1    2    0    0 -0.15930362528E-01 -0.96127261658E-02 -0.15349567598E-01  0.24120327113E-01  0.00000000000E+00 0. -1.
     999901    1    3    3    0    0  0.93956978817E-01  0.10676370710E+00  0.34786442339E-01  0.89209668736E+00  0.88000000000E+00 0.  1.
        -11    1    4    4    0    0 -0.68441730008E-01 -0.73514917792E-01 -0.18838922507E-01  0.10219530159E+00  0.51100000000E-03 0. -1.
         11    1    4    4    0    0 -0.95848862819E-02 -0.23636063142E-01 -0.59795223433E-03  0.25517683942E-01  0.51100000000E-03 0.  1.
</event>
<event>
 8    1  0.1116619E+005  0.1043930E+01  0.7957747E-01            NaN
         13   -1    0    0    0    0  0.00000000000E+00  0.00000000000E+00  0.74505805969E-08  0.10566000000E+00  0.10566000000E+00 0. -1.
     999900   -1    0    0    0    0 -0.00000000000E+00 -0.00000000000E+00 -0.74505805969E-08  0.93827000000E+00  0.93827000000E+00 0. -1.
     999902    2    1    2    0    0 -0.16429924754E-03  0.59655106855E-02 -0.19455384583E-01  0.10235799066E+01  0.10233775935E+01 0.  0.
     999903    2    3    3    0    0  0.47815134860E-02 -0.66845738754E-01 -0.11524338187E+00  0.13537875848E+00  0.23561738509E-01 0.  0.
         14    1    1    2    0    0  0.16429924754E-03 -0.59655106855E-02  0.19455384583E-01  0.20350093397E-01  0.00000000000E+00 0. -1.
     999901    1    3    3    0    0 -0.49458127336E-02  0.72811249440E-01  0.95787997284E-01  0.88820114813E+00  0.88000000000E+00 0.  1.
        -11    1    4    4    0    0  0.13075634650E-01 -0.48710351664E-01 -0.73862264043E-01  0.89440291543E-01  0.51100000000E-03 0. -1.
         11    1    4    4    0    0 -0.82941211644E-02 -0.18135387091E-01 -0.41381117825E-01  0.45938466934E-01  0.51100000000E-03 0.  1.
</event>
<event>
 8    1  0.1116619E+005  0.1043930E+01  0.7957747E-01            NaN
         13   -1    0    0    0    0  0.00000000000E+00  0.00000000000E+00  0.74505805969E-08  0.10566000000E+00  0.10566000000E+00 0.  1.
     999900   -1    0    0    0    0 -0.00000000000E+00 -0.00000000000E+00 -0.74505805969E-08  0.93827000000E+00  0.93827000000E+00 0. -1.
     999902    2    1    2    0    0 -0.15928148983E-01 -0.17648002327E-01  0.13640262071E-02  0.10201178501E+01  0.10198398941E+01 0.  0.
     999903    2    3    3    0    0 -0.63003651255E-01 -0.96830589625E-01  0.63213486237E-01  0.13315035307E+00  0.19683712121E-01 0.  0.
         14    1    1    2    0    0  0.15928148983E-01  0.17648002327E-01 -0.13640262071E-02  0.23812149917E-01  0.00000000000E+00 0. -1.
     999901    1    3    3    0    0  0.47075502272E-01  0.79182587298E-01 -0.61849460030E-01  0.88696749701E+00  0.88000000000E+00 0. -1.
        -11    1    4    4    0    0 -0.41310604914E-01 -0.77716377706E-01  0.51308351153E-01  0.10187840527E+00  0.51100000000E-03 0. -1.
         11    1    4    4    0    0 -0.21693046341E-01 -0.19114211919E-01  0.11905135084E-01  0.31271947800E-01  0.51100000000E-03 0.  1.
</event>
<event>
 8    1  0.1116619E+005  0.1043930E+01  0.7957747E-01            NaN
         13   -1    0    0    0    0  0.00000000000E+00  0.00000000000E+00  0.74505805969E-08  0.10566000000E+00  0.10566000000E+00 0. -1.
     999900   -1    0    0    0    0 -0.00000000000E+00 -0.00000000000E+00 -0.74505805969E-08  0.93827000000E+00  0.93827000000E+00 0. -1.
     999902    2    1    2    0    0  0.18964848096E-01  0.11106262263E-01  0.85210961296E-02  0.10203583305E+01  0.10200860253E+01 0.  0.
     999903    2    3    3    0    0  0.12032940170E+00 -0.40641055967E-01 -0.30838869095E-01  0.13215690933E+00  0.19584496257E-01 0.  0.
         14    1    1    2    0    0 -0.18964848096E-01 -0.11106262263E-01 -0.85210961296E-02  0.23571669521E-01  0.00000000000E+00 0.  1.
     999901    1    3    3    0    0 -0.10136455360E+00  0.51747318230E-01  0.39359965225E-01  0.88820142115E+00  0.88000000000E+00 0. -1.
        -11    1    4    4    0    0  0.27801901505E-01 -0.12412262123E-01 -0.15634455040E-01  0.34230210103E-01  0.51100000000E-03 0.  1.
         11    1    4    4    0    0  0.92527500191E-01 -0.28228793844E-01 -0.15204414056E-01  0.97926699226E-01  0.51100000000E-03 0. -1.
</event>
<event>
 8    1  0.1116619E+005  0.1043930E+01  0.7957747E-01            NaN
         13   -1    0    0    0    0  0.00000000000E+00  0.00000000000E+00  0.74505805969E-08  0.10566000000E+00  0.10566000000E+00 0.  1.
     999900   -1    0    0    0    0 -0.00000000000E+00 -0.00000000000E+00 -0.74505805969E-08  0.93827000000E+00  0.93827000000E+00 0.  1.
     999902    2    1    2    0    0  0.20986553441E-01  0.34579191750E-04 -0.10703485959E-01  0.10203715359E+01  0.10200995392E+01 0.  0.
     999903    2    3    3    0    0 -0.35806496042E-01  0.10057591423E+00 -0.72584223831E-01  0.13067313964E+00  0.20233145878E-01 0.  0.
         14    1    1    2    0    0 -0.20986553441E-01 -0.34579191750E-04  0.10703485959E-01  0.23558464142E-01  0.00000000000E+00 0.  1.
     999901    1    3    3    0    0  0.56793049483E-01 -0.10054133503E+00  0.61880737871E-01  0.88969839622E+00  0.88000000000E+00 0.  1.
        -11    1    4    4    0    0 -0.33999701614E-01  0.73899997227E-01 -0.48654328424E-01  0.94787626277E-01  0.51100000000E-03 0. -1.
         11    1    4    4    0    0 -0.18067944285E-02  0.26675916999E-01 -0.23929895407E-01  0.35885513359E-01  0.51100000000E-03 0.  1.
</event>
<event>
 8    1  0.1116619E+005  0.1043930E+01  0.7957747E-01            NaN
         13   -1    0    0    0    0  0.00000000000E+00  0.00000000000E+00  0.74505805969E-08  0.10566000000E+00  0.10566000000E+00 0. -1.
     999900   -1    0    0    0    0 -0.00000000000E+00 -0.00000000000E+00 -0.74505805969E-08  0.93827000000E+00  0.93827000000E+00 0. -1.
     999902    2    1    2    0    0 -0.22542266009E-01  0.12760004767E-02  0.16152216250E-01  0.10161689477E+01  0.10157896703E+01 0.  0.
     999903    2    3    3    0    0  0.10637869692E+00 -0.59009237678E-01 -0.12340547044E-01  0.12427951389E+00  0.22239406027E-01 0.  0.
         14    1    1    2    0    0  0.22542266009E-01 -0.12760004767E-02 -0.16152216250E-01  0.27761052282E-01  0.00000000000E+00 0.  1.
     999901    1    3    3    0    0 -0.12892096293E+00  0.60285238155E-01  0.28492763293E-01  0.89188943383E+00  0.88000000000E+00 0. -1.
        -11    1    4    4    0    0  0.23500229094E-01 -0.23653232932E-01 -0.65771775413E-02  0.33989065610E-01  0.51100000000E-03 0.  1.
         11    1    4    4    0    0  0.82878467826E-01 -0.35356004746E-01 -0.57633695023E-02  0.90290448275E-01  0.51100000000E-03 0. -1.
</event>
<event>
 8    1  0.1116619E+005  0.1043930E+01  0.7957747E-01            NaN
         13   -1    0    0    0    0  0.00000000000E+00  0.00000000000E+00  0.74505805969E-08  0.10566000000E+00  0.10566000000E+00 0.  1.
     999900   -1    0    0    0    0 -0.00000000000E+00 -0.00000000000E+00 -0.74505805969E-08  0.93827000000E+00  0.93827000000E+00 0.  1.
     999902    2    1    2    0    0 -0.13783705082E-01 -0.12819001188E-02  0.18832082799E-01  0.10205573421E+01  0.10202896684E+01 0.  0.
     999903    2    3    3    0    0 -0.12293095283E+00  0.42777320686E-01  0.16200945960E-01  0.13271655712E+00  0.20231054260E-01 0.  0.
         14    1    1    2    0    0  0.13783705082E-01  0.12819001188E-02 -0.18832082799E-01  0.23372657878E-01  0.00000000000E+00 0. -1.
     999901    1    3    3    0    0  0.10914724774E+00 -0.44059220804E-01  0.26311368386E-02  0.88784078500E+00  0.88000000000E+00 0. -1.
        -11    1    4    4    0    0 -0.71499874189E-01  0.34634653311E-01  0.61932545893E-02  0.79689451890E-01  0.51100000000E-03 0. -1.
         11    1    4    4    0    0 -0.51431078637E-01  0.81426673746E-02  0.10007691371E-01  0.53027105233E-01  0.51100000000E-03 0.  1.
</event>
<event>
 8    1  0.1116619E+005  0.1043930E+01  0.7957747E-01            NaN
         13   -1    0    0    0    0  0.00000000000E+00  0.00000000000E+00  0.74505805969E-08  0.10566000000E+00  0.10566000000E+00 0. -1.
     999900   -1    0    0    0    0 -0.00000000000E+00 -0.00000000000E+00 -0.74505805969E-08  0.93827000000E+00  0.93827000000E+00 0. -1.
     999902    2    1    2    0    0 -0.10237037076E-01  0.20350112294E-01 -0.68851871828E-02  0.10201323152E+01  0.10198547008E+01 0.  0.
     999903    2    3    3    0    0 -0.12377768665E+00  0.23944899457E-01 -0.35081415662E-01  0.13238267207E+00  0.20004804857E-01 0.  0.
         14    1    1    2    0    0  0.10237037076E-01 -0.20350112294E-01  0.68851871828E-02  0.23797684783E-01  0.00000000000E+00 0. -1.
     999901    1    3    3    0    0  0.11354064958E+00 -0.35947871625E-02  0.28196228479E-01  0.88774964314E+00  0.88000000000E+00 0.  1.
        -11    1    4    4    0    0 -0.67919227372E-01  0.39313361612E-02 -0.14383707147E-01  0.69538687096E-01  0.51100000000E-03 0.  1.
         11    1    4    4    0    0 -0.55858459281E-01  0.20013563296E-01 -0.20697708515E-01  0.62843984978E-01  0.51100000000E-03 0. -1.
</event>
<event>
 8    1  0.1116619E+005  0.1043930E+01  0.7957747E-01            NaN
         13   -1    0    0    0    0  0.00000000000E+00  0.00000000000E+00  0.74505805969E-08  0.10566000000E+00  0.10566000000E+00 0. -1.
     999900   -1    0    0    0    0 -0.00000000000E+00 -0.00000000000E+00 -0.74505805969E-08  0.93827000000E+00  0.93827000000E+00 0. -1.
     999902    2    1    2    0    0  0.17206401293E-01 -0.29744641449E-02  0.15900156940E-01  0.10203138472E+01  0.10200405012E+01 0.  0.
     999903    2    3    3    0    0  0.24415432494E-01  0.12049909160E+00  0.41582493830E-01  0.13129344725E+00  0.19817191428E-01 0.  0.
         14    1    1    2    0    0 -0.17206401293E-01  0.29744641449E-02 -0.15900156940E-01  0.23616152801E-01  0.00000000000E+00 0.  1.
     999901    1    3    3    0    0 -0.72090312014E-02 -0.12347355575E+00 -0.25682336891E-01  0.88902039995E+00  0.88000000000E+00 0. -1.
        -11    1    4    4    0    0  0.58361807212E-02  0.76970572924E-01  0.24935902829E-01  0.81120838707E-01  0.51100000000E-03 0. -1.
         11    1    4    4    0    0  0.18579251773E-01  0.43528518680E-01  0.16646591001E-01  0.50172608542E-01  0.51100000000E-03 0.  1.
</event>
<event>
 8    1  0.1116619E+005  0.1043930E+01  0.7957747E-01            NaN
         13   -1    0    0    0    0  0.00000000000E+00  0.00000000000E+00  0.74505805969E-08  0.10566000000E+00  0.10566000000E+00 0. -1.
     999900   -1    0    0    0    0 -0.00000000000E+00 -0.00000000000E+00 -0.74505805969E-08  0.93827000000E+00  0.93827000000E+00 0.  1.
     999902    2    1    2    0    0  0.13762383763E-01 -0.11031941835E-01  0.81841785399E-02  0.10244855220E+01  0.10243009797E+01 0.  0.
     999903    2    3    3    0    0  0.10751618300E+00  0.49574746864E-01  0.62249955288E-01  0.13578644253E+00  0.23356281950E-01 0.  0.
         14    1    1    2    0    0 -0.13762383763E-01  0.11031941835E-01 -0.81841785399E-02  0.19444478030E-01  0.00000000000E+00 0. -1.
     999901    1    3    3    0    0 -0.93753799241E-01 -0.60606688698E-01 -0.54065776748E-01  0.88869907944E+00  0.88000000000E+00 0.  1.
        -11    1    4    4    0    0  0.56651286158E-01  0.24561407421E-01  0.45425685801E-01  0.76657582856E-01  0.51100000000E-03 0. -1.
         11    1    4    4    0    0  0.50864896847E-01  0.25013339443E-01  0.16824269487E-01  0.59128859671E-01  0.51100000000E-03 0.  1.
</event>
<event>
 8    1  0.1116619E+005  0.1043930E+01  0.7957747E-01            NaN
         13   -1    0    0    0    0  0.00000000000E+00  0.00000000000E+00  0.74505805969E-08  0.10566000000E+00  0.10566000000E+00 0.  1.
     999900   -1    0    0    0    0 -0.00000000000E+00 -0.00000000000E+00 -0.74505805969E-08  0.93827000000E+00  0.93827000000E+00 0.  1.
     999902    2    1    2    0    0  0.22916056966E-01  0.91765760184E-03  0.75015648539E-02  0.10197999101E+01  0.10195143920E+01 0.  0.
     999903    2    3    3    0    0 -0.61054576066E-01 -0.16396476303E-01  0.11137723166E+00  0.12955219145E+00  0.19554459410E-01 0.  0.
         14    1    1    2    0    0 -0.22916056966E-01 -0.91765760184E-03 -0.75015648539E-02  0.24130089879E-01  0.00000000000E+00 0. -1.
     999901    1    3    3    0    0  0.83970633032E-01  0.17314133904E-01 -0.10387566681E+00  0.89024771867E+00  0.88000000000E+00 0.  1.
        -11    1    4    4    0    0 -0.53829243405E-01 -0.18249010942E-01  0.85921824659E-01  0.10302152649E+00  0.51100000000E-03 0. -1.
         11    1    4    4    0    0 -0.72253326610E-02  0.18525346394E-02  0.25455407003E-01  0.26530664962E-01  0.51100000000E-03 0.  1.
</event>
<event>
 8    1  0.1116619E+005  0.1043930E+01  0.7957747E-01            NaN
         13   -1    0    0    0    0  0.00000000000E+00  0.00000000000E+00  0.74505805969E-08  0.10566000000E+00  0.10566000000E+00 0.  1.
     999900   -1    0    0    0    0 -0.00000000000E+00 -0.00000000000E+00 -0.74505805969E-08  0.93827000000E+00  0.93827000000E+00 0. -1.
     999902    2    1    2    0    0  0.11886076463E-01  0.20366023166E-01 -0.31919869466E-02  0.10201341496E+01  0.10198565785E+01 0.  0.
     999903    2    3    3    0    0  0.11215123279E+00 -0.34549465130E-01  0.54104925940E-01  0.13089191682E+00  0.20827537531E-01 0.  0.
         14    1    1    2    0    0 -0.11886076463E-01 -0.20366023166E-01  0.31919869466E-02  0.23795850352E-01  0.00000000000E+00 0. -1.
     999901    1    3    3    0    0 -0.10026515633E+00  0.54915488295E-01 -0.57296912886E-01  0.88924223283E+00  0.88000000000E+00 0. -1.
        -11    1    4    4    0    0  0.66289677927E-01 -0.30441317015E-01  0.36758427343E-01  0.81684994234E-01  0.51100000000E-03 0. -1.
         11    1    4    4    0    0  0.45861554863E-01 -0.41081481149E-02  0.17346498597E-01  0.49206922581E-01  0.51100000000E-03 0.  1.
</event>
<event>
 8    1  0.1116619E+005  0.1043930E+01  0.7957747E-01            NaN
         13   -1    0    0    0    0  0.00000000000E+00  0.00000000000E+00  0.74505805969E-08  0.10566000000E+00  0.10566000000E+00 0.  1.
     999900   -1    0    0    0    0 -0.00000000000E+00 -0.00000000000E+00 -0.74505805969E-08  0.93827000000E+00  0.93827000000E+00 0. -1.
     999902    2    1    2    0    0  0.14874148872E-01 -0.12897287994E-01  0.13148406331E-01  0.10202559439E+01  0.10199812401E+01 0.  0.
     999903    2    3    3    0    0 -0.92644221980E-01  0.70064186068E-01  0.51944290666E-01  0.12899395837E+00  0.21196460245E-01 0.  0.
         14    1    1    2    0    0 -0.14874148872E-01  0.12897287994E-01 -0.13148406331E-01  0.23674056080E-01  0.00000000000E+00 0. -1.
     999901    1    3    3    0    0  0.10751837085E+00 -0.82961474061E-01 -0.38795884335E-01  0.89126198555E+00  0.88000000000E+00 0. -1.
        -11    1    4    4    0    0 -0.28982792506E-01  0.29892910375E-01  0.10016982124E-01  0.42827437514E-01  0.51100000000E-03 0.  1.
         11    1    4    4    0    0 -0.63661429474E-01  0.40171275693E-01  0.41927308541E-01  0.86166520854E-01  0.51100000000E-03 0. -1.
</event>
<event>
 8    1  0.1116619E+005  0.1043930E+01  0.7957747E-01            NaN
         13   -1    0    0    0    0  0.00000000000E+00  0.00000000000E+00  0.74505805969E-08  0.10566000000E+00  0.10566000000E+00 0.  1.
     999900   -1    0    0    0    0 -0.00000000000E+00 -0.00000000000E+00 -0.74505805969E-08  0.93827000000E+00  0.93827000000E+00 0. -1.
     999902    2    1    2    0    0  0.14436271318E-02 -0.44706718617E-02 -0.23119095402E-01  0.10203384011E+01  0.10200656299E+01 0.  0.
     999903    2    3    3    0    0  0.11742454345E+00  0.36843674518E-01  0.35837078038E-01  0.12981368019E+00  0.20525974951E-01 0.  0.
         14    1    1    2    0    0 -0.14436271318E-02  0.44706718617E-02  0.23119095402E-01  0.23591598895E-01  0.00000000000E+00 0.  1.
     999901    1    3    3    0    0 -0.11598091631E+00 -0.41314346380E-01 -0.58956173440E-01  0.89052472091E+00  0.88000000000E+00 0. -1.
        -11    1    4    4    0    0  0.21592805145E-01  0.85099736767E-02  0.15265916023E-01  0.27784495660E-01  0.51100000000E-03 0.  1.
         11    1    4    4    0    0  0.95831738301E-01  0.28333700842E-01  0.20571162014E-01  0.10202918453E+00  0.51100000000E-03 0. -1.
</event>
<event>
 8    1  0.1116619E+005  0.1043930E+01  0.7957747E-01            NaN
         13   -1    0    0    0    0  0.00000000000E+00  0.00000000000E+00  0.74505805969E-08  0.10566000000E+00  0.10566000000E+00 0.  1.
     999900   -1    0    0    0    0 -0.00000000000E+00 -0.00000000000E+00 -0.74505805969E-08  0.93827000000E+00  0.93827000000E+00 0. -1.
     999902    2    1    2    0    0  0.35828899013E-02 -0.26581929720E-02 -0.22380178319E-01  0.10211094945E+01  0.10208544579E+01 0.  0.
     999903    2    3    3    0    0  0.85551585121E-01 -0.72541725526E-01  0.63165814107E-01  0.13042397652E+00  0.20955140640E-01 0.  0.
         14    1    1    2    0    0 -0.35828899013E-02  0.26581929720E-02  0.22380178319E-01  0.22820505505E-01  0.00000000000E+00 0.  1.
     999901    1    3    3    0    0 -0.81968695220E-01  0.69883532554E-01 -0.85545992426E-01  0.89068551798E+00  0.88000000000E+00 0. -1.
        -11    1    4    4    0    0  0.34016000427E-01 -0.17578501135E-01  0.26947316956E-01  0.46824256528E-01  0.51100000000E-03 0. -1.
         11    1    4    4    0    0  0.51535584694E-01 -0.54963224390E-01  0.36218497151E-01  0.83599719988E-01  0.51100000000E-03 0.  1.
</event>
<event>
 8    1  0.1116619E+005  0.1043930E+01  0.7957747E-01            NaN
         13   -1    0    0    0    0  0.00000000000E+00  0.00000000000E+00  0.74505805969E-08  0.10566000000E+00  0.10566000000E+00 0.  1.
     999900   -1    0    0    0    0 -0.00000000000E+00 -0.00000000000E+00 -0.74505805969E-08  0.93827000000E+00  0.93827000000E+00 0. -1.
     999902    2    1    2    0    0  0.58499352902E-02 -0.11405100953E-01 -0.22290409413E-01  0.10182169601E+01  0.10178922425E+01 0.  0.
     999903    2    3    3    0    0 -0.87608058783E-01 -0.64867263576E-01  0.63267787026E-01  0.12753586986E+00  0.19484644650E-01 0.  0.
         14    1    1    2    0    0 -0.58499352902E-02  0.11405100953E-01  0.22290409413E-01  0.25713039930E-01  0.00000000000E+00 0.  1.
     999901    1    3    3    0    0  0.93457994073E-01  0.53462162623E-01 -0.85558196438E-01  0.89068109021E+00  0.88000000000E+00 0. -1.
        -11    1    4    4    0    0 -0.49994871602E-02 -0.52173722987E-02 -0.61691911585E-03  0.72703201968E-02  0.51100000000E-03 0. -1.
         11    1    4    4    0    0 -0.82608571623E-01 -0.59649891277E-01  0.63884706142E-01  0.12026554966E+00  0.51100000000E-03 0.  1.
</event>
<event>
 8    1  0.1116619E+005  0.1043930E+01  0.7957747E-01            NaN
         13   -1    0    0    0    0  0.00000000000E+00  0.00000000000E+00  0.74505805969E-08  0.10566000000E+00  0.10566000000E+00 0. -1.
     999900   -1    0    0    0    0 -0.00000000000E+00 -0.00000000000E+00 -0.74505805969E-08  0.93827000000E+00  0.93827000000E+00 0. -1.
     999902    2    1    2    0    0  0.48105808327E-02  0.20703537031E-01 -0.79207631322E-02  0.10212470412E+01  0.10209951040E+01 0.  0.
     999903    2    3    3    0    0  0.91985420325E-01  0.50543331750E-01  0.74735922969E-01  0.13258400392E+00  0.31258822369E-01 0.  0.
         14    1    1    2    0    0 -0.48105808327E-02 -0.20703537031E-01  0.79207631322E-02  0.22682958849E-01  0.00000000000E+00 0. -1.
     999901    1    3    3    0    0 -0.87174839492E-01 -0.29839794719E-01 -0.82656686101E-01  0.88866303723E+00  0.88000000000E+00 0. -1.
        -11    1    4    4    0    0  0.66469872675E-01  0.19753490188E-01  0.43743054149E-01  0.81988781277E-01  0.51100000000E-03 0.  1.
         11    1    4    4    0    0  0.25515547650E-01  0.30789841562E-01  0.30992868820E-01  0.50595222640E-01  0.51100000000E-03 0. -1.
</event>
<event>
 8    1  0.1116619E+005  0.1043930E+01  0.7957747E-01            NaN
         13   -1    0    0    0    0  0.00000000000E+00  0.00000000000E+00  0.74505805969E-08  0.10566000000E+00  0.10566000000E+00 0.  1.
     999900   -1    0    0    0    0 -0.00000000000E+00 -0.00000000000E+00 -0.74505805969E-08  0.93827000000E+00  0.93827000000E+00 0.  1.
     999902    2    1    2    0    0 -0.21409517299E-03  0.21619729615E-01 -0.28546015444E-02  0.10221215774E+01  0.10218888940E+01 0.  0.
     999903    2    3    3    0    0 -0.12649522409E+00 -0.30570861378E-01 -0.38502367862E-02  0.13157580510E+00  0.19019697200E-01 0.  0.
         14    1    1    2    0    0  0.21409517299E-03 -0.21619729615E-01  0.28546015444E-02  0.21808422578E-01  0.00000000000E+00 0. -1.
     999901    1    3    3    0    0  0.12628112892E+00  0.52190590993E-01  0.99563524178E-03  0.89054577232E+00  0.88000000000E+00 0.  1.
        -11    1    4    4    0    0 -0.14376052508E-01 -0.43388311278E-02 -0.65622615230E-02  0.16395753675E-01  0.51100000000E-03 0.  1.
         11    1    4    4    0    0 -0.11211917158E+00 -0.26232030250E-01  0.27120247368E-02  0.11518005143E+00  0.51100000000E-03 0. -1.
</event>
<event>
 8    1  0.1116619E+005  0.1043930E+01  0.7957747E-01            NaN
         13   -1    0    0    0    0  0.00000000000E+00  0.00000000000E+00  0.74505805969E-08  0.10566000000E+00  0.10566000000E+00 0.  1.
     999900   -1    0    0    0    0 -0.00000000000E+00 -0.00000000000E+00 -0.74505805969E-08  0.93827000000E+00  0.93827000000E+00 0.  1.
     999902    2    1    2    0    0  0.15286270732E-01  0.42387640484E-02 -0.17431035584E-01  0.10203614151E+01  0.10200891820E+01 0.  0.
     999903    2    3    3    0    0 -0.64233539620E-01 -0.29846818474E-01  0.10474304439E+00  0.12771829883E+00  0.18002175474E-01 0.  0.
         14    1    1    2    0    0 -0.15286270732E-01 -0.42387640484E-02  0.17431035584E-01  0.23568584919E-01  0.00000000000E+00 0.  1.
     999901    1    3    3    0    0  0.79519810352E-01  0.34085582522E-01 -0.12217407998E+00  0.89264311625E+00  0.88000000000E+00 0.  1.
        -11    1    4    4    0    0 -0.19057249191E-01 -0.11275677745E-01  0.47882946461E-01  0.52757533473E-01  0.51100000000E-03 0.  1.
         11    1    4    4    0    0 -0.45176290428E-01 -0.18571140729E-01  0.56860097932E-01  0.74960765356E-01  0.51100000000E-03 0. -1.
</event>
<event>
 8    1  0.1116619E+005  0.1043930E+01  0.7957747E-01            NaN
         13   -1    0    0    0    0  0.00000000000E+00  0.00000000000E+00  0.74505805969E-08  0.10566000000E+00  0.10566000000E+00 0. -1.
     999900   -1    0    0    0    0 -0.00000000000E+00 -0.00000000000E+00 -0.74505805969E-08  0.93827000000E+00  0.93827000000E+00 0.  1.
     999902    2    1    2    0    0  0.67325642606E-03  0.21689700402E-01 -0.98201857362E-02  0.10201112589E+01  0.10198331472E+01 0.  0.
     999903    2    3    3    0    0  0.34901637194E-01 -0.71739938380E-01  0.97952898371E-01  0.12797017306E+00  0.20416950241E-01 0.  0.
         14    1    1    2    0    0 -0.67325642606E-03 -0.21689700402E-01  0.98201857362E-02  0.23818741059E-01  0.00000000000E+00 0. -1.
     999901    1    3    3    0    0 -0.34228380768E-01  0.93429638781E-01 -0.10777308411E+00  0.89214108588E+00  0.88000000000E+00 0.  1.
        -11    1    4    4    0    0  0.61211868108E-02 -0.36144340471E-02  0.16372758174E-01  0.17856690418E-01  0.51100000000E-03 0. -1.
         11    1    4    4    0    0  0.28780450383E-01 -0.68125504332E-01  0.81580140196E-01  0.11011348265E+00  0.51100000000E-03 0.  1.
</event>
<event>
 8    1  0.1116619E+005  0.1043930E+01  0.7957747E-01            NaN
         13   -1    0    0    0    0  0.00000000000E+00  0.00000000000E+00  0.74505805969E-08  0.10566000000E+00  0.10566000000E+00 0. -1.
     999900   -1    0    0    0    0 -0.00000000000E+00 -0.00000000000E+00 -0.74505805969E-08  0.93827000000E+00  0.93827000000E+00 0. -1.
     999902    2    1    2    0    0 -0.57508661455E-02  0.29239580225E-04  0.22515621441E-01  0.10206915292E+01  0.10204269554E+01 0.  0.
     999903    2    3    3    0    0  0.10740545725E+00 -0.82675502279E-02  0.73573072148E-01  0.13193956519E+00  0.19767834576E-01 0.  0.
         14    1    1    2    0    0  0.57508661455E-02 -0.29239580225E-04 -0.22515621441E-01  0.23238470803E-01  0.00000000000E+00 0.  1.
     999901    1    3    3    0    0 -0.11315632340E+00  0.82967898082E-02 -0.51057450707E-01  0.88875196400E+00  0.88000000000E+00 0. -1.
        -11    1    4    4    0    0  0.25364974669E-01  0.60641706729E-02  0.20570298029E-01  0.33219789101E-01  0.51100000000E-03 0.  1.
         11    1    4    4    0    0  0.82040482584E-01 -0.14331720901E-01  0.53002774120E-01  0.98719776094E-01  0.51100000000E-03 0. -1.
</event>
<event>
 8    1  0.1116619E+005  0.1043930E+01  0.7957747E-01            NaN
         13   -1    0    0    0    0  0.00000000000E+00  0.00000000000E+00  0.74505805969E-08  0.10566000000E+00  0.10566000000E+00 0.  1.
     999900   -1    0    0    0    0 -0.00000000000E+00 -0.00000000000E+00 -0.74505805969E-08  0.93827000000E+00  0.93827000000E+00 0.  1.
     999902    2    1    2    0    0 -0.11164633189E-01 -0.19047827765E-01  0.79222733099E-02  0.10204729927E+01  0.10202033609E+01 0.  0.
     999903    2    3    3    0    0 -0.86378560538E-01  0.86745133756E-01  0.41092493368E-01  0.13033280764E+00  0.17665610226E-01 0.  0.
         14    1    1    2    0    0  0.11164633189E-01  0.19047827765E-01 -0.79222733099E-02  0.23457007294E-01  0.00000000000E+00 0. -1.
     999901    1    3    3    0    0  0.75213927349E-01 -0.10579296152E+00 -0.33170220058E-01  0.89014018507E+00  0.88000000000E+00 0.  1.
        -11    1    4    4    0    0 -0.68781448088E-01  0.77365731640E-01  0.37249291589E-01  0.11001870240E+00  0.51100000000E-03 0. -1.
         11    1    4    4    0    0 -0.17597112450E-01  0.93794021153E-02  0.38432017787E-02  0.20314105236E-01  0.51100000000E-03 0.  1.
</event>
<event>
 8    1  0.1116619E+005  0.1043930E+01  0.7957747E-01            NaN
         13   -1    0    0    0    0  0.00000000000E+00  0.00000000000E+00  0.74505805969E-08  0.10566000000E+00  0.10566000000E+00 0.  1.
     999900   -1    0    0    0    0 -0.00000000000E+00 -0.00000000000E+00 -0.74505805969E-08  0.93827000000E+00  0.93827000000E+00 0. -1.
     999902    2    1    2    0    0  0.14876130827E-01  0.10632663320E-02 -0.18938075810E-01  0.10198243882E+01  0.10195394560E+01 0.  0.
     999903    2    3    3    0    0  0.72979281756E-01  0.44149998453E-01  0.95312250417E-01  0.12949547166E+00  0.20234973961E-01 0.  0.
         14    1    1    2    0    0 -0.14876130827E-01 -0.10632663320E-02  0.18938075810E-01  0.24105611776E-01  0.00000000000E+00 0.  1.
     999901    1    3    3    0    0 -0.58103150929E-01 -0.43086732121E-01 -0.11425032623E+00  0.89032891657E+00  0.88000000000E+00 0. -1.
        -11    1    4    4    0    0  0.50621297687E-01  0.29076399798E-01  0.50487881043E-01  0.77183159161E-01  0.51100000000E-03 0.  1.
         11    1    4    4    0    0  0.22357984069E-01  0.15073598655E-01  0.44824369373E-01  0.52312312497E-01  0.51100000000E-03 0. -1.
</event>
<event>
 8    1  0.1116619E+005  0.1043930E+01  0.7957747E-01            NaN
         13   -1    0    0    0    0  0.00000000000E+00  0.00000000000E+00  0.74505805969E-08  0.10566000000E+00  0.10566000000E+00 0. -1.
     999900   -1    0    0    0    0 -0.00000000000E+00 -0.00000000000E+00 -0.74505805969E-08  0.93827000000E+00  0.93827000000E+00 0.  1.
     999902    2    1    2    0    0 -0.18345450464E-01  0.14950407212E-01  0.32138271475E-03  0.10202620150E+01  0.10199874537E+01 0.  0.
     999903    2    3    3    0    0 -0.67788538936E-01  0.10137784585E+00  0.50086835255E-01  0.13324965800E+00  0.19339768644E-01 0.  0.
         14    1    1    2    0    0  0.18345450464E-01 -0.14950407212E-01 -0.32138271475E-03  0.23667985030E-01  0.00000000000E+00 0.  1.
     999901    1    3    3    0    0  0.49443088472E-01 -0.86427438640E-01 -0.49765452540E-01  0.88701235697E+00  0.88000000000E+00 0.  1.
        -11    1    4    4    0    0 -0.44242588013E-01  0.50579068638E-01  0.31813353300E-01  0.74350516794E-01  0.51100000000E-03 0. -1.
         11    1    4    4    0    0 -0.23545950923E-01  0.50798777213E-01  0.18273481955E-01  0.58899141208E-01  0.51100000000E-03 0.  1.
</event>
<event>
 8    1  0.1116619E+005  0.1043930E+01  0.7957747E-01            NaN
         13   -1    0    0    0    0  0.00000000000E+00  0.00000000000E+00  0.74505805969E-08  0.10566000000E+00  0.10566000000E+00 0. -1.
     999900   -1    0    0    0    0 -0.00000000000E+00 -0.00000000000E+00 -0.74505805969E-08  0.93827000000E+00  0.93827000000E+00 0. -1.
     999902    2    1    2    0    0  0.19364329933E-01  0.13451184428E-01  0.11477118009E-02  0.10203243041E+01  0.10200512030E+01 0.  0.
     999903    2    3    3    0    0 -0.79202060322E-01  0.96075724369E-01 -0.32578772516E-01  0.13033575158E+00  0.20555304624E-01 0.  0.
         14    1    1    2    0    0 -0.19364329933E-01 -0.13451184428E-01 -0.11477118009E-02  0.23605695894E-01  0.00000000000E+00 0. -1.
     999901    1    3    3    0    0  0.98566390255E-01 -0.82624539942E-01  0.33726484317E-01  0.88998855253E+00  0.88000000000E+00 0.  1.
        -11    1    4    4    0    0 -0.69541676476E-01  0.75391539655E-01 -0.32180054408E-01  0.10749765598E+00  0.51100000000E-03 0. -1.
         11    1    4    4    0    0 -0.96603838459E-02  0.20684184714E-01 -0.39871810831E-03  0.22838095596E-01  0.51100000000E-03 0.  1.
</event>
<event>
 8    1  0.1116619E+005  0.1043930E+01  0.7957747E-01            NaN
         13   -1    0    0    0    0  0.00000000000E+00  0.00000000000E+00  0.74505805969E-08  0.10566000000E+00  0.10566000000E+00 0.  1.
     999900   -1    0    0    0    0 -0.00000000000E+00 -0.00000000000E+00 -0.74505805969E-08  0.93827000000E+00  0.93827000000E+00 0. -1.
     999902    2    1    2    0    0 -0.20693894198E-01  0.90959766878E-02 -0.92496947153E-02  0.10195060179E+01  0.10192134171E+01 0.  0.
     999903    2    3    3    0    0 -0.24772750062E-01 -0.64649384515E-01 -0.10921208446E+00  0.13077237123E+00  0.19516701132E-01 0.  0.
         14    1    1    2    0    0  0.20693894198E-01 -0.90959766878E-02  0.92496947153E-02  0.24423982094E-01  0.00000000000E+00 0.  1.
     999901    1    3    3    0    0  0.40788558639E-02  0.73745361203E-01  0.99962389741E-01  0.88873364667E+00  0.88000000000E+00 0.  1.
        -11    1    4    4    0    0 -0.10025416776E-01 -0.14745647927E-01 -0.43029948273E-01  0.46580904711E-01  0.51100000000E-03 0.  1.
         11    1    4    4    0    0 -0.14747333287E-01 -0.49903736588E-01 -0.66182136183E-01  0.84191466523E-01  0.51100000000E-03 0. -1.
</event>
<event>
 8    1  0.1261540E+005  0.1043930E+01  0.7957747E-01            NaN
         13   -1    0    0    0    0  0.00000000000E+00  0.00000000000E+00  0.74505805969E-08  0.10566000000E+00  0.10566000000E+00 0.  1.
     999900   -1    0    0    0    0 -0.00000000000E+00 -0.00000000000E+00 -0.74505805969E-08  0.93827000000E+00  0.93827000000E+00 0.  1.
     999902    2    1    2    0    0  0.24151415926E-01  0.99169793581E-03 -0.10131000402E-01  0.10177210030E+01  0.10173834716E+01 0.  0.
     999903    2    3    3    0    0  0.97846610829E-01 -0.67283654952E-01 -0.51685530755E-01  0.13103093054E+00  0.19916354927E-01 0.  0.
         14    1    1    2    0    0 -0.24151415926E-01 -0.99169793581E-03  0.10131000402E-01  0.26208997027E-01  0.00000000000E+00 0.  1.
     999901    1    3    3    0    0 -0.73695194903E-01  0.68275352888E-01  0.41554530354E-01  0.88669007244E+00  0.88000000000E+00 0.  1.
        -11    1    4    4    0    0  0.29141144995E-01 -0.98703387762E-02 -0.15537138478E-01  0.34471636344E-01  0.51100000000E-03 0.  1.
         11    1    4    4    0    0  0.68705465834E-01 -0.57413316176E-01 -0.36148392277E-01  0.96559294193E-01  0.51100000000E-03 0. -1.
</event>
<event>
 8    1  0.1116619E+005  0.1043930E+01  0.7957747E-01            NaN
         13   -1    0    0    0    0  0.00000000000E+00  0.00000000000E+00  0.74505805969E-08  0.10566000000E+00  0.10566000000E+00 0.  1.
     999900   -1    0    0    0    0 -0.00000000000E+00 -0.00000000000E+00 -0.74505805969E-08  0.93827000000E+00  0.93827000000E+00 0.  1.
     999902    2    1    2    0    0  0.27000720003E-02 -0.19673897025E-01 -0.10649975896E-01  0.10213961455E+01  0.10211475463E+01 0.  0.
     999903    2    3    3    0    0 -0.83497077309E-01  0.17875203456E-01  0.92209957036E-01  0.13043034967E+00  0.34901506004E-01 0.  0.
         14    1    1    2    0    0 -0.27000720003E-02  0.19673897025E-01  0.10649975896E-01  0.22533854520E-01  0.00000000000E+00 0.  1.
     999901    1    3    3    0    0  0.86197149309E-01 -0.37549100480E-01 -0.10285993293E+00  0.89096579581E+00  0.88000000000E+00 0. -1.
        -11    1    4    4    0    0 -0.29135320883E-01  0.13049622558E-01  0.57441614384E-01  0.65718793020E-01  0.51100000000E-03 0. -1.
         11    1    4    4    0    0 -0.54361756426E-01  0.48255808977E-02  0.34768342652E-01  0.64711556653E-01  0.51100000000E-03 0.  1.
</event>
<event>
 8    1  0.1116619E+005  0.1043930E+01  0.7957747E-01            NaN
         13   -1    0    0    0    0  0.00000000000E+00  0.00000000000E+00  0.74505805969E-08  0.10566000000E+00  0.10566000000E+00 0. -1.
     999900   -1    0    0    0    0 -0.00000000000E+00 -0.00000000000E+00 -0.74505805969E-08  0.93827000000E+00  0.93827000000E+00 0. -1.
     999902    2    1    2    0    0 -0.56433979411E-02  0.73113513300E-02  0.20824924768E-01  0.10211488391E+01  0.10208946911E+01 0.  0.
     999903    2    3    3    0    0  0.66496990995E-01  0.88480136487E-02 -0.10810839933E+00  0.12883140733E+00  0.20247675243E-01 0.  0.
         14    1    1    2    0    0  0.56433979411E-02 -0.73113513300E-02 -0.20824924768E-01  0.22781160861E-01  0.00000000000E+00 0.  1.
     999901    1    3    3    0    0 -0.72140388936E-01 -0.15366623187E-02  0.12893332410E+00  0.89231743181E+00  0.88000000000E+00 0.  1.
        -11    1    4    4    0    0  0.58741780989E-01  0.11488290761E-01 -0.82410674411E-01  0.10185459261E+00  0.51100000000E-03 0.  1.
         11    1    4    4    0    0  0.77552100058E-02 -0.26402771120E-02 -0.25697724916E-01  0.26976814718E-01  0.51100000000E-03 0. -1.
</event>
<event>
 8    1  0.1116619E+005  0.1043930E+01  0.7957747E-01            NaN
         13   -1    0    0    0    0  0.00000000000E+00  0.00000000000E+00  0.74505805969E-08  0.10566000000E+00  0.10566000000E+00 0. -1.
     999900   -1    0    0    0    0 -0.00000000000E+00 -0.00000000000E+00 -0.74505805969E-08  0.93827000000E+00  0.93827000000E+00 0. -1.
     999902    2    1    2    0    0  0.27505396308E-02 -0.29929156775E-02  0.23637564844E-01  0.10199454741E+01  0.10196634310E+01 0.  0.
     999903    2    3    3    0    0 -0.38350898522E-01  0.10152951226E+00  0.71769115593E-01  0.13150250328E+00  0.19054373209E-01 0.  0.
         14    1    1    2    0    0 -0.27505396308E-02  0.29929156775E-02 -0.23637564844E-01  0.23984525933E-01  0.00000000000E+00 0.  1.
     999901    1    3    3    0    0  0.41101438153E-01 -0.10452242794E+00 -0.48131550749E-01  0.88844297079E+00  0.88000000000E+00 0. -1.
        -11    1    4    4    0    0 -0.17552843854E-01  0.71719774404E-01  0.48394529839E-01  0.88284313483E-01  0.51100000000E-03 0. -1.
         11    1    4    4    0    0 -0.20798054668E-01  0.29809737859E-01  0.23374585754E-01  0.43218189798E-01  0.51100000000E-03 0.  1.
</event>
<event>
 8    1  0.1116619E+005  0.1043930E+01  0.7957747E-01            NaN
         13   -1    0    0    0    0  0.00000000000E+00  0.00000000000E+00  0.74505805969E-08  0.10566000000E+00  0.10566000000E+00 0. -1.
     999900   -1    0    0    0    0 -0.00000000000E+00 -0.00000000000E+00 -0.74505805969E-08  0.93827000000E+00  0.93827000000E+00 0.  1.
     999902    2    1    2    0    0 -0.23104838821E-01 -0.24996138748E-02 -0.44239658983E-02  0.10202730112E+01  0.10199987079E+01 0.  0.
     999903    2    3    3    0    0 -0.70519675807E-01  0.82125446122E-01 -0.71775608266E-01  0.13238461093E+00  0.25619010362E-01 0.  0.
         14    1    1    2    0    0  0.23104838821E-01  0.24996138748E-02  0.44239658983E-02  0.23656988835E-01  0.00000000000E+00 0.  1.
     999901    1    3    3    0    0  0.47414836987E-01 -0.84625059997E-01  0.67351642368E-01  0.88788840024E+00  0.88000000000E+00 0. -1.
        -11    1    4    4    0    0 -0.35546392430E-01  0.22727068259E-01 -0.30162885951E-01  0.51866428992E-01  0.51100000000E-03 0. -1.
         11    1    4    4    0    0 -0.34973283377E-01  0.59398377862E-01 -0.41612722315E-01  0.80518181936E-01  0.51100000000E-03 0.  1.
</event>
<event>
 8    1  0.1116619E+005  0.1043930E+01  0.7957747E-01            NaN
         13   -1    0    0    0    0  0.00000000000E+00  0.00000000000E+00  0.74505805969E-08  0.10566000000E+00  0.10566000000E+00 0.  1.
     999900   -1    0    0    0    0 -0.00000000000E+00 -0.00000000000E+00 -0.74505805969E-08  0.93827000000E+00  0.93827000000E+00 0. -1.
     999902    2    1    2    0    0  0.12946502185E-01 -0.71810257938E-02 -0.91903677511E-02  0.10265046762E+01  0.10263567646E+01 0.  0.
     999903    2    3    3    0    0  0.94379371962E-01 -0.70013850029E-01  0.69027828346E-01  0.13706813417E+00  0.14609150282E-01 0.  0.
         14    1    1    2    0    0 -0.12946502185E-01  0.71810257938E-02  0.91903677511E-02  0.17425323804E-01  0.00000000000E+00 0. -1.
     999901    1    3    3    0    0 -0.81432869777E-01  0.62832824235E-01 -0.78218196098E-01  0.88943654202E+00  0.88000000000E+00 0. -1.
        -11    1    4    4    0    0  0.39818439268E-01 -0.21849421931E-01  0.30577208936E-01  0.54755202235E-01  0.51100000000E-03 0. -1.
         11    1    4    4    0    0  0.54560932694E-01 -0.48164428098E-01  0.38450619411E-01  0.82312931940E-01  0.51100000000E-03 0.  1.
</event>
<event>
 8    1  0.1116619E+005  0.1043930E+01  0.7957747E-01            NaN
         13   -1    0    0    0    0  0.00000000000E+00  0.00000000000E+00  0.74505805969E-08  0.10566000000E+00  0.10566000000E+00 0. -1.
     999900   -1    0    0    0    0 -0.00000000000E+00 -0.00000000000E+00 -0.74505805969E-08  0.93827000000E+00  0.93827000000E+00 0.  1.
     999902    2    1    2    0    0 -0.10825634842E-01 -0.66581170426E-02 -0.18128021173E-01  0.10217906675E+01  0.10215507908E+01 0.  0.
     999903    2    3    3    0    0  0.91369490109E-01 -0.74168079312E-01 -0.57746538417E-01  0.13242512651E+00  0.18774017193E-01 0.  0.
         14    1    1    2    0    0  0.10825634842E-01  0.66581170426E-02  0.18128021173E-01  0.22139332509E-01  0.00000000000E+00 0. -1.
     999901    1    3    3    0    0 -0.10219512495E+00  0.67509962270E-01  0.39618517244E-01  0.88936554098E+00  0.88000000000E+00 0.  1.
        -11    1    4    4    0    0  0.61158423625E-01 -0.49057298594E-01 -0.48056531175E-01  0.91960114371E-01  0.51100000000E-03 0.  1.
         11    1    4    4    0    0  0.30211066484E-01 -0.25110780718E-01 -0.96900072417E-02  0.40465012143E-01  0.51100000000E-03 0. -1.
</event>
<event>
 8    1  0.1116619E+005  0.1043930E+01  0.7957747E-01            NaN
         13   -1    0    0    0    0  0.00000000000E+00  0.00000000000E+00  0.74505805969E-08  0.10566000000E+00  0.10566000000E+00 0. -1.
     999900   -1    0    0    0    0 -0.00000000000E+00 -0.00000000000E+00 -0.74505805969E-08  0.93827000000E+00  0.93827000000E+00 0.  1.
     999902    2    1    2    0    0  0.74774968532E-02 -0.92251377971E-02  0.20856593679E-01  0.10199297161E+01  0.10196472979E+01 0.  0.
     999903    2    3    3    0    0  0.12913727108E+00 -0.11679616031E-01  0.83630076055E-03  0.13133085428E+00  0.20838562193E-01 0.  0.
         14    1    1    2    0    0 -0.74774968532E-02  0.92251377971E-02 -0.20856593679E-01  0.24000283883E-01  0.00000000000E+00 0. -1.
     999901    1    3    3    0    0 -0.12165977423E+00  0.24544782335E-02  0.20020292918E-01  0.88859886184E+00  0.88000000000E+00 0.  1.
        -11    1    4    4    0    0  0.21724812316E-01 -0.13194054057E-02 -0.76737541487E-02  0.23083672249E-01  0.51100000000E-03 0. -1.
         11    1    4    4    0    0  0.10741245877E+00 -0.10360210625E-01  0.85100549093E-02  0.10824718203E+00  0.51100000000E-03 0.  1.
</event>
<event>
 8    1  0.1116619E+005  0.1043930E+01  0.7957747E-01            NaN
         13   -1    0    0    0    0  0.00000000000E+00  0.00000000000E+00  0.74505805969E-08  0.10566000000E+00  0.10566000000E+00 0.  1.
     999900   -1    0    0    0    0 -0.00000000000E+00 -0.00000000000E+00 -0.74505805969E-08  0.93827000000E+00  0.93827000000E+00 0. -1.
     999902    2    1    2    0    0 -0.14388036754E-01 -0.11995723493E-01  0.14838622305E-01  0.10200323496E+01  0.10197523702E+01 0.  0.
     999903    2    3    3    0    0 -0.81359006339E-01 -0.33192774600E-01  0.98177266418E-01  0.13330817863E+00  0.20279217194E-01 0.  0.
         14    1    1    2    0    0  0.14388036754E-01  0.11995723493E-01 -0.14838622305E-01  0.23897650421E-01  0.00000000000E+00 0. -1.
     999901    1    3    3    0    0  0.66970969585E-01  0.21197051108E-01 -0.83338644114E-01  0.88672417095E+00  0.88000000000E+00 0. -1.
        -11    1    4    4    0    0 -0.35910172357E-02 -0.35456406502E-02  0.14180760248E-01  0.15060612691E-01  0.51100000000E-03 0. -1.
         11    1    4    4    0    0 -0.77767989104E-01 -0.29647133950E-01  0.83996506170E-01  0.11824756594E+00  0.51100000000E-03 0.  1.
</event>
<event>
 8    1  0.1116619E+005  0.1043930E+01  0.7957747E-01            NaN
         13   -1    0    0    0    0  0.00000000000E+00  0.00000000000E+00  0.74505805969E-08  0.10566000000E+00  0.10566000000E+00 0.  1.
     999900   -1    0    0    0    0 -0.00000000000E+00 -0.00000000000E+00 -0.74505805969E-08  0.93827000000E+00  0.93827000000E+00 0.  1.
     999902    2    1    2    0    0 -0.10682485016E-01 -0.18985282532E-01  0.86895054966E-02  0.10204765579E+01  0.10202070091E+01 0.  0.
     999903    2    3    3    0    0 -0.40720164927E-01 -0.12187052866E+00 -0.29788330226E-01  0.13313886577E+00  0.18112298962E-01 0.  0.
         14    1    1    2    0    0  0.10682485016E-01  0.18985282532E-01 -0.86895054966E-02  0.23453442065E-01  0.00000000000E+00 0.  1.
     999901    1    3    3    0    0  0.30037679911E-01  0.10288524613E+00  0.38477835722E-01  0.88733769216E+00  0.88000000000E+00 0.  1.
        -11    1    4    4    0    0 -0.79607994334E-02 -0.48642727643E-01 -0.73550882709E-02  0.49838215505E-01  0.51100000000E-03 0. -1.
         11    1    4    4    0    0 -0.32759365494E-01 -0.73227801020E-01 -0.22433241955E-01  0.83300650270E-01  0.51100000000E-03 0.  1.
</event>
<event>
 8    1  0.1116619E+005  0.1043930E+01  0.7957747E-01            NaN
         13   -1    0    0    0    0  0.00000000000E+00  0.00000000000E+00  0.74505805969E-08  0.10566000000E+00  0.10566000000E+00 0. -1.
     999900   -1    0    0    0    0 -0.00000000000E+00 -0.00000000000E+00 -0.74505805969E-08  0.93827000000E+00  0.93827000000E+00 0. -1.
     999902    2    1    2    0    0  0.19775377761E-01  0.40425131281E-02 -0.13479411235E-01  0.10196585764E+01  0.10193696632E+01 0.  0.
     999903    2    3    3    0    0 -0.17772064263E-01  0.36117382942E-01 -0.12342754586E+00  0.13144283682E+00  0.20555988280E-01 0.  0.
         14    1    1    2    0    0 -0.19775377761E-01 -0.40425131281E-02  0.13479411235E-01  0.24271423634E-01  0.00000000000E+00 0. -1.
     999901    1    3    3    0    0  0.37547442023E-01 -0.32074869814E-01  0.10994813463E+00  0.88821573955E+00  0.88000000000E+00 0.  1.
        -11    1    4    4    0    0 -0.12691875951E-01  0.10751027984E-01 -0.71684601952E-01  0.73590839076E-01  0.51100000000E-03 0.  1.
         11    1    4    4    0    0 -0.50801883121E-02  0.25366354958E-01 -0.51742943909E-01  0.57851997740E-01  0.51100000000E-03 0. -1.
</event>
<event>
 8    1  0.1116619E+005  0.1043930E+01  0.7957747E-01            NaN
         13   -1    0    0    0    0  0.00000000000E+00  0.00000000000E+00  0.74505805969E-08  0.10566000000E+00  0.10566000000E+00 0. -1.
     999900   -1    0    0    0    0 -0.00000000000E+00 -0.00000000000E+00 -0.74505805969E-08  0.93827000000E+00  0.93827000000E+00 0. -1.
     999902    2    1    2    0    0  0.91670914927E-02 -0.28022556894E-01  0.43875892918E-02  0.10141214408E+01  0.10136832575E+01 0.  0.
     999903    2    3    3    0    0  0.75684997284E-01 -0.58353582888E-01 -0.81460225297E-01  0.12692673264E+00  0.18473432381E-01 0.  0.
         14    1    1    2    0    0 -0.91670914927E-02  0.28022556894E-01 -0.43875892918E-02  0.29808559192E-01  0.00000000000E+00 0.  1.
     999901    1    3    3    0    0 -0.66517905791E-01  0.30331025994E-01  0.85847814589E-01  0.88719470817E+00  0.88000000000E+00 0.  1.
        -11    1    4    4    0    0  0.65683217164E-01 -0.47098816019E-01 -0.59802331869E-01  0.10054433602E+00  0.51100000000E-03 0.  1.
         11    1    4    4    0    0  0.10001780120E-01 -0.11254766869E-01 -0.21657893428E-01  0.26382396623E-01  0.51100000000E-03 0. -1.
</event>
<event>
 8    1  0.1372526E+005  0.1043930E+01  0.7957747E-01            NaN
         13   -1    0    0    0    0  0.00000000000E+00  0.00000000000E+00  0.74505805969E-08  0.10566000000E+00  0.10566000000E+00 0. -1.
     999900   -1    0    0    0    0 -0.00000000000E+00 -0.00000000000E+00 -0.74505805969E-08  0.93827000000E+00  0.93827000000E+00 0.  1.
     999902    2    1    2    0    0  0.10187048068E-01  0.20532960352E-01 -0.79056053610E-02  0.10196838249E+01  0.10193955198E+01 0.  0.
     999903    2    3    3    0    0  0.11812394806E+00  0.89838295699E-02  0.52323072350E-01  0.13097056948E+00  0.19534837382E-01 0.  0.
         14    1    1    2    0    0 -0.10187048068E-01 -0.20532960352E-01  0.79056053610E-02  0.24246175065E-01  0.00000000000E+00 0. -1.
     999901    1    3    3    0    0 -0.10793689999E+00  0.11549130782E-01 -0.60228677711E-01  0.88871325545E+00  0.88000000000E+00 0. -1.
        -11    1    4    4    0    0  0.30292039918E-01  0.10936377605E-01  0.14035441988E-01  0.35134979583E-01  0.51100000000E-03 0. -1.
         11    1    4    4    0    0  0.87831908140E-01 -0.19525480356E-02  0.38287630361E-01  0.95835589897E-01  0.51100000000E-03 0.  1.
</event>
<event>
 8    1  0.1116619E+005  0.1043930E+01  0.7957747E-01            NaN
         13   -1    0    0    0    0  0.00000000000E+00  0.00000000000E+00  0.74505805969E-08  0.10566000000E+00  0.10566000000E+00 0.  1.
     999900   -1    0    0    0    0 -0.00000000000E+00 -0.00000000000E+00 -0.74505805969E-08  0.93827000000E+00  0.93827000000E+00 0. -1.
     999902    2    1    2    0    0 -0.22866147447E-01 -0.26378075996E-02  0.59263188196E-02  0.10201615339E+01  0.10198846088E+01 0.  0.
     999903    2    3    3    0    0  0.31482926295E-01  0.69616828013E-01 -0.10212253808E+00  0.12895498672E+00  0.19044642945E-01 0.  0.
         14    1    1    2    0    0  0.22866147447E-01  0.26378075996E-02 -0.59263188196E-02  0.23768466142E-01  0.00000000000E+00 0. -1.
     999901    1    3    3    0    0 -0.54349073741E-01 -0.72254635612E-01  0.10804885690E+00  0.89120654714E+00  0.88000000000E+00 0.  1.
        -11    1    4    4    0    0  0.15103552210E-01  0.35589284811E-01 -0.36125196968E-01  0.52915077811E-01  0.51100000000E-03 0. -1.
         11    1    4    4    0    0  0.16379374085E-01  0.34027543201E-01 -0.65997341115E-01  0.76039908909E-01  0.51100000000E-03 0.  1.
</event>
<event>
 8    1  0.1116619E+005  0.1043930E+01  0.7957747E-01            NaN
         13   -1    0    0    0    0  0.00000000000E+00  0.00000000000E+00  0.74505805969E-08  0.10566000000E+00  0.10566000000E+00 0.  1.
     999900   -1    0    0    0    0 -0.00000000000E+00 -0.00000000000E+00 -0.74505805969E-08  0.93827000000E+00  0.93827000000E+00 0.  1.
     999902    2    1    2    0    0 -0.30319491732E-02 -0.21951959319E-01  0.30471864852E-02  0.10215611248E+01  0.10213161925E+01 0.  0.
     999903    2    3    3    0    0  0.99142225230E-01 -0.22332950379E-01 -0.81176870638E-01  0.13165472583E+00  0.20379916851E-01 0.  0.
         14    1    1    2    0    0  0.30319491732E-02  0.21951959319E-01 -0.30471864852E-02  0.22368875233E-01  0.00000000000E+00 0.  1.
     999901    1    3    3    0    0 -0.10217417440E+00  0.38099106008E-03  0.84224057123E-01  0.88990639894E+00  0.88000000000E+00 0. -1.
        -11    1    4    4    0    0  0.94515789547E-01 -0.16230144343E-01 -0.76417695587E-01  0.12262372274E+00  0.51100000000E-03 0.  1.
         11    1    4    4    0    0  0.46264356831E-02 -0.61028060359E-02 -0.47591750514E-02  0.90310030900E-02  0.51100000000E-03 0. -1.
</event>
<event>
 7    1  0.1128189E+005  0.1043930E+01  0.7957747E-01            NaN
         13   -1    0    0    0    0  0.00000000000E+00  0.00000000000E+00  0.74505805969E-08  0.10566000000E+00  0.10566000000E+00 0. -1.
     999900   -1    0    0    0    0 -0.00000000000E+00 -0.00000000000E+00 -0.74505805969E-08  0.93827000000E+00  0.93827000000E+00 0. -1.
     999903    2    1    2    0    0 -0.35086860862E-01  0.58005548444E-01 -0.94880070685E-01  0.11828585775E+00  0.19838973662E-01 0.  0.
         14    1    1    2    0    0  0.95178639637E-02  0.24153153554E-01  0.29110166846E-01  0.39004696830E-01  0.00000000000E+00 0. -1.
     999901    1    1    2    0    0  0.25568996898E-01 -0.82158701998E-01  0.65769903839E-01  0.88663944542E+00  0.88000000000E+00 0. -1.
        -11    1    3    3    0    0 -0.17132223027E-01  0.38348331438E-01 -0.43825459785E-01  0.60704527313E-01  0.51100000000E-03 0.  1.
         11    1    3    3    0    0 -0.17954637835E-01  0.19657217006E-01 -0.51054610900E-01  0.57581330441E-01  0.51100000000E-03 0. -1.
</event>
<event>
 8    1  0.1116619E+005  0.1043930E+01  0.7957747E-01            NaN
         13   -1    0    0    0    0  0.00000000000E+00  0.00000000000E+00  0.74505805969E-08  0.10566000000E+00  0.10566000000E+00 0. -1.
     999900   -1    0    0    0    0 -0.00000000000E+00 -0.00000000000E+00 -0.74505805969E-08  0.93827000000E+00  0.93827000000E+00 0. -1.
     999902    2    1    2    0    0  0.20894969785E-02  0.14858251833E-01 -0.18409243155E-01  0.10201806026E+01  0.10199041268E+01 0.  0.
     999903    2    3    3    0    0 -0.79718180462E-01 -0.77918760672E-01  0.59984215330E-01  0.12807881214E+00  0.19487289957E-01 0.  0.
         14    1    1    2    0    0 -0.20894969785E-02 -0.14858251833E-01  0.18409243155E-01  0.23749397439E-01  0.00000000000E+00 0.  1.
     999901    1    3    3    0    0  0.81807677441E-01  0.92777012506E-01 -0.78393458485E-01  0.89210179042E+00  0.88000000000E+00 0. -1.
        -11    1    4    4    0    0 -0.59117999978E-01 -0.52416120665E-01  0.33039582964E-01  0.85640310546E-01  0.51100000000E-03 0.  1.
         11    1    4    4    0    0 -0.20600180484E-01 -0.25502640007E-01  0.26944632366E-01  0.42438501596E-01  0.51100000000E-03 0. -1.
</event>
<event>
 8    1  0.1116619E+005  0.1043930E+01  0.7957747E-01            NaN
         13   -1    0    0    0    0  0.00000000000E+00  0.00000000000E+00  0.74505805969E-08  0.10566000000E+00  0.10566000000E+00 0.  1.
     999900   -1    0    0    0    0 -0.00000000000E+00 -0.00000000000E+00 -0.74505805969E-08  0.93827000000E+00  0.93827000000E+00 0. -1.
     999902    2    1    2    0    0 -0.22022399605E-01 -0.30143223219E-02 -0.21645902128E-02  0.10215971168E+01  0.10213529807E+01 0.  0.
     999903    2    3    3    0    0 -0.31065327948E-01 -0.78559420232E-01 -0.10046077536E+00  0.13286151131E+00  0.20571258904E-01 0.  0.
         14    1    1    2    0    0  0.22022399605E-01  0.30143223219E-02  0.21645902128E-02  0.22332883249E-01  0.00000000000E+00 0. -1.
     999901    1    3    3    0    0  0.90429283432E-02  0.75545097910E-01  0.98296185147E-01  0.88873560545E+00  0.88000000000E+00 0.  1.
        -11    1    4    4    0    0 -0.49390621333E-02 -0.10922439616E-01 -0.27474382989E-01  0.29979941020E-01  0.51100000000E-03 0. -1.
         11    1    4    4    0    0 -0.26126265815E-01 -0.67636980615E-01 -0.72986392371E-01  0.10288157029E+00  0.51100000000E-03 0.  1.
</event>
<event>
 8    1  0.1116619E+005  0.1043930E+01  0.7957747E-01            NaN
         13   -1    0    0    0    0  0.00000000000E+00  0.00000000000E+00  0.74505805969E-08  0.10566000000E+00  0.10566000000E+00 0.  1.
     999900   -1    0    0    0    0 -0.00000000000E+00 -0.00000000000E+00 -0.74505805969E-08  0.93827000000E+00  0.93827000000E+00 0. -1.
     999902    2    1    2    0    0 -0.11989125274E-01  0.19362525319E-01 -0.73410471005E-02  0.10200022445E+01  0.10197215508E+01 0.  0.
     999903    2    3    3    0    0 -0.67484730410E-01  0.97993521306E-01  0.55251483701E-01  0.13254496628E+00  0.18934692470E-01 0.  0.
         14    1    1    2    0    0  0.11989125274E-01 -0.19362525319E-01  0.73410471005E-02  0.23927755517E-01  0.00000000000E+00 0. -1.
     999901    1    3    3    0    0  0.55495605136E-01 -0.78630995987E-01 -0.62592530801E-01  0.88745727820E+00  0.88000000000E+00 0. -1.
        -11    1    4    4    0    0 -0.82783494421E-02  0.11682609545E-01  0.30242890589E-03  0.14330632209E-01  0.51100000000E-03 0.  1.
         11    1    4    4    0    0 -0.59206380968E-01  0.86310911761E-01  0.54949054795E-01  0.11821433407E+00  0.51100000000E-03 0. -1.
</event>
<event>
 8    1  0.1116619E+005  0.1043930E+01  0.7957747E-01            NaN
         13   -1    0    0    0    0  0.00000000000E+00  0.00000000000E+00  0.74505805969E-08  0.10566000000E+00  0.10566000000E+00 0.  1.
     999900   -1    0    0    0    0 -0.00000000000E+00 -0.00000000000E+00 -0.74505805969E-08  0.93827000000E+00  0.93827000000E+00 0. -1.
     999902    2    1    2    0    0  0.18466379134E-01 -0.14802488745E-01  0.40228306900E-03  0.10202597093E+01  0.10199850939E+01 0.  0.
     999903    2    3    3    0    0  0.72002341686E-01 -0.11069945545E+00 -0.26517653817E-03  0.13343234557E+00  0.19115801891E-01 0.  0.
         14    1    1    2    0    0 -0.18466379134E-01  0.14802488745E-01 -0.40228306900E-03  0.23670290726E-01  0.00000000000E+00 0. -1.
     999901    1    3    3    0    0 -0.53535962552E-01  0.95896966701E-01  0.66745960717E-03  0.88682736370E+00  0.88000000000E+00 0.  1.
        -11    1    4    4    0    0  0.65349838970E-01 -0.10742323073E+00  0.16705462974E-02  0.12575135705E+00  0.51100000000E-03 0.  1.
         11    1    4    4    0    0  0.66525027159E-02 -0.32762247146E-02 -0.19357228356E-02  0.76809885212E-02  0.51100000000E-03 0. -1.
</event>
<event>
 8    1  0.1116619E+005  0.1043930E+01  0.7957747E-01            NaN
         13   -1    0    0    0    0  0.00000000000E+00  0.00000000000E+00  0.74505805969E-08  0.10566000000E+00  0.10566000000E+00 0.  1.
     999900   -1    0    0    0    0 -0.00000000000E+00 -0.00000000000E+00 -0.74505805969E-08  0.93827000000E+00  0.93827000000E+00 0. -1.
     999902    2    1    2    0    0 -0.87249042813E-02  0.12538879685E-01 -0.19043976460E-01  0.10195164690E+01  0.10192241216E+01 0.  0.
     999903    2    3    3    0    0 -0.31621785615E-01  0.96319607855E-01 -0.81709061325E-01  0.13302315796E+00  0.27228398190E-01 0.  0.
         14    1    1    2    0    0  0.87249042813E-02 -0.12538879685E-01  0.19043976460E-01  0.24413531041E-01  0.00000000000E+00 0.  1.
     999901    1    3    3    0    0  0.22896881333E-01 -0.83780728170E-01  0.62665084865E-01  0.88649331100E+00  0.88000000000E+00 0.  1.
        -11    1    4    4    0    0 -0.36586108027E-01  0.81612265586E-01 -0.69724838974E-01  0.11340599405E+00  0.51100000000E-03 0.  1.
         11    1    4    4    0    0  0.49643224123E-02  0.14707342269E-01 -0.11984222351E-01  0.19617163913E-01  0.51100000000E-03 0. -1.
</event>
<event>
 8    1  0.1116619E+005  0.1043930E+01  0.7957747E-01            NaN
         13   -1    0    0    0    0  0.00000000000E+00  0.00000000000E+00  0.74505805969E-08  0.10566000000E+00  0.10566000000E+00 0.  1.
     999900   -1    0    0    0    0 -0.00000000000E+00 -0.00000000000E+00 -0.74505805969E-08  0.93827000000E+00  0.93827000000E+00 0. -1.
     999902    2    1    2    0    0 -0.17702085593E-01  0.28997381342E-02  0.16516394494E-01  0.10195463251E+01  0.10192547009E+01 0.  0.
     999903    2    3    3    0    0 -0.59192720521E-01  0.70620607276E-01  0.93499376009E-01  0.13262244540E+00  0.18855539632E-01 0.  0.
         14    1    1    2    0    0  0.17702085593E-01 -0.28997381342E-02 -0.16516394494E-01  0.24383674921E-01  0.00000000000E+00 0.  1.
     999901    1    3    3    0    0  0.41490634929E-01 -0.67720869142E-01 -0.76982981515E-01  0.88692387968E+00  0.88000000000E+00 0. -1.
        -11    1    4    4    0    0 -0.30797979246E-01  0.25046867824E-01  0.32099719714E-01  0.51054032555E-01  0.51100000000E-03 0.  1.
         11    1    4    4    0    0 -0.28394741275E-01  0.45573739453E-01  0.61399656295E-01  0.81568412844E-01  0.51100000000E-03 0. -1.
</event>
<event>
 8    1  0.1116619E+005  0.1043930E+01  0.7957747E-01            NaN
         13   -1    0    0    0    0  0.00000000000E+00  0.00000000000E+00  0.74505805969E-08  0.10566000000E+00  0.10566000000E+00 0. -1.
     999900   -1    0    0    0    0 -0.00000000000E+00 -0.00000000000E+00 -0.74505805969E-08  0.93827000000E+00  0.93827000000E+00 0.  1.
     999902    2    1    2    0    0 -0.19473017697E-01 -0.81592445849E-02  0.68883569312E-02  0.10217214172E+01  0.10214800209E+01 0.  0.
     999903    2    3    3    0    0 -0.87837957447E-02 -0.12045551639E+00  0.53407751427E-01  0.13330216580E+00  0.18176715845E-01 0.  0.
         14    1    1    2    0    0  0.19473017697E-01  0.81592445849E-02 -0.68883569312E-02  0.22208582837E-01  0.00000000000E+00 0.  1.
     999901    1    3    3    0    0 -0.10689221953E-01  0.11229627180E+00 -0.46519394496E-01  0.88841925136E+00  0.88000000000E+00 0. -1.
        -11    1    4    4    0    0  0.54121082291E-02 -0.46635266695E-01  0.19707930140E-01  0.50919570369E-01  0.51100000000E-03 0. -1.
         11    1    4    4    0    0 -0.14195903974E-01 -0.73820249692E-01  0.33699821286E-01  0.82382595431E-01  0.51100000000E-03 0.  1.
</event>
<event>
 8    1  0.1116619E+005  0.1043930E+01  0.7957747E-01            NaN
         13   -1    0    0    0    0  0.00000000000E+00  0.00000000000E+00  0.74505805969E-08  0.10566000000E+00  0.10566000000E+00 0.  1.
     999900   -1    0    0    0    0 -0.00000000000E+00 -0.00000000000E+00 -0.74505805969E-08  0.93827000000E+00  0.93827000000E+00 0.  1.
     999902    2    1    2    0    0 -0.16447723328E-01 -0.14221811689E-01 -0.77562626472E-02  0.10208443521E+01  0.10205832862E+01 0.  0.
     999903    2    3    3    0    0  0.36954675238E-01 -0.95359112225E-02  0.12236426105E+00  0.12966248257E+00  0.19564390581E-01 0.  0.
         14    1    1    2    0    0  0.16447723328E-01  0.14221811689E-01  0.77562626472E-02  0.23085647936E-01  0.00000000000E+00 0.  1.
     999901    1    3    3    0    0 -0.53402398565E-01 -0.46859004665E-02 -0.13012052369E+00  0.89118186950E+00  0.88000000000E+00 0.  1.
        -11    1    4    4    0    0  0.37986171401E-01 -0.59009908810E-02  0.10333395954E+00  0.11025397601E+00  0.51100000000E-03 0. -1.
         11    1    4    4    0    0 -0.10314961633E-02 -0.36349203415E-02  0.19030301511E-01  0.19408506558E-01  0.51100000000E-03 0.  1.
</event>
<event>
 8    1  0.1116619E+005  0.1043930E+01  0.7957747E-01            NaN
         13   -1    0    0    0    0  0.00000000000E+00  0.00000000000E+00  0.74505805969E-08  0.10566000000E+00  0.10566000000E+00 0. -1.
     999900   -1    0    0    0    0 -0.00000000000E+00 -0.00000000000E+00 -0.74505805969E-08  0.93827000000E+00  0.93827000000E+00 0.  1.
     999902    2    1    2    0    0 -0.41590703082E-02 -0.52612868280E-02 -0.20158891338E-01  0.10226847675E+01  0.10224640697E+01 0.  0.
     999903    2    3    3    0    0 -0.12014610045E+00 -0.53814668613E-01 -0.88503531152E-02  0.13367503464E+00  0.21437866606E-01 0.  0.
         14    1    1    2    0    0  0.41590703082E-02  0.52612868280E-02  0.20158891338E-01  0.21245232522E-01  0.00000000000E+00 0. -1.
     999901    1    3    3    0    0  0.11598703014E+00  0.48553381785E-01 -0.11308538223E-01  0.88900973284E+00  0.88000000000E+00 0. -1.
        -11    1    4    4    0    0 -0.40831086549E-01 -0.29616028795E-01 -0.42282394888E-02  0.50620410119E-01  0.51100000000E-03 0. -1.
         11    1    4    4    0    0 -0.79315013901E-01 -0.24198639817E-01 -0.46221136264E-02  0.83054624522E-01  0.51100000000E-03 0.  1.
</event>
<event>
 8    1  0.1116619E+005  0.1043930E+01  0.7957747E-01            NaN
         13   -1    0    0    0    0  0.00000000000E+00  0.00000000000E+00  0.74505805969E-08  0.10566000000E+00  0.10566000000E+00 0.  1.
     999900   -1    0    0    0    0 -0.00000000000E+00 -0.00000000000E+00 -0.74505805969E-08  0.93827000000E+00  0.93827000000E+00 0.  1.
     999902    2    1    2    0    0 -0.19691931182E-01  0.69446897972E-02 -0.12392735361E-01  0.10196487159E+01  0.10193595651E+01 0.  0.
     999903    2    3    3    0    0  0.17425776699E-01  0.26242850116E-01  0.12266968570E+00  0.12836200507E+00  0.20895159258E-01 0.  0.
         14    1    1    2    0    0  0.19691931182E-01 -0.69446897972E-02  0.12392735361E-01  0.24281284146E-01  0.00000000000E+00 0.  1.
     999901    1    3    3    0    0 -0.37117707881E-01 -0.19298160318E-01 -0.13506242106E+00  0.89128671078E+00  0.88000000000E+00 0.  1.
        -11    1    4    4    0    0 -0.29661242585E-02  0.36676599531E-02  0.39829196018E-01  0.40110791554E-01  0.51100000000E-03 0. -1.
         11    1    4    4    0    0  0.20391900957E-01  0.22575190163E-01  0.82840489684E-01  0.88251213519E-01  0.51100000000E-03 0.  1.
</event>
<event>
 8    1  0.1116619E+005  0.1043930E+01  0.7957747E-01            NaN
         13   -1    0    0    0    0  0.00000000000E+00  0.00000000000E+00  0.74505805969E-08  0.10566000000E+00  0.10566000000E+00 0.  1.
     999900   -1    0    0    0    0 -0.00000000000E+00 -0.00000000000E+00 -0.74505805969E-08  0.93827000000E+00  0.93827000000E+00 0.  1.
     999902    2    1    2    0    0  0.20202514126E-01  0.49706973429E-03 -0.69563495017E-02  0.10225576007E+01  0.10223342248E+01 0.  0.
     999903    2    3    3    0    0 -0.20912244275E-01  0.60065540410E-01  0.11313649981E+00  0.13145652978E+00  0.20874877916E-01 0.  0.
         14    1    1    2    0    0 -0.20202514126E-01 -0.49706973429E-03  0.69563495017E-02  0.21372399345E-01  0.00000000000E+00 0.  1.
     999901    1    3    3    0    0  0.41114758401E-01 -0.59568470676E-01 -0.12009284931E+00  0.89110107087E+00  0.88000000000E+00 0. -1.
        -11    1    4    4    0    0 -0.84490877210E-02  0.47149178197E-01  0.91987149383E-01  0.10371272275E+00  0.51100000000E-03 0.  1.
         11    1    4    4    0    0 -0.12463156554E-01  0.12916362213E-01  0.21149350425E-01  0.27743807030E-01  0.51100000000E-03 0. -1.
</event>
<event>
 8    1  0.1116619E+005  0.1043930E+01  0.7957747E-01            NaN
         13   -1    0    0    0    0  0.00000000000E+00  0.00000000000E+00  0.74505805969E-08  0.10566000000E+00  0.10566000000E+00 0. -1.
     999900   -1    0    0    0    0 -0.00000000000E+00 -0.00000000000E+00 -0.74505805969E-08  0.93827000000E+00  0.93827000000E+00 0.  1.
     999902    2    1    2    0    0  0.11563021458E-01  0.21163571210E-01  0.41123555997E-02  0.10194655016E+01  0.10191719175E+01 0.  0.
     999903    2    3    3    0    0 -0.83437489720E-01 -0.93212699802E-01  0.87526719669E-02  0.12698101380E+00  0.19928534908E-01 0.  0.
         14    1    1    2    0    0 -0.11563021458E-01 -0.21163571210E-01 -0.41123555997E-02  0.24464498364E-01  0.00000000000E+00 0. -1.
     999901    1    3    3    0    0  0.95000511178E-01  0.11437627101E+00 -0.46403163672E-02  0.89248448784E+00  0.88000000000E+00 0.  1.
        -11    1    4    4    0    0 -0.50437643458E-01 -0.45720392321E-01  0.11682766071E-01  0.69072847745E-01  0.51100000000E-03 0.  1.
         11    1    4    4    0    0 -0.32999846262E-01 -0.47492307482E-01 -0.29300941039E-02  0.57908166054E-01  0.51100000000E-03 0. -1.
</event>
<event>
 8    1  0.1116619E+005  0.1043930E+01  0.7957747E-01            NaN
         13   -1    0    0    0    0  0.00000000000E+00  0.00000000000E+00  0.74505805969E-08  0.10566000000E+00  0.10566000000E+00 0.  1.
     999900   -1    0    0    0    0 -0.00000000000E+00 -0.00000000000E+00 -0.74505805969E-08  0.93827000000E+00  0.93827000000E+00 0. -1.
     999902    2    1    2    0    0  0.10956455247E-01 -0.97258634495E-02  0.19088815909E-01  0.10198671817E+01  0.10195832723E+01 0.  0.
     999903    2    3    3    0    0  0.95780971249E-02 -0.17896817319E-01  0.12984845342E+00  0.13288558006E+00  0.19644859847E-01 0.  0.
         14    1    1    2    0    0 -0.10956455247E-01  0.97258634495E-02 -0.19088815909E-01  0.24062818294E-01  0.00000000000E+00 0. -1.
     999901    1    3    3    0    0  0.13783581223E-02  0.81709538695E-02 -0.11075963751E+00  0.88698160165E+00  0.88000000000E+00 0. -1.
        -11    1    4    4    0    0  0.44195569610E-02 -0.13818582208E-01  0.12090286561E+00  0.12177130093E+00  0.51100000000E-03 0.  1.
         11    1    4    4    0    0  0.51585401639E-02 -0.40782351110E-02  0.89455878105E-02  0.11114279127E-01  0.51100000000E-03 0. -1.
</event>
<event>
 8    1  0.1116619E+005  0.1043930E+01  0.7957747E-01            NaN
         13   -1    0    0    0    0  0.00000000000E+00  0.00000000000E+00  0.74505805969E-08  0.10566000000E+00  0.10566000000E+00 0. -1.
     999900   -1    0    0    0    0 -0.00000000000E+00 -0.00000000000E+00 -0.74505805969E-08  0.93827000000E+00  0.93827000000E+00 0. -1.
     999902    2    1    2    0    0  0.30291194039E-02 -0.10219620550E-02  0.24626884872E-01  0.10190964858E+01  0.10187938672E+01 0.  0.
     999903    2    3    3    0    0  0.10180608873E+00  0.56028609726E-01 -0.50668884272E-01  0.12854547080E+00  0.21281856573E-01 0.  0.
         14    1    1    2    0    0 -0.30291194039E-02  0.10219620550E-02 -0.24626884872E-01  0.24833514236E-01  0.00000000000E+00 0.  1.
     999901    1    3    3    0    0 -0.98776969323E-01 -0.57050571781E-01  0.75295769144E-01  0.89055101497E+00  0.88000000000E+00 0.  1.
        -11    1    4    4    0    0  0.48119445342E-01  0.31951822535E-01 -0.14784075102E-01  0.59625749312E-01  0.51100000000E-03 0. -1.
         11    1    4    4    0    0  0.53686643385E-01  0.24076787191E-01 -0.35884809171E-01  0.68919721485E-01  0.51100000000E-03 0.  1.
</event>
<event>
 8    1  0.1116619E+005  0.1043930E+01  0.7957747E-01            NaN
         13   -1    0    0    0    0  0.00000000000E+00  0.00000000000E+00  0.74505805969E-08  0.10566000000E+00  0.10566000000E+00 0. -1.
     999900   -1    0    0    0    0 -0.00000000000E+00 -0.00000000000E+00 -0.74505805969E-08  0.93827000000E+00  0.93827000000E+00 0.  1.
     999902    2    1    2    0    0  0.22246343486E-01 -0.31924780481E-03 -0.81647157818E-02  0.10202305422E+01  0.10199552416E+01 0.  0.
     999903    2    3    3    0    0 -0.10703024400E+00 -0.57328725680E-01 -0.37025437744E-01  0.12849321655E+00  0.19939100778E-01 0.  0.
         14    1    1    2    0    0 -0.22246343486E-01  0.31924780481E-03  0.81647157818E-02  0.23699457831E-01  0.00000000000E+00 0. -1.
     999901    1    3    3    0    0  0.12927658748E+00  0.57009477876E-01  0.28860721962E-01  0.89173732562E+00  0.88000000000E+00 0. -1.
        -11    1    4    4    0    0 -0.60126287582E-01 -0.39473318605E-01 -0.14017655476E-01  0.73280755496E-01  0.51100000000E-03 0.  1.
         11    1    4    4    0    0 -0.46903956415E-01 -0.17855407076E-01 -0.23007782268E-01  0.55212461049E-01  0.51100000000E-03 0. -1.
</event>
<event>
 8    1  0.1116619E+005  0.1043930E+01  0.7957747E-01            NaN
         13   -1    0    0    0    0  0.00000000000E+00  0.00000000000E+00  0.74505805969E-08  0.10566000000E+00  0.10566000000E+00 0.  1.
     999900   -1    0    0    0    0 -0.00000000000E+00 -0.00000000000E+00 -0.74505805969E-08  0.93827000000E+00  0.93827000000E+00 0. -1.
     999902    2    1    2    0    0 -0.15316427629E-01 -0.11963211454E-01 -0.10317232043E-01  0.10219264398E+01  0.10216895281E+01 0.  0.
     999903    2    3    3    0    0  0.23893769334E-01 -0.69010768650E-01  0.10736812425E+00  0.13139754842E+00  0.20099831425E-01 0.  0.
         14    1    1    2    0    0  0.15316427629E-01  0.11963211454E-01  0.10317232043E-01  0.22003560181E-01  0.00000000000E+00 0.  1.
     999901    1    3    3    0    0 -0.39210196963E-01  0.57047557196E-01 -0.11768535629E+00  0.89052889140E+00  0.88000000000E+00 0.  1.
        -11    1    4    4    0    0  0.17887980660E-01 -0.23436540935E-01  0.47623095055E-01  0.56013137804E-01  0.51100000000E-03 0. -1.
         11    1    4    4    0    0  0.60057886742E-02 -0.45574227715E-01  0.59745029197E-01  0.75384410617E-01  0.51100000000E-03 0.  1.
</event>
<event>
 8    1  0.1116619E+005  0.1043930E+01  0.7957747E-01            NaN
         13   -1    0    0    0    0  0.00000000000E+00  0.00000000000E+00  0.74505805969E-08  0.10566000000E+00  0.10566000000E+00 0. -1.
     999900   -1    0    0    0    0 -0.00000000000E+00 -0.00000000000E+00 -0.74505805969E-08  0.93827000000E+00  0.93827000000E+00 0.  1.
     999902    2    1    2    0    0 -0.14349392739E-01  0.11984605247E-01 -0.12345151263E-01  0.10215260139E+01  0.10212803035E+01 0.  0.
     999903    2    3    3    0    0 -0.10004499854E+00 -0.78181273812E-01 -0.32051015787E-01  0.13255922951E+00  0.20575918107E-01 0.  0.
         14    1    1    2    0    0  0.14349392739E-01 -0.11984605247E-01  0.12345151263E-01  0.22403986132E-01  0.00000000000E+00 0. -1.
     999901    1    3    3    0    0  0.85695605804E-01  0.90165879059E-01  0.19705864524E-01  0.88896678436E+00  0.88000000000E+00 0.  1.
        -11    1    4    4    0    0 -0.52541900022E-01 -0.53669340204E-01 -0.16717018660E-01  0.76946534488E-01  0.51100000000E-03 0. -1.
         11    1    4    4    0    0 -0.47503098521E-01 -0.24511933609E-01 -0.15333997128E-01  0.55612695018E-01  0.51100000000E-03 0.  1.
</event>
<event>
 8    1  0.1116619E+005  0.1043930E+01  0.7957747E-01            NaN
         13   -1    0    0    0    0  0.00000000000E+00  0.00000000000E+00  0.74505805969E-08  0.10566000000E+00  0.10566000000E+00 0.  1.
     999900   -1    0    0    0    0 -0.00000000000E+00 -0.00000000000E+00 -0.74505805969E-08  0.93827000000E+00  0.93827000000E+00 0. -1.
     999902    2    1    2    0    0  0.10790188696E-01  0.13575232013E-01 -0.14154761952E-01  0.10215453539E+01  0.10213000723E+01 0.  0.
     999903    2    3    3    0    0  0.71681560284E-01  0.76518486364E-01 -0.82384770193E-01  0.13457018713E+00  0.18126225838E-01 0.  0.
         14    1    1    2    0    0 -0.10790188696E-01 -0.13575232013E-01  0.14154761952E-01  0.22384646127E-01  0.00000000000E+00 0. -1.
     999901    1    3    3    0    0 -0.60891371588E-01 -0.62943254351E-01  0.68230008241E-01  0.88697516675E+00  0.88000000000E+00 0.  1.
        -11    1    4    4    0    0  0.55252743205E-01  0.68801713363E-01 -0.68728740404E-01  0.11185008839E+00  0.51100000000E-03 0.  1.
         11    1    4    4    0    0  0.16428817079E-01  0.77167730014E-02 -0.13656029789E-01  0.22720098740E-01  0.51100000000E-03 0. -1.
</event>
<event>
 8    1  0.1116619E+005  0.1043930E+01  0.7957747E-01            NaN
         13   -1    0    0    0    0  0.00000000000E+00  0.00000000000E+00  0.74505805969E-08  0.10566000000E+00  0.10566000000E+00 0. -1.
     999900   -1    0    0    0    0 -0.00000000000E+00 -0.00000000000E+00 -0.74505805969E-08  0.93827000000E+00  0.93827000000E+00 0.  1.
     999902    2    1    2    0    0  0.47734985713E-02  0.95469001272E-02  0.26256514553E-01  0.10155868501E+01  0.10151912706E+01 0.  0.
     999903    2    3    3    0    0  0.33612595404E-01 -0.11559764347E+00  0.33353227516E-01  0.12623696751E+00  0.18185500662E-01 0.  0.
         14    1    1    2    0    0 -0.47734985713E-02 -0.95469001272E-02 -0.26256514553E-01  0.28343149915E-01  0.00000000000E+00 0.  1.
     999901    1    3    3    0    0 -0.28839096833E-01  0.12514454360E+00 -0.70967129634E-02  0.88934988257E+00  0.88000000000E+00 0. -1.
        -11    1    4    4    0    0  0.26451302261E-01 -0.10567402767E+00  0.26159826955E-01  0.11203244701E+00  0.51100000000E-03 0.  1.
         11    1    4    4    0    0  0.71612931430E-02 -0.99236158027E-02  0.71934005607E-02  0.14204520503E-01  0.51100000000E-03 0. -1.
</event>
<event>
 8    1  0.1116619E+005  0.1043930E+01  0.7957747E-01            NaN
         13   -1    0    0    0    0  0.00000000000E+00  0.00000000000E+00  0.74505805969E-08  0.10566000000E+00  0.10566000000E+00 0.  1.
     999900   -1    0    0    0    0 -0.00000000000E+00 -0.00000000000E+00 -0.74505805969E-08  0.93827000000E+00  0.93827000000E+00 0.  1.
     999902    2    1    2    0    0 -0.63759356913E-02  0.18257981867E-01  0.12540397535E-01  0.10208807478E+01  0.10206205138E+01 0.  0.
     999903    2    3    3    0    0  0.62946631305E-01 -0.61079844534E-01  0.94877822001E-01  0.13077987683E+00  0.20212601878E-01 0.  0.
         14    1    1    2    0    0  0.63759356913E-02 -0.18257981867E-01 -0.12540397535E-01  0.23049252225E-01  0.00000000000E+00 0.  1.
     999901    1    3    3    0    0 -0.69322566996E-01  0.79337826401E-01 -0.82337424466E-01  0.89010087095E+00  0.88000000000E+00 0.  1.
        -11    1    4    4    0    0  0.24626740934E-01 -0.37824602443E-01  0.49635814980E-01  0.67090626534E-01  0.51100000000E-03 0. -1.
         11    1    4    4    0    0  0.38319890371E-01 -0.23255242091E-01  0.45242007021E-01  0.63689250294E-01  0.51100000000E-03 0.  1.
</event>
<event>
 8    1  0.1579887E+005  0.1043930E+01  0.7957747E-01            NaN
         13   -1    0    0    0    0  0.00000000000E+00  0.00000000000E+00  0.74505805969E-08  0.10566000000E+00  0.10566000000E+00 0.  1.
     999900   -1    0    0    0    0 -0.00000000000E+00 -0.00000000000E+00 -0.74505805969E-08  0.93827000000E+00  0.93827000000E+00 0.  1.
     999902    2    1    2    0    0 -0.12459142851E-01 -0.12384645083E-01  0.20405175311E-01  0.10170045315E+01  0.10166480395E+01 0.  0.
     999903    2    3    3    0    0 -0.71617371831E-02 -0.24630533203E-01  0.12637164072E+00  0.13054702204E+00  0.20366142029E-01 0.  0.
         14    1    1    2    0    0  0.12459142851E-01  0.12384645083E-01 -0.20405175311E-01  0.26925468499E-01  0.00000000000E+00 0. -1.
     999901    1    3    3    0    0 -0.52974056676E-02  0.12245888121E-01 -0.10596646541E+00  0.88645750946E+00  0.88000000000E+00 0.  1.
        -11    1    4    4    0    0 -0.94898300416E-02 -0.33769520370E-02  0.59196372525E-01  0.60049415654E-01  0.51100000000E-03 0.  1.
         11    1    4    4    0    0  0.23280928585E-02 -0.21253581166E-01  0.67175268194E-01  0.70497606389E-01  0.51100000000E-03 0. -1.
</event>
<event>
 8    1  0.1116619E+005  0.1043930E+01  0.7957747E-01            NaN
         13   -1    0    0    0    0  0.00000000000E+00  0.00000000000E+00  0.74505805969E-08  0.10566000000E+00  0.10566000000E+00 0. -1.
     999900   -1    0    0    0    0 -0.00000000000E+00 -0.00000000000E+00 -0.74505805969E-08  0.93827000000E+00  0.93827000000E+00 0. -1.
     999902    2    1    2    0    0 -0.18932745047E-01  0.66337339270E-02  0.12130355633E-01  0.10204864340E+01  0.10202171147E+01 0.  0.
     999903    2    3    3    0    0  0.12098236337E+00  0.37495387678E-01  0.16024192631E-01  0.12889020180E+00  0.17699520558E-01 0.  0.
         14    1    1    2    0    0  0.18932745047E-01 -0.66337339270E-02 -0.12130355633E-01  0.23443566039E-01  0.00000000000E+00 0.  1.
     999901    1    3    3    0    0 -0.13991510841E+00 -0.30861653751E-01 -0.38938369982E-02  0.89159623216E+00  0.88000000000E+00 0. -1.
        -11    1    4    4    0    0  0.52995922703E-01  0.74374648040E-02  0.51965160795E-02  0.53769402137E-01  0.51100000000E-03 0. -1.
         11    1    4    4    0    0  0.67986440664E-01  0.30057922874E-01  0.10827676551E-01  0.75120799664E-01  0.51100000000E-03 0.  1.
</event>
<event>
 8    1  0.1116619E+005  0.1043930E+01  0.7957747E-01            NaN
         13   -1    0    0    0    0  0.00000000000E+00  0.00000000000E+00  0.74505805969E-08  0.10566000000E+00  0.10566000000E+00 0.  1.
     999900   -1    0    0    0    0 -0.00000000000E+00 -0.00000000000E+00 -0.74505805969E-08  0.93827000000E+00  0.93827000000E+00 0.  1.
     999902    2    1    2    0    0 -0.17829137093E-01 -0.34478820411E-02  0.13844230273E-01  0.10210951860E+01  0.10208398259E+01 0.  0.
     999903    2    3    3    0    0  0.10117995042E+00 -0.38959387496E-01 -0.66394656823E-01  0.12875976196E+00  0.20386505463E-01 0.  0.
         14    1    1    2    0    0  0.17829137093E-01  0.34478820411E-02 -0.13844230273E-01  0.22834814032E-01  0.00000000000E+00 0. -1.
     999901    1    3    3    0    0 -0.11900908751E+00  0.35511505455E-01  0.80238887096E-01  0.89233542400E+00  0.88000000000E+00 0. -1.
        -11    1    4    4    0    0  0.74591511987E-01 -0.28397697281E-01 -0.58855496866E-01  0.99169317351E-01  0.51100000000E-03 0. -1.
         11    1    4    4    0    0  0.26588438433E-01 -0.10561690215E-01 -0.75391599569E-02  0.29590444613E-01  0.51100000000E-03 0.  1.
</event>
<event>
 8    1  0.1116619E+005  0.1043930E+01  0.7957747E-01            NaN
         13   -1    0    0    0    0  0.00000000000E+00  0.00000000000E+00  0.74505805969E-08  0.10566000000E+00  0.10566000000E+00 0.  1.
     999900   -1    0    0    0    0 -0.00000000000E+00 -0.00000000000E+00 -0.74505805969E-08  0.93827000000E+00  0.93827000000E+00 0. -1.
     999902    2    1    2    0    0 -0.20965399711E-01  0.70387163629E-02  0.66901081718E-02  0.10208248261E+01  0.10205633133E+01 0.  0.
     999903    2    3    3    0    0 -0.15574343714E-01  0.11352287718E+00  0.63622670630E-01  0.13256289590E+00  0.19876451534E-01 0.  0.
         14    1    1    2    0    0  0.20965399711E-01 -0.70387163629E-02 -0.66901081718E-02  0.23105173889E-01  0.00000000000E+00 0.  1.
     999901    1    3    3    0    0 -0.53910559968E-02 -0.10648416082E+00 -0.56932562458E-01  0.88826193021E+00  0.88000000000E+00 0. -1.
        -11    1    4    4    0    0 -0.93439028439E-02  0.43705694072E-01  0.35324101815E-01  0.56969724457E-01  0.51100000000E-03 0.  1.
         11    1    4    4    0    0 -0.62304408699E-02  0.69817183112E-01  0.28298568814E-01  0.75593171445E-01  0.51100000000E-03 0. -1.
</event>
<event>
 8    1  0.1116619E+005  0.1043930E+01  0.7957747E-01            NaN
         13   -1    0    0    0    0  0.00000000000E+00  0.00000000000E+00  0.74505805969E-08  0.10566000000E+00  0.10566000000E+00 0.  1.
     999900   -1    0    0    0    0 -0.00000000000E+00 -0.00000000000E+00 -0.74505805969E-08  0.93827000000E+00  0.93827000000E+00 0.  1.
     999902    2    1    2    0    0 -0.81692451689E-02  0.15182676962E-01 -0.16632305772E-01  0.10199741272E+01  0.10196927656E+01 0.  0.
     999903    2    3    3    0    0  0.62591386677E-01  0.58842327943E-01 -0.98598547575E-01  0.13226263300E+00  0.19789625044E-01 0.  0.
         14    1    1    2    0    0  0.81692451689E-02 -0.15182676962E-01  0.16632305772E-01  0.23955872801E-01  0.00000000000E+00 0.  1.
     999901    1    3    3    0    0 -0.70760631846E-01 -0.43659650982E-01  0.81966241803E-01  0.88771149420E+00  0.88000000000E+00 0. -1.
        -11    1    4    4    0    0  0.53241802720E-01  0.43582336946E-01 -0.67555736116E-01  0.96426906275E-01  0.51100000000E-03 0.  1.
         11    1    4    4    0    0  0.93495839572E-02  0.15259990997E-01 -0.31042811459E-01  0.35835726722E-01  0.51100000000E-03 0. -1.
</event>
<event>
 8    1  0.1116619E+005  0.1043930E+01  0.7957747E-01            NaN
         13   -1    0    0    0    0  0.00000000000E+00  0.00000000000E+00  0.74505805969E-08  0.10566000000E+00  0.10566000000E+00 0. -1.
     999900   -1    0    0    0    0 -0.00000000000E+00 -0.00000000000E+00 -0.74505805969E-08  0.93827000000E+00  0.93827000000E+00 0.  1.
     999902    2    1    2    0    0  0.10578021755E-01 -0.36385451193E-02 -0.21276163633E-01  0.10198923484E+01  0.10196090396E+01 0.  0.
     999903    2    3    3    0    0 -0.13388559625E-01  0.16029119701E-01 -0.12949746194E+00  0.13272096504E+00  0.20225620064E-01 0.  0.
         14    1    1    2    0    0 -0.10578021755E-01  0.36385451193E-02  0.21276163633E-01  0.24037651587E-01  0.00000000000E+00 0. -1.
     999901    1    3    3    0    0  0.23966581381E-01 -0.19667664820E-01  0.10822129830E+00  0.88717138337E+00  0.88000000000E+00 0. -1.
        -11    1    4    4    0    0 -0.34585463633E-02  0.41261446942E-02 -0.91779747408E-01  0.91938945873E-01  0.51100000000E-03 0.  1.
         11    1    4    4    0    0 -0.99300132622E-02  0.11902975007E-01 -0.37717714528E-01  0.40782019171E-01  0.51100000000E-03 0. -1.
</event>
<event>
 8    1  0.1116619E+005  0.1043930E+01  0.7957747E-01            NaN
         13   -1    0    0    0    0  0.00000000000E+00  0.00000000000E+00  0.74505805969E-08  0.10566000000E+00  0.10566000000E+00 0.  1.
     999900   -1    0    0    0    0 -0.00000000000E+00 -0.00000000000E+00 -0.74505805969E-08  0.93827000000E+00  0.93827000000E+00 0.  1.
     999902    2    1    2    0    0  0.35808228435E-02  0.18032812820E-01 -0.17499739570E-01  0.10185480080E+01  0.10182317021E+01 0.  0.
     999903    2    3    3    0    0  0.13439077918E-01  0.74761732507E-01 -0.10633804566E+00  0.13220292844E+00  0.19997721611E-01 0.  0.
         14    1    1    2    0    0 -0.35808228435E-02 -0.18032812820E-01  0.17499739570E-01  0.25381991952E-01  0.00000000000E+00 0.  1.
     999901    1    3    3    0    0 -0.98582550742E-02 -0.56728919687E-01  0.88838306091E-01  0.88634507961E+00  0.88000000000E+00 0. -1.
        -11    1    4    4    0    0  0.10295576293E-01  0.12946460917E-01 -0.19763317416E-01  0.25777113449E-01  0.51100000000E-03 0.  1.
         11    1    4    4    0    0  0.31435016250E-02  0.61815271590E-01 -0.86574728245E-01  0.10642581499E+00  0.51100000000E-03 0. -1.
</event>
<event>
 8    1  0.1116619E+005  0.1043930E+01  0.7957747E-01            NaN
         13   -1    0    0    0    0  0.00000000000E+00  0.00000000000E+00  0.74505805969E-08  0.10566000000E+00  0.10566000000E+00 0. -1.
     999900   -1    0    0    0    0 -0.00000000000E+00 -0.00000000000E+00 -0.74505805969E-08  0.93827000000E+00  0.93827000000E+00 0. -1.
     999902    2    1    2    0    0 -0.21630457570E-01 -0.12096483743E-01 -0.33355060164E-02  0.10189234566E+01  0.10186165535E+01 0.  0.
     999903    2    3    3    0    0 -0.59255766826E-01 -0.86534779775E-01 -0.77443676770E-01  0.13187850575E+00  0.19872171357E-01 0.  0.
         14    1    1    2    0    0  0.21630457570E-01  0.12096483743E-01  0.33355060164E-02  0.25006543424E-01  0.00000000000E+00 0. -1.
     999901    1    3    3    0    0  0.37625309256E-01  0.74438296032E-01  0.74108170754E-01  0.88704495083E+00  0.88000000000E+00 0.  1.
        -11    1    4    4    0    0 -0.24020278912E-01 -0.49156276808E-01 -0.47246416202E-01  0.72289683314E-01  0.51100000000E-03 0. -1.
         11    1    4    4    0    0 -0.35235487914E-01 -0.37378502967E-01 -0.30197260568E-01  0.59588822437E-01  0.51100000000E-03 0.  1.
</event>
<event>
 8    1  0.1116619E+005  0.1043930E+01  0.7957747E-01            NaN
         13   -1    0    0    0    0  0.00000000000E+00  0.00000000000E+00  0.74505805969E-08  0.10566000000E+00  0.10566000000E+00 0.  1.
     999900   -1    0    0    0    0 -0.00000000000E+00 -0.00000000000E+00 -0.74505805969E-08  0.93827000000E+00  0.93827000000E+00 0.  1.
     999902    2    1    2    0    0 -0.21243337575E-01  0.10257305920E-01 -0.28155326889E-02  0.10201724972E+01  0.10198958305E+01 0.  0.
     999903    2    3    3    0    0 -0.39371640993E-01 -0.34881082695E-01 -0.11846523840E+00  0.13127376057E+00  0.20783923107E-01 0.  0.
         14    1    1    2    0    0  0.21243337575E-01 -0.10257305920E-01  0.28155326889E-02  0.23757502823E-01  0.00000000000E+00 0.  1.
     999901    1    3    3    0    0  0.18128303419E-01  0.45138388616E-01  0.11564970571E+00  0.88889873661E+00  0.88000000000E+00 0. -1.
        -11    1    4    4    0    0 -0.96421484636E-02 -0.11885284251E-01 -0.16072224982E-01  0.22199291556E-01  0.51100000000E-03 0. -1.
         11    1    4    4    0    0 -0.29729492530E-01 -0.22995798444E-01 -0.10239301342E+00  0.10907446901E+00  0.51100000000E-03 0.  1.
</event>
<event>
 8    1  0.1116619E+005  0.1043930E+01  0.7957747E-01            NaN
         13   -1    0    0    0    0  0.00000000000E+00  0.00000000000E+00  0.74505805969E-08  0.10566000000E+00  0.10566000000E+00 0. -1.
     999900   -1    0    0    0    0 -0.00000000000E+00 -0.00000000000E+00 -0.74505805969E-08  0.93827000000E+00  0.93827000000E+00 0.  1.
     999902    2    1    2    0    0 -0.62967648085E-02 -0.21993274790E-01 -0.58477772473E-02  0.10203175058E+01  0.10200442455E+01 0.  0.
     999903    2    3    3    0    0 -0.12329715546E+00  0.16349674646E-01 -0.36770088976E-01  0.13120814103E+00  0.19850350706E-01 0.  0.
         14    1    1    2    0    0  0.62967648085E-02  0.21993274790E-01  0.58477772473E-02  0.23612494188E-01  0.00000000000E+00 0.  1.
     999901    1    3    3    0    0  0.11700039065E+00 -0.38342949436E-01  0.30922311729E-01  0.88910936478E+00  0.88000000000E+00 0. -1.
        -11    1    4    4    0    0 -0.10272887549E+00  0.59753734537E-02 -0.29609086355E-01  0.10707887776E+00  0.51100000000E-03 0.  1.
         11    1    4    4    0    0 -0.20568279971E-01  0.10374301192E-01 -0.71610026213E-02  0.24129263266E-01  0.51100000000E-03 0. -1.
</event>
<event>
 8    1  0.1116619E+005  0.1043930E+01  0.7957747E-01            NaN
         13   -1    0    0    0    0  0.00000000000E+00  0.00000000000E+00  0.74505805969E-08  0.10566000000E+00  0.10566000000E+00 0.  1.
     999900   -1    0    0    0    0 -0.00000000000E+00 -0.00000000000E+00 -0.74505805969E-08  0.93827000000E+00  0.93827000000E+00 0. -1.
     999902    2    1    2    0    0  0.13736299559E-01 -0.88113583048E-02  0.16718300218E-01  0.10205670481E+01  0.10202995992E+01 0.  0.
     999903    2    3    3    0    0 -0.12547855338E+00 -0.81398870685E-02  0.20620199789E-01  0.12961449548E+00  0.23740254370E-01 0.  0.
         14    1    1    2    0    0 -0.13736299559E-01  0.88113583048E-02 -0.16718300218E-01  0.23362951931E-01  0.00000000000E+00 0. -1.
     999901    1    3    3    0    0  0.13921485294E+00 -0.67147123632E-03 -0.39018995708E-02  0.89095255259E+00  0.88000000000E+00 0. -1.
        -11    1    4    4    0    0 -0.21989208506E-01  0.62348233533E-02 -0.11333729219E-02  0.22889822370E-01  0.51100000000E-03 0.  1.
         11    1    4    4    0    0 -0.10348934488E+00 -0.14374710422E-01  0.21753572711E-01  0.10672467311E+00  0.51100000000E-03 0. -1.
</event>
<event>
 7    1  0.1116619E+005  0.1043930E+01  0.7957747E-01            NaN
         13   -1    0    0    0    0  0.00000000000E+00  0.00000000000E+00  0.74505805969E-08  0.10566000000E+00  0.10566000000E+00 0. -1.
     999900   -1    0    0    0    0 -0.00000000000E+00 -0.00000000000E+00 -0.74505805969E-08  0.93827000000E+00  0.93827000000E+00 0.  1.
     999902    2    1    2    0    0 -0.73839968476E-02 -0.17118982096E-01 -0.21057153040E-01  0.10158055151E+01  0.10154161008E+01 0.  0.
         14    1    1    2    0    0  0.73839968476E-02  0.17118982096E-01  0.21057153040E-01  0.28124484913E-01  0.00000000000E+00 0. -1.
     999901    1    3    3    0    0 -0.80431168248E-01  0.53307591138E-01 -0.65010271044E-01  0.88765827177E+00  0.88000000000E+00 0. -1.
        -11    1    3    3    0    0  0.39892020820E-02  0.11163862318E-02 -0.12932125088E-01  0.13589004076E-01  0.51100000000E-03 0.  1.
         11    1    3    3    0    0  0.69057969319E-01 -0.71542959466E-01  0.56885243092E-01  0.11455823924E+00  0.51100000000E-03 0. -1.
</event>
<event>
 8    1  0.1116619E+005  0.1043930E+01  0.7957747E-01            NaN
         13   -1    0    0    0    0  0.00000000000E+00  0.00000000000E+00  0.74505805969E-08  0.10566000000E+00  0.10566000000E+00 0.  1.
     999900   -1    0    0    0    0 -0.00000000000E+00 -0.00000000000E+00 -0.74505805969E-08  0.93827000000E+00  0.93827000000E+00 0.  1.
     999902    2    1    2    0    0  0.82303258444E-02  0.20691444745E-01  0.10964639190E-02  0.10216347901E+01  0.10213914862E+01 0.  0.
     999903    2    3    3    0    0 -0.96079964202E-01  0.77142170942E-01  0.44890794501E-01  0.13259864663E+00  0.19619979556E-01 0.  0.
         14    1    1    2    0    0 -0.82303258444E-02 -0.20691444745E-01 -0.10964639190E-02  0.22295209851E-01  0.00000000000E+00 0. -1.
     999901    1    3    3    0    0  0.10431029005E+00 -0.56450726196E-01 -0.43794330582E-01  0.88903614352E+00  0.88000000000E+00 0.  1.
        -11    1    4    4    0    0 -0.62485572400E-01  0.60186962051E-01  0.26533018353E-01  0.90725847160E-01  0.51100000000E-03 0.  1.
         11    1    4    4    0    0 -0.33594391802E-01  0.16955208891E-01  0.18357776148E-01  0.41872799467E-01  0.51100000000E-03 0. -1.
</event>
<event>
 8    1  0.1116619E+005  0.1043930E+01  0.7957747E-01            NaN
         13   -1    0    0    0    0  0.00000000000E+00  0.00000000000E+00  0.74505805969E-08  0.10566000000E+00  0.10566000000E+00 0. -1.
     999900   -1    0    0    0    0 -0.00000000000E+00 -0.00000000000E+00 -0.74505805969E-08  0.93827000000E+00  0.93827000000E+00 0. -1.
     999902    2    1    2    0    0 -0.14828863107E-01 -0.32434259780E-02 -0.14763297250E-01  0.10227552523E+01  0.10225360318E+01 0.  0.
     999903    2    3    3    0    0  0.24755937854E-01  0.12774101857E+00 -0.12035749501E-01  0.13217604715E+00  0.19875207958E-01 0.  0.
         14    1    1    2    0    0  0.14828863107E-01  0.32434259780E-02  0.14763297250E-01  0.21174747669E-01  0.00000000000E+00 0. -1.
     999901    1    3    3    0    0 -0.39584800961E-01 -0.13098444454E+00 -0.27275477490E-02  0.89057920518E+00  0.88000000000E+00 0.  1.
        -11    1    4    4    0    0 -0.25120430093E-02  0.26926019503E-01 -0.15549223602E-04  0.27047777157E-01  0.51100000000E-03 0.  1.
         11    1    4    4    0    0  0.27267980863E-01  0.10081499906E+00 -0.12020200278E-01  0.10512827000E+00  0.51100000000E-03 0. -1.
</event>
<event>
 8    1  0.1116619E+005  0.1043930E+01  0.7957747E-01            NaN
         13   -1    0    0    0    0  0.00000000000E+00  0.00000000000E+00  0.74505805969E-08  0.10566000000E+00  0.10566000000E+00 0.  1.
     999900   -1    0    0    0    0 -0.00000000000E+00 -0.00000000000E+00 -0.74505805969E-08  0.93827000000E+00  0.93827000000E+00 0. -1.
     999902    2    1    2    0    0  0.20600081627E-01 -0.29009610511E-02  0.11456984925E-01  0.10201804433E+01  0.10199039639E+01 0.  0.
     999903    2    3    3    0    0 -0.36885868390E-02 -0.31559304240E-01 -0.12368829749E+00  0.12907131006E+00  0.18735335241E-01 0.  0.
         14    1    1    2    0    0 -0.20600081627E-01  0.29009610511E-02 -0.11456984925E-01  0.23749556662E-01  0.00000000000E+00 0.  1.
     999901    1    3    3    0    0  0.24288668466E-01  0.28658343189E-01  0.13514528242E+00  0.89110913328E+00  0.88000000000E+00 0.  1.
        -11    1    4    4    0    0 -0.43961904039E-02 -0.24637687358E-01 -0.11608136837E+00  0.11874968351E+00  0.51100000000E-03 0.  1.
         11    1    4    4    0    0  0.70760356482E-03 -0.69216168820E-02 -0.76069291215E-02  0.10321626554E-01  0.51100000000E-03 0. -1.
</event>
<event>
 8    1  0.1116619E+005  0.1043930E+01  0.7957747E-01            NaN
         13   -1    0    0    0    0  0.00000000000E+00  0.00000000000E+00  0.74505805969E-08  0.10566000000E+00  0.10566000000E+00 0. -1.
     999900   -1    0    0    0    0 -0.00000000000E+00 -0.00000000000E+00 -0.74505805969E-08  0.93827000000E+00  0.93827000000E+00 0.  1.
     999902    2    1    2    0    0 -0.55860901790E-02 -0.16125422682E-01 -0.16190988944E-01  0.10204059318E+01  0.10201347381E+01 0.  0.
     999903    2    3    3    0    0 -0.53223120420E-01 -0.10032956320E+00  0.63380443276E-01  0.13153516690E+00  0.19639188932E-01 0.  0.
         14    1    1    2    0    0  0.55860901790E-02  0.16125422682E-01  0.16190988944E-01  0.23524068167E-01  0.00000000000E+00 0. -1.
     999901    1    3    3    0    0  0.47637030241E-01  0.84204140518E-01 -0.79571432221E-01  0.88887076494E+00  0.88000000000E+00 0.  1.
        -11    1    4    4    0    0 -0.28341216733E-01 -0.52396085022E-01  0.22032979457E-01  0.63516042039E-01  0.51100000000E-03 0. -1.
         11    1    4    4    0    0 -0.24881903687E-01 -0.47933478178E-01  0.41347463819E-01  0.68019124859E-01  0.51100000000E-03 0.  1.
</event>
<event>
 8    1  0.1116619E+005  0.1043930E+01  0.7957747E-01            NaN
         13   -1    0    0    0    0  0.00000000000E+00  0.00000000000E+00  0.74505805969E-08  0.10566000000E+00  0.10566000000E+00 0.  1.
     999900   -1    0    0    0    0 -0.00000000000E+00 -0.00000000000E+00 -0.74505805969E-08  0.93827000000E+00  0.93827000000E+00 0. -1.
     999902    2    1    2    0    0 -0.14825649745E-01 -0.13193987665E-01  0.12407268473E-01  0.10205244128E+01  0.10202559755E+01 0.  0.
     999903    2    3    3    0    0 -0.74684996709E-01  0.10290620302E+00  0.22901030259E-01  0.13082080220E+00  0.20544822909E-01 0.  0.
         14    1    1    2    0    0  0.14825649745E-01  0.13193987665E-01 -0.12407268473E-01  0.23405587192E-01  0.00000000000E+00 0. -1.
     999901    1    3    3    0    0  0.59859346965E-01 -0.11610019068E+00 -0.10493761786E-01  0.88970361061E+00  0.88000000000E+00 0.  1.
        -11    1    4    4    0    0 -0.42249045604E-01  0.70258205907E-01  0.76738412660E-02  0.82342858297E-01  0.51100000000E-03 0. -1.
         11    1    4    4    0    0 -0.32435951105E-01  0.32647997109E-01  0.15227188993E-01  0.48477943901E-01  0.51100000000E-03 0.  1.
</event>
<event>
 8    1  0.1116619E+005  0.1043930E+01  0.7957747E-01            NaN
         13   -1    0    0    0    0  0.00000000000E+00  0.00000000000E+00  0.74505805969E-08  0.10566000000E+00  0.10566000000E+00 0. -1.
     999900   -1    0    0    0    0 -0.00000000000E+00 -0.00000000000E+00 -0.74505805969E-08  0.93827000000E+00  0.93827000000E+00 0.  1.
     999902    2    1    2    0    0 -0.21727410713E-01  0.76643727967E-02  0.90920201227E-02  0.10191613138E+01  0.10188602925E+01 0.  0.
     999903    2    3    3    0    0 -0.88588327802E-01 -0.30159986845E-01 -0.88772409202E-01  0.13041021762E+00  0.19203322497E-01 0.  0.
         14    1    1    2    0    0  0.21727410713E-01 -0.76643727967E-02 -0.90920201227E-02  0.24768686210E-01  0.00000000000E+00 0. -1.
     999901    1    3    3    0    0  0.66860917089E-01  0.37824359642E-01  0.97864429324E-01  0.88875109617E+00  0.88000000000E+00 0. -1.
        -11    1    4    4    0    0 -0.72643771794E-01 -0.17743245163E-01 -0.63939732907E-01  0.98389485691E-01  0.51100000000E-03 0. -1.
         11    1    4    4    0    0 -0.15944556008E-01 -0.12416741682E-01 -0.24832676294E-01  0.32020731928E-01  0.51100000000E-03 0.  1.
</event>
<event>
 8    1  0.1116619E+005  0.1043930E+01  0.7957747E-01            NaN
         13   -1    0    0    0    0  0.00000000000E+00  0.00000000000E+00  0.74505805969E-08  0.10566000000E+00  0.10566000000E+00 0. -1.
     999900   -1    0    0    0    0 -0.00000000000E+00 -0.00000000000E+00 -0.74505805969E-08  0.93827000000E+00  0.93827000000E+00 0.  1.
     999902    2    1    2    0    0  0.14164331049E-01  0.16599233132E-01  0.86630826608E-02  0.10204520994E+01  0.10201819815E+01 0.  0.
     999903    2    3    3    0    0 -0.11088683276E-01  0.10285929275E+00  0.81043318820E-01  0.13291764307E+00  0.19901942429E-01 0.  0.
         14    1    1    2    0    0 -0.14164331049E-01 -0.16599233132E-01 -0.86630826608E-02  0.23477900584E-01  0.00000000000E+00 0.  1.
     999901    1    3    3    0    0  0.25253014325E-01 -0.86260059614E-01 -0.72380236159E-01  0.88753445635E+00  0.88000000000E+00 0.  1.
        -11    1    4    4    0    0 -0.10354289017E-01  0.23915564533E-01  0.15648792532E-01  0.30402489318E-01  0.51100000000E-03 0.  1.
         11    1    4    4    0    0 -0.73439425852E-03  0.78943728213E-01  0.65394526288E-01  0.10251515375E+00  0.51100000000E-03 0. -1.
</event>
<event>
 8    1  0.1116619E+005  0.1043930E+01  0.7957747E-01            NaN
         13   -1    0    0    0    0  0.00000000000E+00  0.00000000000E+00  0.74505805969E-08  0.10566000000E+00  0.10566000000E+00 0.  1.
     999900   -1    0    0    0    0 -0.00000000000E+00 -0.00000000000E+00 -0.74505805969E-08  0.93827000000E+00  0.93827000000E+00 0.  1.
     999902    2    1    2    0    0 -0.10527740365E-01 -0.72405705934E-02  0.20058257965E-01  0.10201478030E+01  0.10198705541E+01 0.  0.
     999903    2    3    3    0    0  0.97262888258E-01  0.53509537099E-02  0.85496092007E-01  0.13106992331E+00  0.19520269199E-01 0.  0.
         14    1    1    2    0    0  0.10527740365E-01  0.72405705934E-02 -0.20058257965E-01  0.23782196961E-01  0.00000000000E+00 0. -1.
     999901    1    3    3    0    0 -0.10779062862E+00 -0.12591524303E-01 -0.65437834042E-01  0.88907787973E+00  0.88000000000E+00 0.  1.
        -11    1    4    4    0    0  0.31836317403E-01  0.10807468076E-01  0.26708793469E-01  0.42941509540E-01  0.51100000000E-03 0.  1.
         11    1    4    4    0    0  0.65426570854E-01 -0.54565143661E-02  0.58787298538E-01  0.88128413767E-01  0.51100000000E-03 0. -1.
</event>
<event>
 8    1  0.1116619E+005  0.1043930E+01  0.7957747E-01            NaN
         13   -1    0    0    0    0  0.00000000000E+00  0.00000000000E+00  0.74505805969E-08  0.10566000000E+00  0.10566000000E+00 0.  1.
     999900   -1    0    0    0    0 -0.00000000000E+00 -0.00000000000E+00 -0.74505805969E-08  0.93827000000E+00  0.93827000000E+00 0. -1.
     999902    2    1    2    0    0 -0.21793256652E-01 -0.10993774197E-01  0.27225936857E-02  0.10193694295E+01  0.10190735068E+01 0.  0.
     999903    2    3    3    0    0  0.95328569781E-01  0.71790738729E-01 -0.35672370403E-01  0.12693177282E+00  0.24448119699E-01 0.  0.
         14    1    1    2    0    0  0.21793256652E-01  0.10993774197E-01 -0.27225936857E-02  0.24560570493E-01  0.00000000000E+00 0.  1.
     999901    1    3    3    0    0 -0.11712182643E+00 -0.82784512926E-01  0.38394964089E-01  0.89243765669E+00  0.88000000000E+00 0.  1.
        -11    1    4    4    0    0  0.13204340224E-01  0.34619455606E-02  0.16650539341E-02  0.13761293304E-01  0.51100000000E-03 0.  1.
         11    1    4    4    0    0  0.82124229558E-01  0.68328793168E-01 -0.37337424337E-01  0.11317047951E+00  0.51100000000E-03 0. -1.
</event>
<event>
 8    1  0.1116619E+005  0.1043930E+01  0.7957747E-01            NaN
         13   -1    0    0    0    0  0.00000000000E+00  0.00000000000E+00  0.74505805969E-08  0.10566000000E+00  0.10566000000E+00 0. -1.
     999900   -1    0    0    0    0 -0.00000000000E+00 -0.00000000000E+00 -0.74505805969E-08  0.93827000000E+00  0.93827000000E+00 0. -1.
     999902    2    1    2    0    0  0.23416074995E-01 -0.17781078959E-02  0.16501313211E-02  0.10203886073E+01  0.10201170094E+01 0.  0.
     999903    2    3    3    0    0  0.10116232642E+00 -0.68248499475E-01 -0.48975351753E-01  0.13301848606E+00  0.20091256527E-01 0.  0.
         14    1    1    2    0    0 -0.23416074995E-01  0.17781078959E-02 -0.16501313211E-02  0.23541392678E-01  0.00000000000E+00 0.  1.
     999901    1    3    3    0    0 -0.77746251420E-01  0.66470391579E-01  0.50625483074E-01  0.88737012126E+00  0.88000000000E+00 0.  1.
        -11    1    4    4    0    0  0.67264543110E-01 -0.33943554240E-01 -0.27261342019E-01  0.80125685794E-01  0.51100000000E-03 0.  1.
         11    1    4    4    0    0  0.33897783305E-01 -0.34304945235E-01 -0.21714009734E-01  0.52892800269E-01  0.51100000000E-03 0. -1.
</event>
<event>
 8    1  0.1116619E+005  0.1043930E+01  0.7957747E-01            NaN
         13   -1    0    0    0    0  0.00000000000E+00  0.00000000000E+00  0.74505805969E-08  0.10566000000E+00  0.10566000000E+00 0. -1.
     999900   -1    0    0    0    0 -0.00000000000E+00 -0.00000000000E+00 -0.74505805969E-08  0.93827000000E+00  0.93827000000E+00 0.  1.
     999902    2    1    2    0    0 -0.18783908889E-02 -0.23200848629E-01  0.87471252985E-02  0.10190639603E+01  0.10187605387E+01 0.  0.
     999903    2    3    3    0    0 -0.18744559772E-02 -0.12503772847E+00 -0.37102021959E-01  0.13200539717E+00  0.20271105588E-01 0.  0.
         14    1    1    2    0    0  0.18783908889E-02  0.23200848629E-01 -0.87471252985E-02  0.24866039701E-01  0.00000000000E+00 0.  1.
     999901    1    3    3    0    0 -0.39349117772E-05  0.10183687985E+00  0.45849147257E-01  0.88705856313E+00  0.88000000000E+00 0.  1.
        -11    1    4    4    0    0 -0.72251549763E-02 -0.72735453016E-01 -0.29744190376E-01  0.78915315193E-01  0.51100000000E-03 0. -1.
         11    1    4    4    0    0  0.53506989992E-02 -0.52302275459E-01 -0.73578315827E-02  0.53090081979E-01  0.51100000000E-03 0.  1.
</event>
<event>
 8    1  0.1116619E+005  0.1043930E+01  0.7957747E-01            NaN
         13   -1    0    0    0    0  0.00000000000E+00  0.00000000000E+00  0.74505805969E-08  0.10566000000E+00  0.10566000000E+00 0.  1.
     999900   -1    0    0    0    0 -0.00000000000E+00 -0.00000000000E+00 -0.74505805969E-08  0.93827000000E+00  0.93827000000E+00 0. -1.
     999902    2    1    2    0    0 -0.89638728525E-02  0.19289492113E-01  0.11960595096E-01  0.10195273084E+01  0.10192352237E+01 0.  0.
     999903    2    3    3    0    0  0.39521577022E-01 -0.70992129655E-01  0.98718040296E-01  0.12934279697E+00  0.19556843446E-01 0.  0.
         14    1    1    2    0    0  0.89638728525E-02 -0.19289492113E-01 -0.11960595096E-01  0.24402691605E-01  0.00000000000E+00 0. -1.
     999901    1    3    3    0    0 -0.48485449875E-01  0.90281621768E-01 -0.86757445200E-01  0.89018451142E+00  0.88000000000E+00 0. -1.
        -11    1    4    4    0    0  0.31411589557E-01 -0.63716200090E-01  0.75371545295E-01  0.10357399806E+00  0.51100000000E-03 0.  1.
         11    1    4    4    0    0  0.81099874649E-02 -0.72759295653E-02  0.23346495001E-01  0.25768798915E-01  0.51100000000E-03 0. -1.
</event>
<event>
 8    1  0.1116619E+005  0.1043930E+01  0.7957747E-01            NaN
         13   -1    0    0    0    0  0.00000000000E+00  0.00000000000E+00  0.74505805969E-08  0.10566000000E+00  0.10566000000E+00 0.  1.
     999900   -1    0    0    0    0 -0.00000000000E+00 -0.00000000000E+00 -0.74505805969E-08  0.93827000000E+00  0.93827000000E+00 0.  1.
     999902    2    1    2    0    0  0.19555246491E-01 -0.77957783305E-03 -0.12134473197E-01  0.10209026066E+01  0.10206428716E+01 0.  0.
     999903    2    3    3    0    0 -0.57476456019E-01 -0.10405269373E+00  0.47374325481E-01  0.12953258423E+00  0.20096208465E-01 0.  0.
         14    1    1    2    0    0 -0.19555246491E-01  0.77957783305E-03  0.12134473197E-01  0.23027393398E-01  0.00000000000E+00 0.  1.
     999901    1    3    3    0    0  0.77031702510E-01  0.10327311590E+00 -0.59508798678E-01  0.89137002237E+00  0.88000000000E+00 0.  1.
        -11    1    4    4    0    0 -0.53894077610E-02 -0.16007379343E-01  0.24859596595E-03  0.16899847052E-01  0.51100000000E-03 0.  1.
         11    1    4    4    0    0 -0.52087048258E-01 -0.88045314386E-01  0.47125729515E-01  0.11263273718E+00  0.51100000000E-03 0. -1.
</event>
<event>
 8    1  0.1116619E+005  0.1043930E+01  0.7957747E-01            NaN
         13   -1    0    0    0    0  0.00000000000E+00  0.00000000000E+00  0.74505805969E-08  0.10566000000E+00  0.10566000000E+00 0.  1.
     999900   -1    0    0    0    0 -0.00000000000E+00 -0.00000000000E+00 -0.74505805969E-08  0.93827000000E+00  0.93827000000E+00 0.  1.
     999902    2    1    2    0    0  0.72234836533E-02 -0.17081743923E-01 -0.14854879073E-01  0.10201680109E+01  0.10198912385E+01 0.  0.
     999903    2    3    3    0    0 -0.11832469874E+00 -0.35839597523E-01 -0.37929750366E-01  0.13075997587E+00  0.19346685619E-01 0.  0.
         14    1    1    2    0    0 -0.72234836533E-02  0.17081743923E-01  0.14854879073E-01  0.23761989054E-01  0.00000000000E+00 0.  1.
     999901    1    3    3    0    0  0.12554818239E+00  0.18757853599E-01  0.23074871293E-01  0.88940803508E+00  0.88000000000E+00 0. -1.
        -11    1    4    4    0    0 -0.76398348659E-01 -0.31849429427E-01 -0.21237619238E-01  0.85454031061E-01  0.51100000000E-03 0. -1.
         11    1    4    4    0    0 -0.41926350080E-01 -0.39901680955E-02 -0.16692131127E-01  0.45305944808E-01  0.51100000000E-03 0.  1.
</event>
<event>
 8    1  0.1116619E+005  0.1043930E+01  0.7957747E-01            NaN
         13   -1    0    0    0    0  0.00000000000E+00  0.00000000000E+00  0.74505805969E-08  0.10566000000E+00  0.10566000000E+00 0. -1.
     999900   -1    0    0    0    0 -0.00000000000E+00 -0.00000000000E+00 -0.74505805969E-08  0.93827000000E+00  0.93827000000E+00 0. -1.
     999902    2    1    2    0    0 -0.12954193446E-01 -0.19742393663E-01  0.26423693216E-02  0.10201696265E+01  0.10198928921E+01 0.  0.
     999903    2    3    3    0    0 -0.10710389870E+00 -0.66959528164E-01 -0.36307729429E-01  0.13303337143E+00  0.20610753688E-01 0.  0.
         14    1    1    2    0    0  0.12954193446E-01  0.19742393663E-01 -0.26423693216E-02  0.23760373545E-01  0.00000000000E+00 0.  1.
     999901    1    3    3    0    0  0.94149705259E-01  0.47217134501E-01  0.38950098750E-01  0.88713625503E+00  0.88000000000E+00 0.  1.
        -11    1    4    4    0    0 -0.82467655454E-01 -0.42190857132E-01 -0.31057564381E-01  0.97702692122E-01  0.51100000000E-03 0. -1.
         11    1    4    4    0    0 -0.24636243250E-01 -0.24768671032E-01 -0.52501650478E-02  0.35330679306E-01  0.51100000000E-03 0.  1.
</event>
<event>
 8    1  0.1116619E+005  0.1043930E+01  0.7957747E-01            NaN
         13   -1    0    0    0    0  0.00000000000E+00  0.00000000000E+00  0.74505805969E-08  0.10566000000E+00  0.10566000000E+00 0.  1.
     999900   -1    0    0    0    0 -0.00000000000E+00 -0.00000000000E+00 -0.74505805969E-08  0.93827000000E+00  0.93827000000E+00 0.  1.
     999902    2    1    2    0    0 -0.46339453780E-02  0.17084337192E-01  0.14416665880E-01  0.10211004516E+01  0.10208452105E+01 0.  0.
     999903    2    3    3    0    0 -0.12083496436E+00 -0.47234543800E-01 -0.17297133512E-02  0.13098793011E+00  0.17962605219E-01 0.  0.
         14    1    1    2    0    0  0.46339453780E-02 -0.17084337192E-01 -0.14416665880E-01  0.22829548444E-01  0.00000000000E+00 0. -1.
     999901    1    3    3    0    0  0.11620101899E+00  0.64318880992E-01  0.16146379231E-01  0.89011252144E+00  0.88000000000E+00 0.  1.
        -11    1    4    4    0    0 -0.78646059178E-01 -0.37600290562E-01  0.43652028418E-02  0.87282876851E-01  0.51100000000E-03 0.  1.
         11    1    4    4    0    0 -0.42188905187E-01 -0.96342532382E-02 -0.60949161930E-02  0.43705053263E-01  0.51100000000E-03 0. -1.
</event>
<event>
 8    1  0.1116619E+005  0.1043930E+01  0.7957747E-01            NaN
         13   -1    0    0    0    0  0.00000000000E+00  0.00000000000E+00  0.74505805969E-08  0.10566000000E+00  0.10566000000E+00 0. -1.
     999900   -1    0    0    0    0 -0.00000000000E+00 -0.00000000000E+00 -0.74505805969E-08  0.93827000000E+00  0.93827000000E+00 0. -1.
     999902    2    1    2    0    0 -0.61601907452E-02  0.19884099976E-01  0.10695546737E-01  0.10205265793E+01  0.10202581923E+01 0.  0.
     999903    2    3    3    0    0 -0.12406382105E+00  0.94915024647E-02  0.39282902921E-01  0.13214236675E+00  0.20893499348E-01 0.  0.
         14    1    1    2    0    0  0.61601907452E-02 -0.19884099976E-01 -0.10695546737E-01  0.23403420730E-01  0.00000000000E+00 0. -1.
     999901    1    3    3    0    0  0.11790363031E+00  0.10392597511E-01 -0.28587356184E-01  0.88838421252E+00  0.88000000000E+00 0.  1.
        -11    1    4    4    0    0 -0.53814438367E-01  0.11352489539E-01  0.25062177556E-01  0.60442093448E-01  0.51100000000E-03 0. -1.
         11    1    4    4    0    0 -0.70249382686E-01 -0.18609870747E-02  0.14220725365E-01  0.71700273302E-01  0.51100000000E-03 0.  1.
</event>
<event>
 8    1  0.1116619E+005  0.1043930E+01  0.7957747E-01            NaN
         13   -1    0    0    0    0  0.00000000000E+00  0.00000000000E+00  0.74505805969E-08  0.10566000000E+00  0.10566000000E+00 0. -1.
     999900   -1    0    0    0    0 -0.00000000000E+00 -0.00000000000E+00 -0.74505805969E-08  0.93827000000E+00  0.93827000000E+00 0. -1.
     999902    2    1    2    0    0  0.14933445057E-01  0.18065724125E-01 -0.30639471793E-02  0.10202917695E+01  0.10200179062E+01 0.  0.
     999903    2    3    3    0    0 -0.73296737253E-02 -0.61152062157E-01  0.11162917501E+00  0.12904230026E+00  0.19938498457E-01 0.  0.
         14    1    1    2    0    0 -0.14933445057E-01 -0.18065724125E-01  0.30639471793E-02  0.23638230512E-01  0.00000000000E+00 0.  1.
     999901    1    3    3    0    0  0.22263118782E-01  0.79217786282E-01 -0.11469312219E+00  0.89124946923E+00  0.88000000000E+00 0. -1.
        -11    1    4    4    0    0 -0.10543478002E-01 -0.49075917279E-01  0.74253302858E-01  0.89629374044E-01  0.51100000000E-03 0. -1.
         11    1    4    4    0    0  0.32138042768E-02 -0.12076144878E-01  0.37375872149E-01  0.39412926216E-01  0.51100000000E-03 0.  1.
</event>
<event>
 8    1  0.1116619E+005  0.1043930E+01  0.7957747E-01            NaN
         13   -1    0    0    0    0  0.00000000000E+00  0.00000000000E+00  0.74505805969E-08  0.10566000000E+00  0.10566000000E+00 0. -1.
     999900   -1    0    0    0    0 -0.00000000000E+00 -0.00000000000E+00 -0.74505805969E-08  0.93827000000E+00  0.93827000000E+00 0. -1.
     999902    2    1    2    0    0 -0.24919294559E-02 -0.97842442788E-02  0.21096918947E-01  0.10205415170E+01  0.10202734765E+01 0.  0.
     999903    2    3    3    0    0  0.94413758930E-02  0.18137254004E-01 -0.12536465330E+00  0.12792009332E+00  0.15137847171E-01 0.  0.
         14    1    1    2    0    0  0.24919294559E-02  0.97842442788E-02 -0.21096918947E-01  0.23388483011E-01  0.00000000000E+00 0.  1.
     999901    1    3    3    0    0 -0.11933305349E-01 -0.27921498283E-01  0.14646157225E+00  0.89262142367E+00  0.88000000000E+00 0.  1.
        -11    1    4    4    0    0 -0.29881643650E-02  0.10238650782E-01 -0.55625537085E-01  0.56641156354E-01  0.51100000000E-03 0.  1.
         11    1    4    4    0    0  0.12429540258E-01  0.78986032225E-02 -0.69739116215E-01  0.71278936968E-01  0.51100000000E-03 0. -1.
</event>
<event>
 8    1  0.1116619E+005  0.1043930E+01  0.7957747E-01            NaN
         13   -1    0    0    0    0  0.00000000000E+00  0.00000000000E+00  0.74505805969E-08  0.10566000000E+00  0.10566000000E+00 0. -1.
     999900   -1    0    0    0    0 -0.00000000000E+00 -0.00000000000E+00 -0.74505805969E-08  0.93827000000E+00  0.93827000000E+00 0. -1.
     999902    2    1    2    0    0 -0.18186153142E-02 -0.17660393477E-01 -0.16059871531E-01  0.10199901518E+01  0.10197091710E+01 0.  0.
     999903    2    3    3    0    0  0.27963628372E-01  0.11822253314E+00 -0.38045348753E-01  0.12879179395E+00  0.19528076532E-01 0.  0.
         14    1    1    2    0    0  0.18186153142E-02  0.17660393477E-01  0.16059871531E-01  0.23939848225E-01  0.00000000000E+00 0. -1.
     999901    1    3    3    0    0 -0.29782243687E-01 -0.13588292662E+00  0.21985477222E-01  0.89119835783E+00  0.88000000000E+00 0. -1.
        -11    1    4    4    0    0  0.24054473602E-01  0.75248731536E-01 -0.17135553164E-01  0.80838589803E-01  0.51100000000E-03 0.  1.
         11    1    4    4    0    0  0.39091547706E-02  0.42973801603E-01 -0.20909795589E-01  0.47953204146E-01  0.51100000000E-03 0. -1.
</event>
<event>
 8    1  0.1116619E+005  0.1043930E+01  0.7957747E-01            NaN
         13   -1    0    0    0    0  0.00000000000E+00  0.00000000000E+00  0.74505805969E-08  0.10566000000E+00  0.10566000000E+00 0. -1.
     999900   -1    0    0    0    0 -0.00000000000E+00 -0.00000000000E+00 -0.74505805969E-08  0.93827000000E+00  0.93827000000E+00 0.  1.
     999902    2    1    2    0    0 -0.13420208384E-02 -0.36061993766E-02 -0.23537313491E-01  0.10200802449E+01  0.10198013998E+01 0.  0.
     999903    2    3    3    0    0 -0.11809146456E+00  0.48867666664E-01 -0.19137364968E-01  0.13080902708E+00  0.20276093813E-01 0.  0.
         14    1    1    2    0    0  0.13420208384E-02  0.36061993766E-02  0.23537313491E-01  0.23849755140E-01  0.00000000000E+00 0. -1.
     999901    1    3    3    0    0  0.11674944372E+00 -0.52473866041E-01 -0.43999485225E-02  0.88927121778E+00  0.88000000000E+00 0. -1.
        -11    1    4    4    0    0 -0.69602778853E-01  0.24061068536E-01 -0.20073748867E-01  0.76332813113E-01  0.51100000000E-03 0. -1.
         11    1    4    4    0    0 -0.48488685707E-01  0.24806598128E-01  0.93638389885E-03  0.54476213966E-01  0.51100000000E-03 0.  1.
</event>
<event>
 8    1  0.1116619E+005  0.1043930E+01  0.7957747E-01            NaN
         13   -1    0    0    0    0  0.00000000000E+00  0.00000000000E+00  0.74505805969E-08  0.10566000000E+00  0.10566000000E+00 0. -1.
     999900   -1    0    0    0    0 -0.00000000000E+00 -0.00000000000E+00 -0.74505805969E-08  0.93827000000E+00  0.93827000000E+00 0.  1.
     999902    2    1    2    0    0 -0.13228848611E-01  0.18199023185E-01  0.88084862637E-02  0.10197681228E+01  0.10194818429E+01 0.  0.
     999903    2    3    3    0    0  0.10836165502E+00  0.10297066459E-01  0.67284185979E-01  0.12945014647E+00  0.19542284408E-01 0.  0.
         14    1    1    2    0    0  0.13228848611E-01 -0.18199023185E-01 -0.88084862637E-02  0.24161877218E-01  0.00000000000E+00 0.  1.
     999901    1    3    3    0    0 -0.12159050364E+00  0.79019567257E-02 -0.58475699715E-01  0.89031797632E+00  0.88000000000E+00 0.  1.
        -11    1    4    4    0    0  0.84923281940E-01  0.96390603671E-02  0.61492951913E-01  0.10529254274E+00  0.51100000000E-03 0. -1.
         11    1    4    4    0    0  0.23438373085E-01  0.65800609226E-03  0.57912340654E-02  0.24157603728E-01  0.51100000000E-03 0.  1.
</event>
<event>
 8    1  0.1116619E+005  0.1043930E+01  0.7957747E-01            NaN
         13   -1    0    0    0    0  0.00000000000E+00  0.00000000000E+00  0.74505805969E-08  0.10566000000E+00  0.10566000000E+00 0. -1.
     999900   -1    0    0    0    0 -0.00000000000E+00 -0.00000000000E+00 -0.74505805969E-08  0.93827000000E+00  0.93827000000E+00 0.  1.
     999902    2    1    2    0    0 -0.68618254629E-02  0.21086812962E-01  0.93790403893E-02  0.10198529419E+01  0.10195686923E+01 0.  0.
     999903    2    3    3    0    0 -0.43618096154E-01 -0.62489971062E-02 -0.11976616928E+00  0.12924822870E+00  0.20483677374E-01 0.  0.
         14    1    1    2    0    0  0.68618254629E-02 -0.21086812962E-01 -0.93790403893E-02  0.24077058130E-01  0.00000000000E+00 0.  1.
     999901    1    3    3    0    0  0.36756270691E-01  0.27335810068E-01  0.12914520967E+00  0.89060471317E+00  0.88000000000E+00 0. -1.
        -11    1    4    4    0    0 -0.12871347645E-01 -0.10725170072E-01 -0.53361400286E-01  0.55932110856E-01  0.51100000000E-03 0. -1.
         11    1    4    4    0    0 -0.30746748509E-01  0.44761729662E-02 -0.66404768998E-01  0.73316117839E-01  0.51100000000E-03 0.  1.
</event>
<event>
 8    1  0.1116619E+005  0.1043930E+01  0.7957747E-01            NaN
         13   -1    0    0    0    0  0.00000000000E+00  0.00000000000E+00  0.74505805969E-08  0.10566000000E+00  0.10566000000E+00 0. -1.
     999900   -1    0    0    0    0 -0.00000000000E+00 -0.00000000000E+00 -0.74505805969E-08  0.93827000000E+00  0.93827000000E+00 0. -1.
     999902    2    1    2    0    0 -0.76580477950E-02  0.15337358154E-02  0.22752595944E-01  0.10198742592E+01  0.10195905188E+01 0.  0.
     999903    2    3    3    0    0 -0.95944282714E-01 -0.57228571736E-01  0.65613801404E-01  0.13247099634E+00  0.27622076822E-01 0.  0.
         14    1    1    2    0    0  0.76580477950E-02 -0.15337358154E-02 -0.22752595944E-01  0.24055740765E-01  0.00000000000E+00 0.  1.
     999901    1    3    3    0    0  0.88286234919E-01  0.58762307552E-01 -0.42861205460E-01  0.88740326290E+00  0.88000000000E+00 0. -1.
        -11    1    4    4    0    0 -0.66334655985E-01 -0.24177565745E-01  0.37627257552E-01  0.80005705434E-01  0.51100000000E-03 0. -1.
         11    1    4    4    0    0 -0.29609626729E-01 -0.33051005991E-01  0.27986543851E-01  0.52465290905E-01  0.51100000000E-03 0.  1.
</event>
<event>
 8    1  0.1116619E+005  0.1043930E+01  0.7957747E-01            NaN
         13   -1    0    0    0    0  0.00000000000E+00  0.00000000000E+00  0.74505805969E-08  0.10566000000E+00  0.10566000000E+00 0.  1.
     999900   -1    0    0    0    0 -0.00000000000E+00 -0.00000000000E+00 -0.74505805969E-08  0.93827000000E+00  0.93827000000E+00 0.  1.
     999902    2    1    2    0    0 -0.54381095307E-02 -0.17083979295E-01  0.14779184666E-01  0.10206951193E+01  0.10204306281E+01 0.  0.
     999903    2    3    3    0    0 -0.18358108744E-01  0.12103175728E+00 -0.34002826922E-01  0.12849415102E+00  0.19205420567E-01 0.  0.
         14    1    1    2    0    0  0.54381095307E-02  0.17083979295E-01 -0.14779184666E-01  0.23234880745E-01  0.00000000000E+00 0. -1.
     999901    1    3    3    0    0  0.12919999213E-01 -0.13811573658E+00  0.48782011588E-01  0.89220096824E+00  0.88000000000E+00 0.  1.
        -11    1    4    4    0    0 -0.18376834990E-01  0.62304868184E-01 -0.21710310539E-01  0.68492359927E-01  0.51100000000E-03 0.  1.
         11    1    4    4    0    0  0.18726246677E-04  0.58726889100E-01 -0.12292516383E-01  0.60001791090E-01  0.51100000000E-03 0. -1.
</event>
<event>
 8    1  0.1116619E+005  0.1043930E+01  0.7957747E-01            NaN
         13   -1    0    0    0    0  0.00000000000E+00  0.00000000000E+00  0.74505805969E-08  0.10566000000E+00  0.10566000000E+00 0. -1.
     999900   -1    0    0    0    0 -0.00000000000E+00 -0.00000000000E+00 -0.74505805969E-08  0.93827000000E+00  0.93827000000E+00 0. -1.
     999902    2    1    2    0    0 -0.88836739187E-02 -0.18325461858E-01 -0.12532793999E-01  0.10200173853E+01  0.10197370510E+01 0.  0.
     999903    2    3    3    0    0  0.90097811326E-01  0.85084762303E-01 -0.26048722143E-01  0.12834833844E+00  0.20921942375E-01 0.  0.
         14    1    1    2    0    0  0.88836739187E-02  0.18325461858E-01  0.12532793999E-01  0.23912614663E-01  0.00000000000E+00 0. -1.
     999901    1    3    3    0    0 -0.98981485245E-01 -0.10341022416E+00  0.13515928144E-01  0.89166904690E+00  0.88000000000E+00 0. -1.
        -11    1    4    4    0    0  0.52210023998E-01  0.62885892117E-01 -0.15696955533E-01  0.83229667591E-01  0.51100000000E-03 0. -1.
         11    1    4    4    0    0  0.37887787328E-01  0.22198870186E-01 -0.10351766610E-01  0.45118670848E-01  0.51100000000E-03 0.  1.
</event>
<event>
 8    1  0.1116619E+005  0.1043930E+01  0.7957747E-01            NaN
         13   -1    0    0    0    0  0.00000000000E+00  0.00000000000E+00  0.74505805969E-08  0.10566000000E+00  0.10566000000E+00 0. -1.
     999900   -1    0    0    0    0 -0.00000000000E+00 -0.00000000000E+00 -0.74505805969E-08  0.93827000000E+00  0.93827000000E+00 0.  1.
     999902    2    1    2    0    0 -0.24995808487E-01  0.44049854188E-03  0.15215084876E-02  0.10188840528E+01  0.10185761698E+01 0.  0.
     999903    2    3    3    0    0 -0.85037394789E-01  0.89557523650E-01 -0.40761449902E-01  0.13133986531E+00  0.18350909169E-01 0.  0.
         14    1    1    2    0    0  0.24995808487E-01 -0.44049854188E-03 -0.15215084876E-02  0.25045947157E-01  0.00000000000E+00 0. -1.
     999901    1    3    3    0    0  0.60041586302E-01 -0.89117025108E-01  0.42282958389E-01  0.88754418753E+00  0.88000000000E+00 0. -1.
        -11    1    4    4    0    0 -0.48736224274E-01  0.42191912324E-01 -0.28154170722E-01  0.70344121802E-01  0.51100000000E-03 0. -1.
         11    1    4    4    0    0 -0.36301170515E-01  0.47365611326E-01 -0.12607279179E-01  0.60995743510E-01  0.51100000000E-03 0.  1.
</event>
<event>
 8    1  0.1116619E+005  0.1043930E+01  0.7957747E-01            NaN
         13   -1    0    0    0    0  0.00000000000E+00  0.00000000000E+00  0.74505805969E-08  0.10566000000E+00  0.10566000000E+00 0.  1.
     999900   -1    0    0    0    0 -0.00000000000E+00 -0.00000000000E+00 -0.74505805969E-08  0.93827000000E+00  0.93827000000E+00 0.  1.
     999902    2    1    2    0    0 -0.11243639610E-03  0.11308253345E-01 -0.20692943214E-01  0.10203485002E+01  0.10200759651E+01 0.  0.
     999903    2    3    3    0    0  0.40076938724E-01 -0.11998817969E+00 -0.17632619474E-01  0.12969519793E+00  0.22508016673E-01 0.  0.
         14    1    1    2    0    0  0.11243639610E-03 -0.11308253345E-01  0.20692943214E-01  0.23581499836E-01  0.00000000000E+00 0.  1.
     999901    1    3    3    0    0 -0.40189375120E-01  0.13129643303E+00 -0.30603237399E-02  0.89065330223E+00  0.88000000000E+00 0.  1.
        -11    1    4    4    0    0  0.50238258930E-02 -0.45290864325E-01 -0.13631553732E-02  0.45591891071E-01  0.51100000000E-03 0.  1.
         11    1    4    4    0    0  0.35053112831E-01 -0.74697315361E-01 -0.16269464101E-01  0.84103306858E-01  0.51100000000E-03 0. -1.
</event>
<event>
 8    1  0.1116619E+005  0.1043930E+01  0.7957747E-01            NaN
         13   -1    0    0    0    0  0.00000000000E+00  0.00000000000E+00  0.74505805969E-08  0.10566000000E+00  0.10566000000E+00 0. -1.
     999900   -1    0    0    0    0 -0.00000000000E+00 -0.00000000000E+00 -0.74505805969E-08  0.93827000000E+00  0.93827000000E+00 0. -1.
     999902    2    1    2    0    0  0.15917252261E-01  0.28963475260E-03 -0.16890196925E-01  0.10207196239E+01  0.10204556967E+01 0.  0.
     999903    2    3    3    0    0  0.10788498934E+00 -0.71019223510E-01  0.21348847143E-01  0.13223482241E+00  0.18637970727E-01 0.  0.
         14    1    1    2    0    0 -0.15917252261E-01 -0.28963475260E-03  0.16890196925E-01  0.23210376128E-01  0.00000000000E+00 0. -1.
     999901    1    3    3    0    0 -0.91967737075E-01  0.71308858263E-01 -0.38239044068E-01  0.88848480146E+00  0.88000000000E+00 0. -1.
        -11    1    4    4    0    0  0.41316739066E-01 -0.17962620994E-01  0.30163992152E-02  0.45156267176E-01  0.51100000000E-03 0. -1.
         11    1    4    4    0    0  0.66568250270E-01 -0.53056602516E-01  0.18332447927E-01  0.87078555239E-01  0.51100000000E-03 0.  1.
</event>
<event>
 8    1  0.1116619E+005  0.1043930E+01  0.7957747E-01            NaN
         13   -1    0    0    0    0  0.00000000000E+00  0.00000000000E+00  0.74505805969E-08  0.10566000000E+00  0.10566000000E+00 0. -1.
     999900   -1    0    0    0    0 -0.00000000000E+00 -0.00000000000E+00 -0.74505805969E-08  0.93827000000E+00  0.93827000000E+00 0. -1.
     999902    2    1    2    0    0 -0.74400982002E-02 -0.87450713421E-02  0.20841797711E-01  0.10201347932E+01  0.10198572373E+01 0.  0.
     999903    2    3    3    0    0 -0.90639739048E-01  0.78157364319E-01  0.50019211471E-01  0.13146976350E+00  0.21406571606E-01 0.  0.
         14    1    1    2    0    0  0.74400982002E-02  0.87450713421E-02 -0.20841797711E-01  0.23795206782E-01  0.00000000000E+00 0.  1.
     999901    1    3    3    0    0  0.83199640848E-01 -0.86902435661E-01 -0.29177413760E-01  0.88866502971E+00  0.88000000000E+00 0. -1.
        -11    1    4    4    0    0 -0.55161654150E-01  0.40772045094E-01  0.38478026707E-01  0.78651048372E-01  0.51100000000E-03 0. -1.
         11    1    4    4    0    0 -0.35478084898E-01  0.37385319225E-01  0.11541184764E-01  0.52818715133E-01  0.51100000000E-03 0.  1.
</event>
<event>
 8    1  0.1116619E+005  0.1043930E+01  0.7957747E-01            NaN
         13   -1    0    0    0    0  0.00000000000E+00  0.00000000000E+00  0.74505805969E-08  0.10566000000E+00  0.10566000000E+00 0. -1.
     999900   -1    0    0    0    0 -0.00000000000E+00 -0.00000000000E+00 -0.74505805969E-08  0.93827000000E+00  0.93827000000E+00 0.  1.
     999902    2    1    2    0    0 -0.50417927471E-02  0.20210703496E-01  0.11610017437E-01  0.10200828888E+01  0.10198041063E+01 0.  0.
     999903    2    3    3    0    0  0.34248611993E-01 -0.17449066010E-01  0.12386239483E+00  0.13128449183E+00  0.20403127539E-01 0.  0.
         14    1    1    2    0    0  0.50417927471E-02 -0.20210703496E-01 -0.11610017437E-01  0.23847111246E-01  0.00000000000E+00 0. -1.
     999901    1    3    3    0    0 -0.39290404741E-01  0.37659769506E-01 -0.11225237740E+00  0.88879839692E+00  0.88000000000E+00 0.  1.
        -11    1    4    4    0    0 -0.39483409596E-03 -0.73491991423E-02  0.23484429710E-01  0.24615974118E-01  0.51100000000E-03 0.  1.
         11    1    4    4    0    0  0.34643446089E-01 -0.10099866868E-01  0.10037796512E+00  0.10666851771E+00  0.51100000000E-03 0. -1.
</event>
<event>
 8    1  0.1116619E+005  0.1043930E+01  0.7957747E-01            NaN
         13   -1    0    0    0    0  0.00000000000E+00  0.00000000000E+00  0.74505805969E-08  0.10566000000E+00  0.10566000000E+00 0.  1.
     999900   -1    0    0    0    0 -0.00000000000E+00 -0.00000000000E+00 -0.74505805969E-08  0.93827000000E+00  0.93827000000E+00 0. -1.
     999902    2    1    2    0    0 -0.14649244449E-01 -0.38020852789E-02  0.19381973950E-01  0.10193390031E+01  0.10190423377E+01 0.  0.
     999903    2    3    3    0    0 -0.24723517056E-01 -0.12510529003E+00 -0.20026248399E-01  0.13008708914E+00  0.16093919557E-01 0.  0.
         14    1    1    2    0    0  0.14649244449E-01  0.38020852789E-02 -0.19381973950E-01  0.24590996921E-01  0.00000000000E+00 0. -1.
     999901    1    3    3    0    0  0.10074272608E-01  0.12130320475E+00  0.39408222349E-01  0.88925191394E+00  0.88000000000E+00 0.  1.
        -11    1    4    4    0    0 -0.16919856435E-01 -0.11005983440E+00 -0.14737960191E-01  0.11232505188E+00  0.51100000000E-03 0. -1.
         11    1    4    4    0    0 -0.78036606208E-02 -0.15045455637E-01 -0.52882882076E-02  0.17762037258E-01  0.51100000000E-03 0.  1.
</event>
<event>
 8    1  0.1116619E+005  0.1043930E+01  0.7957747E-01            NaN
         13   -1    0    0    0    0  0.00000000000E+00  0.00000000000E+00  0.74505805969E-08  0.10566000000E+00  0.10566000000E+00 0. -1.
     999900   -1    0    0    0    0 -0.00000000000E+00 -0.00000000000E+00 -0.74505805969E-08  0.93827000000E+00  0.93827000000E+00 0. -1.
     999902    2    1    2    0    0 -0.26719976232E-02  0.19301099930E-02 -0.23249104260E-01  0.10204483956E+01  0.10201781915E+01 0.  0.
     999903    2    3    3    0    0  0.62307641732E-01 -0.61637941841E-01 -0.97552338166E-01  0.13265099681E+00  0.19958711893E-01 0.  0.
         14    1    1    2    0    0  0.26719976232E-02 -0.19301099930E-02  0.23249104260E-01  0.23481604391E-01  0.00000000000E+00 0. -1.
     999901    1    3    3    0    0 -0.64979639356E-01  0.63568051834E-01  0.74303233906E-01  0.88779739880E+00  0.88000000000E+00 0.  1.
        -11    1    4    4    0    0  0.15921898771E-01 -0.16019379376E-01 -0.39258017065E-01  0.45294374937E-01  0.51100000000E-03 0.  1.
         11    1    4    4    0    0  0.46385742962E-01 -0.45618562465E-01 -0.58294321101E-01  0.87356621874E-01  0.51100000000E-03 0. -1.
</event>
<event>
 8    1  0.1116619E+005  0.1043930E+01  0.7957747E-01            NaN
         13   -1    0    0    0    0  0.00000000000E+00  0.00000000000E+00  0.74505805969E-08  0.10566000000E+00  0.10566000000E+00 0. -1.
     999900   -1    0    0    0    0 -0.00000000000E+00 -0.00000000000E+00 -0.74505805969E-08  0.93827000000E+00  0.93827000000E+00 0. -1.
     999902    2    1    2    0    0 -0.81576647706E-02  0.12630318554E-01 -0.19068428794E-01  0.10196467256E+01  0.10193575268E+01 0.  0.
     999903    2    3    3    0    0 -0.15670408416E-02 -0.12686806228E+00 -0.44622779560E-02  0.12851453882E+00  0.19952792276E-01 0.  0.
         14    1    1    2    0    0  0.81576647706E-02 -0.12630318554E-01  0.19068428794E-01  0.24283274449E-01  0.00000000000E+00 0. -1.
     999901    1    3    3    0    0 -0.65906239289E-02  0.13949838084E+00 -0.14606150838E-01  0.89113218673E+00  0.88000000000E+00 0. -1.
        -11    1    4    4    0    0 -0.28206880857E-02 -0.10994363377E+00  0.28747570867E-02  0.11001856315E+00  0.51100000000E-03 0.  1.
         11    1    4    4    0    0  0.12536472440E-02 -0.16924428510E-01 -0.73370350427E-02  0.18495975671E-01  0.51100000000E-03 0. -1.
</event>
<event>
 8    1  0.1116619E+005  0.1043930E+01  0.7957747E-01            NaN
         13   -1    0    0    0    0  0.00000000000E+00  0.00000000000E+00  0.74505805969E-08  0.10566000000E+00  0.10566000000E+00 0.  1.
     999900   -1    0    0    0    0 -0.00000000000E+00 -0.00000000000E+00 -0.74505805969E-08  0.93827000000E+00  0.93827000000E+00 0. -1.
     999902    2    1    2    0    0  0.14847494163E-01  0.85593441123E-02  0.16823867714E-01  0.10199143181E+01  0.10196315330E+01 0.  0.
     999903    2    3    3    0    0  0.11411539539E+00  0.63496327303E-01  0.11719987882E-01  0.13261603792E+00  0.19888397415E-01 0.  0.
         14    1    1    2    0    0 -0.14847494163E-01 -0.85593441123E-02 -0.16823867714E-01  0.24015681948E-01  0.00000000000E+00 0. -1.
     999901    1    3    3    0    0 -0.99267901227E-01 -0.54936983190E-01  0.51038798318E-02  0.88729828013E+00  0.88000000000E+00 0.  1.
        -11    1    4    4    0    0  0.68466145381E-01  0.43641372367E-01  0.15612283066E-01  0.82681236982E-01  0.51100000000E-03 0.  1.
         11    1    4    4    0    0  0.45649250010E-01  0.19854954936E-01 -0.38922951845E-02  0.49934800938E-01  0.51100000000E-03 0. -1.
</event>
<event>
 8    1  0.1116619E+005  0.1043930E+01  0.7957747E-01            NaN
         13   -1    0    0    0    0  0.00000000000E+00  0.00000000000E+00  0.74505805969E-08  0.10566000000E+00  0.10566000000E+00 0. -1.
     999900   -1    0    0    0    0 -0.00000000000E+00 -0.00000000000E+00 -0.74505805969E-08  0.93827000000E+00  0.93827000000E+00 0.  1.
     999902    2    1    2    0    0  0.12067402839E-01 -0.15874972755E-01 -0.12742375440E-01  0.10202655730E+01  0.10199910953E+01 0.  0.
     999903    2    3    3    0    0  0.25236127691E-01  0.94253228418E-01  0.80550212467E-01  0.12841068408E+00  0.21918801292E-01 0.  0.
         14    1    1    2    0    0 -0.12067402839E-01  0.15874972755E-01  0.12742375440E-01  0.23664426955E-01  0.00000000000E+00 0. -1.
     999901    1    3    3    0    0 -0.13168724852E-01 -0.11012820117E+00 -0.93292587907E-01  0.89185488896E+00  0.88000000000E+00 0.  1.
        -11    1    4    4    0    0 -0.35889342197E-03  0.40074610184E-01  0.31796316453E-01  0.51160238925E-01  0.51100000000E-03 0. -1.
         11    1    4    4    0    0  0.25595021113E-01  0.54178618233E-01  0.48753896014E-01  0.77250445157E-01  0.51100000000E-03 0.  1.
</event>
<event>
 8    1  0.1116619E+005  0.1043930E+01  0.7957747E-01            NaN
         13   -1    0    0    0    0  0.00000000000E+00  0.00000000000E+00  0.74505805969E-08  0.10566000000E+00  0.10566000000E+00 0.  1.
     999900   -1    0    0    0    0 -0.00000000000E+00 -0.00000000000E+00 -0.74505805969E-08  0.93827000000E+00  0.93827000000E+00 0. -1.
     999902    2    1    2    0    0  0.29629609833E-02  0.13077221600E-01  0.19523111980E-01  0.10202457275E+01  0.10199707838E+01 0.  0.
     999903    2    3    3    0    0 -0.12144801061E+00 -0.12446929263E-01  0.42523352425E-01  0.13083098555E+00  0.20098904215E-01 0.  0.
         14    1    1    2    0    0 -0.29629609833E-02 -0.13077221600E-01 -0.19523111980E-01  0.23684272502E-01  0.00000000000E+00 0. -1.
     999901    1    3    3    0    0  0.12441097159E+00  0.25524150863E-01 -0.23000240445E-01  0.88941474195E+00  0.88000000000E+00 0. -1.
        -11    1    4    4    0    0 -0.90236304373E-01 -0.42113439559E-02  0.23435805464E-01  0.93326438610E-01  0.51100000000E-03 0. -1.
         11    1    4    4    0    0 -0.31211706234E-01 -0.82355853072E-02  0.19087546961E-01  0.37504546943E-01  0.51100000000E-03 0.  1.
</event>
<event>
 8    1  0.1116619E+005  0.1043930E+01  0.7957747E-01            NaN
         13   -1    0    0    0    0  0.00000000000E+00  0.00000000000E+00  0.74505805969E-08  0.10566000000E+00  0.10566000000E+00 0.  1.
     999900   -1    0    0    0    0 -0.00000000000E+00 -0.00000000000E+00 -0.74505805969E-08  0.93827000000E+00  0.93827000000E+00 0.  1.
     999902    2    1    2    0    0 -0.16014760885E-01 -0.17420056000E-01 -0.18632308801E-02  0.10201938978E+01  0.10199177352E+01 0.  0.
     999903    2    3    3    0    0  0.21332922256E-01 -0.51115850578E-01  0.11678291030E+00  0.13080806320E+00  0.20114112132E-01 0.  0.
         14    1    1    2    0    0  0.16014760885E-01  0.17420056000E-01  0.18632308801E-02  0.23736102177E-01  0.00000000000E+00 0.  1.
     999901    1    3    3    0    0 -0.37347683141E-01  0.33695794579E-01 -0.11864614118E+00  0.88938583462E+00  0.88000000000E+00 0.  1.
        -11    1    4    4    0    0 -0.34870209071E-02 -0.39204246470E-02  0.15041131201E-01  0.15938186629E-01  0.51100000000E-03 0.  1.
         11    1    4    4    0    0  0.24819943163E-01 -0.47195425931E-01  0.10174177910E+00  0.11486987657E+00  0.51100000000E-03 0. -1.
</event>
<event>
 8    1  0.1116619E+005  0.1043930E+01  0.7957747E-01            NaN
         13   -1    0    0    0    0  0.00000000000E+00  0.00000000000E+00  0.74505805969E-08  0.10566000000E+00  0.10566000000E+00 0. -1.
     999900   -1    0    0    0    0 -0.00000000000E+00 -0.00000000000E+00 -0.74505805969E-08  0.93827000000E+00  0.93827000000E+00 0.  1.
     999902    2    1    2    0    0  0.11038092983E-01 -0.34346338025E-02  0.20948719119E-01  0.10200033404E+01  0.10197226728E+01 0.  0.
     999903    2    3    3    0    0 -0.89930591453E-02 -0.12433870755E+00  0.38085863916E-01  0.13134551885E+00  0.16128328634E-01 0.  0.
         14    1    1    2    0    0 -0.11038092983E-01  0.34346338025E-02 -0.20948719119E-01  0.23926659583E-01  0.00000000000E+00 0.  1.
     999901    1    3    3    0    0  0.20031152129E-01  0.12090407374E+00 -0.17137144797E-01  0.88865782157E+00  0.88000000000E+00 0.  1.
        -11    1    4    4    0    0 -0.12408268722E-01 -0.60078402158E-01  0.18334705823E-01  0.64029696994E-01  0.51100000000E-03 0. -1.
         11    1    4    4    0    0  0.34152095769E-02 -0.64260305387E-01  0.19751158093E-01  0.67315821854E-01  0.51100000000E-03 0.  1.
</event>
<event>
 8    1  0.1116619E+005  0.1043930E+01  0.7957747E-01            NaN
         13   -1    0    0    0    0  0.00000000000E+00  0.00000000000E+00  0.74505805969E-08  0.10566000000E+00  0.10566000000E+00 0. -1.
     999900   -1    0    0    0    0 -0.00000000000E+00 -0.00000000000E+00 -0.74505805969E-08  0.93827000000E+00  0.93827000000E+00 0.  1.
     999902    2    1    2    0    0 -0.33862562788E-02 -0.12100751674E-01 -0.20246857401E-01  0.10201008129E+01  0.10198224543E+01 0.  0.
     999903    2    3    3    0    0  0.12784471599E+00  0.22347979043E-02  0.62220893411E-02  0.12986057500E+00  0.21812583866E-01 0.  0.
         14    1    1    2    0    0  0.33862562788E-02  0.12100751674E-01  0.20246857401E-01  0.23829187088E-01  0.00000000000E+00 0. -1.
     999901    1    3    3    0    0 -0.13123097227E+00 -0.14335549578E-01 -0.26468946742E-01  0.89024023792E+00  0.88000000000E+00 0. -1.
        -11    1    4    4    0    0  0.10091646553E+00 -0.96673303176E-03 -0.36730724753E-02  0.10098920819E+00  0.51100000000E-03 0.  1.
         11    1    4    4    0    0  0.26928250455E-01  0.32015309361E-02  0.98951618164E-02  0.28871366807E-01  0.51100000000E-03 0. -1.
</event>
<event>
 8    1  0.1116619E+005  0.1043930E+01  0.7957747E-01            NaN
         13   -1    0    0    0    0  0.00000000000E+00  0.00000000000E+00  0.74505805969E-08  0.10566000000E+00  0.10566000000E+00 0. -1.
     999900   -1    0    0    0    0 -0.00000000000E+00 -0.00000000000E+00 -0.74505805969E-08  0.93827000000E+00  0.93827000000E+00 0.  1.
     999902    2    1    2    0    0 -0.23159483816E-01  0.34318188598E-02  0.52791152623E-03  0.10205116789E+01  0.10202429461E+01 0.  0.
     999903    2    3    3    0    0  0.30290104409E-01  0.13770085529E-01 -0.12413020272E+00  0.13006045416E+00  0.20007719231E-01 0.  0.
         14    1    1    2    0    0  0.23159483816E-01 -0.34318188598E-02 -0.52791152623E-03  0.23418321073E-01  0.00000000000E+00 0. -1.
     999901    1    3    3    0    0 -0.53449588225E-01 -0.10338266669E-01  0.12465811425E+00  0.89045122477E+00  0.88000000000E+00 0.  1.
        -11    1    4    4    0    0  0.25970929101E-01  0.18562371231E-02 -0.78978819274E-01  0.83161588426E-01  0.51100000000E-03 0.  1.
         11    1    4    4    0    0  0.43191753075E-02  0.11913848406E-01 -0.45151383446E-01  0.46898865735E-01  0.51100000000E-03 0. -1.
</event>
<event>
 8    1  0.1116619E+005  0.1043930E+01  0.7957747E-01            NaN
         13   -1    0    0    0    0  0.00000000000E+00  0.00000000000E+00  0.74505805969E-08  0.10566000000E+00  0.10566000000E+00 0.  1.
     999900   -1    0    0    0    0 -0.00000000000E+00 -0.00000000000E+00 -0.74505805969E-08  0.93827000000E+00  0.93827000000E+00 0. -1.
     999902    2    1    2    0    0  0.13098095439E-01  0.54323444313E-02  0.19889034831E-01  0.10195036991E+01  0.10192110421E+01 0.  0.
     999903    2    3    3    0    0 -0.70508568409E-01  0.10520299682E+00  0.22003388258E-01  0.12992586223E+00  0.18906396361E-01 0.  0.
         14    1    1    2    0    0 -0.13098095439E-01 -0.54323444313E-02 -0.19889034831E-01  0.24426300921E-01  0.00000000000E+00 0. -1.
     999901    1    3    3    0    0  0.83606663848E-01 -0.99770652388E-01 -0.21143534274E-02  0.88957783685E+00  0.88000000000E+00 0.  1.
        -11    1    4    4    0    0 -0.18610366951E-01  0.32187341801E-01 -0.18256241241E-02  0.37228547577E-01  0.51100000000E-03 0. -1.
         11    1    4    4    0    0 -0.51898201458E-01  0.73015655019E-01  0.23829012383E-01  0.92697314656E-01  0.51100000000E-03 0.  1.
</event>
<event>
 8    1  0.1116619E+005  0.1043930E+01  0.7957747E-01            NaN
         13   -1    0    0    0    0  0.00000000000E+00  0.00000000000E+00  0.74505805969E-08  0.10566000000E+00  0.10566000000E+00 0.  1.
     999900   -1    0    0    0    0 -0.00000000000E+00 -0.00000000000E+00 -0.74505805969E-08  0.93827000000E+00  0.93827000000E+00 0.  1.
     999902    2    1    2    0    0  0.51723827107E-03  0.10662430196E-01  0.21158044491E-01  0.10202315233E+01  0.10199562458E+01 0.  0.
     999903    2    3    3    0    0  0.43220034454E-01 -0.49020903988E-01  0.11352924682E+00  0.13235874622E+00  0.18945379719E-01 0.  0.
         14    1    1    2    0    0 -0.51723827107E-03 -0.10662430196E-01 -0.21158044491E-01  0.23698476741E-01  0.00000000000E+00 0. -1.
     999901    1    3    3    0    0 -0.42702796183E-01  0.59683334184E-01 -0.92371202328E-01  0.88787277704E+00  0.88000000000E+00 0.  1.
        -11    1    4    4    0    0  0.10337064007E-01 -0.12145778455E-01  0.45959694427E-01  0.48651099262E-01  0.51100000000E-03 0. -1.
         11    1    4    4    0    0  0.32882970447E-01 -0.36875125533E-01  0.67569552392E-01  0.83707646962E-01  0.51100000000E-03 0.  1.
</event>
<event>
 8    1  0.1116619E+005  0.1043930E+01  0.7957747E-01            NaN
         13   -1    0    0    0    0  0.00000000000E+00  0.00000000000E+00  0.74505805969E-08  0.10566000000E+00  0.10566000000E+00 0.  1.
     999900   -1    0    0    0    0 -0.00000000000E+00 -0.00000000000E+00 -0.74505805969E-08  0.93827000000E+00  0.93827000000E+00 0.  1.
     999902    2    1    2    0    0 -0.90163147121E-03  0.15978688967E-01  0.12571882954E-01  0.10235784968E+01  0.10233761554E+01 0.  0.
     999903    2    3    3    0    0 -0.33295935170E-03  0.13189193015E+00 -0.22480346928E-01  0.13528526726E+00  0.20028615527E-01 0.  0.
         14    1    1    2    0    0  0.90163147121E-03 -0.15978688967E-01 -0.12571882954E-01  0.20351503174E-01  0.00000000000E+00 0. -1.
     999901    1    3    3    0    0 -0.56867211951E-03 -0.11591324118E+00  0.35052229882E-01  0.88829322956E+00  0.88000000000E+00 0. -1.
        -11    1    4    4    0    0  0.58694920302E-03  0.13095667123E+00 -0.24079879804E-01  0.13315440654E+00  0.51100000000E-03 0.  1.
         11    1    4    4    0    0 -0.91990855472E-03  0.93525892078E-03  0.15995328763E-02  0.21308607229E-02  0.51100000000E-03 0. -1.
</event>
<event>
 8    1  0.1116619E+005  0.1043930E+01  0.7957747E-01            NaN
         13   -1    0    0    0    0  0.00000000000E+00  0.00000000000E+00  0.74505805969E-08  0.10566000000E+00  0.10566000000E+00 0. -1.
     999900   -1    0    0    0    0 -0.00000000000E+00 -0.00000000000E+00 -0.74505805969E-08  0.93827000000E+00  0.93827000000E+00 0. -1.
     999902    2    1    2    0    0  0.18189073762E-01 -0.12864188506E-01 -0.91934541836E-02  0.10198291836E+01  0.10195443661E+01 0.  0.
     999903    2    3    3    0    0  0.80240739354E-01  0.10041416703E+00  0.69948035100E-02  0.13025374853E+00  0.19887949559E-01 0.  0.
         14    1    1    2    0    0 -0.18189073762E-01  0.12864188506E-01  0.91934541836E-02  0.24100816378E-01  0.00000000000E+00 0. -1.
     999901    1    3    3    0    0 -0.62051665592E-01 -0.11327835553E+00 -0.16188257694E-01  0.88957543509E+00  0.88000000000E+00 0.  1.
        -11    1    4    4    0    0  0.34781688551E-01  0.42390292221E-01 -0.68181953439E-02  0.55258045946E-01  0.51100000000E-03 0.  1.
         11    1    4    4    0    0  0.45459050803E-01  0.58023874807E-01  0.13812998854E-01  0.74995702583E-01  0.51100000000E-03 0. -1.
</event>
<event>
 8    1  0.1116619E+005  0.1043930E+01  0.7957747E-01            NaN
         13   -1    0    0    0    0  0.00000000000E+00  0.00000000000E+00  0.74505805969E-08  0.10566000000E+00  0.10566000000E+00 0.  1.
     999900   -1    0    0    0    0 -0.00000000000E+00 -0.00000000000E+00 -0.74505805969E-08  0.93827000000E+00  0.93827000000E+00 0. -1.
     999902    2    1    2    0    0 -0.53371104115E-02  0.10067182818E-01 -0.21524739512E-01  0.10195753838E+01  0.10192844627E+01 0.  0.
     999903    2    3    3    0    0 -0.87082199943E-02  0.92442407923E-01 -0.93617723675E-01  0.13278654738E+00  0.15702136859E-01 0.  0.
         14    1    1    2    0    0  0.53371104115E-02 -0.10067182818E-01  0.21524739512E-01  0.24354616164E-01  0.00000000000E+00 0.  1.
     999901    1    3    3    0    0  0.33711095828E-02 -0.82375225105E-01  0.72092984163E-01  0.88678883645E+00  0.88000000000E+00 0.  1.
        -11    1    4    4    0    0 -0.43601200386E-02  0.45123161602E-01 -0.56780884667E-01  0.72659757392E-01  0.51100000000E-03 0. -1.
         11    1    4    4    0    0 -0.43480999557E-02  0.47319246321E-01 -0.36836839008E-01  0.60126789992E-01  0.51100000000E-03 0.  1.
</event>
<event>
 8    1  0.1116619E+005  0.1043930E+01  0.7957747E-01            NaN
         13   -1    0    0    0    0  0.00000000000E+00  0.00000000000E+00  0.74505805969E-08  0.10566000000E+00  0.10566000000E+00 0. -1.
     999900   -1    0    0    0    0 -0.00000000000E+00 -0.00000000000E+00 -0.74505805969E-08  0.93827000000E+00  0.93827000000E+00 0. -1.
     999902    2    1    2    0    0 -0.18688778401E-01  0.12506727237E-01 -0.62012072543E-02  0.10206031135E+01  0.10203364992E+01 0.  0.
     999903    2    3    3    0    0 -0.83199464278E-01  0.58342999282E-01  0.82786800350E-01  0.13258202254E+00  0.19957002930E-01 0.  0.
         14    1    1    2    0    0  0.18688778401E-01 -0.12506727237E-01  0.62012072543E-02  0.23326886541E-01  0.00000000000E+00 0. -1.
     999901    1    3    3    0    0  0.64510685877E-01 -0.45836272045E-01 -0.88988007605E-01  0.88802109092E+00  0.88000000000E+00 0. -1.
        -11    1    4    4    0    0 -0.30768387642E-01  0.22620696804E-01  0.43809955763E-01  0.58120245586E-01  0.51100000000E-03 0. -1.
         11    1    4    4    0    0 -0.52431076635E-01  0.35722302478E-01  0.38976844588E-01  0.74461776949E-01  0.51100000000E-03 0.  1.
</event>
<event>
 8    1  0.1116619E+005  0.1043930E+01  0.7957747E-01            NaN
         13   -1    0    0    0    0  0.00000000000E+00  0.00000000000E+00  0.74505805969E-08  0.10566000000E+00  0.10566000000E+00 0.  1.
     999900   -1    0    0    0    0 -0.00000000000E+00 -0.00000000000E+00 -0.74505805969E-08  0.93827000000E+00  0.93827000000E+00 0.  1.
     999902    2    1    2    0    0 -0.36220279918E-02  0.22119198612E-01 -0.69006437972E-02  0.10204779869E+01  0.10202084713E+01 0.  0.
     999903    2    3    3    0    0 -0.11176337530E+00 -0.17386178909E-01  0.61719232450E-01  0.13032973336E+00  0.19576630678E-01 0.  0.
         14    1    1    2    0    0  0.36220279918E-02 -0.22119198612E-01  0.69006437972E-02  0.23452013108E-01  0.00000000000E+00 0.  1.
     999901    1    3    3    0    0  0.10814134730E+00  0.39505377521E-01 -0.68619876247E-01  0.89014825353E+00  0.88000000000E+00 0.  1.
        -11    1    4    4    0    0 -0.56861208439E-01 -0.15362904330E-01  0.23575248655E-01  0.63445010243E-01  0.51100000000E-03 0.  1.
         11    1    4    4    0    0 -0.54902166858E-01 -0.20232745790E-02  0.38143983795E-01  0.66884723117E-01  0.51100000000E-03 0. -1.
</event>
<event>
 8    1  0.1116619E+005  0.1043930E+01  0.7957747E-01            NaN
         13   -1    0    0    0    0  0.00000000000E+00  0.00000000000E+00  0.74505805969E-08  0.10566000000E+00  0.10566000000E+00 0. -1.
     999900   -1    0    0    0    0 -0.00000000000E+00 -0.00000000000E+00 -0.74505805969E-08  0.93827000000E+00  0.93827000000E+00 0.  1.
     999902    2    1    2    0    0  0.13697727183E-01  0.18378278005E-02 -0.19277084856E-01  0.10202105704E+01  0.10199348002E+01 0.  0.
     999903    2    3    3    0    0 -0.10669340114E-01  0.12850364929E+00  0.19256657361E-02  0.13055471504E+00  0.20342141791E-01 0.  0.
         14    1    1    2    0    0 -0.13697727183E-01 -0.18378278005E-02  0.19277084856E-01  0.23719429621E-01  0.00000000000E+00 0.  1.
     999901    1    3    3    0    0  0.24367067297E-01 -0.12666582149E+00 -0.21202750592E-01  0.88965585534E+00  0.88000000000E+00 0.  1.
        -11    1    4    4    0    0 -0.40733628281E-02  0.85144994132E-01  0.10422811969E-01  0.85878742660E-01  0.51100000000E-03 0.  1.
         11    1    4    4    0    0 -0.65959772858E-02  0.43358655156E-01 -0.84971462328E-02  0.44675972383E-01  0.51100000000E-03 0. -1.
</event>
<event>
 8    1  0.1116619E+005  0.1043930E+01  0.7957747E-01            NaN
         13   -1    0    0    0    0  0.00000000000E+00  0.00000000000E+00  0.74505805969E-08  0.10566000000E+00  0.10566000000E+00 0. -1.
     999900   -1    0    0    0    0 -0.00000000000E+00 -0.00000000000E+00 -0.74505805969E-08  0.93827000000E+00  0.93827000000E+00 0. -1.
     999902    2    1    2    0    0  0.83603656563E-02  0.16678133527E-01 -0.84880486966E-02  0.10234335900E+01  0.10232283276E+01 0.  0.
     999903    2    3    3    0    0  0.86515501000E-01 -0.80621311172E-02  0.98981676866E-01  0.13311339604E+00  0.19284034300E-01 0.  0.
         14    1    1    2    0    0 -0.83603656563E-02 -0.16678133527E-01  0.84880486966E-02  0.20496409991E-01  0.00000000000E+00 0. -1.
     999901    1    3    3    0    0 -0.78155135344E-01  0.24740264644E-01 -0.10746972556E+00  0.89032019397E+00  0.88000000000E+00 0. -1.
        -11    1    4    4    0    0  0.60252041043E-01  0.33860018386E-02  0.67337600363E-01  0.90423376413E-01  0.51100000000E-03 0.  1.
         11    1    4    4    0    0  0.26263459957E-01 -0.11448132956E-01  0.31644076503E-01  0.42690019628E-01  0.51100000000E-03 0. -1.
</event>
<event>
 7    1  0.1116619E+005  0.1043930E+01  0.7957747E-01            NaN
         13   -1    0    0    0    0  0.00000000000E+00  0.00000000000E+00  0.74505805969E-08  0.10566000000E+00  0.10566000000E+00 0. -1.
     999900   -1    0    0    0    0 -0.00000000000E+00 -0.00000000000E+00 -0.74505805969E-08  0.93827000000E+00  0.93827000000E+00 0.  1.
     999902    2    1    2    0    0 -0.34509269246E-02  0.19829921121E-01  0.11251374522E-01  0.10208707698E+01  0.10206103079E+01 0.  0.
         14    1    1    2    0    0  0.34509269246E-02 -0.19829921121E-01 -0.11251374522E-01  0.23059230189E-01  0.00000000000E+00 0.  1.
     999901    1    3    3    0    0  0.11749939211E+00  0.55974019665E-01  0.71144769052E-02  0.88960092952E+00  0.88000000000E+00 0. -1.
        -11    1    3    3    0    0 -0.17775211763E-01 -0.61573552632E-02 -0.12432115021E-01  0.22554152211E-01  0.51100000000E-03 0. -1.
         11    1    3    3    0    0 -0.10317510727E+00 -0.29986743281E-01  0.16569012638E-01  0.10871568808E+00  0.51100000000E-03 0.  1.
</event>
<event>
 8    1  0.1133327E+005  0.1043930E+01  0.7957747E-01            NaN
         13   -1    0    0    0    0  0.00000000000E+00  0.00000000000E+00  0.74505805969E-08  0.10566000000E+00  0.10566000000E+00 0. -1.
     999900   -1    0    0    0    0 -0.00000000000E+00 -0.00000000000E+00 -0.74505805969E-08  0.93827000000E+00  0.93827000000E+00 0.  1.
     999902    2    1    2    0    0  0.44705517815E-02 -0.19618873970E-01  0.11663350646E-01  0.10206723175E+01  0.10204073009E+01 0.  0.
     999903    2    3    3    0    0  0.12004637830E+00 -0.40008255670E-01  0.31109348238E-01  0.13266801263E+00  0.24924216376E-01 0.  0.
         14    1    1    2    0    0 -0.44705517815E-02  0.19618873970E-01 -0.11663350646E-01  0.23257682545E-01  0.00000000000E+00 0.  1.
     999901    1    3    3    0    0 -0.11557582652E+00  0.20389381701E-01 -0.19445997592E-01  0.88800430482E+00  0.88000000000E+00 0.  1.
        -11    1    4    4    0    0  0.79093923428E-01 -0.23762145686E-01  0.32073756234E-01  0.88597264353E-01  0.51100000000E-03 0.  1.
         11    1    4    4    0    0  0.40952454877E-01 -0.16246109984E-01 -0.96440799637E-03  0.44070748279E-01  0.51100000000E-03 0. -1.
</event>
<event>
 8    1  0.1116619E+005  0.1043930E+01  0.7957747E-01            NaN
         13   -1    0    0    0    0  0.00000000000E+00  0.00000000000E+00  0.74505805969E-08  0.10566000000E+00  0.10566000000E+00 0. -1.
     999900   -1    0    0    0    0 -0.00000000000E+00 -0.00000000000E+00 -0.74505805969E-08  0.93827000000E+00  0.93827000000E+00 0.  1.
     999902    2    1    2    0    0 -0.13864632420E-01  0.13136462803E-01 -0.13535096045E-01  0.10205207388E+01  0.10202522162E+01 0.  0.
     999903    2    3    3    0    0  0.72240019804E-01 -0.99747844261E-01 -0.32526884481E-01  0.12893924167E+00  0.19976909980E-01 0.  0.
         14    1    1    2    0    0  0.13864632420E-01 -0.13136462803E-01  0.13535096045E-01  0.23409261246E-01  0.00000000000E+00 0. -1.
     999901    1    3    3    0    0 -0.86104652225E-01  0.11288430706E+00  0.18991788437E-01  0.89158149708E+00  0.88000000000E+00 0. -1.
        -11    1    4    4    0    0  0.45584905888E-01 -0.49837950594E-01 -0.24190998333E-01  0.71744480524E-01  0.51100000000E-03 0. -1.
         11    1    4    4    0    0  0.26655113916E-01 -0.49909893667E-01 -0.83358861479E-02  0.57194761146E-01  0.51100000000E-03 0.  1.
</event>
<event>
 8    1  0.1116619E+005  0.1043930E+01  0.7957747E-01            NaN
         13   -1    0    0    0    0  0.00000000000E+00  0.00000000000E+00  0.74505805969E-08  0.10566000000E+00  0.10566000000E+00 0. -1.
     999900   -1    0    0    0    0 -0.00000000000E+00 -0.00000000000E+00 -0.74505805969E-08  0.93827000000E+00  0.93827000000E+00 0. -1.
     999902    2    1    2    0    0 -0.18378949181E-01  0.14633944524E-01  0.49146500414E-02  0.10199280857E+01  0.10196456287E+01 0.  0.
     999903    2    3    3    0    0 -0.50378983367E-01 -0.55353174990E-01 -0.10449588248E+00  0.12981974189E+00  0.18214279653E-01 0.  0.
         14    1    1    2    0    0  0.18378949181E-01 -0.14633944524E-01 -0.49146500414E-02  0.24001914306E-01  0.00000000000E+00 0.  1.
     999901    1    3    3    0    0  0.32000034187E-01  0.69987119514E-01  0.10941053252E+00  0.89010834381E+00  0.88000000000E+00 0.  1.
        -11    1    4    4    0    0 -0.33839891591E-01 -0.42654648574E-01 -0.62237948567E-01  0.82694502058E-01  0.51100000000E-03 0. -1.
         11    1    4    4    0    0 -0.16539091777E-01 -0.12698526417E-01 -0.42257933908E-01  0.47125239831E-01  0.51100000000E-03 0.  1.
</event>
<event>
 8    1  0.1116619E+005  0.1043930E+01  0.7957747E-01            NaN
         13   -1    0    0    0    0  0.00000000000E+00  0.00000000000E+00  0.74505805969E-08  0.10566000000E+00  0.10566000000E+00 0.  1.
     999900   -1    0    0    0    0 -0.00000000000E+00 -0.00000000000E+00 -0.74505805969E-08  0.93827000000E+00  0.93827000000E+00 0.  1.
     999902    2    1    2    0    0  0.92546767315E-02  0.54483954413E-02 -0.20430411144E-01  0.10208489308E+01  0.10205879697E+01 0.  0.
     999903    2    3    3    0    0  0.10070583990E+00  0.52282682575E-01  0.62310846217E-01  0.13101586707E+00  0.20183428367E-01 0.  0.
         14    1    1    2    0    0 -0.92546767315E-02 -0.54483954413E-02  0.20430411144E-01  0.23081069165E-01  0.00000000000E+00 0.  1.
     999901    1    3    3    0    0 -0.91451163171E-01 -0.46834287134E-01 -0.82741257360E-01  0.88983306376E+00  0.88000000000E+00 0.  1.
        -11    1    4    4    0    0  0.67729002021E-01  0.41898006836E-01  0.35185320152E-01  0.87068527992E-01  0.51100000000E-03 0.  1.
         11    1    4    4    0    0  0.32976837882E-01  0.10384675739E-01  0.27125526065E-01  0.43947339080E-01  0.51100000000E-03 0. -1.
</event>
<event>
 8    1  0.1116619E+005  0.1043930E+01  0.7957747E-01            NaN
         13   -1    0    0    0    0  0.00000000000E+00  0.00000000000E+00  0.74505805969E-08  0.10566000000E+00  0.10566000000E+00 0.  1.
     999900   -1    0    0    0    0 -0.00000000000E+00 -0.00000000000E+00 -0.74505805969E-08  0.93827000000E+00  0.93827000000E+00 0.  1.
     999902    2    1    2    0    0 -0.13578845241E-01  0.19817690216E-01  0.15490328447E-02  0.10198566665E+01  0.10195725059E+01 0.  0.
     999903    2    3    3    0    0  0.10837805356E+00  0.67283959509E-01 -0.15343128977E-01  0.13001854806E+00  0.19911743543E-01 0.  0.
         14    1    1    2    0    0  0.13578845241E-01 -0.19817690216E-01 -0.15490328447E-02  0.24073333511E-01  0.00000000000E+00 0. -1.
     999901    1    3    3    0    0 -0.12195689880E+00 -0.47466269293E-01  0.16892161822E-01  0.88983811843E+00  0.88000000000E+00 0.  1.
        -11    1    4    4    0    0  0.16309529973E-01  0.30025943927E-02  0.60215486005E-03  0.16602411045E-01  0.51100000000E-03 0.  1.
         11    1    4    4    0    0  0.92068523587E-01  0.64281365116E-01 -0.15945283838E-01  0.11341613701E+00  0.51100000000E-03 0. -1.
</event>
<event>
 8    1  0.1116619E+005  0.1043930E+01  0.7957747E-01            NaN
         13   -1    0    0    0    0  0.00000000000E+00  0.00000000000E+00  0.74505805969E-08  0.10566000000E+00  0.10566000000E+00 0.  1.
     999900   -1    0    0    0    0 -0.00000000000E+00 -0.00000000000E+00 -0.74505805969E-08  0.93827000000E+00  0.93827000000E+00 0. -1.
     999902    2    1    2    0    0  0.15064409095E-01  0.61311641286E-02  0.18144774360E-01  0.10195628001E+01  0.10192715747E+01 0.  0.
     999903    2    3    3    0    0 -0.43115808229E-01 -0.11884385868E+00 -0.10671106743E-01  0.12836470257E+00  0.19513807483E-01 0.  0.
         14    1    1    2    0    0 -0.15064409095E-01 -0.61311641286E-02 -0.18144774360E-01  0.24367199912E-01  0.00000000000E+00 0. -1.
     999901    1    3    3    0    0  0.58180217324E-01  0.12497502281E+00  0.28815881103E-01  0.89119809752E+00  0.88000000000E+00 0.  1.
        -11    1    4    4    0    0 -0.80267445679E-02 -0.70311962597E-02 -0.18583246686E-02  0.10843469960E-01  0.51100000000E-03 0.  1.
         11    1    4    4    0    0 -0.35089063661E-01 -0.11181266242E+00 -0.88127820745E-02  0.11752123261E+00  0.51100000000E-03 0. -1.
</event>
<event>
 8    1  0.1116619E+005  0.1043930E+01  0.7957747E-01            NaN
         13   -1    0    0    0    0  0.00000000000E+00  0.00000000000E+00  0.74505805969E-08  0.10566000000E+00  0.10566000000E+00 0. -1.
     999900   -1    0    0    0    0 -0.00000000000E+00 -0.00000000000E+00 -0.74505805969E-08  0.93827000000E+00  0.93827000000E+00 0. -1.
     999902    2    1    2    0    0  0.34419134294E-02 -0.19188532884E-01  0.12553516612E-01  0.10207429920E+01  0.10204796021E+01 0.  0.
     999903    2    3    3    0    0  0.29002592916E-01  0.82359144046E-01  0.95211144348E-01  0.13068818329E+00  0.19749942767E-01 0.  0.
         14    1    1    2    0    0 -0.34419134294E-02  0.19188532884E-01 -0.12553516612E-01  0.23187008035E-01  0.00000000000E+00 0. -1.
     999901    1    3    3    0    0 -0.25560679486E-01 -0.10154767693E+00 -0.82657627736E-01  0.89005480868E+00  0.88000000000E+00 0. -1.
        -11    1    4    4    0    0  0.87727011385E-02  0.62916680851E-02  0.11260966872E-01  0.15608198758E-01  0.51100000000E-03 0.  1.
         11    1    4    4    0    0  0.20229891777E-01  0.76067475961E-01  0.83950177476E-01  0.11507998453E+00  0.51100000000E-03 0. -1.
</event>
<event>
 8    1  0.1116619E+005  0.1043930E+01  0.7957747E-01            NaN
         13   -1    0    0    0    0  0.00000000000E+00  0.00000000000E+00  0.74505805969E-08  0.10566000000E+00  0.10566000000E+00 0. -1.
     999900   -1    0    0    0    0 -0.00000000000E+00 -0.00000000000E+00 -0.74505805969E-08  0.93827000000E+00  0.93827000000E+00 0. -1.
     999902    2    1    2    0    0  0.19053481605E-01  0.20634279410E-01 -0.55438438819E-02  0.10153023411E+01  0.10148986654E+01 0.  0.
     999903    2    3    3    0    0  0.65274637566E-01 -0.78592945328E-02  0.10597649717E+00  0.12660381772E+00  0.21793620399E-01 0.  0.
         14    1    1    2    0    0 -0.19053481605E-01 -0.20634279410E-01  0.55438438819E-02  0.28627658881E-01  0.00000000000E+00 0.  1.
     999901    1    3    3    0    0 -0.46221155962E-01  0.28493573943E-01 -0.11152034105E+00  0.88869852339E+00  0.88000000000E+00 0. -1.
        -11    1    4    4    0    0  0.40240134495E-02  0.52077956129E-02  0.90153388629E-02  0.11173686733E-01  0.51100000000E-03 0. -1.
         11    1    4    4    0    0  0.61250624117E-01 -0.13067090146E-01  0.96961158307E-01  0.11543013099E+00  0.51100000000E-03 0.  1.
</event>
<event>
 8    1  0.1116619E+005  0.1043930E+01  0.7957747E-01            NaN
         13   -1    0    0    0    0  0.00000000000E+00  0.00000000000E+00  0.74505805969E-08  0.10566000000E+00  0.10566000000E+00 0. -1.
     999900   -1    0    0    0    0 -0.00000000000E+00 -0.00000000000E+00 -0.74505805969E-08  0.93827000000E+00  0.93827000000E+00 0. -1.
     999902    2    1    2    0    0  0.17971301997E-01  0.13352517564E-03 -0.14107248507E-01  0.10210826810E+01  0.10208270380E+01 0.  0.
     999903    2    3    3    0    0 -0.77722165008E-01  0.25830508563E-01 -0.10042557540E+00  0.13132517015E+00  0.21285065495E-01 0.  0.
         14    1    1    2    0    0 -0.17971301997E-01 -0.13352517564E-03  0.14107248507E-01  0.22847318986E-01  0.00000000000E+00 0. -1.
     999901    1    3    3    0    0  0.95693467005E-01 -0.25696983387E-01  0.86318326897E-01  0.88975751087E+00  0.88000000000E+00 0.  1.
        -11    1    4    4    0    0 -0.53126158828E-01  0.26755154573E-01 -0.64159607061E-01  0.87492533094E-01  0.51100000000E-03 0. -1.
         11    1    4    4    0    0 -0.24596006180E-01 -0.92464601026E-03 -0.36265968343E-01  0.43832637054E-01  0.51100000000E-03 0.  1.
</event>
<event>
 8    1  0.1116619E+005  0.1043930E+01  0.7957747E-01            NaN
         13   -1    0    0    0    0  0.00000000000E+00  0.00000000000E+00  0.74505805969E-08  0.10566000000E+00  0.10566000000E+00 0.  1.
     999900   -1    0    0    0    0 -0.00000000000E+00 -0.00000000000E+00 -0.74505805969E-08  0.93827000000E+00  0.93827000000E+00 0. -1.
     999902    2    1    2    0    0 -0.10627606741E-01 -0.21503709722E-01  0.15231321973E-03  0.10199429461E+01  0.10196608429E+01 0.  0.
     999903    2    3    3    0    0  0.60529490300E-01  0.11025065649E+00 -0.17008027512E-02  0.12729184989E+00  0.19526798680E-01 0.  0.
         14    1    1    2    0    0  0.10627606741E-01  0.21503709722E-01 -0.15231321973E-03  0.23987053929E-01  0.00000000000E+00 0.  1.
     999901    1    3    3    0    0 -0.71157097041E-01 -0.13175436621E+00  0.18531159709E-02  0.89265109618E+00  0.88000000000E+00 0.  1.
        -11    1    4    4    0    0  0.41032117716E-01  0.82766198948E-01 -0.89707893628E-02  0.92814947909E-01  0.51100000000E-03 0.  1.
         11    1    4    4    0    0  0.19497372584E-01  0.27484457539E-01  0.72699866116E-02  0.34476901981E-01  0.51100000000E-03 0. -1.
</event>
<event>
 8    1  0.1116619E+005  0.1043930E+01  0.7957747E-01            NaN
         13   -1    0    0    0    0  0.00000000000E+00  0.00000000000E+00  0.74505805969E-08  0.10566000000E+00  0.10566000000E+00 0.  1.
     999900   -1    0    0    0    0 -0.00000000000E+00 -0.00000000000E+00 -0.74505805969E-08  0.93827000000E+00  0.93827000000E+00 0.  1.
     999902    2    1    2    0    0 -0.20831463011E-01 -0.10442044486E-01  0.23421793359E-02  0.10205105220E+01  0.10202417623E+01 0.  0.
     999903    2    3    3    0    0 -0.80142245046E-01 -0.98187058933E-01  0.36833545690E-01  0.13348932117E+00  0.19980260140E-01 0.  0.
         14    1    1    2    0    0  0.20831463011E-01  0.10442044486E-01 -0.23421793359E-02  0.23419477968E-01  0.00000000000E+00 0.  1.
     999901    1    3    3    0    0  0.59310782035E-01  0.87745014447E-01 -0.34491366354E-01  0.88702120086E+00  0.88000000000E+00 0. -1.
        -11    1    4    4    0    0 -0.11091177536E-01 -0.16569590545E-01 -0.12854855199E-02  0.19986974358E-01  0.51100000000E-03 0. -1.
         11    1    4    4    0    0 -0.69051067510E-01 -0.81617468388E-01  0.38119031210E-01  0.11350234681E+00  0.51100000000E-03 0.  1.
</event>
<event>
 8    1  0.1116619E+005  0.1043930E+01  0.7957747E-01            NaN
         13   -1    0    0    0    0  0.00000000000E+00  0.00000000000E+00  0.74505805969E-08  0.10566000000E+00  0.10566000000E+00 0. -1.
     999900   -1    0    0    0    0 -0.00000000000E+00 -0.00000000000E+00 -0.74505805969E-08  0.93827000000E+00  0.93827000000E+00 0.  1.
     999902    2    1    2    0    0  0.22018733807E-01 -0.12410907126E-02 -0.78217414631E-02  0.10205303294E+01  0.10202620294E+01 0.  0.
     999903    2    3    3    0    0 -0.15176415307E-01  0.12735920852E+00  0.10233200771E-01  0.13022279994E+00  0.20064088564E-01 0.  0.
         14    1    1    2    0    0 -0.22018733807E-01  0.12410907126E-02  0.78217414631E-02  0.23399670599E-01  0.00000000000E+00 0. -1.
     999901    1    3    3    0    0  0.37195149114E-01 -0.12860029923E+00 -0.18054942234E-01  0.89030752946E+00  0.88000000000E+00 0. -1.
        -11    1    4    4    0    0 -0.46812205776E-02  0.21458288191E-01 -0.54954683784E-02  0.22645821952E-01  0.51100000000E-03 0.  1.
         11    1    4    4    0    0 -0.10495194730E-01  0.10590092033E+00  0.15728669150E-01  0.10757697799E+00  0.51100000000E-03 0. -1.
</event>
<event>
 8    1  0.1116619E+005  0.1043930E+01  0.7957747E-01            NaN
         13   -1    0    0    0    0  0.00000000000E+00  0.00000000000E+00  0.74505805969E-08  0.10566000000E+00  0.10566000000E+00 0.  1.
     999900   -1    0    0    0    0 -0.00000000000E+00 -0.00000000000E+00 -0.74505805969E-08  0.93827000000E+00  0.93827000000E+00 0.  1.
     999902    2    1    2    0    0  0.18377435424E-01  0.58911016676E-02  0.13964357348E-01  0.10201090326E+01  0.10198308683E+01 0.  0.
     999903    2    3    3    0    0 -0.77391227060E-01  0.84139132382E-01 -0.55965128531E-01  0.12871432540E+00  0.19143832663E-01 0.  0.
         14    1    1    2    0    0 -0.18377435424E-01 -0.58911016676E-02 -0.13964357348E-01  0.23820967397E-01  0.00000000000E+00 0. -1.
     999901    1    3    3    0    0  0.95768662484E-01 -0.78248030714E-01  0.69929485880E-01  0.89139470720E+00  0.88000000000E+00 0. -1.
        -11    1    4    4    0    0 -0.10563228132E-01  0.22759331786E-01 -0.14045404793E-01  0.28759406960E-01  0.51100000000E-03 0.  1.
         11    1    4    4    0    0 -0.66827998928E-01  0.61379800596E-01 -0.41919723738E-01  0.99954918445E-01  0.51100000000E-03 0. -1.
</event>
<event>
 8    1  0.1116619E+005  0.1043930E+01  0.7957747E-01            NaN
         13   -1    0    0    0    0  0.00000000000E+00  0.00000000000E+00  0.74505805969E-08  0.10566000000E+00  0.10566000000E+00 0. -1.
     999900   -1    0    0    0    0 -0.00000000000E+00 -0.00000000000E+00 -0.74505805969E-08  0.93827000000E+00  0.93827000000E+00 0.  1.
     999902    2    1    2    0    0  0.24379173023E-01  0.13088342184E-02 -0.36073499898E-02  0.10192506544E+01  0.10189518273E+01 0.  0.
     999903    2    3    3    0    0 -0.92587491348E-01 -0.28575792552E-01 -0.80653857842E-01  0.12767314469E+00  0.20158561832E-01 0.  0.
         14    1    1    2    0    0 -0.24379173023E-01 -0.13088342184E-02  0.36073499898E-02  0.24679345580E-01  0.00000000000E+00 0.  1.
     999901    1    3    3    0    0  0.11696666437E+00  0.29884626771E-01  0.77046507852E-01  0.89157750973E+00  0.88000000000E+00 0. -1.
        -11    1    4    4    0    0 -0.16768947715E-01  0.26221618468E-03 -0.21520246619E-01  0.27288248393E-01  0.51100000000E-03 0.  1.
         11    1    4    4    0    0 -0.75818543633E-01 -0.28838008737E-01 -0.59133611222E-01  0.10038489629E+00  0.51100000000E-03 0. -1.
</event>
<event>
 7    1  0.1116619E+005  0.1043930E+01  0.7957747E-01            NaN
         13   -1    0    0    0    0  0.00000000000E+00  0.00000000000E+00  0.74505805969E-08  0.10566000000E+00  0.10566000000E+00 0.  1.
     999900   -1    0    0    0    0 -0.00000000000E+00 -0.00000000000E+00 -0.74505805969E-08  0.93827000000E+00  0.93827000000E+00 0. -1.
     999903    2    1    2    0    0 -0.50107120791E-01  0.13400176898E-01 -0.69244570765E-01  0.88575943057E-01  0.18989439516E-01 0.  0.
         14    1    1    2    0    0  0.41441367569E-01  0.55289524750E-01  0.16621879431E-01  0.71067611251E-01  0.00000000000E+00 0. -1.
     999901    1    1    2    0    0  0.86657532217E-02 -0.68689701648E-01  0.52622691334E-01  0.88428644569E+00  0.88000000000E+00 0.  1.
        -11    1    3    3    0    0 -0.31023988976E-01  0.44323003903E-02 -0.54402969139E-01  0.62785964601E-01  0.51100000000E-03 0. -1.
         11    1    3    3    0    0 -0.19083131816E-01  0.89678765078E-02 -0.14841601626E-01  0.25789978456E-01  0.51100000000E-03 0.  1.
</event>
<event>
 8    1  0.1116619E+005  0.1043930E+01  0.7957747E-01            NaN
         13   -1    0    0    0    0  0.00000000000E+00  0.00000000000E+00  0.74505805969E-08  0.10566000000E+00  0.10566000000E+00 0.  1.
     999900   -1    0    0    0    0 -0.00000000000E+00 -0.00000000000E+00 -0.74505805969E-08  0.93827000000E+00  0.93827000000E+00 0.  1.
     999902    2    1    2    0    0  0.29335616465E-02 -0.22585226096E-02 -0.23849887437E-01  0.10197944694E+01  0.10195088209E+01 0.  0.
     999903    2    3    3    0    0 -0.91376632905E-02  0.49494518053E-01 -0.12132607715E+00  0.13281887824E+00  0.19688402968E-01 0.  0.
         14    1    1    2    0    0 -0.29335616465E-02  0.22585226096E-02  0.23849887437E-01  0.24135530636E-01  0.00000000000E+00 0.  1.
     999901    1    3    3    0    0  0.12071224937E-01 -0.51753040663E-01  0.97476189717E-01  0.88697559112E+00  0.88000000000E+00 0. -1.
        -11    1    4    4    0    0 -0.21854735611E-02 -0.13525773189E-03 -0.16227612508E-01  0.16382646857E-01  0.51100000000E-03 0.  1.
         11    1    4    4    0    0 -0.69521897294E-02  0.49629775785E-01 -0.10509846465E+00  0.11643623138E+00  0.51100000000E-03 0. -1.
</event>
<event>
 8    1  0.1116619E+005  0.1043930E+01  0.7957747E-01            NaN
         13   -1    0    0    0    0  0.00000000000E+00  0.00000000000E+00  0.74505805969E-08  0.10566000000E+00  0.10566000000E+00 0. -1.
     999900   -1    0    0    0    0 -0.00000000000E+00 -0.00000000000E+00 -0.74505805969E-08  0.93827000000E+00  0.93827000000E+00 0. -1.
     999902    2    1    2    0    0 -0.12797730568E-01  0.13097804669E-01  0.15365881384E-03  0.10256172174E+01  0.10254537136E+01 0.  0.
     999903    2    3    3    0    0  0.74233172853E-02 -0.10043280970E+00 -0.85926041273E-01  0.13392903989E+00  0.20294044755E-01 0.  0.
         14    1    1    2    0    0  0.12797730568E-01 -0.13097804669E-01 -0.15365881384E-03  0.18312782581E-01  0.00000000000E+00 0.  1.
     999901    1    3    3    0    0 -0.20221047853E-01  0.11353061437E+00  0.86079700087E-01  0.89168817753E+00  0.88000000000E+00 0. -1.
        -11    1    4    4    0    0  0.21730816197E-02 -0.54681446747E-01 -0.33582849809E-01  0.64209437191E-01  0.51100000000E-03 0. -1.
         11    1    4    4    0    0  0.52502356656E-02 -0.45751362958E-01 -0.52343191463E-01  0.69719602700E-01  0.51100000000E-03 0.  1.
</event>
<event>
 8    1  0.1116619E+005  0.1043930E+01  0.7957747E-01            NaN
         13   -1    0    0    0    0  0.00000000000E+00  0.00000000000E+00  0.74505805969E-08  0.10566000000E+00  0.10566000000E+00 0.  1.
     999900   -1    0    0    0    0 -0.00000000000E+00 -0.00000000000E+00 -0.74505805969E-08  0.93827000000E+00  0.93827000000E+00 0.  1.
     999902    2    1    2    0    0 -0.22928208490E-01 -0.36296097389E-02  0.16203174687E-02  0.10206597993E+01  0.10203944941E+01 0.  0.
     999903    2    3    3    0    0 -0.23144074305E-01 -0.12546182438E+00  0.26068093177E-01  0.13192990285E+00  0.21204627652E-01 0.  0.
         14    1    1    2    0    0  0.22928208490E-01  0.36296097389E-02 -0.16203174687E-02  0.23270200689E-01  0.00000000000E+00 0. -1.
     999901    1    3    3    0    0  0.21586581566E-03  0.12183221464E+00 -0.24447775708E-01  0.88872989646E+00  0.88000000000E+00 0. -1.
        -11    1    4    4    0    0 -0.22883745714E-01 -0.71982465282E-01  0.10736637144E-01  0.76293365532E-01  0.51100000000E-03 0. -1.
         11    1    4    4    0    0 -0.26032859129E-03 -0.53479359093E-01  0.15331456033E-01  0.55636537321E-01  0.51100000000E-03 0.  1.
</event>
<event>
 8    1  0.1116619E+005  0.1043930E+01  0.7957747E-01            NaN
         13   -1    0    0    0    0  0.00000000000E+00  0.00000000000E+00  0.74505805969E-08  0.10566000000E+00  0.10566000000E+00 0. -1.
     999900   -1    0    0    0    0 -0.00000000000E+00 -0.00000000000E+00 -0.74505805969E-08  0.93827000000E+00  0.93827000000E+00 0. -1.
     999902    2    1    2    0    0  0.23754837014E-02 -0.38505984571E-02 -0.21649203896E-01  0.10218130820E+01  0.10215736961E+01 0.  0.
     999903    2    3    3    0    0 -0.89986305216E-01  0.88411345890E-01 -0.33907061877E-01  0.13209783460E+00  0.19648100456E-01 0.  0.
         14    1    1    2    0    0 -0.23754837014E-02  0.38505984571E-02  0.21649203896E-01  0.22116917973E-01  0.00000000000E+00 0. -1.
     999901    1    3    3    0    0  0.92361788918E-01 -0.92261944347E-01  0.12257857981E-01  0.88971524743E+00  0.88000000000E+00 0.  1.
        -11    1    4    4    0    0 -0.47787627767E-01  0.44137377590E-01 -0.27395359204E-01  0.70587054727E-01  0.51100000000E-03 0. -1.
         11    1    4    4    0    0 -0.42198677449E-01  0.44273968300E-01 -0.65117026728E-02  0.61510779870E-01  0.51100000000E-03 0.  1.
</event>
<event>
 8    1  0.1116619E+005  0.1043930E+01  0.7957747E-01            NaN
         13   -1    0    0    0    0  0.00000000000E+00  0.00000000000E+00  0.74505805969E-08  0.10566000000E+00  0.10566000000E+00 0.  1.
     999900   -1    0    0    0    0 -0.00000000000E+00 -0.00000000000E+00 -0.74505805969E-08  0.93827000000E+00  0.93827000000E+00 0. -1.
     999902    2    1    2    0    0 -0.15781644088E-01  0.12787219435E-01  0.13914600211E-01  0.10193090867E+01  0.10190116903E+01 0.  0.
     999903    2    3    3    0    0  0.20529716570E-02 -0.10344021960E+00 -0.70984270455E-01  0.12743762215E+00  0.22304420237E-01 0.  0.
         14    1    1    2    0    0  0.15781644088E-01 -0.12787219435E-01 -0.13914600211E-01  0.24620913266E-01  0.00000000000E+00 0. -1.
     999901    1    3    3    0    0 -0.17834615745E-01  0.11622743904E+00  0.84898870666E-01  0.89187146459E+00  0.88000000000E+00 0.  1.
        -11    1    4    4    0    0 -0.96892952806E-02 -0.50392306541E-01 -0.38249131838E-01  0.64004095252E-01  0.51100000000E-03 0. -1.
         11    1    4    4    0    0  0.11742266938E-01 -0.53047913063E-01 -0.32735138617E-01  0.63433526895E-01  0.51100000000E-03 0.  1.
</event>
<event>
 8    1  0.1116619E+005  0.1043930E+01  0.7957747E-01            NaN
         13   -1    0    0    0    0  0.00000000000E+00  0.00000000000E+00  0.74505805969E-08  0.10566000000E+00  0.10566000000E+00 0.  1.
     999900   -1    0    0    0    0 -0.00000000000E+00 -0.00000000000E+00 -0.74505805969E-08  0.93827000000E+00  0.93827000000E+00 0.  1.
     999902    2    1    2    0    0  0.16236506448E-01  0.76848980754E-02 -0.17461929958E-01  0.10188780380E+01  0.10185700053E+01 0.  0.
     999903    2    3    3    0    0 -0.66379911413E-01  0.12807291046E-01 -0.10944372013E+00  0.13022042055E+00  0.20226485328E-01 0.  0.
         14    1    1    2    0    0 -0.16236506448E-01 -0.76848980754E-02  0.17461929958E-01  0.25051961958E-01  0.00000000000E+00 0. -1.
     999901    1    3    3    0    0  0.82616417861E-01 -0.51223929705E-02  0.91981790171E-01  0.88865761750E+00  0.88000000000E+00 0.  1.
        -11    1    4    4    0    0 -0.50522517545E-01  0.17061803253E-01 -0.91398462649E-01  0.10581857117E+00  0.51100000000E-03 0. -1.
         11    1    4    4    0    0 -0.15857393868E-01 -0.42545122073E-02 -0.18045257480E-01  0.24401849375E-01  0.51100000000E-03 0.  1.
</event>
<event>
 8    1  0.1116619E+005  0.1043930E+01  0.7957747E-01            NaN
         13   -1    0    0    0    0  0.00000000000E+00  0.00000000000E+00  0.74505805969E-08  0.10566000000E+00  0.10566000000E+00 0. -1.
     999900   -1    0    0    0    0 -0.00000000000E+00 -0.00000000000E+00 -0.74505805969E-08  0.93827000000E+00  0.93827000000E+00 0.  1.
     999902    2    1    2    0    0  0.14773004416E-01 -0.18102213842E-01  0.10697881421E-01  0.10182322088E+01  0.10179078812E+01 0.  0.
     999903    2    3    3    0    0 -0.44716767793E-01 -0.10695372366E+00  0.55995894012E-01  0.13060304427E+00  0.21975593254E-01 0.  0.
         14    1    1    2    0    0 -0.14773004416E-01  0.18102213842E-01 -0.10697881421E-01  0.25697791196E-01  0.00000000000E+00 0.  1.
     999901    1    3    3    0    0  0.59489772209E-01  0.88851509817E-01 -0.45298012591E-01  0.88762916454E+00  0.88000000000E+00 0.  1.
        -11    1    4    4    0    0 -0.22942704368E-01 -0.46240503831E-01  0.36489812340E-01  0.63216448840E-01  0.51100000000E-03 0.  1.
         11    1    4    4    0    0 -0.21774063425E-01 -0.60713219828E-01  0.19506081672E-01  0.67386595426E-01  0.51100000000E-03 0. -1.
</event>
<event>
 8    1  0.1116619E+005  0.1043930E+01  0.7957747E-01            NaN
         13   -1    0    0    0    0  0.00000000000E+00  0.00000000000E+00  0.74505805969E-08  0.10566000000E+00  0.10566000000E+00 0. -1.
     999900   -1    0    0    0    0 -0.00000000000E+00 -0.00000000000E+00 -0.74505805969E-08  0.93827000000E+00  0.93827000000E+00 0.  1.
     999902    2    1    2    0    0  0.20645070082E-01 -0.93155048917E-02  0.14894702135E-02  0.10212316284E+01  0.10209793450E+01 0.  0.
     999903    2    3    3    0    0 -0.53392575277E-02 -0.83225025931E-01 -0.10097331505E+00  0.13182934322E+00  0.15114654185E-01 0.  0.
         14    1    1    2    0    0 -0.20645070082E-01  0.93155048917E-02 -0.14894702135E-02  0.22698371562E-01  0.00000000000E+00 0.  1.
     999901    1    3    3    0    0  0.25984327610E-01  0.73909521039E-01  0.10246278526E+00  0.88940228521E+00  0.88000000000E+00 0. -1.
        -11    1    4    4    0    0 -0.55935595797E-02 -0.55398192720E-01 -0.77442819969E-01  0.95382908066E-01  0.51100000000E-03 0.  1.
         11    1    4    4    0    0  0.25430205207E-03 -0.27826833211E-01 -0.23530495077E-01  0.36446435157E-01  0.51100000000E-03 0. -1.
</event>
<event>
 8    1  0.1116619E+005  0.1043930E+01  0.7957747E-01            NaN
         13   -1    0    0    0    0  0.00000000000E+00  0.00000000000E+00  0.74505805969E-08  0.10566000000E+00  0.10566000000E+00 0. -1.
     999900   -1    0    0    0    0 -0.00000000000E+00 -0.00000000000E+00 -0.74505805969E-08  0.93827000000E+00  0.93827000000E+00 0. -1.
     999902    2    1    2    0    0  0.48335602468E-02  0.23866797015E-01  0.21688362110E-02  0.10194822771E+01  0.10191891003E+01 0.  0.
     999903    2    3    3    0    0  0.12417976950E+00  0.29196022063E-01 -0.22231903832E-01  0.13107509882E+00  0.20332268076E-01 0.  0.
         14    1    1    2    0    0 -0.48335602468E-02 -0.23866797015E-01 -0.21688362110E-02  0.24447722899E-01  0.00000000000E+00 0. -1.
     999901    1    3    3    0    0 -0.11934620926E+00 -0.53292250479E-02  0.24400740043E-01  0.88840717828E+00  0.88000000000E+00 0.  1.
        -11    1    4    4    0    0  0.82763593178E-01  0.13637457123E-01 -0.65634342197E-02  0.84137580084E-01  0.51100000000E-03 0.  1.
         11    1    4    4    0    0  0.41416176324E-01  0.15558564940E-01 -0.15668469612E-01  0.46937518738E-01  0.51100000000E-03 0. -1.
</event>
<event>
 8    1  0.1116619E+005  0.1043930E+01  0.7957747E-01            NaN
         13   -1    0    0    0    0  0.00000000000E+00  0.00000000000E+00  0.74505805969E-08  0.10566000000E+00  0.10566000000E+00 0.  1.
     999900   -1    0    0    0    0 -0.00000000000E+00 -0.00000000000E+00 -0.74505805969E-08  0.93827000000E+00  0.93827000000E+00 0. -1.
     999902    2    1    2    0    0  0.15187625725E-02  0.13119042146E-01 -0.19477739745E-01  0.10203970815E+01  0.10201256813E+01 0.  0.
     999903    2    3    3    0    0 -0.59603247754E-01 -0.10301283987E+00  0.43863228315E-01  0.12841356575E+00  0.20046664307E-01 0.  0.
         14    1    1    2    0    0 -0.15187625725E-02 -0.13119042146E-01  0.19477739745E-01  0.23532918479E-01  0.00000000000E+00 0.  1.
     999901    1    3    3    0    0  0.61122010327E-01  0.11613188202E+00 -0.63340968060E-01  0.89198351577E+00  0.88000000000E+00 0.  1.
        -11    1    4    4    0    0 -0.50296747788E-01 -0.81616564028E-01  0.26937099829E-01  0.99583607235E-01  0.51100000000E-03 0.  1.
         11    1    4    4    0    0 -0.93064999664E-02 -0.21396275844E-01  0.16926128486E-01  0.28829958518E-01  0.51100000000E-03 0. -1.
</event>
<event>
 8    1  0.1116619E+005  0.1043930E+01  0.7957747E-01            NaN
         13   -1    0    0    0    0  0.00000000000E+00  0.00000000000E+00  0.74505805969E-08  0.10566000000E+00  0.10566000000E+00 0.  1.
     999900   -1    0    0    0    0 -0.00000000000E+00 -0.00000000000E+00 -0.74505805969E-08  0.93827000000E+00  0.93827000000E+00 0.  1.
     999902    2    1    2    0    0  0.42112475376E-02  0.96275590507E-02 -0.18032997525E-01  0.10230586441E+01  0.10228457243E+01 0.  0.
     999903    2    3    3    0    0 -0.68280068772E-01  0.96167538555E-01 -0.62100460021E-01  0.13475345988E+00  0.19790516687E-01 0.  0.
         14    1    1    2    0    0 -0.42112475376E-02 -0.96275590507E-02  0.18032997525E-01  0.20871355942E-01  0.00000000000E+00 0.  1.
     999901    1    3    3    0    0  0.72491316309E-01 -0.86539979505E-01  0.44067462495E-01  0.88830518418E+00  0.88000000000E+00 0. -1.
        -11    1    4    4    0    0 -0.39605315913E-01  0.71092771263E-01 -0.39537892881E-01  0.90478004338E-01  0.51100000000E-03 0. -1.
         11    1    4    4    0    0 -0.28674752859E-01  0.25074767292E-01 -0.22562567140E-01  0.44275455539E-01  0.51100000000E-03 0.  1.
</event>
<event>
 8    1  0.1116619E+005  0.1043930E+01  0.7957747E-01            NaN
         13   -1    0    0    0    0  0.00000000000E+00  0.00000000000E+00  0.74505805969E-08  0.10566000000E+00  0.10566000000E+00 0. -1.
     999900   -1    0    0    0    0 -0.00000000000E+00 -0.00000000000E+00 -0.74505805969E-08  0.93827000000E+00  0.93827000000E+00 0.  1.
     999902    2    1    2    0    0  0.84459618673E-02  0.16784647231E-01  0.14447146372E-01  0.10202281289E+01  0.10199527716E+01 0.  0.
     999903    2    3    3    0    0  0.77752783293E-01  0.15433677679E-02  0.10544708979E+00  0.13269406095E+00  0.20993993743E-01 0.  0.
         14    1    1    2    0    0 -0.84459618673E-02 -0.16784647231E-01 -0.14447146372E-01  0.23701871083E-01  0.00000000000E+00 0. -1.
     999901    1    3    3    0    0 -0.69306821425E-01  0.15241279463E-01 -0.90999943417E-01  0.88753406796E+00  0.88000000000E+00 0.  1.
        -11    1    4    4    0    0  0.12460264472E-01  0.81829913117E-02  0.20104302252E-01  0.25033250439E-01  0.51100000000E-03 0. -1.
         11    1    4    4    0    0  0.65292518821E-01 -0.66396235438E-02  0.85342787538E-01  0.10766081051E+00  0.51100000000E-03 0.  1.
</event>
<event>
 8    1  0.1116619E+005  0.1043930E+01  0.7957747E-01            NaN
         13   -1    0    0    0    0  0.00000000000E+00  0.00000000000E+00  0.74505805969E-08  0.10566000000E+00  0.10566000000E+00 0.  1.
     999900   -1    0    0    0    0 -0.00000000000E+00 -0.00000000000E+00 -0.74505805969E-08  0.93827000000E+00  0.93827000000E+00 0.  1.
     999902    2    1    2    0    0 -0.22559212345E-01  0.56205406385E-02  0.40527862241E-02  0.10203305590E+01  0.10200576043E+01 0.  0.
     999903    2    3    3    0    0  0.45309956775E-01 -0.74326212901E-01  0.93791339130E-01  0.12957205336E+00  0.20364763902E-01 0.  0.
         14    1    1    2    0    0  0.22559212345E-01 -0.56205406385E-02 -0.40527862241E-02  0.23599440986E-01  0.00000000000E+00 0. -1.
     999901    1    3    3    0    0 -0.67869169119E-01  0.79946753540E-01 -0.89738552906E-01  0.89075850565E+00  0.88000000000E+00 0.  1.
        -11    1    4    4    0    0  0.38383029619E-02 -0.77735307631E-02  0.20383126461E-01  0.22156112373E-01  0.51100000000E-03 0.  1.
         11    1    4    4    0    0  0.41471653813E-01 -0.66552682138E-01  0.73408212669E-01  0.10741594099E+00  0.51100000000E-03 0. -1.
</event>
<event>
 8    1  0.1116619E+005  0.1043930E+01  0.7957747E-01            NaN
         13   -1    0    0    0    0  0.00000000000E+00  0.00000000000E+00  0.74505805969E-08  0.10566000000E+00  0.10566000000E+00 0.  1.
     999900   -1    0    0    0    0 -0.00000000000E+00 -0.00000000000E+00 -0.74505805969E-08  0.93827000000E+00  0.93827000000E+00 0. -1.
     999902    2    1    2    0    0  0.11051708585E-01 -0.19619234936E-01  0.57365453542E-02  0.10206929048E+01  0.10204283626E+01 0.  0.
     999903    2    3    3    0    0 -0.98000938756E-01 -0.59578532432E-01  0.60597149673E-01  0.13136792972E+00  0.20778182921E-01 0.  0.
         14    1    1    2    0    0 -0.11051708585E-01  0.19619234936E-01 -0.57365453542E-02  0.23237095230E-01  0.00000000000E+00 0.  1.
     999901    1    3    3    0    0  0.10905264734E+00  0.39959297496E-01 -0.54860604319E-01  0.88932497505E+00  0.88000000000E+00 0.  1.
        -11    1    4    4    0    0 -0.15735884634E-01 -0.14627984836E-02  0.90917077571E-02  0.18239465879E-01  0.51100000000E-03 0. -1.
         11    1    4    4    0    0 -0.82265054123E-01 -0.58115733948E-01  0.51505441916E-01  0.11312846384E+00  0.51100000000E-03 0.  1.
</event>
<event>
 8    1  0.1116619E+005  0.1043930E+01  0.7957747E-01            NaN
         13   -1    0    0    0    0  0.00000000000E+00  0.00000000000E+00  0.74505805969E-08  0.10566000000E+00  0.10566000000E+00 0. -1.
     999900   -1    0    0    0    0 -0.00000000000E+00 -0.00000000000E+00 -0.74505805969E-08  0.93827000000E+00  0.93827000000E+00 0.  1.
     999902    2    1    2    0    0 -0.56326145138E-02 -0.21024088101E-01 -0.55264558029E-02  0.10214738129E+01  0.10212269435E+01 0.  0.
     999903    2    3    3    0    0 -0.10997912192E+00  0.67115404875E-01  0.57276954095E-02  0.13086535808E+00  0.22204743173E-01 0.  0.
         14    1    1    2    0    0  0.56326145138E-02  0.21024088101E-01  0.55264558029E-02  0.22456187131E-01  0.00000000000E+00 0.  1.
     999901    1    3    3    0    0  0.10434650741E+00 -0.88139492976E-01 -0.11254151212E-01  0.89060845479E+00  0.88000000000E+00 0.  1.
        -11    1    4    4    0    0 -0.87104744847E-01  0.42856046675E-01  0.82204799393E-02  0.97425431602E-01  0.51100000000E-03 0. -1.
         11    1    4    4    0    0 -0.22874377074E-01  0.24259358200E-01 -0.24927845298E-02  0.33439926473E-01  0.51100000000E-03 0.  1.
</event>
<event>
 8    1  0.1116619E+005  0.1043930E+01  0.7957747E-01            NaN
         13   -1    0    0    0    0  0.00000000000E+00  0.00000000000E+00  0.74505805969E-08  0.10566000000E+00  0.10566000000E+00 0.  1.
     999900   -1    0    0    0    0 -0.00000000000E+00 -0.00000000000E+00 -0.74505805969E-08  0.93827000000E+00  0.93827000000E+00 0.  1.
     999902    2    1    2    0    0 -0.22745182808E-01 -0.44449094504E-02  0.41155475726E-02  0.10203919820E+01  0.10201204628E+01 0.  0.
     999903    2    3    3    0    0  0.11571615082E+00  0.19296353318E-01 -0.46590832772E-01  0.12780791003E+00  0.20039445040E-01 0.  0.
         14    1    1    2    0    0  0.22745182808E-01  0.44449094504E-02 -0.41155475726E-02  0.23538018030E-01  0.00000000000E+00 0.  1.
     999901    1    3    3    0    0 -0.13846133362E+00 -0.23741262768E-01  0.50706380344E-01  0.89258407194E+00  0.88000000000E+00 0.  1.
        -11    1    4    4    0    0  0.58226233197E-01  0.19209588730E-01 -0.27796288254E-01  0.67321596039E-01  0.51100000000E-03 0.  1.
         11    1    4    4    0    0  0.57489917620E-01  0.86764587169E-04 -0.18794544518E-01  0.60486313995E-01  0.51100000000E-03 0. -1.
</event>
<event>
 8    1  0.1116619E+005  0.1043930E+01  0.7957747E-01            NaN
         13   -1    0    0    0    0  0.00000000000E+00  0.00000000000E+00  0.74505805969E-08  0.10566000000E+00  0.10566000000E+00 0.  1.
     999900   -1    0    0    0    0 -0.00000000000E+00 -0.00000000000E+00 -0.74505805969E-08  0.93827000000E+00  0.93827000000E+00 0. -1.
     999902    2    1    2    0    0 -0.81638366376E-02  0.20019087722E-01 -0.99239676059E-02  0.10201414054E+01  0.10198640055E+01 0.  0.
     999903    2    3    3    0    0  0.11612198990E+00  0.55808898036E-01  0.55526753478E-02  0.13055307154E+00  0.20354917005E-01 0.  0.
         14    1    1    2    0    0  0.81638366376E-02 -0.20019087722E-01  0.99239676059E-02  0.23788594640E-01  0.00000000000E+00 0.  1.
     999901    1    3    3    0    0 -0.12428582653E+00 -0.35789810314E-01 -0.15476642954E-01  0.88958833382E+00  0.88000000000E+00 0. -1.
        -11    1    4    4    0    0  0.79717467597E-01  0.47697517627E-01  0.41167919660E-03  0.92899722436E-01  0.51100000000E-03 0.  1.
         11    1    4    4    0    0  0.36404522300E-01  0.81113804089E-02  0.51409961512E-02  0.37653349100E-01  0.51100000000E-03 0. -1.
</event>
<event>
 8    1  0.1116619E+005  0.1043930E+01  0.7957747E-01            NaN
         13   -1    0    0    0    0  0.00000000000E+00  0.00000000000E+00  0.74505805969E-08  0.10566000000E+00  0.10566000000E+00 0.  1.
     999900   -1    0    0    0    0 -0.00000000000E+00 -0.00000000000E+00 -0.74505805969E-08  0.93827000000E+00  0.93827000000E+00 0. -1.
     999902    2    1    2    0    0  0.10733379903E-02  0.12650971969E-01  0.19228195958E-01  0.10208882408E+01  0.10206281779E+01 0.  0.
     999903    2    3    3    0    0 -0.43100251062E-02  0.12182685314E+00  0.51241272711E-01  0.13354772517E+00  0.18680696137E-01 0.  0.
         14    1    1    2    0    0 -0.10733379903E-02 -0.12650971969E-01 -0.19228195958E-01  0.23041759177E-01  0.00000000000E+00 0. -1.
     999901    1    3    3    0    0  0.53833630965E-02 -0.10917588117E+00 -0.32013076754E-01  0.88734051565E+00  0.88000000000E+00 0. -1.
        -11    1    4    4    0    0 -0.95938809966E-02  0.78992116069E-01  0.26918892318E-01  0.84004076319E-01  0.51100000000E-03 0.  1.
         11    1    4    4    0    0  0.52838558905E-02  0.42834737070E-01  0.24322380394E-01  0.49543648855E-01  0.51100000000E-03 0. -1.
</event>
<event>
 8    1  0.1116619E+005  0.1043930E+01  0.7957747E-01            NaN
         13   -1    0    0    0    0  0.00000000000E+00  0.00000000000E+00  0.74505805969E-08  0.10566000000E+00  0.10566000000E+00 0.  1.
     999900   -1    0    0    0    0 -0.00000000000E+00 -0.00000000000E+00 -0.74505805969E-08  0.93827000000E+00  0.93827000000E+00 0.  1.
     999902    2    1    2    0    0 -0.19351667151E-02 -0.20241332282E-01  0.12240603713E-01  0.10201962944E+01  0.10199201882E+01 0.  0.
     999903    2    3    3    0    0  0.43641126383E-01 -0.25980685137E-01  0.12052564221E+00  0.13236985402E+00  0.20391270434E-01 0.  0.
         14    1    1    2    0    0  0.19351667151E-02  0.20241332282E-01 -0.12240603713E-01  0.23733705611E-01  0.00000000000E+00 0.  1.
     999901    1    3    3    0    0 -0.45576293098E-01  0.57393528550E-02 -0.10828503850E+00  0.88782644037E+00  0.88000000000E+00 0.  1.
        -11    1    4    4    0    0  0.19234395238E-01 -0.23100745769E-01  0.69938234172E-01  0.76126369513E-01  0.51100000000E-03 0. -1.
         11    1    4    4    0    0  0.24406731145E-01 -0.28799393689E-02  0.50587408038E-01  0.56243484502E-01  0.51100000000E-03 0.  1.
</event>
<event>
 8    1  0.1116619E+005  0.1043930E+01  0.7957747E-01            NaN
         13   -1    0    0    0    0  0.00000000000E+00  0.00000000000E+00  0.74505805969E-08  0.10566000000E+00  0.10566000000E+00 0. -1.
     999900   -1    0    0    0    0 -0.00000000000E+00 -0.00000000000E+00 -0.74505805969E-08  0.93827000000E+00  0.93827000000E+00 0.  1.
     999902    2    1    2    0    0 -0.12760575760E-01 -0.15928314284E-01 -0.12169925597E-01  0.10201676226E+01  0.10198908411E+01 0.  0.
     999903    2    3    3    0    0  0.20037321381E-01  0.92614619088E-01  0.83165377629E-01  0.12778536681E+00  0.20824457212E-01 0.  0.
         14    1    1    2    0    0  0.12760575760E-01  0.15928314284E-01  0.12169925597E-01  0.23762377379E-01  0.00000000000E+00 0. -1.
     999901    1    3    3    0    0 -0.32797897141E-01 -0.10854293337E+00 -0.95335303226E-01  0.89238225581E+00  0.88000000000E+00 0.  1.
        -11    1    4    4    0    0  0.13954956008E-01  0.48756392947E-01  0.57228281279E-01  0.76467404491E-01  0.51100000000E-03 0.  1.
         11    1    4    4    0    0  0.60823653736E-02  0.43858226140E-01  0.25937096350E-01  0.51317962321E-01  0.51100000000E-03 0. -1.
</event>
<event>
 8    1  0.1116619E+005  0.1043930E+01  0.7957747E-01            NaN
         13   -1    0    0    0    0  0.00000000000E+00  0.00000000000E+00  0.74505805969E-08  0.10566000000E+00  0.10566000000E+00 0.  1.
     999900   -1    0    0    0    0 -0.00000000000E+00 -0.00000000000E+00 -0.74505805969E-08  0.93827000000E+00  0.93827000000E+00 0.  1.
     999902    2    1    2    0    0 -0.10418131632E-01 -0.14885252766E-01 -0.16251727491E-01  0.10195532311E+01  0.10192617741E+01 0.  0.
     999903    2    3    3    0    0  0.79294388643E-01  0.96436619014E-01 -0.21748191865E-01  0.12799778886E+00  0.17967430149E-01 0.  0.
         14    1    1    2    0    0  0.10418131632E-01  0.14885252766E-01  0.16251727491E-01  0.24376768922E-01  0.00000000000E+00 0.  1.
     999901    1    3    3    0    0 -0.89712520275E-01 -0.11132187178E+00  0.54964643731E-02  0.89155544222E+00  0.88000000000E+00 0. -1.
        -11    1    4    4    0    0  0.25944669957E-01  0.38156080965E-01 -0.37749358508E-03  0.46145596065E-01  0.51100000000E-03 0. -1.
         11    1    4    4    0    0  0.53349718686E-01  0.58280538049E-01 -0.21370698280E-01  0.81852192793E-01  0.51100000000E-03 0.  1.
</event>
<event>
 8    1  0.1116619E+005  0.1043930E+01  0.7957747E-01            NaN
         13   -1    0    0    0    0  0.00000000000E+00  0.00000000000E+00  0.74505805969E-08  0.10566000000E+00  0.10566000000E+00 0.  1.
     999900   -1    0    0    0    0 -0.00000000000E+00 -0.00000000000E+00 -0.74505805969E-08  0.93827000000E+00  0.93827000000E+00 0. -1.
     999902    2    1    2    0    0 -0.11963115799E-02  0.93245456647E-02 -0.21851405574E-01  0.10201421409E+01  0.10198647584E+01 0.  0.
     999903    2    3    3    0    0 -0.46027886554E-01 -0.11929064839E+00 -0.11109709200E-02  0.12942226135E+00  0.20001558533E-01 0.  0.
         14    1    1    2    0    0  0.11963115799E-02 -0.93245456647E-02  0.21851405574E-01  0.23787859063E-01  0.00000000000E+00 0.  1.
     999901    1    3    3    0    0  0.44831574974E-01  0.12861519405E+00 -0.20740434654E-01  0.89071987958E+00  0.88000000000E+00 0. -1.
        -11    1    4    4    0    0 -0.14954021272E-01 -0.57527304631E-01  0.68023830354E-02  0.59829316110E-01  0.51100000000E-03 0. -1.
         11    1    4    4    0    0 -0.31073865282E-01 -0.61763343758E-01 -0.79133539554E-02  0.69592945243E-01  0.51100000000E-03 0.  1.
</event>
<event>
 8    1  0.1116619E+005  0.1043930E+01  0.7957747E-01            NaN
         13   -1    0    0    0    0  0.00000000000E+00  0.00000000000E+00  0.74505805969E-08  0.10566000000E+00  0.10566000000E+00 0. -1.
     999900   -1    0    0    0    0 -0.00000000000E+00 -0.00000000000E+00 -0.74505805969E-08  0.93827000000E+00  0.93827000000E+00 0.  1.
     999902    2    1    2    0    0 -0.97138617301E-02  0.19955299685E-01  0.77416226317E-02  0.10204245577E+01  0.10201537983E+01 0.  0.
     999903    2    3    3    0    0  0.11665946153E+00 -0.48970983675E-01 -0.12277800013E-01  0.12850425487E+00  0.18841760568E-01 0.  0.
         14    1    1    2    0    0  0.97138617301E-02 -0.19955299685E-01 -0.77416226317E-02  0.23505442268E-01  0.00000000000E+00 0. -1.
     999901    1    3    3    0    0 -0.12637332326E+00  0.68926283360E-01  0.20019422644E-01  0.89192030286E+00  0.88000000000E+00 0. -1.
        -11    1    4    4    0    0  0.89820240498E-01 -0.41318362084E-01 -0.24128336318E-02  0.98898764075E-01  0.51100000000E-03 0. -1.
         11    1    4    4    0    0  0.26839221030E-01 -0.76526215908E-02 -0.98649663808E-02  0.29605490798E-01  0.51100000000E-03 0.  1.
</event>
<event>
 8    1  0.1116619E+005  0.1043930E+01  0.7957747E-01            NaN
         13   -1    0    0    0    0  0.00000000000E+00  0.00000000000E+00  0.74505805969E-08  0.10566000000E+00  0.10566000000E+00 0. -1.
     999900   -1    0    0    0    0 -0.00000000000E+00 -0.00000000000E+00 -0.74505805969E-08  0.93827000000E+00  0.93827000000E+00 0.  1.
     999902    2    1    2    0    0 -0.59673482791E-02  0.21173259189E-01  0.81807953672E-02  0.10204599859E+01  0.10201900515E+01 0.  0.
     999903    2    3    3    0    0  0.11075618157E+00 -0.61673035442E-01 -0.11041244884E-01  0.12868794225E+00  0.19188077966E-01 0.  0.
         14    1    1    2    0    0  0.59673482791E-02 -0.21173259189E-01 -0.81807953672E-02  0.23470014125E-01  0.00000000000E+00 0. -1.
     999901    1    3    3    0    0 -0.11672352985E+00  0.82846294631E-01  0.19222040251E-01  0.89177204362E+00  0.88000000000E+00 0. -1.
        -11    1    4    4    0    0  0.36182863788E-01 -0.13306835591E-01 -0.98500023909E-02  0.39793908748E-01  0.51100000000E-03 0.  1.
         11    1    4    4    0    0  0.74573317783E-01 -0.48366199851E-01 -0.11912424929E-02  0.88894033505E-01  0.51100000000E-03 0. -1.
</event>
<event>
 8    1  0.1116619E+005  0.1043930E+01  0.7957747E-01            NaN
         13   -1    0    0    0    0  0.00000000000E+00  0.00000000000E+00  0.74505805969E-08  0.10566000000E+00  0.10566000000E+00 0.  1.
     999900   -1    0    0    0    0 -0.00000000000E+00 -0.00000000000E+00 -0.74505805969E-08  0.93827000000E+00  0.93827000000E+00 0.  1.
     999902    2    1    2    0    0 -0.91540483676E-02  0.14216656628E-01 -0.14453237887E-01  0.10216857645E+01  0.10214435840E+01 0.  0.
     999903    2    3    3    0    0 -0.81511416618E-01  0.10301140885E+00  0.14349246704E-01  0.13379518573E+00  0.20971157623E-01 0.  0.
         14    1    1    2    0    0  0.91540483676E-02 -0.14216656628E-01  0.14453237887E-01  0.22244235491E-01  0.00000000000E+00 0.  1.
     999901    1    3    3    0    0  0.72357368251E-01 -0.88794752220E-01 -0.28802484591E-01  0.88789057878E+00  0.88000000000E+00 0. -1.
        -11    1    4    4    0    0 -0.64282218050E-01  0.77306105559E-01  0.19512624517E-01  0.10241797279E+00  0.51100000000E-03 0. -1.
         11    1    4    4    0    0 -0.17229198568E-01  0.25705303288E-01 -0.51633778126E-02  0.31377212940E-01  0.51100000000E-03 0.  1.
</event>
<event>
 7    1  0.1116619E+005  0.1043930E+01  0.7957747E-01            NaN
         13   -1    0    0    0    0  0.00000000000E+00  0.00000000000E+00  0.74505805969E-08  0.10566000000E+00  0.10566000000E+00 0.  1.
     999900   -1    0    0    0    0 -0.00000000000E+00 -0.00000000000E+00 -0.74505805969E-08  0.93827000000E+00  0.93827000000E+00 0.  1.
     999902    2    1    2    0    0 -0.17864759580E-01  0.12280964601E-01  0.11448748906E-01  0.10194137691E+01  0.10191189268E+01 0.  0.
         14    1    1    2    0    0  0.17864759580E-01 -0.12280964601E-01 -0.11448748906E-01  0.24516230907E-01  0.00000000000E+00 0. -1.
     999901    1    3    3    0    0 -0.44843419147E-02  0.10875518089E+00  0.94012782479E-01  0.89167606336E+00  0.88000000000E+00 0. -1.
        -11    1    3    3    0    0 -0.10680539139E-01 -0.66004250709E-01 -0.57495805402E-01  0.88185394413E-01  0.51100000000E-03 0. -1.
         11    1    3    3    0    0 -0.26998785266E-02 -0.30469965579E-01 -0.25068228171E-01  0.39552311324E-01  0.51100000000E-03 0.  1.
</event>
<event>
 8    1  0.1116619E+005  0.1043930E+01  0.7957747E-01            NaN
         13   -1    0    0    0    0  0.00000000000E+00  0.00000000000E+00  0.74505805969E-08  0.10566000000E+00  0.10566000000E+00 0.  1.
     999900   -1    0    0    0    0 -0.00000000000E+00 -0.00000000000E+00 -0.74505805969E-08  0.93827000000E+00  0.93827000000E+00 0. -1.
     999902    2    1    2    0    0 -0.78585744790E-02 -0.71282483352E-02  0.21397921016E-01  0.10200461113E+01  0.10197664581E+01 0.  0.
     999903    2    3    3    0    0 -0.17051206154E-02  0.38944784608E-01  0.12522257065E+00  0.13272421521E+00  0.20381889450E-01 0.  0.
         14    1    1    2    0    0  0.78585744790E-02  0.71282483352E-02 -0.21397921016E-01  0.23883888732E-01  0.00000000000E+00 0. -1.
     999901    1    3    3    0    0 -0.61534538637E-02 -0.46073032944E-01 -0.10382464963E+00  0.88732189606E+00  0.88000000000E+00 0. -1.
        -11    1    4    4    0    0 -0.10357404873E-01  0.22925714962E-01  0.61458460615E-01  0.66409846743E-01  0.51100000000E-03 0. -1.
         11    1    4    4    0    0  0.86522842580E-02  0.16019069646E-01  0.63764110034E-01  0.66314368463E-01  0.51100000000E-03 0.  1.
</event>
<event>
 8    1  0.1116619E+005  0.1043930E+01  0.7957747E-01            NaN
         13   -1    0    0    0    0  0.00000000000E+00  0.00000000000E+00  0.74505805969E-08  0.10566000000E+00  0.10566000000E+00 0. -1.
     999900   -1    0    0    0    0 -0.00000000000E+00 -0.00000000000E+00 -0.74505805969E-08  0.93827000000E+00  0.93827000000E+00 0.  1.
     999902    2    1    2    0    0  0.16755891943E-01  0.12886772420E-01  0.10202626460E-01  0.10204582637E+01  0.10201882893E+01 0.  0.
     999903    2    3    3    0    0  0.11670873940E+00 -0.29930262579E-01  0.52124298258E-01  0.13277515765E+00  0.19888427526E-01 0.  0.
         14    1    1    2    0    0 -0.16755891943E-01 -0.12886772420E-01 -0.10202626460E-01  0.23471736299E-01  0.00000000000E+00 0. -1.
     999901    1    3    3    0    0 -0.99952847458E-01  0.42817034999E-01 -0.41921671798E-01  0.88768310605E+00  0.88000000000E+00 0.  1.
        -11    1    4    4    0    0  0.75830270492E-01 -0.28028569640E-01  0.29852307566E-01  0.86181506293E-01  0.51100000000E-03 0.  1.
         11    1    4    4    0    0  0.40878468909E-01 -0.19016929395E-02  0.22271990692E-01  0.46593651357E-01  0.51100000000E-03 0. -1.
</event>
<event>
 8    1  0.1116619E+005  0.1043930E+01  0.7957747E-01            NaN
         13   -1    0    0    0    0  0.00000000000E+00  0.00000000000E+00  0.74505805969E-08  0.10566000000E+00  0.10566000000E+00 0.  1.
     999900   -1    0    0    0    0 -0.00000000000E+00 -0.00000000000E+00 -0.74505805969E-08  0.93827000000E+00  0.93827000000E+00 0.  1.
     999902    2    1    2    0    0 -0.12724718711E-01  0.66723946439E-02  0.19005890468E-01  0.10201043166E+01  0.10198260408E+01 0.  0.
     999903    2    3    3    0    0  0.57743338893E-01  0.63575775450E-01 -0.93198979485E-01  0.12836799082E+00  0.20398992119E-01 0.  0.
         14    1    1    2    0    0  0.12724718711E-01 -0.66723946439E-02 -0.19005890468E-01  0.23825683391E-01  0.00000000000E+00 0. -1.
     999901    1    3    3    0    0 -0.70468057605E-01 -0.56903380806E-01  0.11220486995E+00  0.89173632579E+00  0.88000000000E+00 0. -1.
        -11    1    4    4    0    0  0.41731642313E-01  0.53528454599E-01 -0.81778363221E-01  0.10627693651E+00  0.51100000000E-03 0. -1.
         11    1    4    4    0    0  0.16011696580E-01  0.10047320851E-01 -0.11420616264E-01  0.22091054309E-01  0.51100000000E-03 0.  1.
</event>
<event>
 8    1  0.1116619E+005  0.1043930E+01  0.7957747E-01            NaN
         13   -1    0    0    0    0  0.00000000000E+00  0.00000000000E+00  0.74505805969E-08  0.10566000000E+00  0.10566000000E+00 0.  1.
     999900   -1    0    0    0    0 -0.00000000000E+00 -0.00000000000E+00 -0.74505805969E-08  0.93827000000E+00  0.93827000000E+00 0.  1.
     999902    2    1    2    0    0  0.51390586033E-02  0.13262740465E-01  0.19734467342E-01  0.10196038945E+01  0.10193136623E+01 0.  0.
     999903    2    3    3    0    0  0.24384352516E-01 -0.10362746311E+00 -0.66774375537E-01  0.12746182009E+00  0.21317846823E-01 0.  0.
         14    1    1    2    0    0 -0.51390586033E-02 -0.13262740465E-01 -0.19734467342E-01  0.24326105509E-01  0.00000000000E+00 0. -1.
     999901    1    3    3    0    0 -0.19245293912E-01  0.11689020357E+00  0.86508842878E-01  0.89214207441E+00  0.88000000000E+00 0. -1.
        -11    1    4    4    0    0  0.29568491380E-02 -0.49592389286E-01 -0.23316119029E-01  0.54882151557E-01  0.51100000000E-03 0.  1.
         11    1    4    4    0    0  0.21427503378E-01 -0.54035073822E-01 -0.43458256508E-01  0.72579668528E-01  0.51100000000E-03 0. -1.
</event>
<event>
 8    1  0.1116619E+005  0.1043930E+01  0.7957747E-01            NaN
         13   -1    0    0    0    0  0.00000000000E+00  0.00000000000E+00  0.74505805969E-08  0.10566000000E+00  0.10566000000E+00 0. -1.
     999900   -1    0    0    0    0 -0.00000000000E+00 -0.00000000000E+00 -0.74505805969E-08  0.93827000000E+00  0.93827000000E+00 0. -1.
     999902    2    1    2    0    0  0.88296534153E-03 -0.20321867488E-01 -0.12151299458E-01  0.10202358656E+01  0.10199606902E+01 0.  0.
     999903    2    3    3    0    0  0.22069313452E-01  0.11105835534E+00 -0.59164008621E-01  0.12898964872E+00  0.17802715379E-01 0.  0.
         14    1    1    2    0    0 -0.88296534153E-03  0.20321867488E-01  0.12151299458E-01  0.23694134390E-01  0.00000000000E+00 0. -1.
     999901    1    3    3    0    0 -0.21186348111E-01 -0.13138022282E+00  0.47012709163E-01  0.89124621689E+00  0.88000000000E+00 0.  1.
        -11    1    4    4    0    0  0.20648391339E-01  0.64650634078E-01 -0.30377828556E-01  0.74358147774E-01  0.51100000000E-03 0. -1.
         11    1    4    4    0    0  0.14209221135E-02  0.46407721258E-01 -0.28786180065E-01  0.54631500947E-01  0.51100000000E-03 0.  1.
</event>
<event>
 8    1  0.1116619E+005  0.1043930E+01  0.7957747E-01            NaN
         13   -1    0    0    0    0  0.00000000000E+00  0.00000000000E+00  0.74505805969E-08  0.10566000000E+00  0.10566000000E+00 0.  1.
     999900   -1    0    0    0    0 -0.00000000000E+00 -0.00000000000E+00 -0.74505805969E-08  0.93827000000E+00  0.93827000000E+00 0. -1.
     999902    2    1    2    0    0 -0.20004287721E-02 -0.21483775584E-01  0.97971025186E-02  0.10202332165E+01  0.10199579788E+01 0.  0.
     999903    2    3    3    0    0  0.17242923925E-01 -0.11814979881E+00 -0.53506961648E-01  0.13247084337E+00  0.20708356149E-01 0.  0.
         14    1    1    2    0    0  0.20004287721E-02  0.21483775584E-01 -0.97971025186E-02  0.23696783461E-01  0.00000000000E+00 0. -1.
     999901    1    3    3    0    0 -0.19243352697E-01  0.96666023228E-01  0.63304064166E-01  0.88776237317E+00  0.88000000000E+00 0.  1.
        -11    1    4    4    0    0  0.34479190596E-02 -0.69983295460E-01 -0.22714770030E-01  0.73659837686E-01  0.51100000000E-03 0.  1.
         11    1    4    4    0    0  0.13795004865E-01 -0.48166503352E-01 -0.30792191618E-01  0.58811005687E-01  0.51100000000E-03 0. -1.
</event>
<event>
 8    1  0.1116619E+005  0.1043930E+01  0.7957747E-01            NaN
         13   -1    0    0    0    0  0.00000000000E+00  0.00000000000E+00  0.74505805969E-08  0.10566000000E+00  0.10566000000E+00 0.  1.
     999900   -1    0    0    0    0 -0.00000000000E+00 -0.00000000000E+00 -0.74505805969E-08  0.93827000000E+00  0.93827000000E+00 0.  1.
     999902    2    1    2    0    0 -0.10766219177E-02  0.22199566317E-01 -0.77487998116E-02  0.10203922907E+01  0.10201207787E+01 0.  0.
     999903    2    3    3    0    0  0.92740978175E-01 -0.85143946563E-01  0.21088495087E-01  0.12845285252E+00  0.14318869604E-01 0.  0.
         14    1    1    2    0    0  0.10766219177E-02 -0.22199566317E-01  0.77487998116E-02  0.23537709275E-01  0.00000000000E+00 0. -1.
     999901    1    3    3    0    0 -0.93817600093E-01  0.10734351288E+00 -0.28837294899E-01  0.89193943820E+00  0.88000000000E+00 0. -1.
        -11    1    4    4    0    0  0.38292690730E-01 -0.33575956532E-01  0.15458907837E-02  0.50954155078E-01  0.51100000000E-03 0.  1.
         11    1    4    4    0    0  0.54448287445E-01 -0.51567990031E-01  0.19542604303E-01  0.77498697444E-01  0.51100000000E-03 0. -1.
</event>
<event>
 8    1  0.1116619E+005  0.1043930E+01  0.7957747E-01            NaN
         13   -1    0    0    0    0  0.00000000000E+00  0.00000000000E+00  0.74505805969E-08  0.10566000000E+00  0.10566000000E+00 0.  1.
     999900   -1    0    0    0    0 -0.00000000000E+00 -0.00000000000E+00 -0.74505805969E-08  0.93827000000E+00  0.93827000000E+00 0. -1.
     999902    2    1    2    0    0 -0.35795657438E-02  0.67389875964E-02  0.20477344998E-01  0.10220771077E+01  0.10218434641E+01 0.  0.
     999903    2    3    3    0    0  0.78404817484E-01 -0.59022009539E-01 -0.82025594395E-01  0.12991523872E+00  0.22778456940E-01 0.  0.
         14    1    1    2    0    0  0.35795657438E-02 -0.67389875964E-02 -0.20477344998E-01  0.21852892324E-01  0.00000000000E+00 0. -1.
     999901    1    3    3    0    0 -0.81984383228E-01  0.65760997135E-01  0.10250293939E+00  0.89216186896E+00  0.88000000000E+00 0. -1.
        -11    1    4    4    0    0  0.48959682766E-01 -0.22811083315E-01 -0.41835165592E-01  0.68321579751E-01  0.51100000000E-03 0.  1.
         11    1    4    4    0    0  0.29445134718E-01 -0.36210926224E-01 -0.40190428803E-01  0.61593658967E-01  0.51100000000E-03 0. -1.
</event>
<event>
 8    1  0.1116619E+005  0.1043930E+01  0.7957747E-01            NaN
         13   -1    0    0    0    0  0.00000000000E+00  0.00000000000E+00  0.74505805969E-08  0.10566000000E+00  0.10566000000E+00 0. -1.
     999900   -1    0    0    0    0 -0.00000000000E+00 -0.00000000000E+00 -0.74505805969E-08  0.93827000000E+00  0.93827000000E+00 0.  1.
     999902    2    1    2    0    0 -0.69788294140E-02 -0.14222286836E-01 -0.15123432568E-01  0.10220280431E+01  0.10217933378E+01 0.  0.
     999903    2    3    3    0    0 -0.36749924774E-01  0.11949040584E+00  0.30922494790E-01  0.13024015929E+00  0.19436675407E-01 0.  0.
         14    1    1    2    0    0  0.69788294140E-02  0.14222286836E-01  0.15123432568E-01  0.21901956886E-01  0.00000000000E+00 0. -1.
     999901    1    3    3    0    0  0.29771095360E-01 -0.13371269267E+00 -0.46045927357E-01  0.89178788382E+00  0.88000000000E+00 0.  1.
        -11    1    4    4    0    0 -0.16061136817E-01  0.33084376636E-01  0.21317841939E-02  0.36842118806E-01  0.51100000000E-03 0. -1.
         11    1    4    4    0    0 -0.20688787957E-01  0.86406029201E-01  0.28790710596E-01  0.93398040488E-01  0.51100000000E-03 0.  1.
</event>
<event>
 8    1  0.1116619E+005  0.1043930E+01  0.7957747E-01            NaN
         13   -1    0    0    0    0  0.00000000000E+00  0.00000000000E+00  0.74505805969E-08  0.10566000000E+00  0.10566000000E+00 0. -1.
     999900   -1    0    0    0    0 -0.00000000000E+00 -0.00000000000E+00 -0.74505805969E-08  0.93827000000E+00  0.93827000000E+00 0. -1.
     999902    2    1    2    0    0  0.23911994073E-01  0.45729575907E-02  0.39504669597E-03  0.10195814587E+01  0.10192906845E+01 0.  0.
     999903    2    3    3    0    0 -0.46479612585E-01  0.79993425280E-01  0.88178860613E-01  0.12921680126E+00  0.19030706598E-01 0.  0.
         14    1    1    2    0    0 -0.23911994073E-01 -0.45729575907E-02 -0.39504669597E-03  0.24348541303E-01  0.00000000000E+00 0.  1.
     999901    1    3    3    0    0  0.70391606659E-01 -0.75420467690E-01 -0.87783813917E-01  0.89036465744E+00  0.88000000000E+00 0. -1.
        -11    1    4    4    0    0 -0.25454509903E-01  0.44533242120E-01  0.35778907254E-01  0.62542250147E-01  0.51100000000E-03 0.  1.
         11    1    4    4    0    0 -0.21025102682E-01  0.35460183160E-01  0.52399953359E-01  0.66674551109E-01  0.51100000000E-03 0. -1.
</event>
<event>
 8    1  0.1116619E+005  0.1043930E+01  0.7957747E-01            NaN
         13   -1    0    0    0    0  0.00000000000E+00  0.00000000000E+00  0.74505805969E-08  0.10566000000E+00  0.10566000000E+00 0.  1.
     999900   -1    0    0    0    0 -0.00000000000E+00 -0.00000000000E+00 -0.74505805969E-08  0.93827000000E+00  0.93827000000E+00 0. -1.
     999902    2    1    2    0    0  0.12197905366E-01  0.14121088415E-01 -0.13145645387E-01  0.10211045312E+01  0.10208493824E+01 0.  0.
     999903    2    3    3    0    0 -0.77506320971E-01  0.15258029509E-01  0.10035557198E+00  0.12929139651E+00  0.20124292049E-01 0.  0.
         14    1    1    2    0    0 -0.12197905366E-01 -0.14121088415E-01  0.13145645387E-01  0.22825468801E-01  0.00000000000E+00 0.  1.
     999901    1    3    3    0    0  0.89704226337E-01 -0.11369410948E-02 -0.11350121736E+00  0.89181313469E+00  0.88000000000E+00 0.  1.
        -11    1    4    4    0    0 -0.37461647078E-01 -0.19147997828E-02  0.53067518792E-01  0.64988184554E-01  0.51100000000E-03 0.  1.
         11    1    4    4    0    0 -0.40044673894E-01  0.17172829292E-01  0.47288053184E-01  0.64303211958E-01  0.51100000000E-03 0. -1.
</event>
<event>
 8    1  0.1116619E+005  0.1043930E+01  0.7957747E-01            NaN
         13   -1    0    0    0    0  0.00000000000E+00  0.00000000000E+00  0.74505805969E-08  0.10566000000E+00  0.10566000000E+00 0.  1.
     999900   -1    0    0    0    0 -0.00000000000E+00 -0.00000000000E+00 -0.74505805969E-08  0.93827000000E+00  0.93827000000E+00 0. -1.
     999902    2    1    2    0    0 -0.99851394323E-02  0.32964656237E-02 -0.21564836930E-01  0.10199380871E+01  0.10196558682E+01 0.  0.
     999903    2    3    3    0    0  0.73388154905E-01 -0.10434080213E+00  0.37407540166E-02  0.12910855198E+00  0.19549953560E-01 0.  0.
         14    1    1    2    0    0  0.99851394323E-02 -0.32964656237E-02  0.21564836930E-01  0.23991912948E-01  0.00000000000E+00 0.  1.
     999901    1    3    3    0    0 -0.83373294337E-01  0.10763726776E+00 -0.25305590946E-01  0.89082953507E+00  0.88000000000E+00 0. -1.
        -11    1    4    4    0    0  0.29005898491E-01 -0.44314118861E-01 -0.79027378034E-02  0.53551822223E-01  0.51100000000E-03 0.  1.
         11    1    4    4    0    0  0.44382256413E-01 -0.60026683273E-01  0.11643491820E-01  0.75556729759E-01  0.51100000000E-03 0. -1.
</event>
<event>
 8    1  0.1116619E+005  0.1043930E+01  0.7957747E-01            NaN
         13   -1    0    0    0    0  0.00000000000E+00  0.00000000000E+00  0.74505805969E-08  0.10566000000E+00  0.10566000000E+00 0.  1.
     999900   -1    0    0    0    0 -0.00000000000E+00 -0.00000000000E+00 -0.74505805969E-08  0.93827000000E+00  0.93827000000E+00 0.  1.
     999902    2    1    2    0    0 -0.46827175094E-02  0.15931489872E-01 -0.17120378226E-01  0.10200794746E+01  0.10198006113E+01 0.  0.
     999903    2    3    3    0    0 -0.12100071196E+00  0.37376319038E-01  0.26865125849E-01  0.13107751670E+00  0.20528489387E-01 0.  0.
         14    1    1    2    0    0  0.46827175094E-02 -0.15931489872E-01  0.17120378226E-01  0.23850525432E-01  0.00000000000E+00 0.  1.
     999901    1    3    3    0    0  0.11631799445E+00 -0.21444829166E-01 -0.43985504075E-01  0.88900195787E+00  0.88000000000E+00 0.  1.
        -11    1    4    4    0    0 -0.26843295134E-01  0.58537433145E-02  0.14339462598E-01  0.30995324051E-01  0.51100000000E-03 0.  1.
         11    1    4    4    0    0 -0.94157416827E-01  0.31522575723E-01  0.12525663251E-01  0.10008219264E+00  0.51100000000E-03 0. -1.
</event>
<event>
 8    1  0.1116619E+005  0.1043930E+01  0.7957747E-01            NaN
         13   -1    0    0    0    0  0.00000000000E+00  0.00000000000E+00  0.74505805969E-08  0.10566000000E+00  0.10566000000E+00 0.  1.
     999900   -1    0    0    0    0 -0.00000000000E+00 -0.00000000000E+00 -0.74505805969E-08  0.93827000000E+00  0.93827000000E+00 0.  1.
     999902    2    1    2    0    0 -0.72693895564E-02  0.17192529248E-01 -0.16318338534E-01  0.10191365481E+01  0.10188349171E+01 0.  0.
     999903    2    3    3    0    0 -0.81877110604E-01  0.58101572786E-01 -0.84517633963E-01  0.13240603332E+00  0.17563405332E-01 0.  0.
         14    1    1    2    0    0  0.72693895564E-02 -0.17192529248E-01  0.16318338534E-01  0.24793451938E-01  0.00000000000E+00 0.  1.
     999901    1    3    3    0    0  0.74607721048E-01 -0.40909043538E-01  0.68199295429E-01  0.88673051475E+00  0.88000000000E+00 0. -1.
        -11    1    4    4    0    0 -0.50069683634E-01  0.43966071739E-01 -0.61465017201E-01  0.90654278133E-01  0.51100000000E-03 0.  1.
         11    1    4    4    0    0 -0.31807426970E-01  0.14135501048E-01 -0.23052616762E-01  0.41751755183E-01  0.51100000000E-03 0. -1.
</event>
<event>
 8    1  0.1116619E+005  0.1043930E+01  0.7957747E-01            NaN
         13   -1    0    0    0    0  0.00000000000E+00  0.00000000000E+00  0.74505805969E-08  0.10566000000E+00  0.10566000000E+00 0. -1.
     999900   -1    0    0    0    0 -0.00000000000E+00 -0.00000000000E+00 -0.74505805969E-08  0.93827000000E+00  0.93827000000E+00 0.  1.
     999902    2    1    2    0    0 -0.21390339975E-01  0.77288000252E-02  0.59434311398E-02  0.10204224402E+01  0.10201516314E+01 0.  0.
     999903    2    3    3    0    0  0.87762743821E-01 -0.55960867355E-01  0.73239378710E-01  0.12885106673E+00  0.20116483910E-01 0.  0.
         14    1    1    2    0    0  0.21390339975E-01 -0.77288000252E-02 -0.59434311398E-02  0.23507559801E-01  0.00000000000E+00 0.  1.
     999901    1    3    3    0    0 -0.10915308380E+00  0.63689667381E-01 -0.67295947570E-01  0.89157137347E+00  0.88000000000E+00 0.  1.
        -11    1    4    4    0    0  0.30676903975E-01 -0.27368388959E-01  0.20009517838E-01  0.45724644086E-01  0.51100000000E-03 0.  1.
         11    1    4    4    0    0  0.57085839846E-01 -0.28592478397E-01  0.53229860871E-01  0.83126422641E-01  0.51100000000E-03 0. -1.
</event>
<event>
 8    1  0.1116619E+005  0.1043930E+01  0.7957747E-01            NaN
         13   -1    0    0    0    0  0.00000000000E+00  0.00000000000E+00  0.74505805969E-08  0.10566000000E+00  0.10566000000E+00 0. -1.
     999900   -1    0    0    0    0 -0.00000000000E+00 -0.00000000000E+00 -0.74505805969E-08  0.93827000000E+00  0.93827000000E+00 0.  1.
     999902    2    1    2    0    0 -0.31895141687E-02 -0.22800159383E-01 -0.47881132016E-02  0.10204151898E+01  0.10201442120E+01 0.  0.
     999903    2    3    3    0    0  0.41745583754E-01 -0.23188560068E-01  0.11971113248E+00  0.13051666976E+00  0.20577724978E-01 0.  0.
         14    1    1    2    0    0  0.31895141687E-02  0.22800159383E-01  0.47881132016E-02  0.23514810154E-01  0.00000000000E+00 0.  1.
     999901    1    3    3    0    0 -0.44935097923E-01  0.38840068427E-03 -0.12449924568E+00  0.88989852009E+00  0.88000000000E+00 0.  1.
        -11    1    4    4    0    0  0.21409275202E-01 -0.18182605617E-01  0.89093905270E-01  0.93418142183E-01  0.51100000000E-03 0. -1.
         11    1    4    4    0    0  0.20336308552E-01 -0.50059544507E-02  0.30617227205E-01  0.37098527575E-01  0.51100000000E-03 0.  1.
</event>
<event>
 8    1  0.1116619E+005  0.1043930E+01  0.7957747E-01            NaN
         13   -1    0    0    0    0  0.00000000000E+00  0.00000000000E+00  0.74505805969E-08  0.10566000000E+00  0.10566000000E+00 0. -1.
     999900   -1    0    0    0    0 -0.00000000000E+00 -0.00000000000E+00 -0.74505805969E-08  0.93827000000E+00  0.93827000000E+00 0. -1.
     999902    2    1    2    0    0  0.78876942268E-02 -0.19147382529E-01 -0.12332931384E-01  0.10198273202E+01  0.10195424581E+01 0.  0.
     999903    2    3    3    0    0 -0.11414832426E+00 -0.55953729409E-01  0.19177114805E-01  0.13008557114E+00  0.19845259377E-01 0.  0.
         14    1    1    2    0    0 -0.78876942268E-02  0.19147382529E-01  0.12332931384E-01  0.24102679819E-01  0.00000000000E+00 0. -1.
     999901    1    3    3    0    0  0.12203601849E+00  0.36806346880E-01 -0.31510046189E-01  0.88974174904E+00  0.88000000000E+00 0. -1.
        -11    1    4    4    0    0 -0.22809505715E-01 -0.29103175739E-02  0.22030156789E-02  0.23105365143E-01  0.51100000000E-03 0.  1.
         11    1    4    4    0    0 -0.91338818547E-01 -0.53043411835E-01  0.16974099126E-01  0.10698020600E+00  0.51100000000E-03 0. -1.
</event>
<event>
 8    1  0.1116619E+005  0.1043930E+01  0.7957747E-01            NaN
         13   -1    0    0    0    0  0.00000000000E+00  0.00000000000E+00  0.74505805969E-08  0.10566000000E+00  0.10566000000E+00 0.  1.
     999900   -1    0    0    0    0 -0.00000000000E+00 -0.00000000000E+00 -0.74505805969E-08  0.93827000000E+00  0.93827000000E+00 0.  1.
     999902    2    1    2    0    0  0.16887104261E-01 -0.59377270348E-02 -0.15295012147E-01  0.10203849732E+01  0.10201132903E+01 0.  0.
     999903    2    3    3    0    0 -0.33718699006E-01  0.79910845875E-01  0.92609514318E-01  0.12821104861E+00  0.18408065989E-01 0.  0.
         14    1    1    2    0    0 -0.16887104261E-01  0.59377270348E-02  0.15295012147E-01  0.23545026847E-01  0.00000000000E+00 0.  1.
     999901    1    3    3    0    0  0.50605803267E-01 -0.85848572909E-01 -0.10790452646E+00  0.89217392454E+00  0.88000000000E+00 0.  1.
        -11    1    4    4    0    0 -0.12326699486E-02  0.23635237815E-01  0.23825829037E-01  0.33586830635E-01  0.51100000000E-03 0. -1.
         11    1    4    4    0    0 -0.32486029057E-01  0.56275608059E-01  0.68783685281E-01  0.94624217979E-01  0.51100000000E-03 0.  1.
</event>
<event>
 8    1  0.1116619E+005  0.1043930E+01  0.7957747E-01            NaN
         13   -1    0    0    0    0  0.00000000000E+00  0.00000000000E+00  0.74505805969E-08  0.10566000000E+00  0.10566000000E+00 0. -1.
     999900   -1    0    0    0    0 -0.00000000000E+00 -0.00000000000E+00 -0.74505805969E-08  0.93827000000E+00  0.93827000000E+00 0. -1.
     999902    2    1    2    0    0  0.12558680288E-01  0.72155333626E-02  0.17632742422E-01  0.10211111925E+01  0.10208561943E+01 0.  0.
     999903    2    3    3    0    0  0.11889071430E+00  0.29715611893E-01  0.49040835055E-01  0.13386870966E+00  0.22311619993E-01 0.  0.
         14    1    1    2    0    0 -0.12558680288E-01 -0.72155333626E-02 -0.17632742422E-01  0.22818807542E-01  0.00000000000E+00 0.  1.
     999901    1    3    3    0    0 -0.10633203401E+00 -0.22500078530E-01 -0.31408092632E-01  0.88724248279E+00  0.88000000000E+00 0. -1.
        -11    1    4    4    0    0  0.40282101560E-01  0.10755153697E-01  0.55888294869E-02  0.42069195062E-01  0.51100000000E-03 0.  1.
         11    1    4    4    0    0  0.78608612743E-01  0.18960458195E-01  0.43452005568E-01  0.91799514602E-01  0.51100000000E-03 0. -1.
</event>
<event>
 8    1  0.1116619E+005  0.1043930E+01  0.7957747E-01            NaN
         13   -1    0    0    0    0  0.00000000000E+00  0.00000000000E+00  0.74505805969E-08  0.10566000000E+00  0.10566000000E+00 0.  1.
     999900   -1    0    0    0    0 -0.00000000000E+00 -0.00000000000E+00 -0.74505805969E-08  0.93827000000E+00  0.93827000000E+00 0. -1.
     999902    2    1    2    0    0  0.21490420792E-01  0.73128859864E-02 -0.48665043720E-02  0.10207136404E+01  0.10204495756E+01 0.  0.
     999903    2    3    3    0    0 -0.12275733222E+00  0.32779138195E-01  0.19895852694E-02  0.12857970977E+00  0.19620112186E-01 0.  0.
         14    1    1    2    0    0 -0.21490420792E-01 -0.73128859864E-02  0.48665043720E-02  0.23216359578E-01  0.00000000000E+00 0. -1.
     999901    1    3    3    0    0  0.14424775301E+00 -0.25466252208E-01 -0.68560896415E-02  0.89213393065E+00  0.88000000000E+00 0. -1.
        -11    1    4    4    0    0 -0.54186035945E-01  0.11836268816E-01  0.10250861536E-01  0.56405363523E-01  0.51100000000E-03 0.  1.
         11    1    4    4    0    0 -0.68571296272E-01  0.20942869378E-01 -0.82612762666E-02  0.72174346251E-01  0.51100000000E-03 0. -1.
</event>
<event>
 8    1  0.1116619E+005  0.1043930E+01  0.7957747E-01            NaN
         13   -1    0    0    0    0  0.00000000000E+00  0.00000000000E+00  0.74505805969E-08  0.10566000000E+00  0.10566000000E+00 0.  1.
     999900   -1    0    0    0    0 -0.00000000000E+00 -0.00000000000E+00 -0.74505805969E-08  0.93827000000E+00  0.93827000000E+00 0.  1.
     999902    2    1    2    0    0  0.15849143075E-01  0.18278746933E-01 -0.41955787852E-02  0.10193757579E+01  0.10190799895E+01 0.  0.
     999903    2    3    3    0    0 -0.27944331519E-01  0.11757024750E-01  0.12383648859E+00  0.12900919764E+00  0.19717603181E-01 0.  0.
         14    1    1    2    0    0 -0.15849143075E-01 -0.18278746933E-01  0.41955787852E-02  0.24554242138E-01  0.00000000000E+00 0.  1.
     999901    1    3    3    0    0  0.43793474594E-01  0.65217221828E-02 -0.12803206738E+00  0.89036656022E+00  0.88000000000E+00 0.  1.
        -11    1    4    4    0    0 -0.22765753353E-02  0.68842398023E-03  0.49967656291E-01  0.50026837988E-01  0.51100000000E-03 0.  1.
         11    1    4    4    0    0 -0.25667756184E-01  0.11068600770E-01  0.73868832300E-01  0.78982359656E-01  0.51100000000E-03 0. -1.
</event>
<event>
 7    1  0.1116619E+005  0.1043930E+01  0.7957747E-01            NaN
         13   -1    0    0    0    0  0.00000000000E+00  0.00000000000E+00  0.74505805969E-08  0.10566000000E+00  0.10566000000E+00 0.  1.
     999900   -1    0    0    0    0 -0.00000000000E+00 -0.00000000000E+00 -0.74505805969E-08  0.93827000000E+00  0.93827000000E+00 0. -1.
     999903    2    1    2    0    0 -0.48509451076E-01 -0.26792787245E-03  0.10573247892E+00  0.11792393330E+00  0.19325069689E-01 0.  0.
         14    1    1    2    0    0  0.24741382814E-02  0.36935814748E-01 -0.12748136000E-01  0.39152148635E-01  0.00000000000E+00 0. -1.
     999901    1    1    2    0    0  0.46035312794E-01 -0.36667886875E-01 -0.92984342919E-01  0.88685391806E+00  0.88000000000E+00 0. -1.
        -11    1    3    3    0    0  0.15304260615E-02 -0.10137085575E-02  0.66668799982E-02  0.69338458938E-02  0.51100000000E-03 0.  1.
         11    1    3    3    0    0 -0.50039877137E-01  0.74578068506E-03  0.99065598920E-01  0.11099008741E+00  0.51100000000E-03 0. -1.
</event>
<event>
 8    1  0.1116619E+005  0.1043930E+01  0.7957747E-01            NaN
         13   -1    0    0    0    0  0.00000000000E+00  0.00000000000E+00  0.74505805969E-08  0.10566000000E+00  0.10566000000E+00 0. -1.
     999900   -1    0    0    0    0 -0.00000000000E+00 -0.00000000000E+00 -0.74505805969E-08  0.93827000000E+00  0.93827000000E+00 0. -1.
     999902    2    1    2    0    0  0.54380254012E-02 -0.47360790235E-02  0.23037486470E-01  0.10197902331E+01  0.10195044831E+01 0.  0.
     999903    2    3    3    0    0  0.77406310513E-01  0.10256707369E+00  0.23873640198E-02  0.13011623198E+00  0.20317303103E-01 0.  0.
         14    1    1    2    0    0 -0.54380254012E-02  0.47360790235E-02 -0.23037486470E-01  0.24139766934E-01  0.00000000000E+00 0.  1.
     999901    1    3    3    0    0 -0.71968285112E-01 -0.10730315272E+00  0.20650122450E-01  0.88967400108E+00  0.88000000000E+00 0.  1.
        -11    1    4    4    0    0  0.60718618722E-01  0.89276195332E-01  0.73102633391E-02  0.10821594514E+00  0.51100000000E-03 0.  1.
         11    1    4    4    0    0  0.16687691790E-01  0.13290878362E-01 -0.49228993194E-02  0.21900286839E-01  0.51100000000E-03 0. -1.
</event>
<event>
 8    1  0.1116619E+005  0.1043930E+01  0.7957747E-01            NaN
         13   -1    0    0    0    0  0.00000000000E+00  0.00000000000E+00  0.74505805969E-08  0.10566000000E+00  0.10566000000E+00 0.  1.
     999900   -1    0    0    0    0 -0.00000000000E+00 -0.00000000000E+00 -0.74505805969E-08  0.93827000000E+00  0.93827000000E+00 0. -1.
     999902    2    1    2    0    0  0.14848176095E-01  0.18135373725E-01  0.12737409730E-02  0.10204569829E+01  0.10201869787E+01 0.  0.
     999903    2    3    3    0    0 -0.53770019137E-01  0.11542533717E-01 -0.11603354106E+00  0.13000040305E+00  0.20294755530E-01 0.  0.
         14    1    1    2    0    0 -0.14848176095E-01 -0.18135373725E-01 -0.12737409730E-02  0.23473017053E-01  0.00000000000E+00 0. -1.
     999901    1    3    3    0    0  0.68618195232E-01  0.65928400086E-02  0.11730728203E+00  0.89045657989E+00  0.88000000000E+00 0.  1.
        -11    1    4    4    0    0 -0.18214810876E-01  0.32150003998E-02 -0.62608354801E-01  0.65285394804E-01  0.51100000000E-03 0.  1.
         11    1    4    4    0    0 -0.35555208261E-01  0.83275333169E-02 -0.53425186254E-01  0.64715008251E-01  0.51100000000E-03 0. -1.
</event>
<event>
 8    1  0.1116619E+005  0.1043930E+01  0.7957747E-01            NaN
         13   -1    0    0    0    0  0.00000000000E+00  0.00000000000E+00  0.74505805969E-08  0.10566000000E+00  0.10566000000E+00 0. -1.
     999900   -1    0    0    0    0 -0.00000000000E+00 -0.00000000000E+00 -0.74505805969E-08  0.93827000000E+00  0.93827000000E+00 0.  1.
     999902    2    1    2    0    0 -0.22437607667E-01  0.48002976109E-02 -0.51208830833E-02  0.10204201608E+01  0.10201492989E+01 0.  0.
     999903    2    3    3    0    0  0.93791355288E-01  0.52285618997E-01  0.67695536622E-01  0.12853100932E+00  0.20172515888E-01 0.  0.
         14    1    1    2    0    0  0.22437607667E-01 -0.48002976109E-02  0.51208830833E-02  0.23509839186E-01  0.00000000000E+00 0. -1.
     999901    1    3    3    0    0 -0.11622896296E+00 -0.47485321387E-01 -0.72816419705E-01  0.89188915150E+00  0.88000000000E+00 0.  1.
        -11    1    4    4    0    0  0.18484794390E-01  0.16712694476E-01  0.23442491182E-01  0.34217149123E-01  0.51100000000E-03 0. -1.
         11    1    4    4    0    0  0.75306560898E-01  0.35572924522E-01  0.44253045440E-01  0.94313860196E-01  0.51100000000E-03 0.  1.
</event>
<event>
 8    1  0.1116619E+005  0.1043930E+01  0.7957747E-01            NaN
         13   -1    0    0    0    0  0.00000000000E+00  0.00000000000E+00  0.74505805969E-08  0.10566000000E+00  0.10566000000E+00 0. -1.
     999900   -1    0    0    0    0 -0.00000000000E+00 -0.00000000000E+00 -0.74505805969E-08  0.93827000000E+00  0.93827000000E+00 0. -1.
     999902    2    1    2    0    0  0.21408439831E-01  0.29191591649E-02  0.92740082089E-02  0.10204172372E+01  0.10201463071E+01 0.  0.
     999903    2    3    3    0    0 -0.69398471949E-01  0.10712612654E+00 -0.73872111345E-02  0.12947246702E+00  0.20405732835E-01 0.  0.
         14    1    1    2    0    0 -0.21408439831E-01 -0.29191591649E-02 -0.92740082089E-02  0.23512762800E-01  0.00000000000E+00 0. -1.
     999901    1    3    3    0    0  0.90806911780E-01 -0.10420696737E+00  0.16661219343E-01  0.89094477018E+00  0.88000000000E+00 0.  1.
        -11    1    4    4    0    0 -0.16005094321E-01  0.37939464952E-01  0.38403149630E-02  0.41359100390E-01  0.51100000000E-03 0. -1.
         11    1    4    4    0    0 -0.53393377627E-01  0.69186661587E-01 -0.11227526097E-01  0.88113366632E-01  0.51100000000E-03 0.  1.
</event>
<event>
 8    1  0.1116619E+005  0.1043930E+01  0.7957747E-01            NaN
         13   -1    0    0    0    0  0.00000000000E+00  0.00000000000E+00  0.74505805969E-08  0.10566000000E+00  0.10566000000E+00 0.  1.
     999900   -1    0    0    0    0 -0.00000000000E+00 -0.00000000000E+00 -0.74505805969E-08  0.93827000000E+00  0.93827000000E+00 0.  1.
     999902    2    1    2    0    0  0.58883136430E-02 -0.22304108757E-01  0.32672446566E-02  0.10206314938E+01  0.10203655353E+01 0.  0.
     999903    2    3    3    0    0  0.72174729951E-01  0.91715970685E-01 -0.51712560359E-01  0.12910625775E+00  0.19319057134E-01 0.  0.
         14    1    1    2    0    0 -0.58883136430E-02  0.22304108757E-01 -0.32672446566E-02  0.23298506232E-01  0.00000000000E+00 0.  1.
     999901    1    3    3    0    0 -0.66286416308E-01 -0.11402007944E+00  0.54979805016E-01  0.89152523602E+00  0.88000000000E+00 0. -1.
        -11    1    4    4    0    0  0.14185285690E-01  0.17833413428E-01 -0.18920607773E-01  0.29622685295E-01  0.51100000000E-03 0.  1.
         11    1    4    4    0    0  0.57989444261E-01  0.73882557257E-01 -0.32791952586E-01  0.99483572453E-01  0.51100000000E-03 0. -1.
</event>
<event>
 8    1  0.1116619E+005  0.1043930E+01  0.7957747E-01            NaN
         13   -1    0    0    0    0  0.00000000000E+00  0.00000000000E+00  0.74505805969E-08  0.10566000000E+00  0.10566000000E+00 0.  1.
     999900   -1    0    0    0    0 -0.00000000000E+00 -0.00000000000E+00 -0.74505805969E-08  0.93827000000E+00  0.93827000000E+00 0.  1.
     999902    2    1    2    0    0 -0.32298443630E-02 -0.13183932872E-01  0.17348111824E-01  0.10219026315E+01  0.10216652011E+01 0.  0.
     999903    2    3    3    0    0  0.11107035720E+00 -0.65298110049E-01  0.26633550147E-01  0.13293320404E+00  0.19011136692E-01 0.  0.
         14    1    1    2    0    0  0.32298443630E-02  0.13183932872E-01 -0.17348111824E-01  0.22027368531E-01  0.00000000000E+00 0. -1.
     999901    1    3    3    0    0 -0.11430020156E+00  0.52114177177E-01 -0.92854383231E-02  0.88896942743E+00  0.88000000000E+00 0.  1.
        -11    1    4    4    0    0  0.68129470378E-01 -0.29165636550E-01  0.15657060035E-01  0.75747367870E-01  0.51100000000E-03 0. -1.
         11    1    4    4    0    0  0.42940886821E-01 -0.36132473498E-01  0.10976490111E-01  0.57185836168E-01  0.51100000000E-03 0.  1.
</event>
<event>
 8    1  0.1116619E+005  0.1043930E+01  0.7957747E-01            NaN
         13   -1    0    0    0    0  0.00000000000E+00  0.00000000000E+00  0.74505805969E-08  0.10566000000E+00  0.10566000000E+00 0.  1.
     999900   -1    0    0    0    0 -0.00000000000E+00 -0.00000000000E+00 -0.74505805969E-08  0.93827000000E+00  0.93827000000E+00 0. -1.
     999902    2    1    2    0    0  0.30326875039E-02 -0.24673192295E-02  0.84018481032E-02  0.10346630744E+01  0.10346215742E+01 0.  0.
     999903    2    3    3    0    0  0.30296731539E-01 -0.11658597416E+00 -0.74567275691E-01  0.14300715931E+00  0.19508656929E-01 0.  0.
         14    1    1    2    0    0 -0.30326875039E-02  0.24673192295E-02 -0.84018481032E-02  0.92669255541E-02  0.00000000000E+00 0. -1.
     999901    1    3    3    0    0 -0.27264044035E-01  0.11411865493E+00  0.82969123795E-01  0.89165591514E+00  0.88000000000E+00 0.  1.
        -11    1    4    4    0    0  0.71063861890E-02 -0.65803573230E-01 -0.41375332331E-01  0.78056327232E-01  0.51100000000E-03 0.  1.
         11    1    4    4    0    0  0.23190345350E-01 -0.50782400933E-01 -0.33191943360E-01  0.64950832073E-01  0.51100000000E-03 0. -1.
</event>
<event>
 8    1  0.1116619E+005  0.1043930E+01  0.7957747E-01            NaN
         13   -1    0    0    0    0  0.00000000000E+00  0.00000000000E+00  0.74505805969E-08  0.10566000000E+00  0.10566000000E+00 0.  1.
     999900   -1    0    0    0    0 -0.00000000000E+00 -0.00000000000E+00 -0.74505805969E-08  0.93827000000E+00  0.93827000000E+00 0.  1.
     999902    2    1    2    0    0 -0.20686547935E-01  0.59645835376E-02  0.10909481142E-01  0.10197944184E+01  0.10195087687E+01 0.  0.
     999903    2    3    3    0    0 -0.82161822817E-01 -0.56797393075E-01 -0.82044570492E-01  0.13054825961E+00  0.18303757879E-01 0.  0.
         14    1    1    2    0    0  0.20686547935E-01 -0.59645835376E-02 -0.10909481142E-01  0.24135581639E-01  0.00000000000E+00 0. -1.
     999901    1    3    3    0    0  0.61475274882E-01  0.62761976613E-01  0.92954051633E-01  0.88924615875E+00  0.88000000000E+00 0. -1.
        -11    1    4    4    0    0 -0.63553070231E-01 -0.40841889845E-01 -0.70939669794E-01  0.10363276786E+00  0.51100000000E-03 0.  1.
         11    1    4    4    0    0 -0.18608752586E-01 -0.15955503230E-01 -0.11104900697E-01  0.26915491759E-01  0.51100000000E-03 0. -1.
</event>
<event>
 8    1  0.1116619E+005  0.1043930E+01  0.7957747E-01            NaN
         13   -1    0    0    0    0  0.00000000000E+00  0.00000000000E+00  0.74505805969E-08  0.10566000000E+00  0.10566000000E+00 0.  1.
     999900   -1    0    0    0    0 -0.00000000000E+00 -0.00000000000E+00 -0.74505805969E-08  0.93827000000E+00  0.93827000000E+00 0. -1.
     999902    2    1    2    0    0  0.22491613545E-01  0.69682977322E-02  0.22326107625E-02  0.10202780571E+01  0.10200038722E+01 0.  0.
     999903    2    3    3    0    0 -0.84247757236E-01 -0.93113661782E-01 -0.21404711775E-02  0.12818567636E+00  0.25673866023E-01 0.  0.
         14    1    1    2    0    0 -0.22491613545E-01 -0.69682977322E-02 -0.22326107625E-02  0.23651942922E-01  0.00000000000E+00 0. -1.
     999901    1    3    3    0    0  0.10673937078E+00  0.10008195951E+00  0.43730819400E-02  0.89209238072E+00  0.88000000000E+00 0. -1.
        -11    1    4    4    0    0 -0.45501251450E-01 -0.32829912158E-01 -0.59206997811E-02  0.56422361016E-01  0.51100000000E-03 0.  1.
         11    1    4    4    0    0 -0.38746505786E-01 -0.60283749624E-01  0.37802286036E-02  0.71763315341E-01  0.51100000000E-03 0. -1.
</event>
<event>
 8    1  0.1116619E+005  0.1043930E+01  0.7957747E-01            NaN
         13   -1    0    0    0    0  0.00000000000E+00  0.00000000000E+00  0.74505805969E-08  0.10566000000E+00  0.10566000000E+00 0.  1.
     999900   -1    0    0    0    0 -0.00000000000E+00 -0.00000000000E+00 -0.74505805969E-08  0.93827000000E+00  0.93827000000E+00 0.  1.
     999902    2    1    2    0    0 -0.19009364813E-01 -0.11355039102E-01  0.81088704807E-02  0.10203493587E+01  0.10200768438E+01 0.  0.
     999903    2    3    3    0    0  0.95138633232E-01  0.63494327425E-01  0.55134240720E-01  0.12858505207E+00  0.20284032357E-01 0.  0.
         14    1    1    2    0    0  0.19009364813E-01  0.11355039102E-01 -0.81088704807E-02  0.23580641299E-01  0.00000000000E+00 0. -1.
     999901    1    3    3    0    0 -0.11414799805E+00 -0.74849366527E-01 -0.47025370239E-01  0.89176430663E+00  0.88000000000E+00 0.  1.
        -11    1    4    4    0    0  0.38280697813E-01  0.18611487728E-01  0.29295174954E-01  0.51674633013E-01  0.51100000000E-03 0.  1.
         11    1    4    4    0    0  0.56857935419E-01  0.44882839697E-01  0.25839065766E-01  0.76910419061E-01  0.51100000000E-03 0. -1.
</event>
<event>
 8    1  0.1116619E+005  0.1043930E+01  0.7957747E-01            NaN
         13   -1    0    0    0    0  0.00000000000E+00  0.00000000000E+00  0.74505805969E-08  0.10566000000E+00  0.10566000000E+00 0.  1.
     999900   -1    0    0    0    0 -0.00000000000E+00 -0.00000000000E+00 -0.74505805969E-08  0.93827000000E+00  0.93827000000E+00 0.  1.
     999902    2    1    2    0    0  0.21213643259E-01  0.63664654993E-02 -0.81623207091E-02  0.10203254661E+01  0.10200523921E+01 0.  0.
     999903    2    3    3    0    0 -0.84380881601E-02 -0.22037991611E-01  0.12552154582E+00  0.12928258576E+00  0.20036319733E-01 0.  0.
         14    1    1    2    0    0 -0.21213643259E-01 -0.63664654993E-02  0.81623207091E-02  0.23604533943E-01  0.00000000000E+00 0.  1.
     999901    1    3    3    0    0  0.29651731420E-01  0.28404457110E-01 -0.13368386653E+00  0.89104288030E+00  0.88000000000E+00 0.  1.
        -11    1    4    4    0    0 -0.99894474789E-02 -0.66309613654E-02  0.85989269774E-01  0.86822660330E-01  0.51100000000E-03 0. -1.
         11    1    4    4    0    0  0.15513593188E-02 -0.15407030245E-01  0.39532276050E-01  0.42459925428E-01  0.51100000000E-03 0.  1.
</event>
<event>
 8    1  0.1116619E+005  0.1043930E+01  0.7957747E-01            NaN
         13   -1    0    0    0    0  0.00000000000E+00  0.00000000000E+00  0.74505805969E-08  0.10566000000E+00  0.10566000000E+00 0. -1.
     999900   -1    0    0    0    0 -0.00000000000E+00 -0.00000000000E+00 -0.74505805969E-08  0.93827000000E+00  0.93827000000E+00 0. -1.
     999902    2    1    2    0    0  0.18888394642E-01  0.53182934014E-02 -0.14113588491E-01  0.10197587552E+01  0.10194722506E+01 0.  0.
     999903    2    3    3    0    0  0.14153411128E-01  0.51935446109E-01  0.11553621813E+00  0.12902610652E+00  0.20037685918E-01 0.  0.
         14    1    1    2    0    0 -0.18888394642E-01 -0.53182934014E-02  0.14113588491E-01  0.24171244836E-01  0.00000000000E+00 0. -1.
     999901    1    3    3    0    0  0.47349835135E-02 -0.46617152707E-01 -0.12964980662E+00  0.89073264864E+00  0.88000000000E+00 0. -1.
        -11    1    4    4    0    0  0.68046732787E-02  0.37491615815E-01  0.59213702489E-01  0.70416251805E-01  0.51100000000E-03 0.  1.
         11    1    4    4    0    0  0.73487378496E-02  0.14443830293E-01  0.56322515637E-01  0.58609854719E-01  0.51100000000E-03 0. -1.
</event>
<event>
 8    1  0.1116619E+005  0.1043930E+01  0.7957747E-01            NaN
         13   -1    0    0    0    0  0.00000000000E+00  0.00000000000E+00  0.74505805969E-08  0.10566000000E+00  0.10566000000E+00 0.  1.
     999900   -1    0    0    0    0 -0.00000000000E+00 -0.00000000000E+00 -0.74505805969E-08  0.93827000000E+00  0.93827000000E+00 0. -1.
     999902    2    1    2    0    0  0.53483169130E-02  0.13136839524E-01 -0.20133294020E-01  0.10193021585E+01  0.10190045927E+01 0.  0.
     999903    2    3    3    0    0  0.46867620901E-01 -0.40060557549E-01 -0.11465201136E+00  0.13167182807E+00  0.19772820673E-01 0.  0.
         14    1    1    2    0    0 -0.53483169130E-02 -0.13136839524E-01  0.20133294020E-01  0.24627841452E-01  0.00000000000E+00 0. -1.
     999901    1    3    3    0    0 -0.41519303988E-01  0.53197397074E-01  0.94518717343E-01  0.88763033048E+00  0.88000000000E+00 0.  1.
        -11    1    4    4    0    0  0.34974577781E-01 -0.39590521417E-01 -0.92826773892E-01  0.10680684224E+00  0.51100000000E-03 0. -1.
         11    1    4    4    0    0  0.11893043120E-01 -0.47003613238E-03 -0.21825237471E-01  0.24864985829E-01  0.51100000000E-03 0.  1.
</event>
<event>
 8    1  0.1116619E+005  0.1043930E+01  0.7957747E-01            NaN
         13   -1    0    0    0    0  0.00000000000E+00  0.00000000000E+00  0.74505805969E-08  0.10566000000E+00  0.10566000000E+00 0.  1.
     999900   -1    0    0    0    0 -0.00000000000E+00 -0.00000000000E+00 -0.74505805969E-08  0.93827000000E+00  0.93827000000E+00 0.  1.
     999902    2    1    2    0    0  0.20305174651E-01  0.22047418969E-02 -0.12376384387E-01  0.10200482937E+01  0.10197686922E+01 0.  0.
     999903    2    3    3    0    0  0.79373278399E-02  0.49715131647E-03  0.12720081310E+00  0.12896037799E+00  0.19684610853E-01 0.  0.
         14    1    1    2    0    0 -0.20305174651E-01 -0.22047418969E-02  0.12376384387E-01  0.23881706281E-01  0.00000000000E+00 0.  1.
     999901    1    3    3    0    0  0.12367846811E-01  0.17075905805E-02 -0.13957719749E+00  0.89108791573E+00  0.88000000000E+00 0.  1.
        -11    1    4    4    0    0 -0.41685749196E-02 -0.57641198759E-02  0.57233916906E-01  0.57676550350E-01  0.51100000000E-03 0.  1.
         11    1    4    4    0    0  0.12105902759E-01  0.62612711923E-02  0.69966896196E-01  0.71283827639E-01  0.51100000000E-03 0. -1.
</event>
<event>
 8    1  0.1116619E+005  0.1043930E+01  0.7957747E-01            NaN
         13   -1    0    0    0    0  0.00000000000E+00  0.00000000000E+00  0.74505805969E-08  0.10566000000E+00  0.10566000000E+00 0.  1.
     999900   -1    0    0    0    0 -0.00000000000E+00 -0.00000000000E+00 -0.74505805969E-08  0.93827000000E+00  0.93827000000E+00 0.  1.
     999902    2    1    2    0    0  0.13445656178E-01 -0.10005088900E-01 -0.16626656249E-01  0.10203220951E+01  0.10200489423E+01 0.  0.
     999903    2    3    3    0    0 -0.54296065672E-01 -0.11749591372E+00 -0.62700867898E-02  0.13113680689E+00  0.20104617488E-01 0.  0.
         14    1    1    2    0    0 -0.13445656178E-01  0.10005088900E-01  0.16626656249E-01  0.23607904862E-01  0.00000000000E+00 0.  1.
     999901    1    3    3    0    0  0.67741721851E-01  0.10749082482E+00 -0.10356569459E-01  0.88918528825E+00  0.88000000000E+00 0.  1.
        -11    1    4    4    0    0 -0.54036822849E-01 -0.11602183768E+00 -0.86476445425E-02  0.12828128437E+00  0.51100000000E-03 0.  1.
         11    1    4    4    0    0 -0.25924282384E-03 -0.14740760479E-02  0.23775577526E-02  0.28555225273E-02  0.51100000000E-03 0. -1.
</event>
<event>
 8    1  0.1116619E+005  0.1043930E+01  0.7957747E-01            NaN
         13   -1    0    0    0    0  0.00000000000E+00  0.00000000000E+00  0.74505805969E-08  0.10566000000E+00  0.10566000000E+00 0.  1.
     999900   -1    0    0    0    0 -0.00000000000E+00 -0.00000000000E+00 -0.74505805969E-08  0.93827000000E+00  0.93827000000E+00 0.  1.
     999902    2    1    2    0    0 -0.77354816159E-02 -0.89650590054E-02 -0.19022662491E-01  0.10215230447E+01  0.10212772685E+01 0.  0.
     999903    2    3    3    0    0  0.16168336423E-02 -0.13078609680E+00  0.83067546281E-02  0.13266156610E+00  0.20554115877E-01 0.  0.
         14    1    1    2    0    0  0.77354816159E-02  0.89650590054E-02  0.19022662491E-01  0.22406955327E-01  0.00000000000E+00 0.  1.
     999901    1    3    3    0    0 -0.93523152581E-02  0.12182103780E+00 -0.27329417119E-01  0.88886147857E+00  0.88000000000E+00 0.  1.
        -11    1    4    4    0    0 -0.73592088709E-02 -0.24967382053E-01 -0.10080221774E-02  0.26053893212E-01  0.51100000000E-03 0.  1.
         11    1    4    4    0    0  0.89760425131E-02 -0.10581871475E+00  0.93147768054E-02  0.10660767289E+00  0.51100000000E-03 0. -1.
</event>
<event>
 8    1  0.1223934E+005  0.1043930E+01  0.7957747E-01            NaN
         13   -1    0    0    0    0  0.00000000000E+00  0.00000000000E+00  0.74505805969E-08  0.10566000000E+00  0.10566000000E+00 0. -1.
     999900   -1    0    0    0    0 -0.00000000000E+00 -0.00000000000E+00 -0.74505805969E-08  0.93827000000E+00  0.93827000000E+00 0. -1.
     999902    2    1    2    0    0  0.61363582271E-02 -0.23936994955E-01 -0.13349815428E-01  0.10158434874E+01  0.10154551387E+01 0.  0.
     999903    2    3    3    0    0 -0.27047761952E-01  0.29829960141E-01 -0.11921955879E+00  0.12724882508E+00  0.18909054397E-01 0.  0.
         14    1    1    2    0    0 -0.61363582271E-02  0.23936994955E-01  0.13349815428E-01  0.28086512630E-01  0.00000000000E+00 0. -1.
     999901    1    3    3    0    0  0.33184120179E-01 -0.53766955096E-01  0.10586974336E+00  0.88859466229E+00  0.88000000000E+00 0.  1.
        -11    1    4    4    0    0 -0.75114800401E-02  0.26624934914E-02 -0.46722931655E-01  0.47400471173E-01  0.51100000000E-03 0. -1.
         11    1    4    4    0    0 -0.19536281912E-01  0.27167466650E-01 -0.72496627131E-01  0.79848353906E-01  0.51100000000E-03 0.  1.
</event>
<event>
 8    1  0.1116619E+005  0.1043930E+01  0.7957747E-01            NaN
         13   -1    0    0    0    0  0.00000000000E+00  0.00000000000E+00  0.74505805969E-08  0.10566000000E+00  0.10566000000E+00 0. -1.
     999900   -1    0    0    0    0 -0.00000000000E+00 -0.00000000000E+00 -0.74505805969E-08  0.93827000000E+00  0.93827000000E+00 0.  1.
     999902    2    1    2    0    0  0.48522739897E-02 -0.14307968760E-01 -0.18962696905E-01  0.10196844559E+01  0.10193961660E+01 0.  0.
     999903    2    3    3    0    0 -0.16998814685E-01 -0.12648839977E+00  0.23298115779E-01  0.13128820681E+00  0.20137429623E-01 0.  0.
         14    1    1    2    0    0 -0.48522739897E-02  0.14307968760E-01  0.18962696905E-01  0.24245544061E-01  0.00000000000E+00 0. -1.
     999901    1    3    3    0    0  0.21851088675E-01  0.11218043101E+00 -0.42260812684E-01  0.88839624913E+00  0.88000000000E+00 0.  1.
        -11    1    4    4    0    0 -0.12193654491E-01 -0.50708883826E-01  0.17979149586E-01  0.55168714409E-01  0.51100000000E-03 0. -1.
         11    1    4    4    0    0 -0.48051601940E-02 -0.75779515942E-01  0.53189661927E-02  0.76119492401E-01  0.51100000000E-03 0.  1.
</event>
<event>
 8    1  0.1116619E+005  0.1043930E+01  0.7957747E-01            NaN
         13   -1    0    0    0    0  0.00000000000E+00  0.00000000000E+00  0.74505805969E-08  0.10566000000E+00  0.10566000000E+00 0.  1.
     999900   -1    0    0    0    0 -0.00000000000E+00 -0.00000000000E+00 -0.74505805969E-08  0.93827000000E+00  0.93827000000E+00 0.  1.
     999902    2    1    2    0    0  0.95321247348E-02 -0.10624275655E-01 -0.20845469379E-01  0.10186659895E+01  0.10183526540E+01 0.  0.
     999903    2    3    3    0    0 -0.20743996079E-01 -0.11183114634E+00  0.57255332654E-01  0.12891365906E+00  0.20100739012E-01 0.  0.
         14    1    1    2    0    0 -0.95321247348E-02  0.10624275655E-01  0.20845469379E-01  0.25264010544E-01  0.00000000000E+00 0.  1.
     999901    1    3    3    0    0  0.30276120814E-01  0.10120687069E+00 -0.78100802032E-01  0.88975233040E+00  0.88000000000E+00 0.  1.
        -11    1    4    4    0    0 -0.66928371584E-02 -0.80904156099E-01  0.44843988589E-01  0.92744385150E-01  0.51100000000E-03 0.  1.
         11    1    4    4    0    0 -0.14051158920E-01 -0.30926990246E-01  0.12411344065E-01  0.36169273910E-01  0.51100000000E-03 0. -1.
</event>
<event>
 8    1  0.1116619E+005  0.1043930E+01  0.7957747E-01            NaN
         13   -1    0    0    0    0  0.00000000000E+00  0.00000000000E+00  0.74505805969E-08  0.10566000000E+00  0.10566000000E+00 0. -1.
     999900   -1    0    0    0    0 -0.00000000000E+00 -0.00000000000E+00 -0.74505805969E-08  0.93827000000E+00  0.93827000000E+00 0.  1.
     999902    2    1    2    0    0  0.19211612354E-01 -0.77153906637E-02 -0.11097878146E-01  0.10204400830E+01  0.10201696853E+01 0.  0.
     999903    2    3    3    0    0 -0.70652093316E-01  0.10328216344E+00 -0.23782966987E-01  0.12883655332E+00  0.19346947548E-01 0.  0.
         14    1    1    2    0    0 -0.19211612354E-01  0.77153906637E-02  0.11097878146E-01  0.23489917022E-01  0.00000000000E+00 0. -1.
     999901    1    3    3    0    0  0.89863705670E-01 -0.11099755410E+00  0.12685088841E-01  0.89160352965E+00  0.88000000000E+00 0.  1.
        -11    1    4    4    0    0 -0.24232171233E-01  0.40325417913E-01 -0.18094283240E-01  0.50408349105E-01  0.51100000000E-03 0. -1.
         11    1    4    4    0    0 -0.46419922083E-01  0.62956745525E-01 -0.56886837472E-02  0.78428204219E-01  0.51100000000E-03 0.  1.
</event>
<event>
 8    1  0.1116619E+005  0.1043930E+01  0.7957747E-01            NaN
         13   -1    0    0    0    0  0.00000000000E+00  0.00000000000E+00  0.74505805969E-08  0.10566000000E+00  0.10566000000E+00 0. -1.
     999900   -1    0    0    0    0 -0.00000000000E+00 -0.00000000000E+00 -0.74505805969E-08  0.93827000000E+00  0.93827000000E+00 0. -1.
     999902    2    1    2    0    0  0.14261312597E-01  0.63287386746E-02  0.14687977998E-01  0.10225016387E+01  0.10222770791E+01 0.  0.
     999903    2    3    3    0    0  0.23519215210E-02 -0.98302936018E-01  0.87667693060E-01  0.13322347089E+00  0.19846158925E-01 0.  0.
         14    1    1    2    0    0 -0.14261312597E-01 -0.63287386746E-02 -0.14687977998E-01  0.21428361297E-01  0.00000000000E+00 0. -1.
     999901    1    3    3    0    0  0.11909391076E-01  0.10463167469E+00 -0.72979715062E-01  0.88927816782E+00  0.88000000000E+00 0. -1.
        -11    1    4    4    0    0  0.36217822856E-02 -0.40316036760E-01  0.23849160589E-01  0.46984504986E-01  0.51100000000E-03 0.  1.
         11    1    4    4    0    0 -0.12698607646E-02 -0.57986899258E-01  0.63818532472E-01  0.86238965901E-01  0.51100000000E-03 0. -1.
</event>
<event>
 8    1  0.1116619E+005  0.1043930E+01  0.7957747E-01            NaN
         13   -1    0    0    0    0  0.00000000000E+00  0.00000000000E+00  0.74505805969E-08  0.10566000000E+00  0.10566000000E+00 0.  1.
     999900   -1    0    0    0    0 -0.00000000000E+00 -0.00000000000E+00 -0.74505805969E-08  0.93827000000E+00  0.93827000000E+00 0. -1.
     999902    2    1    2    0    0  0.83772616906E-02 -0.17436687540E-01 -0.15003405435E-01  0.10194490123E+01  0.10191550274E+01 0.  0.
     999903    2    3    3    0    0 -0.68402694283E-02 -0.12709700467E+00 -0.30349386223E-01  0.13237942225E+00  0.20069586651E-01 0.  0.
         14    1    1    2    0    0 -0.83772616906E-02  0.17436687540E-01  0.15003405435E-01  0.24480987734E-01  0.00000000000E+00 0.  1.
     999901    1    3    3    0    0  0.15217531119E-01  0.10966031713E+00  0.15345980788E-01  0.88706959002E+00  0.88000000000E+00 0.  1.
        -11    1    4    4    0    0  0.30824662587E-02 -0.14606269313E-01 -0.90354880524E-02  0.17456971869E-01  0.51100000000E-03 0.  1.
         11    1    4    4    0    0 -0.99227356870E-02 -0.11249073536E+00 -0.21313898170E-01  0.11492245038E+00  0.51100000000E-03 0. -1.
</event>
<event>
 8    1  0.1116619E+005  0.1043930E+01  0.7957747E-01            NaN
         13   -1    0    0    0    0  0.00000000000E+00  0.00000000000E+00  0.74505805969E-08  0.10566000000E+00  0.10566000000E+00 0.  1.
     999900   -1    0    0    0    0 -0.00000000000E+00 -0.00000000000E+00 -0.74505805969E-08  0.93827000000E+00  0.93827000000E+00 0.  1.
     999902    2    1    2    0    0  0.23880649448E-01  0.89300223411E-03  0.79186657933E-02  0.10187548508E+01  0.10184437431E+01 0.  0.
     999903    2    3    3    0    0  0.20461641012E-01  0.10228008803E+00 -0.74043608613E-01  0.12914322471E+00  0.17765735302E-01 0.  0.
         14    1    1    2    0    0 -0.23880649448E-01 -0.89300223411E-03 -0.79186657933E-02  0.25175149235E-01  0.00000000000E+00 0.  1.
     999901    1    3    3    0    0  0.34190084357E-02 -0.10138708580E+00  0.81962274406E-01  0.88961162605E+00  0.88000000000E+00 0.  1.
        -11    1    4    4    0    0  0.34850580640E-02  0.50340802023E-01 -0.42973852212E-01  0.66282388860E-01  0.51100000000E-03 0. -1.
         11    1    4    4    0    0  0.16976582948E-01  0.51939286012E-01 -0.31069756401E-01  0.62860835851E-01  0.51100000000E-03 0.  1.
</event>
<event>
 8    1  0.1116619E+005  0.1043930E+01  0.7957747E-01            NaN
         13   -1    0    0    0    0  0.00000000000E+00  0.00000000000E+00  0.74505805969E-08  0.10566000000E+00  0.10566000000E+00 0.  1.
     999900   -1    0    0    0    0 -0.00000000000E+00 -0.00000000000E+00 -0.74505805969E-08  0.93827000000E+00  0.93827000000E+00 0. -1.
     999902    2    1    2    0    0 -0.22308714138E-02 -0.21648554364E-01 -0.93502124129E-02  0.10202432280E+01  0.10199682256E+01 0.  0.
     999903    2    3    3    0    0  0.42745738842E-01 -0.18448230516E-01 -0.12148361559E+00  0.13198254691E+00  0.22216850249E-01 0.  0.
         14    1    1    2    0    0  0.22308714138E-02  0.21648554364E-01  0.93502124129E-02  0.23686771951E-01  0.00000000000E+00 0.  1.
     999901    1    3    3    0    0 -0.44976610256E-01 -0.32003238476E-02  0.11213340318E+00  0.88826068114E+00  0.88000000000E+00 0.  1.
        -11    1    4    4    0    0  0.16592289899E-01 -0.10387072369E-02 -0.67507946808E-01  0.69526735865E-01  0.51100000000E-03 0. -1.
         11    1    4    4    0    0  0.26153448943E-01 -0.17409523279E-01 -0.53975668781E-01  0.62455811049E-01  0.51100000000E-03 0.  1.
</event>
<event>
 8    1  0.1116619E+005  0.1043930E+01  0.7957747E-01            NaN
         13   -1    0    0    0    0  0.00000000000E+00  0.00000000000E+00  0.74505805969E-08  0.10566000000E+00  0.10566000000E+00 0.  1.
     999900   -1    0    0    0    0 -0.00000000000E+00 -0.00000000000E+00 -0.74505805969E-08  0.93827000000E+00  0.93827000000E+00 0.  1.
     999902    2    1    2    0    0  0.86343701855E-02  0.42034931897E-02 -0.19017001048E-01  0.10226258212E+01  0.10224038841E+01 0.  0.
     999903    2    3    3    0    0  0.10751541532E+00 -0.27109510299E-01 -0.74128395577E-01  0.13482222186E+00  0.19685588539E-01 0.  0.
         14    1    1    2    0    0 -0.86343701855E-02 -0.42034931897E-02  0.19017001048E-01  0.21304178753E-01  0.00000000000E+00 0.  1.
     999901    1    3    3    0    0 -0.98881045137E-01  0.31313003489E-01  0.55111394529E-01  0.88780359939E+00  0.88000000000E+00 0. -1.
        -11    1    4    4    0    0  0.69849733648E-01 -0.26860934844E-01 -0.52049488811E-01  0.91158683174E-01  0.51100000000E-03 0. -1.
         11    1    4    4    0    0  0.37665681674E-01 -0.24857545487E-03 -0.22078906766E-01  0.43663538688E-01  0.51100000000E-03 0.  1.
</event>
<event>
 8    1  0.1116619E+005  0.1043930E+01  0.7957747E-01            NaN
         13   -1    0    0    0    0  0.00000000000E+00  0.00000000000E+00  0.74505805969E-08  0.10566000000E+00  0.10566000000E+00 0. -1.
     999900   -1    0    0    0    0 -0.00000000000E+00 -0.00000000000E+00 -0.74505805969E-08  0.93827000000E+00  0.93827000000E+00 0. -1.
     999902    2    1    2    0    0 -0.15546234041E-02  0.14947112971E-02  0.23320156220E-01  0.10205103351E+01  0.10202415711E+01 0.  0.
     999903    2    3    3    0    0  0.10147130152E+00 -0.73158885779E-01  0.34381592118E-01  0.13129165781E+00  0.20168240696E-01 0.  0.
         14    1    1    2    0    0  0.15546234041E-02 -0.14947112971E-02 -0.23320156220E-01  0.23419664855E-01  0.00000000000E+00 0.  1.
     999901    1    3    3    0    0 -0.10302592492E+00  0.74653597076E-01 -0.11061435898E-01  0.88921867734E+00  0.88000000000E+00 0. -1.
        -11    1    4    4    0    0  0.63719296365E-01 -0.35601863195E-01  0.14318890668E-01  0.74383688690E-01  0.51100000000E-03 0. -1.
         11    1    4    4    0    0  0.37752005154E-01 -0.37557022584E-01  0.20062701450E-01  0.56907969117E-01  0.51100000000E-03 0.  1.
</event>
<event>
 8    1  0.1116619E+005  0.1043930E+01  0.7957747E-01            NaN
         13   -1    0    0    0    0  0.00000000000E+00  0.00000000000E+00  0.74505805969E-08  0.10566000000E+00  0.10566000000E+00 0.  1.
     999900   -1    0    0    0    0 -0.00000000000E+00 -0.00000000000E+00 -0.74505805969E-08  0.93827000000E+00  0.93827000000E+00 0. -1.
     999902    2    1    2    0    0  0.17590198856E-01 -0.15526509985E-01 -0.28230005166E-02  0.10202983065E+01  0.10200245964E+01 0.  0.
     999903    2    3    3    0    0  0.41157217463E-01  0.99889160773E-01  0.68377373538E-01  0.12959876413E+00  0.21180497238E-01 0.  0.
         14    1    1    2    0    0 -0.17590198856E-01  0.15526509985E-01  0.28230005166E-02  0.23631693549E-01  0.00000000000E+00 0.  1.
     999901    1    3    3    0    0 -0.23567018607E-01 -0.11541567076E+00 -0.71200374055E-01  0.89069954232E+00  0.88000000000E+00 0. -1.
        -11    1    4    4    0    0  0.20945677550E-01  0.30410406938E-01  0.30660509490E-01  0.47998356444E-01  0.51100000000E-03 0. -1.
         11    1    4    4    0    0  0.20211539913E-01  0.69478753835E-01  0.37716864048E-01  0.81600407688E-01  0.51100000000E-03 0.  1.
</event>
<event>
 8    1  0.1116619E+005  0.1043930E+01  0.7957747E-01            NaN
         13   -1    0    0    0    0  0.00000000000E+00  0.00000000000E+00  0.74505805969E-08  0.10566000000E+00  0.10566000000E+00 0.  1.
     999900   -1    0    0    0    0 -0.00000000000E+00 -0.00000000000E+00 -0.74505805969E-08  0.93827000000E+00  0.93827000000E+00 0. -1.
     999902    2    1    2    0    0 -0.21623986028E-01 -0.75323836247E-02  0.65572139687E-02  0.10201112966E+01  0.10198331858E+01 0.  0.
     999903    2    3    3    0    0  0.39358886647E-01 -0.60134639660E-01  0.10484862020E+00  0.13098413552E+00  0.31596103487E-01 0.  0.
         14    1    1    2    0    0  0.21623986028E-01  0.75323836247E-02 -0.65572139687E-02  0.23818703362E-01  0.00000000000E+00 0.  1.
     999901    1    3    3    0    0 -0.60982872675E-01  0.52602256036E-01 -0.98291406228E-01  0.88912716112E+00  0.88000000000E+00 0. -1.
        -11    1    4    4    0    0  0.47889195687E-02 -0.20925766790E-01  0.53761976318E-01  0.57891559705E-01  0.51100000000E-03 0.  1.
         11    1    4    4    0    0  0.34569967078E-01 -0.39208872870E-01  0.51086643878E-01  0.73092575815E-01  0.51100000000E-03 0. -1.
</event>
<event>
 8    1  0.1116619E+005  0.1043930E+01  0.7957747E-01            NaN
         13   -1    0    0    0    0  0.00000000000E+00  0.00000000000E+00  0.74505805969E-08  0.10566000000E+00  0.10566000000E+00 0.  1.
     999900   -1    0    0    0    0 -0.00000000000E+00 -0.00000000000E+00 -0.74505805969E-08  0.93827000000E+00  0.93827000000E+00 0.  1.
     999902    2    1    2    0    0 -0.15456217905E-01  0.71839874857E-02  0.14079356076E-01  0.10218227022E+01  0.10215835268E+01 0.  0.
     999903    2    3    3    0    0 -0.10961962045E-01 -0.12556723040E+00  0.32318477364E-01  0.13166780011E+00  0.20115457877E-01 0.  0.
         14    1    1    2    0    0  0.15456217905E-01 -0.71839874857E-02 -0.14079356076E-01  0.22107297792E-01  0.00000000000E+00 0. -1.
     999901    1    3    3    0    0 -0.44942558605E-02  0.13275121788E+00 -0.18239121287E-01  0.89015490210E+00  0.88000000000E+00 0.  1.
        -11    1    4    4    0    0 -0.42660145694E-02 -0.82312926741E-01  0.11591687163E-01  0.83236080645E-01  0.51100000000E-03 0. -1.
         11    1    4    4    0    0 -0.66959474755E-02 -0.43254303654E-01  0.20726790201E-01  0.48431719464E-01  0.51100000000E-03 0.  1.
</event>
<event>
 8    1  0.1116619E+005  0.1043930E+01  0.7957747E-01            NaN
         13   -1    0    0    0    0  0.00000000000E+00  0.00000000000E+00  0.74505805969E-08  0.10566000000E+00  0.10566000000E+00 0.  1.
     999900   -1    0    0    0    0 -0.00000000000E+00 -0.00000000000E+00 -0.74505805969E-08  0.93827000000E+00  0.93827000000E+00 0.  1.
     999902    2    1    2    0    0 -0.12235787472E-01  0.16725564420E-01 -0.10986503640E-01  0.10204744620E+01  0.10202048644E+01 0.  0.
     999903    2    3    3    0    0  0.76981359998E-01  0.27043068148E-01 -0.10108015485E+00  0.13132710849E+00  0.19291303660E-01 0.  0.
         14    1    1    2    0    0  0.12235787472E-01 -0.16725564420E-01  0.10986503640E-01  0.23455537991E-01  0.00000000000E+00 0.  1.
     999901    1    3    3    0    0 -0.89217147469E-01 -0.10317503728E-01  0.90093651211E-01  0.88914735352E+00  0.88000000000E+00 0. -1.
        -11    1    4    4    0    0  0.49944599560E-02 -0.17278364220E-02 -0.12690211801E-01  0.13756185718E-01  0.51100000000E-03 0. -1.
         11    1    4    4    0    0  0.71986900042E-01  0.28770904570E-01 -0.88389943050E-01  0.11757092277E+00  0.51100000000E-03 0.  1.
</event>
<event>
 8    1  0.1116619E+005  0.1043930E+01  0.7957747E-01            NaN
         13   -1    0    0    0    0  0.00000000000E+00  0.00000000000E+00  0.74505805969E-08  0.10566000000E+00  0.10566000000E+00 0. -1.
     999900   -1    0    0    0    0 -0.00000000000E+00 -0.00000000000E+00 -0.74505805969E-08  0.93827000000E+00  0.93827000000E+00 0. -1.
     999902    2    1    2    0    0 -0.55646703993E-02 -0.24524061081E-01  0.31606888483E-02  0.10185846832E+01  0.10182693022E+01 0.  0.
     999903    2    3    3    0    0  0.40745903808E-01  0.82989273303E-01  0.84753539255E-01  0.12709089211E+00  0.20530082332E-01 0.  0.
         14    1    1    2    0    0  0.55646703993E-02  0.24524061081E-01 -0.31606888483E-02  0.25345316778E-01  0.00000000000E+00 0. -1.
     999901    1    3    3    0    0 -0.46310574208E-01 -0.10751333438E+00 -0.81592850407E-01  0.89149379111E+00  0.88000000000E+00 0. -1.
        -11    1    4    4    0    0  0.20038434338E-01  0.30168974538E-01  0.45225994518E-01  0.57942709434E-01  0.51100000000E-03 0. -1.
         11    1    4    4    0    0  0.20707469470E-01  0.52820298765E-01  0.39527544737E-01  0.69148182676E-01  0.51100000000E-03 0.  1.
</event>
<event>
 8    1  0.1116619E+005  0.1043930E+01  0.7957747E-01            NaN
         13   -1    0    0    0    0  0.00000000000E+00  0.00000000000E+00  0.74505805969E-08  0.10566000000E+00  0.10566000000E+00 0.  1.
     999900   -1    0    0    0    0 -0.00000000000E+00 -0.00000000000E+00 -0.74505805969E-08  0.93827000000E+00  0.93827000000E+00 0. -1.
     999902    2    1    2    0    0  0.40934919550E-02 -0.87012358124E-02  0.20927890326E-01  0.10208986133E+01  0.10206387871E+01 0.  0.
     999903    2    3    3    0    0  0.61425207368E-01 -0.78101986702E-01  0.87092972046E-01  0.13383536420E+00  0.21301232456E-01 0.  0.
         14    1    1    2    0    0 -0.40934919550E-02  0.87012358124E-02 -0.20927890326E-01  0.23031386726E-01  0.00000000000E+00 0. -1.
     999901    1    3    3    0    0 -0.57331715413E-01  0.69400750890E-01 -0.66165081720E-01  0.88706324907E+00  0.88000000000E+00 0.  1.
        -11    1    4    4    0    0  0.35199576669E-01 -0.27697141818E-01  0.39113341552E-01  0.59466431463E-01  0.51100000000E-03 0. -1.
         11    1    4    4    0    0  0.26225630699E-01 -0.50404844884E-01  0.47979630494E-01  0.74368932739E-01  0.51100000000E-03 0.  1.
</event>
<event>
 8    1  0.1116619E+005  0.1043930E+01  0.7957747E-01            NaN
         13   -1    0    0    0    0  0.00000000000E+00  0.00000000000E+00  0.74505805969E-08  0.10566000000E+00  0.10566000000E+00 0.  1.
     999900   -1    0    0    0    0 -0.00000000000E+00 -0.00000000000E+00 -0.74505805969E-08  0.93827000000E+00  0.93827000000E+00 0. -1.
     999902    2    1    2    0    0  0.16899455425E-01  0.11493286786E-01  0.11929934317E-01  0.10202654576E+01  0.10199909771E+01 0.  0.
     999903    2    3    3    0    0 -0.12969203534E-01 -0.74902765122E-01 -0.10158436724E+00  0.12827783927E+00  0.18899627404E-01 0.  0.
         14    1    1    2    0    0 -0.16899455425E-01 -0.11493286786E-01 -0.11929934317E-01  0.23664542413E-01  0.00000000000E+00 0. -1.
     999901    1    3    3    0    0  0.29868658959E-01  0.86396051907E-01  0.11351430156E+00  0.89198761832E+00  0.88000000000E+00 0.  1.
        -11    1    4    4    0    0 -0.73468217457E-02 -0.10076561256E-01 -0.10343238320E-01  0.16209767934E-01  0.51100000000E-03 0.  1.
         11    1    4    4    0    0 -0.56223817881E-02 -0.64826203866E-01 -0.91241128924E-01  0.11206807134E+00  0.51100000000E-03 0. -1.
</event>
<event>
 8    1  0.1329721E+005  0.1043930E+01  0.7957747E-01            NaN
         13   -1    0    0    0    0  0.00000000000E+00  0.00000000000E+00  0.74505805969E-08  0.10566000000E+00  0.10566000000E+00 0. -1.
     999900   -1    0    0    0    0 -0.00000000000E+00 -0.00000000000E+00 -0.74505805969E-08  0.93827000000E+00  0.93827000000E+00 0.  1.
     999902    2    1    2    0    0 -0.27411542613E-02 -0.22302711196E-01 -0.69552565503E-02  0.10204076607E+01  0.10201365073E+01 0.  0.
     999903    2    3    3    0    0 -0.68459986728E-01 -0.10371330262E+00 -0.44568133139E-01  0.13341195730E+00  0.19214914387E-01 0.  0.
         14    1    1    2    0    0  0.27411542613E-02  0.22302711196E-01  0.69552565503E-02  0.23522339320E-01  0.00000000000E+00 0.  1.
     999901    1    3    3    0    0  0.65718832467E-01  0.81410591424E-01  0.37612876589E-01  0.88699570338E+00  0.88000000000E+00 0. -1.
        -11    1    4    4    0    0 -0.31008537908E-01 -0.53237454047E-01 -0.12568604253E-01  0.62880735288E-01  0.51100000000E-03 0.  1.
         11    1    4    4    0    0 -0.37451448820E-01 -0.50475848574E-01 -0.31999528886E-01  0.70531222008E-01  0.51100000000E-03 0. -1.
</event>
<event>
 8    1  0.1116619E+005  0.1043930E+01  0.7957747E-01            NaN
         13   -1    0    0    0    0  0.00000000000E+00  0.00000000000E+00  0.74505805969E-08  0.10566000000E+00  0.10566000000E+00 0.  1.
     999900   -1    0    0    0    0 -0.00000000000E+00 -0.00000000000E+00 -0.74505805969E-08  0.93827000000E+00  0.93827000000E+00 0.  1.
     999902    2    1    2    0    0  0.54908255348E-02  0.22349861850E-01 -0.60296682328E-04  0.10209154584E+01  0.10206560165E+01 0.  0.
     999903    2    3    3    0    0 -0.10165588065E+00  0.79156981403E-01 -0.22576306515E-01  0.13231293973E+00  0.19931849578E-01 0.  0.
         14    1    1    2    0    0 -0.54908255348E-02 -0.22349861850E-01  0.60296682328E-04  0.23014541608E-01  0.00000000000E+00 0. -1.
     999901    1    3    3    0    0  0.10714670619E+00 -0.56807119554E-01  0.22516009833E-01  0.88860251866E+00  0.88000000000E+00 0. -1.
        -11    1    4    4    0    0 -0.78182210161E-01  0.51532337214E-01 -0.11151872561E-01  0.94300928664E-01  0.51100000000E-03 0. -1.
         11    1    4    4    0    0 -0.23473670490E-01  0.27624644190E-01 -0.11424433954E-01  0.38012011063E-01  0.51100000000E-03 0.  1.
</event>
<event>
 8    1  0.1116619E+005  0.1043930E+01  0.7957747E-01            NaN
         13   -1    0    0    0    0  0.00000000000E+00  0.00000000000E+00  0.74505805969E-08  0.10566000000E+00  0.10566000000E+00 0. -1.
     999900   -1    0    0    0    0 -0.00000000000E+00 -0.00000000000E+00 -0.74505805969E-08  0.93827000000E+00  0.93827000000E+00 0. -1.
     999902    2    1    2    0    0 -0.64031155980E-02 -0.12715134812E-01  0.21890586197E-01  0.10178173152E+01  0.10174822922E+01 0.  0.
     999903    2    3    3    0    0 -0.26661929101E-01 -0.73404449621E-01 -0.98490073306E-01  0.12732019807E+00  0.20274777677E-01 0.  0.
         14    1    1    2    0    0  0.64031155980E-02  0.12715134812E-01 -0.21890586197E-01  0.26112684785E-01  0.00000000000E+00 0.  1.
     999901    1    3    3    0    0  0.20258813503E-01  0.60689314809E-01  0.12038065950E+00  0.89049711714E+00  0.88000000000E+00 0.  1.
        -11    1    4    4    0    0 -0.29431822092E-01 -0.58227555806E-01 -0.79136372725E-01  0.10256464798E+00  0.51100000000E-03 0. -1.
         11    1    4    4    0    0  0.27698929912E-02 -0.15176893815E-01 -0.19353700581E-01  0.24755550089E-01  0.51100000000E-03 0.  1.
</event>
<event>
 8    1  0.1116619E+005  0.1043930E+01  0.7957747E-01            NaN
         13   -1    0    0    0    0  0.00000000000E+00  0.00000000000E+00  0.74505805969E-08  0.10566000000E+00  0.10566000000E+00 0.  1.
     999900   -1    0    0    0    0 -0.00000000000E+00 -0.00000000000E+00 -0.74505805969E-08  0.93827000000E+00  0.93827000000E+00 0. -1.
     999902    2    1    2    0    0 -0.61282061696E-02  0.66112268811E-02  0.21977418378E-01  0.10201756288E+01  0.10198990359E+01 0.  0.
     999903    2    3    3    0    0  0.99338291957E-01 -0.61149442853E-01  0.54895997170E-01  0.13068233293E+00  0.21376412838E-01 0.  0.
         14    1    1    2    0    0  0.61282061696E-02 -0.66112268811E-02 -0.21977418378E-01  0.23754371183E-01  0.00000000000E+00 0. -1.
     999901    1    3    3    0    0 -0.10546649813E+00  0.67760669735E-01 -0.32918578792E-01  0.88949329588E+00  0.88000000000E+00 0. -1.
        -11    1    4    4    0    0  0.42298268125E-01 -0.31399273131E-01  0.35357280135E-01  0.63446483110E-01  0.51100000000E-03 0.  1.
         11    1    4    4    0    0  0.57040023832E-01 -0.29750169722E-01  0.19538717035E-01  0.67235849825E-01  0.51100000000E-03 0. -1.
</event>
<event>
 8    1  0.1116619E+005  0.1043930E+01  0.7957747E-01            NaN
         13   -1    0    0    0    0  0.00000000000E+00  0.00000000000E+00  0.74505805969E-08  0.10566000000E+00  0.10566000000E+00 0.  1.
     999900   -1    0    0    0    0 -0.00000000000E+00 -0.00000000000E+00 -0.74505805969E-08  0.93827000000E+00  0.93827000000E+00 0.  1.
     999902    2    1    2    0    0 -0.43693324899E-02  0.17553285036E-01  0.15342275119E-01  0.10202109299E+01  0.10199351681E+01 0.  0.
     999903    2    3    3    0    0  0.12384824502E+00 -0.14393422119E-01  0.31435184032E-01  0.13020007544E+00  0.20453128260E-01 0.  0.
         14    1    1    2    0    0  0.43693324899E-02 -0.17553285036E-01 -0.15342275119E-01  0.23719070129E-01  0.00000000000E+00 0. -1.
     999901    1    3    3    0    0 -0.12821757751E+00  0.31946707155E-01 -0.16092908914E-01  0.89001085443E+00  0.88000000000E+00 0.  1.
        -11    1    4    4    0    0  0.25944425632E-01 -0.26630359374E-02 -0.17911206890E-02  0.26147164590E-01  0.51100000000E-03 0. -1.
         11    1    4    4    0    0  0.97903819388E-01 -0.11730386181E-01  0.33226304721E-01  0.10405291085E+00  0.51100000000E-03 0.  1.
</event>
<event>
 8    1  0.1116619E+005  0.1043930E+01  0.7957747E-01            NaN
         13   -1    0    0    0    0  0.00000000000E+00  0.00000000000E+00  0.74505805969E-08  0.10566000000E+00  0.10566000000E+00 0. -1.
     999900   -1    0    0    0    0 -0.00000000000E+00 -0.00000000000E+00 -0.74505805969E-08  0.93827000000E+00  0.93827000000E+00 0. -1.
     999902    2    1    2    0    0  0.41621097028E-02 -0.65833376084E-02  0.22301919388E-01  0.10203071488E+01  0.10200336459E+01 0.  0.
     999903    2    3    3    0    0 -0.11319019513E+00  0.19916353242E-01  0.60127694964E-01  0.13131638035E+00  0.20493185344E-01 0.  0.
         14    1    1    2    0    0 -0.41621097028E-02  0.65833376084E-02 -0.22301919388E-01  0.23622851218E-01  0.00000000000E+00 0.  1.
     999901    1    3    3    0    0  0.11735230483E+00 -0.26499690850E-01 -0.37825775575E-01  0.88899076844E+00  0.88000000000E+00 0.  1.
        -11    1    4    4    0    0 -0.53320721532E-01  0.13304673363E-01  0.18075809314E-01  0.57854210576E-01  0.51100000000E-03 0. -1.
         11    1    4    4    0    0 -0.59869473600E-01  0.66116798790E-02  0.42051885649E-01  0.73462169772E-01  0.51100000000E-03 0.  1.
</event>
<event>
 8    1  0.1116619E+005  0.1043930E+01  0.7957747E-01            NaN
         13   -1    0    0    0    0  0.00000000000E+00  0.00000000000E+00  0.74505805969E-08  0.10566000000E+00  0.10566000000E+00 0. -1.
     999900   -1    0    0    0    0 -0.00000000000E+00 -0.00000000000E+00 -0.74505805969E-08  0.93827000000E+00  0.93827000000E+00 0.  1.
     999902    2    1    2    0    0 -0.16959770310E-01  0.35441147242E-03 -0.16549301806E-01  0.10202310801E+01  0.10199557921E+01 0.  0.
     999903    2    3    3    0    0 -0.85597863155E-01  0.10270082178E-01 -0.10016844598E+00  0.13355094066E+00  0.19226737054E-01 0.  0.
         14    1    1    2    0    0  0.16959770310E-01 -0.35441147242E-03  0.16549301806E-01  0.23698919948E-01  0.00000000000E+00 0. -1.
     999901    1    3    3    0    0  0.68638092845E-01 -0.99156707051E-02  0.83619144172E-01  0.88668013939E+00  0.88000000000E+00 0. -1.
        -11    1    4    4    0    0 -0.14606422264E-01  0.93116414249E-02 -0.19800376925E-01  0.26312929992E-01  0.51100000000E-03 0. -1.
         11    1    4    4    0    0 -0.70991440891E-01  0.95844075262E-03 -0.80368069052E-01  0.10723801067E+00  0.51100000000E-03 0.  1.
</event>
<event>
 8    1  0.1116619E+005  0.1043930E+01  0.7957747E-01            NaN
         13   -1    0    0    0    0  0.00000000000E+00  0.00000000000E+00  0.74505805969E-08  0.10566000000E+00  0.10566000000E+00 0.  1.
     999900   -1    0    0    0    0 -0.00000000000E+00 -0.00000000000E+00 -0.74505805969E-08  0.93827000000E+00  0.93827000000E+00 0.  1.
     999902    2    1    2    0    0  0.39622133724E-02 -0.18416477768E-03  0.30431753074E-01  0.10132408383E+01  0.10127759731E+01 0.  0.
     999903    2    3    3    0    0 -0.36368072112E-02 -0.52648649115E-01  0.11406658497E+00  0.12768730951E+00  0.22533454712E-01 0.  0.
         14    1    1    2    0    0 -0.39622133724E-02  0.18416477768E-03 -0.30431753074E-01  0.30689161713E-01  0.00000000000E+00 0. -1.
     999901    1    3    3    0    0  0.75990205836E-02  0.52464484337E-01 -0.83634831898E-01  0.88555352878E+00  0.88000000000E+00 0.  1.
        -11    1    4    4    0    0  0.64742521730E-02 -0.12085734046E-01  0.15975313388E-01  0.21058315874E-01  0.51100000000E-03 0.  1.
         11    1    4    4    0    0 -0.10111059384E-01 -0.40562915069E-01  0.98091271584E-01  0.10662899363E+00  0.51100000000E-03 0. -1.
</event>
<event>
 8    1  0.1116619E+005  0.1043930E+01  0.7957747E-01            NaN
         13   -1    0    0    0    0  0.00000000000E+00  0.00000000000E+00  0.74505805969E-08  0.10566000000E+00  0.10566000000E+00 0.  1.
     999900   -1    0    0    0    0 -0.00000000000E+00 -0.00000000000E+00 -0.74505805969E-08  0.93827000000E+00  0.93827000000E+00 0. -1.
     999902    2    1    2    0    0  0.13735443761E-01  0.17104033296E-01  0.14565681633E-01  0.10175980906E+01  0.10172573443E+01 0.  0.
     999903    2    3    3    0    0 -0.12213982790E+00  0.26598971503E-01  0.98606019784E-02  0.12710700078E+00  0.20816227604E-01 0.  0.
         14    1    1    2    0    0 -0.13735443761E-01 -0.17104033296E-01 -0.14565681633E-01  0.26331909383E-01  0.00000000000E+00 0.  1.
     999901    1    3    3    0    0  0.13587527166E+00 -0.94949382073E-02  0.47050796550E-02  0.89049108984E+00  0.88000000000E+00 0. -1.
        -11    1    4    4    0    0 -0.61672217928E-01  0.19216632709E-01 -0.36728328986E-02  0.64703108575E-01  0.51100000000E-03 0. -1.
         11    1    4    4    0    0 -0.60467609974E-01  0.73823387936E-02  0.13533434877E-01  0.62403892207E-01  0.51100000000E-03 0.  1.
</event>
<event>
 8    1  0.1116619E+005  0.1043930E+01  0.7957747E-01            NaN
         13   -1    0    0    0    0  0.00000000000E+00  0.00000000000E+00  0.74505805969E-08  0.10566000000E+00  0.10566000000E+00 0. -1.
     999900   -1    0    0    0    0 -0.00000000000E+00 -0.00000000000E+00 -0.74505805969E-08  0.93827000000E+00  0.93827000000E+00 0. -1.
     999902    2    1    2    0    0 -0.63082426129E-02  0.15999882391E-01 -0.15991139065E-01  0.10204458204E+01  0.10201755563E+01 0.  0.
     999903    2    3    3    0    0 -0.71461076533E-01  0.11001482795E+00  0.53851789282E-02  0.13278561026E+00  0.19826000886E-01 0.  0.
         14    1    1    2    0    0  0.63082426129E-02 -0.15999882391E-01  0.15991139065E-01  0.23484179568E-01  0.00000000000E+00 0.  1.
     999901    1    3    3    0    0  0.65152833920E-01 -0.94014945559E-01 -0.21376317994E-01  0.88766021017E+00  0.88000000000E+00 0. -1.
        -11    1    4    4    0    0 -0.90862268978E-02  0.27332168441E-01 -0.24844244976E-02  0.28914363853E-01  0.51100000000E-03 0.  1.
         11    1    4    4    0    0 -0.62374849635E-01  0.82682659509E-01  0.78696034258E-02  0.10387124640E+00  0.51100000000E-03 0. -1.
</event>
<event>
 8    1  0.1116619E+005  0.1043930E+01  0.7957747E-01            NaN
         13   -1    0    0    0    0  0.00000000000E+00  0.00000000000E+00  0.74505805969E-08  0.10566000000E+00  0.10566000000E+00 0.  1.
     999900   -1    0    0    0    0 -0.00000000000E+00 -0.00000000000E+00 -0.74505805969E-08  0.93827000000E+00  0.93827000000E+00 0. -1.
     999902    2    1    2    0    0 -0.66538290605E-02  0.21647884035E-01 -0.74050809299E-02  0.10201027142E+01  0.10198244006E+01 0.  0.
     999903    2    3    3    0    0 -0.72154429581E-01  0.10853272501E+00 -0.19034414458E-01  0.13332509516E+00  0.20679892596E-01 0.  0.
         14    1    1    2    0    0  0.66538290605E-02 -0.21647884035E-01  0.74050809299E-02  0.23827285786E-01  0.00000000000E+00 0. -1.
     999901    1    3    3    0    0  0.65500600520E-01 -0.86884840979E-01  0.11629333529E-01  0.88677761906E+00  0.88000000000E+00 0.  1.
        -11    1    4    4    0    0 -0.10239836969E-01  0.30644348268E-01 -0.73683797375E-02  0.33143392748E-01  0.51100000000E-03 0. -1.
         11    1    4    4    0    0 -0.61914592612E-01  0.77888376746E-01 -0.11666034721E-01  0.10018170241E+00  0.51100000000E-03 0.  1.
</event>
<event>
 8    1  0.1116619E+005  0.1043930E+01  0.7957747E-01            NaN
         13   -1    0    0    0    0  0.00000000000E+00  0.00000000000E+00  0.74505805969E-08  0.10566000000E+00  0.10566000000E+00 0. -1.
     999900   -1    0    0    0    0 -0.00000000000E+00 -0.00000000000E+00 -0.74505805969E-08  0.93827000000E+00  0.93827000000E+00 0. -1.
     999902    2    1    2    0    0  0.36172696354E-02 -0.20930276095E-01 -0.54622648133E-02  0.10219983463E+01  0.10217629972E+01 0.  0.
     999903    2    3    3    0    0 -0.11805209577E+00  0.49421068446E-01 -0.17628412287E-01  0.13076282115E+00  0.20234009780E-01 0.  0.
         14    1    1    2    0    0 -0.36172696354E-02  0.20930276095E-01  0.54622648133E-02  0.21931653698E-01  0.00000000000E+00 0.  1.
     999901    1    3    3    0    0  0.12166936541E+00 -0.70351344541E-01  0.12166147473E-01  0.89123552516E+00  0.88000000000E+00 0.  1.
        -11    1    4    4    0    0 -0.60797776410E-02  0.82212634582E-02 -0.19945952699E-02  0.10430359548E-01  0.51100000000E-03 0. -1.
         11    1    4    4    0    0 -0.11197231813E+00  0.41199804988E-01 -0.15633817017E-01  0.12033246160E+00  0.51100000000E-03 0.  1.
</event>
<event>
 8    1  0.1116619E+005  0.1043930E+01  0.7957747E-01            NaN
         13   -1    0    0    0    0  0.00000000000E+00  0.00000000000E+00  0.74505805969E-08  0.10566000000E+00  0.10566000000E+00 0.  1.
     999900   -1    0    0    0    0 -0.00000000000E+00 -0.00000000000E+00 -0.74505805969E-08  0.93827000000E+00  0.93827000000E+00 0. -1.
     999902    2    1    2    0    0  0.98408976608E-02  0.56773534822E-02  0.20685019831E-01  0.10203303039E+01  0.10200573432E+01 0.  0.
     999903    2    3    3    0    0 -0.12427678196E+00  0.24886090127E-01  0.21110658929E-01  0.12996144288E+00  0.19500787114E-01 0.  0.
         14    1    1    2    0    0 -0.98408976608E-02 -0.56773534822E-02 -0.20685019831E-01  0.23599696073E-01  0.00000000000E+00 0. -1.
     999901    1    3    3    0    0  0.13411767963E+00 -0.19208736645E-01 -0.42563909788E-03  0.89036886105E+00  0.88000000000E+00 0.  1.
        -11    1    4    4    0    0 -0.63804826843E-01  0.22340949054E-01  0.13734262157E-01  0.68985976917E-01  0.51100000000E-03 0. -1.
         11    1    4    4    0    0 -0.60471955121E-01  0.25451410731E-02  0.73763967720E-02  0.60975465964E-01  0.51100000000E-03 0.  1.
</event>
<event>
 8    1  0.1116619E+005  0.1043930E+01  0.7957747E-01            NaN
         13   -1    0    0    0    0  0.00000000000E+00  0.00000000000E+00  0.74505805969E-08  0.10566000000E+00  0.10566000000E+00 0. -1.
     999900   -1    0    0    0    0 -0.00000000000E+00 -0.00000000000E+00 -0.74505805969E-08  0.93827000000E+00  0.93827000000E+00 0.  1.
     999902    2    1    2    0    0  0.13880242357E-01 -0.14863997931E-01 -0.25044742601E-01  0.10116679682E+01  0.10111534202E+01 0.  0.
     999903    2    3    3    0    0  0.34348442436E-01 -0.75983719121E-01 -0.93456926035E-01  0.12666243470E+00  0.18863569914E-01 0.  0.
         14    1    1    2    0    0 -0.13880242357E-01  0.14863997931E-01  0.25044742601E-01  0.32262031776E-01  0.00000000000E+00 0. -1.
     999901    1    3    3    0    0 -0.20468200079E-01  0.61119721191E-01  0.68412183433E-01  0.88500553353E+00  0.88000000000E+00 0. -1.
        -11    1    4    4    0    0  0.18130270972E-01 -0.25671163830E-01 -0.45402559391E-01  0.55221091062E-01  0.51100000000E-03 0.  1.
         11    1    4    4    0    0  0.16218171465E-01 -0.50312555291E-01 -0.48054366644E-01  0.71441343634E-01  0.51100000000E-03 0. -1.
</event>
<event>
 8    1  0.1116619E+005  0.1043930E+01  0.7957747E-01            NaN
         13   -1    0    0    0    0  0.00000000000E+00  0.00000000000E+00  0.74505805969E-08  0.10566000000E+00  0.10566000000E+00 0.  1.
     999900   -1    0    0    0    0 -0.00000000000E+00 -0.00000000000E+00 -0.74505805969E-08  0.93827000000E+00  0.93827000000E+00 0.  1.
     999902    2    1    2    0    0 -0.92442338414E-02 -0.19976324444E-01  0.87158996320E-02  0.10202556192E+01  0.10199809078E+01 0.  0.
     999903    2    3    3    0    0 -0.33113791273E-01  0.78441589180E-01  0.95882589695E-01  0.13016917774E+00  0.22381638505E-01 0.  0.
         14    1    1    2    0    0  0.92442338414E-02  0.19976324444E-01 -0.87158996320E-02  0.23674380752E-01  0.00000000000E+00 0. -1.
     999901    1    3    3    0    0  0.23869557431E-01 -0.98417913624E-01 -0.87166690063E-01  0.89008644150E+00  0.88000000000E+00 0.  1.
        -11    1    4    4    0    0 -0.22271969941E-01  0.26532282635E-01  0.32215694755E-01  0.47308717764E-01  0.51100000000E-03 0. -1.
         11    1    4    4    0    0 -0.10841821332E-01  0.51909306545E-01  0.63666894940E-01  0.82860459980E-01  0.51100000000E-03 0.  1.
</event>
<event>
 8    1  0.1116619E+005  0.1043930E+01  0.7957747E-01            NaN
         13   -1    0    0    0    0  0.00000000000E+00  0.00000000000E+00  0.74505805969E-08  0.10566000000E+00  0.10566000000E+00 0. -1.
     999900   -1    0    0    0    0 -0.00000000000E+00 -0.00000000000E+00 -0.74505805969E-08  0.93827000000E+00  0.93827000000E+00 0.  1.
     999902    2    1    2    0    0 -0.15508700419E-01 -0.18142869635E-01  0.65935271093E-02  0.10191679705E+01  0.10188671130E+01 0.  0.
     999903    2    3    3    0    0 -0.45944228557E-01  0.64913390262E-01  0.10054445596E+00  0.12975724379E+00  0.20078205077E-01 0.  0.
         14    1    1    2    0    0  0.15508700419E-01  0.18142869635E-01 -0.65935271093E-02  0.24762029542E-01  0.00000000000E+00 0. -1.
     999901    1    3    3    0    0  0.30435528138E-01 -0.83056259897E-01 -0.93950928848E-01  0.88941072667E+00  0.88000000000E+00 0.  1.
        -11    1    4    4    0    0 -0.19444639665E-01  0.18400663435E-01  0.21746323231E-01  0.34494088213E-01  0.51100000000E-03 0. -1.
         11    1    4    4    0    0 -0.26499588892E-01  0.46512726827E-01  0.78798132726E-01  0.95263155577E-01  0.51100000000E-03 0.  1.
</event>
<event>
 8    1  0.1116619E+005  0.1043930E+01  0.7957747E-01            NaN
         13   -1    0    0    0    0  0.00000000000E+00  0.00000000000E+00  0.74505805969E-08  0.10566000000E+00  0.10566000000E+00 0.  1.
     999900   -1    0    0    0    0 -0.00000000000E+00 -0.00000000000E+00 -0.74505805969E-08  0.93827000000E+00  0.93827000000E+00 0.  1.
     999902    2    1    2    0    0  0.13346884159E-01  0.52461679598E-02  0.17597696631E-01  0.10212288872E+01  0.10209765421E+01 0.  0.
     999903    2    3    3    0    0 -0.94222016951E-01  0.73176896647E-01  0.51206919575E-01  0.13144507513E+00  0.20567267234E-01 0.  0.
         14    1    1    2    0    0 -0.13346884159E-01 -0.52461679598E-02 -0.17597696631E-01  0.22701112787E-01  0.00000000000E+00 0. -1.
     999901    1    3    3    0    0  0.10756890111E+00 -0.67930728687E-01 -0.33609222944E-01  0.88978381209E+00  0.88000000000E+00 0.  1.
        -11    1    4    4    0    0 -0.53245333283E-01  0.53007729261E-01  0.35932329033E-01  0.83284321866E-01  0.51100000000E-03 0.  1.
         11    1    4    4    0    0 -0.40976683667E-01  0.20169167385E-01  0.15274590542E-01  0.48160753260E-01  0.51100000000E-03 0. -1.
</event>
<event>
 8    1  0.1116619E+005  0.1043930E+01  0.7957747E-01            NaN
         13   -1    0    0    0    0  0.00000000000E+00  0.00000000000E+00  0.74505805969E-08  0.10566000000E+00  0.10566000000E+00 0. -1.
     999900   -1    0    0    0    0 -0.00000000000E+00 -0.00000000000E+00 -0.74505805969E-08  0.93827000000E+00  0.93827000000E+00 0. -1.
     999902    2    1    2    0    0  0.35090241361E-02  0.54116574987E-02  0.22800146155E-01  0.10202351493E+01  0.10199599570E+01 0.  0.
     999903    2    3    3    0    0 -0.77832286065E-01  0.87301888616E-01  0.57740500932E-01  0.13201037641E+00  0.20329523413E-01 0.  0.
         14    1    1    2    0    0 -0.35090241361E-02 -0.54116574987E-02 -0.22800146155E-01  0.23694850748E-01  0.00000000000E+00 0.  1.
     999901    1    3    3    0    0  0.81341310201E-01 -0.81890231117E-01 -0.34940354776E-01  0.88822477284E+00  0.88000000000E+00 0. -1.
        -11    1    4    4    0    0 -0.18018383660E-01  0.34152527333E-01  0.16569599844E-01  0.42022256400E-01  0.51100000000E-03 0.  1.
         11    1    4    4    0    0 -0.59813902404E-01  0.53149361283E-01  0.41170901088E-01  0.89988120010E-01  0.51100000000E-03 0. -1.
</event>
<event>
 8    1  0.1116619E+005  0.1043930E+01  0.7957747E-01            NaN
         13   -1    0    0    0    0  0.00000000000E+00  0.00000000000E+00  0.74505805969E-08  0.10566000000E+00  0.10566000000E+00 0.  1.
     999900   -1    0    0    0    0 -0.00000000000E+00 -0.00000000000E+00 -0.74505805969E-08  0.93827000000E+00  0.93827000000E+00 0. -1.
     999902    2    1    2    0    0  0.41653489548E-02  0.23367957309E-01  0.25419239150E-02  0.10200579884E+01  0.10197786165E+01 0.  0.
     999903    2    3    3    0    0  0.77035625233E-02  0.27345370436E-01  0.12659953206E+00  0.13134058173E+00  0.20390996370E-01 0.  0.
         14    1    1    2    0    0 -0.41653489548E-02 -0.23367957309E-01 -0.25419239150E-02  0.23872011601E-01  0.00000000000E+00 0. -1.
     999901    1    3    3    0    0 -0.35382135685E-02 -0.39774131275E-02 -0.12405760814E+00  0.88871740666E+00  0.88000000000E+00 0. -1.
        -11    1    4    4    0    0  0.79181387273E-03  0.22953612890E-01  0.11409283806E+00  0.11638269687E+00  0.51100000000E-03 0. -1.
         11    1    4    4    0    0  0.69117486506E-02  0.43917575465E-02  0.12506694003E-01  0.14957884865E-01  0.51100000000E-03 0.  1.
</event>
<event>
 8    1  0.1116619E+005  0.1043930E+01  0.7957747E-01            NaN
         13   -1    0    0    0    0  0.00000000000E+00  0.00000000000E+00  0.74505805969E-08  0.10566000000E+00  0.10566000000E+00 0. -1.
     999900   -1    0    0    0    0 -0.00000000000E+00 -0.00000000000E+00 -0.74505805969E-08  0.93827000000E+00  0.93827000000E+00 0.  1.
     999902    2    1    2    0    0 -0.12817094665E-01 -0.28834514509E-02  0.18460111745E-01  0.10212723758E+01  0.10210210075E+01 0.  0.
     999903    2    3    3    0    0  0.12325456663E+00  0.29088273510E-02  0.38172927953E-01  0.13057734236E+00  0.19827265000E-01 0.  0.
         14    1    1    2    0    0  0.12817094665E-01  0.28834514509E-02 -0.18460111745E-01  0.22657624181E-01  0.00000000000E+00 0. -1.
     999901    1    3    3    0    0 -0.13607166130E+00 -0.57922788019E-02 -0.19712816208E-01  0.89069503346E+00  0.88000000000E+00 0. -1.
        -11    1    4    4    0    0  0.59946448937E-02  0.17858546618E-02 -0.20534774070E-02  0.66032518304E-02  0.51100000000E-03 0. -1.
         11    1    4    4    0    0  0.11725992174E+00  0.11229726892E-02  0.40226405360E-01  0.12397409053E+00  0.51100000000E-03 0.  1.
</event>
<event>
 8    1  0.1116619E+005  0.1043930E+01  0.7957747E-01            NaN
         13   -1    0    0    0    0  0.00000000000E+00  0.00000000000E+00  0.74505805969E-08  0.10566000000E+00  0.10566000000E+00 0.  1.
     999900   -1    0    0    0    0 -0.00000000000E+00 -0.00000000000E+00 -0.74505805969E-08  0.93827000000E+00  0.93827000000E+00 0. -1.
     999902    2    1    2    0    0  0.15599774308E-01 -0.13214763364E-01 -0.12166979619E-01  0.10201388604E+01  0.10198614005E+01 0.  0.
     999903    2    3    3    0    0  0.70282581925E-01  0.48687922497E-01 -0.98621977213E-01  0.13205293070E+00  0.20038138591E-01 0.  0.
         14    1    1    2    0    0 -0.15599774308E-01  0.13214763364E-01  0.12166979619E-01  0.23791139575E-01  0.00000000000E+00 0.  1.
     999901    1    3    3    0    0 -0.54682807617E-01 -0.61902685861E-01  0.86454997593E-01  0.88808592972E+00  0.88000000000E+00 0.  1.
        -11    1    4    4    0    0  0.18462790577E-01  0.23984039240E-01 -0.30612408290E-01  0.43052171101E-01  0.51100000000E-03 0. -1.
         11    1    4    4    0    0  0.51819791348E-01  0.24703883256E-01 -0.68009568922E-01  0.89000759600E-01  0.51100000000E-03 0.  1.
</event>
<event>
 8    1  0.1116619E+005  0.1043930E+01  0.7957747E-01            NaN
         13   -1    0    0    0    0  0.00000000000E+00  0.00000000000E+00  0.74505805969E-08  0.10566000000E+00  0.10566000000E+00 0.  1.
     999900   -1    0    0    0    0 -0.00000000000E+00 -0.00000000000E+00 -0.74505805969E-08  0.93827000000E+00  0.93827000000E+00 0.  1.
     999902    2    1    2    0    0  0.14208630829E-01  0.15198505341E-01  0.69000725796E-02  0.10220099006E+01  0.10217748021E+01 0.  0.
     999903    2    3    3    0    0 -0.88995724341E-01 -0.33273656555E-01 -0.86172732205E-01  0.12978614148E+00  0.19782001252E-01 0.  0.
         14    1    1    2    0    0 -0.14208630829E-01 -0.15198505341E-01 -0.69000725796E-02  0.21920099366E-01  0.00000000000E+00 0.  1.
     999901    1    3    3    0    0  0.10320435517E+00  0.48472161896E-01  0.93072804784E-01  0.89222375915E+00  0.88000000000E+00 0.  1.
        -11    1    4    4    0    0 -0.72357706377E-01 -0.34003038948E-01 -0.66391282151E-01  0.10392260484E+00  0.51100000000E-03 0. -1.
         11    1    4    4    0    0 -0.16638017964E-01  0.72938239251E-03 -0.19781450054E-01  0.25863536643E-01  0.51100000000E-03 0.  1.
</event>
<event>
 8    1  0.1116619E+005  0.1043930E+01  0.7957747E-01            NaN
         13   -1    0    0    0    0  0.00000000000E+00  0.00000000000E+00  0.74505805969E-08  0.10566000000E+00  0.10566000000E+00 0.  1.
     999900   -1    0    0    0    0 -0.00000000000E+00 -0.00000000000E+00 -0.74505805969E-08  0.93827000000E+00  0.93827000000E+00 0. -1.
     999902    2    1    2    0    0 -0.91025232095E-02 -0.74048642288E-02 -0.20897144771E-01  0.10199638029E+01  0.10196821959E+01 0.  0.
     999903    2    3    3    0    0  0.26860850160E-01  0.12174579979E+00 -0.30104953421E-01  0.12976267846E+00  0.19710389738E-01 0.  0.
         14    1    1    2    0    0  0.91025232095E-02  0.74048642288E-02  0.20897144771E-01  0.23966197083E-01  0.00000000000E+00 0.  1.
     999901    1    3    3    0    0 -0.35963373370E-01 -0.12915066402E+00  0.92078086502E-02  0.89020112445E+00  0.88000000000E+00 0.  1.
        -11    1    4    4    0    0  0.22524001220E-01  0.11774112858E+00 -0.26322543903E-01  0.12273321241E+00  0.51100000000E-03 0. -1.
         11    1    4    4    0    0  0.43368489405E-02  0.40046712135E-02 -0.37824095182E-02  0.70294660554E-02  0.51100000000E-03 0.  1.
</event>
<event>
 8    1  0.1116619E+005  0.1043930E+01  0.7957747E-01            NaN
         13   -1    0    0    0    0  0.00000000000E+00  0.00000000000E+00  0.74505805969E-08  0.10566000000E+00  0.10566000000E+00 0.  1.
     999900   -1    0    0    0    0 -0.00000000000E+00 -0.00000000000E+00 -0.74505805969E-08  0.93827000000E+00  0.93827000000E+00 0. -1.
     999902    2    1    2    0    0 -0.17167469452E-01 -0.12161399179E-01 -0.84395442683E-02  0.10212617944E+01  0.10210101886E+01 0.  0.
     999903    2    3    3    0    0 -0.13058795147E+00 -0.20263504841E-01 -0.94369013721E-02  0.13394514034E+00  0.19708445320E-01 0.  0.
         14    1    1    2    0    0  0.17167469452E-01  0.12161399179E-01  0.84395442683E-02  0.22668205593E-01  0.00000000000E+00 0.  1.
     999901    1    3    3    0    0  0.11342048202E+00  0.81021056619E-02  0.99735710381E-03  0.88731665406E+00  0.88000000000E+00 0. -1.
        -11    1    4    4    0    0 -0.62494586014E-02 -0.38327459733E-02 -0.40907980062E-02  0.84107921050E-02  0.51100000000E-03 0.  1.
         11    1    4    4    0    0 -0.12433849287E+00 -0.16430758868E-01 -0.53461033660E-02  0.12553434824E+00  0.51100000000E-03 0. -1.
</event>
<event>
 8    1  0.1116619E+005  0.1043930E+01  0.7957747E-01            NaN
         13   -1    0    0    0    0  0.00000000000E+00  0.00000000000E+00  0.74505805969E-08  0.10566000000E+00  0.10566000000E+00 0. -1.
     999900   -1    0    0    0    0 -0.00000000000E+00 -0.00000000000E+00 -0.74505805969E-08  0.93827000000E+00  0.93827000000E+00 0. -1.
     999902    2    1    2    0    0  0.96404709240E-02 -0.19978267260E-01  0.37383725693E-02  0.10214345500E+01  0.10211868069E+01 0.  0.
     999903    2    3    3    0    0 -0.64709448846E-01 -0.40949577850E-01  0.10593649671E+00  0.13215834822E+00  0.19470669529E-01 0.  0.
         14    1    1    2    0    0 -0.96404709240E-02  0.19978267260E-01 -0.37383725693E-02  0.22495450025E-01  0.00000000000E+00 0. -1.
     999901    1    3    3    0    0  0.74349919770E-01  0.20971310590E-01 -0.10219812414E+00  0.88927620176E+00  0.88000000000E+00 0. -1.
        -11    1    4    4    0    0 -0.52032954394E-01 -0.24299632225E-01  0.69717722087E-01  0.90325646210E-01  0.51100000000E-03 0. -1.
         11    1    4    4    0    0 -0.12676494451E-01 -0.16649945625E-01  0.36218774623E-01  0.41832702006E-01  0.51100000000E-03 0.  1.
</event>
<event>
 8    1  0.1116619E+005  0.1043930E+01  0.7957747E-01            NaN
         13   -1    0    0    0    0  0.00000000000E+00  0.00000000000E+00  0.74505805969E-08  0.10566000000E+00  0.10566000000E+00 0. -1.
     999900   -1    0    0    0    0 -0.00000000000E+00 -0.00000000000E+00 -0.74505805969E-08  0.93827000000E+00  0.93827000000E+00 0. -1.
     999902    2    1    2    0    0 -0.68527165786E-02 -0.50200046582E-02 -0.22127756018E-01  0.10202277267E+01  0.10199523600E+01 0.  0.
     999903    2    3    3    0    0  0.73438925601E-01  0.92234275336E-01  0.47079011577E-01  0.12854688728E+00  0.20184933932E-01 0.  0.
         14    1    1    2    0    0  0.68527165786E-02  0.50200046582E-02  0.22127756018E-01  0.23702273260E-01  0.00000000000E+00 0. -1.
     999901    1    3    3    0    0 -0.80291642180E-01 -0.97254279994E-01 -0.69206767596E-01  0.89168083946E+00  0.88000000000E+00 0.  1.
        -11    1    4    4    0    0  0.70128684665E-01  0.77592190394E-01  0.40728349117E-01  0.11223920868E+00  0.51100000000E-03 0. -1.
         11    1    4    4    0    0  0.33102409361E-02  0.14642084942E-01  0.63506624605E-02  0.16307678596E-01  0.51100000000E-03 0.  1.
</event>
<event>
 8    1  0.1116619E+005  0.1043930E+01  0.7957747E-01            NaN
         13   -1    0    0    0    0  0.00000000000E+00  0.00000000000E+00  0.74505805969E-08  0.10566000000E+00  0.10566000000E+00 0.  1.
     999900   -1    0    0    0    0 -0.00000000000E+00 -0.00000000000E+00 -0.74505805969E-08  0.93827000000E+00  0.93827000000E+00 0. -1.
     999902    2    1    2    0    0 -0.15589912496E-01 -0.13542463240E-01  0.14311600951E-01  0.10188050004E+01  0.10184951464E+01 0.  0.
     999903    2    3    3    0    0 -0.68563434173E-01  0.80118141492E-01  0.73214083648E-01  0.13029613420E+00  0.22291689966E-01 0.  0.
         14    1    1    2    0    0  0.15589912496E-01  0.13542463240E-01 -0.14311600951E-01  0.25124999583E-01  0.00000000000E+00 0. -1.
     999901    1    3    3    0    0  0.52973521676E-01 -0.93660604732E-01 -0.58902482697E-01  0.88850886622E+00  0.88000000000E+00 0.  1.
        -11    1    4    4    0    0 -0.35354029545E-01  0.49206010725E-01  0.29898511368E-01  0.67567159180E-01  0.51100000000E-03 0. -1.
         11    1    4    4    0    0 -0.33209404627E-01  0.30912130767E-01  0.43315572280E-01  0.62728975021E-01  0.51100000000E-03 0.  1.
</event>
<event>
 8    1  0.1116619E+005  0.1043930E+01  0.7957747E-01            NaN
         13   -1    0    0    0    0  0.00000000000E+00  0.00000000000E+00  0.74505805969E-08  0.10566000000E+00  0.10566000000E+00 0.  1.
     999900   -1    0    0    0    0 -0.00000000000E+00 -0.00000000000E+00 -0.74505805969E-08  0.93827000000E+00  0.93827000000E+00 0. -1.
     999902    2    1    2    0    0 -0.11906580506E-01 -0.71045581391E-02  0.21853541193E-01  0.10180491448E+01  0.10177201199E+01 0.  0.
     999903    2    3    3    0    0 -0.11864143364E+00  0.30405231750E-01  0.34381877974E-01  0.13071816229E+00  0.30080833192E-01 0.  0.
         14    1    1    2    0    0  0.11906580506E-01  0.71045581391E-02 -0.21853541193E-01  0.25880855249E-01  0.00000000000E+00 0. -1.
     999901    1    3    3    0    0  0.10673485313E+00 -0.37509789889E-01 -0.12528336781E-01  0.88733098246E+00  0.88000000000E+00 0. -1.
        -11    1    4    4    0    0 -0.13619325550E-01  0.72907904160E-02 -0.49258283456E-02  0.16222409168E-01  0.51100000000E-03 0. -1.
         11    1    4    4    0    0 -0.10502210809E+00  0.23114441334E-01  0.39307706320E-01  0.11449575312E+00  0.51100000000E-03 0.  1.
</event>
<event>
 8    1  0.1116619E+005  0.1043930E+01  0.7957747E-01            NaN
         13   -1    0    0    0    0  0.00000000000E+00  0.00000000000E+00  0.74505805969E-08  0.10566000000E+00  0.10566000000E+00 0. -1.
     999900   -1    0    0    0    0 -0.00000000000E+00 -0.00000000000E+00 -0.74505805969E-08  0.93827000000E+00  0.93827000000E+00 0.  1.
     999902    2    1    2    0    0 -0.35167235497E-03  0.53104669579E-02  0.14471502638E-01  0.10285108845E+01  0.10283952988E+01 0.  0.
     999903    2    3    3    0    0 -0.97749715386E-01 -0.17665808197E-01 -0.91547808793E-01  0.13651627559E+00  0.19713055818E-01 0.  0.
         14    1    1    2    0    0  0.35167235497E-03 -0.53104669579E-02 -0.14471502638E-01  0.15419115453E-01  0.00000000000E+00 0.  1.
     999901    1    3    3    0    0  0.97398043031E-01  0.22976275155E-01  0.10601931143E+00  0.89199460895E+00  0.88000000000E+00 0. -1.
        -11    1    4    4    0    0 -0.34787312648E-01 -0.12992153281E-01 -0.43362068744E-01  0.57091884668E-01  0.51100000000E-03 0. -1.
         11    1    4    4    0    0 -0.62962402738E-01 -0.46736549164E-02 -0.48185740049E-01  0.79424390926E-01  0.51100000000E-03 0.  1.
</event>
<event>
 8    1  0.1116619E+005  0.1043930E+01  0.7957747E-01            NaN
         13   -1    0    0    0    0  0.00000000000E+00  0.00000000000E+00  0.74505805969E-08  0.10566000000E+00  0.10566000000E+00 0. -1.
     999900   -1    0    0    0    0 -0.00000000000E+00 -0.00000000000E+00 -0.74505805969E-08  0.93827000000E+00  0.93827000000E+00 0.  1.
     999902    2    1    2    0    0  0.22649211087E-01  0.35050672149E-02  0.72203826983E-02  0.10199007223E+01  0.10196176132E+01 0.  0.
     999903    2    3    3    0    0 -0.10933066275E+00 -0.24246359057E-01  0.59129921009E-01  0.12811407244E+00  0.19385258639E-01 0.  0.
         14    1    1    2    0    0 -0.22649211087E-01 -0.35050672149E-02 -0.72203826983E-02  0.24029277670E-01  0.00000000000E+00 0.  1.
     999901    1    3    3    0    0  0.13197987384E+00  0.27751426272E-01 -0.51909538311E-01  0.89178664989E+00  0.88000000000E+00 0.  1.
        -11    1    4    4    0    0 -0.49508906732E-01 -0.14392158261E-02  0.28408773158E-01  0.57100986868E-01  0.51100000000E-03 0. -1.
         11    1    4    4    0    0 -0.59821756021E-01 -0.22807143231E-01  0.30721147851E-01  0.71013085570E-01  0.51100000000E-03 0.  1.
</event>
<event>
 8    1  0.1116619E+005  0.1043930E+01  0.7957747E-01            NaN
         13   -1    0    0    0    0  0.00000000000E+00  0.00000000000E+00  0.74505805969E-08  0.10566000000E+00  0.10566000000E+00 0. -1.
     999900   -1    0    0    0    0 -0.00000000000E+00 -0.00000000000E+00 -0.74505805969E-08  0.93827000000E+00  0.93827000000E+00 0. -1.
     999902    2    1    2    0    0 -0.40480694755E-02 -0.12847431220E-01 -0.18646010482E-01  0.10209274553E+01  0.10206682869E+01 0.  0.
     999903    2    3    3    0    0 -0.15308242637E-01  0.55187406127E-01 -0.11791568982E+00  0.13266510677E+00  0.20394326687E-01 0.  0.
         14    1    1    2    0    0  0.40480694755E-02  0.12847431220E-01  0.18646010482E-01  0.23002544693E-01  0.00000000000E+00 0. -1.
     999901    1    3    3    0    0  0.11260173162E-01 -0.68034837347E-01  0.99269679337E-01  0.88826234854E+00  0.88000000000E+00 0.  1.
        -11    1    4    4    0    0 -0.97532505803E-02  0.24297925889E-01 -0.32964421535E-01  0.42100229305E-01  0.51100000000E-03 0. -1.
         11    1    4    4    0    0 -0.55549920571E-02  0.30889480238E-01 -0.84951268285E-01  0.90564877465E-01  0.51100000000E-03 0.  1.
</event>
<event>
 8    1  0.1116619E+005  0.1043930E+01  0.7957747E-01            NaN
         13   -1    0    0    0    0  0.00000000000E+00  0.00000000000E+00  0.74505805969E-08  0.10566000000E+00  0.10566000000E+00 0.  1.
     999900   -1    0    0    0    0 -0.00000000000E+00 -0.00000000000E+00 -0.74505805969E-08  0.93827000000E+00  0.93827000000E+00 0. -1.
     999902    2    1    2    0    0 -0.12391833921E-01  0.65110363751E-02  0.19040804404E-01  0.10202973240E+01  0.10200235909E+01 0.  0.
     999903    2    3    3    0    0  0.10447921605E+00 -0.44057587621E-01 -0.56512231278E-01  0.12792728346E+00  0.17742039241E-01 0.  0.
         14    1    1    2    0    0  0.12391833921E-01 -0.65110363751E-02 -0.19040804404E-01  0.23632676001E-01  0.00000000000E+00 0.  1.
     999901    1    3    3    0    0 -0.11687104997E+00  0.50568623996E-01  0.75553035682E-01  0.89237004054E+00  0.88000000000E+00 0.  1.
        -11    1    4    4    0    0  0.43250453128E-01 -0.90300880322E-02 -0.23421814208E-01  0.50009865901E-01  0.51100000000E-03 0. -1.
         11    1    4    4    0    0  0.61228762919E-01 -0.35027499589E-01 -0.33090417070E-01  0.77917417558E-01  0.51100000000E-03 0.  1.
</event>
<event>
 8    1  0.1116619E+005  0.1043930E+01  0.7957747E-01            NaN
         13   -1    0    0    0    0  0.00000000000E+00  0.00000000000E+00  0.74505805969E-08  0.10566000000E+00  0.10566000000E+00 0. -1.
     999900   -1    0    0    0    0 -0.00000000000E+00 -0.00000000000E+00 -0.74505805969E-08  0.93827000000E+00  0.93827000000E+00 0. -1.
     999902    2    1    2    0    0 -0.10538449472E-01 -0.20981354765E-01  0.35259331845E-02  0.10201874565E+01  0.10199111423E+01 0.  0.
     999903    2    3    3    0    0  0.90983105824E-01 -0.78636765819E-01  0.48600983958E-01  0.13133283805E+00  0.20605635745E-01 0.  0.
         14    1    1    2    0    0  0.10538449472E-01  0.20981354765E-01 -0.35259331845E-02  0.23742543458E-01  0.00000000000E+00 0.  1.
     999901    1    3    3    0    0 -0.10152155530E+00  0.57655411054E-01 -0.45075050774E-01  0.88885461849E+00  0.88000000000E+00 0. -1.
        -11    1    4    4    0    0  0.26704535247E-01 -0.13990544983E-01  0.18265756620E-01  0.35252894031E-01  0.51100000000E-03 0.  1.
         11    1    4    4    0    0  0.64278570577E-01 -0.64646220836E-01  0.30335227338E-01  0.96079944018E-01  0.51100000000E-03 0. -1.
</event>
<event>
 8    1  0.1116619E+005  0.1043930E+01  0.7957747E-01            NaN
         13   -1    0    0    0    0  0.00000000000E+00  0.00000000000E+00  0.74505805969E-08  0.10566000000E+00  0.10566000000E+00 0.  1.
     999900   -1    0    0    0    0 -0.00000000000E+00 -0.00000000000E+00 -0.74505805969E-08  0.93827000000E+00  0.93827000000E+00 0. -1.
     999902    2    1    2    0    0 -0.24424297138E-02  0.20090082010E-01  0.10858686416E-01  0.10209628946E+01  0.10207045333E+01 0.  0.
     999903    2    3    3    0    0 -0.68949989561E-01  0.58603554637E-01 -0.93519597297E-01  0.13146788667E+00  0.18692577938E-01 0.  0.
         14    1    1    2    0    0  0.24424297138E-02 -0.20090082010E-01 -0.10858686416E-01  0.22967105363E-01  0.00000000000E+00 0. -1.
     999901    1    3    3    0    0  0.66507559847E-01 -0.38513472627E-01  0.10437828371E+00  0.88949500797E+00  0.88000000000E+00 0.  1.
        -11    1    4    4    0    0 -0.36487220308E-01  0.27715336752E-01 -0.60048304297E-01  0.75534873450E-01  0.51100000000E-03 0. -1.
         11    1    4    4    0    0 -0.32462769253E-01  0.30888217885E-01 -0.33471293000E-01  0.55933013219E-01  0.51100000000E-03 0.  1.
</event>
<event>
 8    1  0.1116619E+005  0.1043930E+01  0.7957747E-01            NaN
         13   -1    0    0    0    0  0.00000000000E+00  0.00000000000E+00  0.74505805969E-08  0.10566000000E+00  0.10566000000E+00 0.  1.
     999900   -1    0    0    0    0 -0.00000000000E+00 -0.00000000000E+00 -0.74505805969E-08  0.93827000000E+00  0.93827000000E+00 0. -1.
     999902    2    1    2    0    0  0.71007107950E-02  0.86166370072E-02  0.22502329997E-01  0.10188098610E+01  0.10185001284E+01 0.  0.
     999903    2    3    3    0    0  0.98673198519E-01 -0.75700122477E-01  0.32320232356E-01  0.12999535414E+00  0.19679584058E-01 0.  0.
         14    1    1    2    0    0 -0.71007107950E-02 -0.86166370072E-02 -0.22502329997E-01  0.25120138981E-01  0.00000000000E+00 0.  1.
     999901    1    3    3    0    0 -0.91572487724E-01  0.84316759484E-01 -0.98179023590E-02  0.88881450688E+00  0.88000000000E+00 0.  1.
        -11    1    4    4    0    0  0.64960484427E-01 -0.47937154706E-01  0.30428084777E-01  0.86278414464E-01  0.51100000000E-03 0. -1.
         11    1    4    4    0    0  0.33712714092E-01 -0.27762967770E-01  0.18921475793E-02  0.43716939673E-01  0.51100000000E-03 0.  1.
</event>
<event>
 8    1  0.1116619E+005  0.1043930E+01  0.7957747E-01            NaN
         13   -1    0    0    0    0  0.00000000000E+00  0.00000000000E+00  0.74505805969E-08  0.10566000000E+00  0.10566000000E+00 0. -1.
     999900   -1    0    0    0    0 -0.00000000000E+00 -0.00000000000E+00 -0.74505805969E-08  0.93827000000E+00  0.93827000000E+00 0. -1.
     999902    2    1    2    0    0 -0.19956877765E-01 -0.10998484979E-01  0.11064885820E-01  0.10185986885E+01  0.10182836604E+01 0.  0.
     999903    2    3    3    0    0  0.74101329236E-02 -0.27804992099E-02 -0.12575965814E+00  0.12756701436E+00  0.19879896701E-01 0.  0.
         14    1    1    2    0    0  0.19956877765E-01  0.10998484979E-01 -0.11064885820E-01  0.25331311458E-01  0.00000000000E+00 0. -1.
     999901    1    3    3    0    0 -0.27367010689E-01 -0.82179857687E-02  0.13682454396E+00  0.89103167418E+00  0.88000000000E+00 0.  1.
        -11    1    4    4    0    0  0.26673028155E-02  0.84274444061E-02 -0.64816168097E-01  0.65418140384E-01  0.51100000000E-03 0.  1.
         11    1    4    4    0    0  0.47428301081E-02 -0.11207943616E-01 -0.60943490040E-01  0.62148873978E-01  0.51100000000E-03 0. -1.
</event>
<event>
 8    1  0.1116619E+005  0.1043930E+01  0.7957747E-01            NaN
         13   -1    0    0    0    0  0.00000000000E+00  0.00000000000E+00  0.74505805969E-08  0.10566000000E+00  0.10566000000E+00 0.  1.
     999900   -1    0    0    0    0 -0.00000000000E+00 -0.00000000000E+00 -0.74505805969E-08  0.93827000000E+00  0.93827000000E+00 0. -1.
     999902    2    1    2    0    0 -0.12159261427E-02 -0.42351863590E-02  0.19753841696E-01  0.10236906932E+01  0.10234905987E+01 0.  0.
     999903    2    3    3    0    0  0.13673886458E-01 -0.13916188150E-01  0.13328948414E+00  0.13621913281E+00  0.20222020106E-01 0.  0.
         14    1    1    2    0    0  0.12159261427E-02  0.42351863590E-02 -0.19753841696E-01  0.20239306847E-01  0.00000000000E+00 0. -1.
     999901    1    3    3    0    0 -0.14889812600E-01  0.96810017911E-02 -0.11353564244E+00  0.88747156034E+00  0.88000000000E+00 0. -1.
        -11    1    4    4    0    0  0.15250508235E-01 -0.17254264594E-01  0.95161933633E-01  0.97909868665E-01  0.51100000000E-03 0. -1.
         11    1    4    4    0    0 -0.15766217768E-02  0.33380764439E-02  0.38127550507E-01  0.38309264144E-01  0.51100000000E-03 0.  1.
</event>
<event>
 8    1  0.1116619E+005  0.1043930E+01  0.7957747E-01            NaN
         13   -1    0    0    0    0  0.00000000000E+00  0.00000000000E+00  0.74505805969E-08  0.10566000000E+00  0.10566000000E+00 0. -1.
     999900   -1    0    0    0    0 -0.00000000000E+00 -0.00000000000E+00 -0.74505805969E-08  0.93827000000E+00  0.93827000000E+00 0. -1.
     999902    2    1    2    0    0  0.13369582870E-01  0.19176624444E-01 -0.29348101222E-02  0.10203694019E+01  0.10200973555E+01 0.  0.
     999903    2    3    3    0    0 -0.47150369737E-01 -0.11706483691E+00  0.18473362603E-02  0.12781841213E+00  0.20169294047E-01 0.  0.
         14    1    1    2    0    0 -0.13369582870E-01 -0.19176624444E-01  0.29348101222E-02  0.23560598074E-01  0.00000000000E+00 0.  1.
     999901    1    3    3    0    0  0.60519952607E-01  0.13624146135E+00 -0.47821463825E-02  0.89255098979E+00  0.88000000000E+00 0.  1.
        -11    1    4    4    0    0 -0.46453576291E-01 -0.10448994997E+00 -0.27953945216E-02  0.11438601202E+00  0.51100000000E-03 0. -1.
         11    1    4    4    0    0 -0.69679344611E-03 -0.12574886942E-01  0.46427307819E-02  0.13432400114E-01  0.51100000000E-03 0.  1.
</event>
<event>
 8    1  0.1116619E+005  0.1043930E+01  0.7957747E-01            NaN
         13   -1    0    0    0    0  0.00000000000E+00  0.00000000000E+00  0.74505805969E-08  0.10566000000E+00  0.10566000000E+00 0.  1.
     999900   -1    0    0    0    0 -0.00000000000E+00 -0.00000000000E+00 -0.74505805969E-08  0.93827000000E+00  0.93827000000E+00 0.  1.
     999902    2    1    2    0    0 -0.11286302245E-01  0.14178216103E-01  0.87498393508E-02  0.10238063294E+01  0.10236085375E+01 0.  0.
     999903    2    3    3    0    0  0.10224513425E+00 -0.80134574330E-01  0.37677650247E-03  0.13147545035E+00  0.20249311174E-01 0.  0.
         14    1    1    2    0    0  0.11286302245E-01 -0.14178216103E-01 -0.87498393508E-02  0.20123670612E-01  0.00000000000E+00 0.  1.
     999901    1    3    3    0    0 -0.11353143649E+00  0.94312790432E-01  0.83730628483E-02  0.89233087904E+00  0.88000000000E+00 0.  1.
        -11    1    4    4    0    0  0.37647833799E-01 -0.32425187932E-01  0.97055448387E-02  0.50628163346E-01  0.51100000000E-03 0.  1.
         11    1    4    4    0    0  0.64597300448E-01 -0.47709386398E-01 -0.93287683362E-02  0.80847287000E-01  0.51100000000E-03 0. -1.
</event>
<event>
 8    1  0.1116619E+005  0.1043930E+01  0.7957747E-01            NaN
         13   -1    0    0    0    0  0.00000000000E+00  0.00000000000E+00  0.74505805969E-08  0.10566000000E+00  0.10566000000E+00 0. -1.
     999900   -1    0    0    0    0 -0.00000000000E+00 -0.00000000000E+00 -0.74505805969E-08  0.93827000000E+00  0.93827000000E+00 0.  1.
     999902    2    1    2    0    0  0.23640259664E-01  0.20381871540E-02 -0.25204211198E-02  0.10200685540E+01  0.10197894323E+01 0.  0.
     999903    2    3    3    0    0 -0.11422860939E+00 -0.39703518974E-01  0.35061962180E-01  0.12756497940E+00  0.20467978797E-01 0.  0.
         14    1    1    2    0    0 -0.23640259664E-01 -0.20381871540E-02  0.25204211198E-02  0.23861446026E-01  0.00000000000E+00 0. -1.
     999901    1    3    3    0    0  0.13786886906E+00  0.41741706128E-01 -0.37582383300E-01  0.89250357457E+00  0.88000000000E+00 0.  1.
        -11    1    4    4    0    0 -0.95986670429E-01 -0.37324350044E-01  0.36097840135E-01  0.10913231964E+00  0.51100000000E-03 0. -1.
         11    1    4    4    0    0 -0.18241938963E-01 -0.23791689309E-02 -0.10358779546E-02  0.18432659766E-01  0.51100000000E-03 0.  1.
</event>
<event>
 8    1  0.1116619E+005  0.1043930E+01  0.7957747E-01            NaN
         13   -1    0    0    0    0  0.00000000000E+00  0.00000000000E+00  0.74505805969E-08  0.10566000000E+00  0.10566000000E+00 0.  1.
     999900   -1    0    0    0    0 -0.00000000000E+00 -0.00000000000E+00 -0.74505805969E-08  0.93827000000E+00  0.93827000000E+00 0.  1.
     999902    2    1    2    0    0 -0.14907272532E-01 -0.16746385720E-01  0.29710642923E-03  0.10215077681E+01  0.10212616530E+01 0.  0.
     999903    2    3    3    0    0  0.83381318184E-01  0.76352077805E-01  0.59318039889E-01  0.12920095905E+00  0.19803382434E-01 0.  0.
         14    1    1    2    0    0  0.14907272532E-01  0.16746385720E-01 -0.29710642923E-03  0.22422231853E-01  0.00000000000E+00 0. -1.
     999901    1    3    3    0    0 -0.98288590716E-01 -0.93098463525E-01 -0.59020933460E-01  0.89230680910E+00  0.88000000000E+00 0.  1.
        -11    1    4    4    0    0  0.33072459591E-01  0.41511857147E-01  0.33602370684E-01  0.62820397195E-01  0.51100000000E-03 0. -1.
         11    1    4    4    0    0  0.50308858593E-01  0.34840220658E-01  0.25715669205E-01  0.66380561854E-01  0.51100000000E-03 0.  1.
</event>
<event>
 8    1  0.1116619E+005  0.1043930E+01  0.7957747E-01            NaN
         13   -1    0    0    0    0  0.00000000000E+00  0.00000000000E+00  0.74505805969E-08  0.10566000000E+00  0.10566000000E+00 0. -1.
     999900   -1    0    0    0    0 -0.00000000000E+00 -0.00000000000E+00 -0.74505805969E-08  0.93827000000E+00  0.93827000000E+00 0. -1.
     999902    2    1    2    0    0 -0.31029643578E-02  0.25965045674E-02 -0.23304991689E-01  0.10202763986E+01  0.10200021748E+01 0.  0.
     999903    2    3    3    0    0  0.47142873609E-01 -0.23146310412E-02 -0.12288510399E+00  0.13322230649E+00  0.20484777641E-01 0.  0.
         14    1    1    2    0    0  0.31029643578E-02 -0.25965045674E-02  0.23304991689E-01  0.23653601447E-01  0.00000000000E+00 0. -1.
     999901    1    3    3    0    0 -0.50245837966E-01  0.49111356086E-02  0.99580112298E-01  0.88705409207E+00  0.88000000000E+00 0. -1.
        -11    1    4    4    0    0  0.12759358651E-01 -0.83800593153E-02 -0.52107513963E-01  0.54299914914E-01  0.51100000000E-03 0. -1.
         11    1    4    4    0    0  0.34383514958E-01  0.60654282741E-02 -0.70777590024E-01  0.78922391573E-01  0.51100000000E-03 0.  1.
</event>
<event>
 8    1  0.1116619E+005  0.1043930E+01  0.7957747E-01            NaN
         13   -1    0    0    0    0  0.00000000000E+00  0.00000000000E+00  0.74505805969E-08  0.10566000000E+00  0.10566000000E+00 0. -1.
     999900   -1    0    0    0    0 -0.00000000000E+00 -0.00000000000E+00 -0.74505805969E-08  0.93827000000E+00  0.93827000000E+00 0. -1.
     999902    2    1    2    0    0  0.18449743670E-01  0.50189100934E-02  0.12283288272E-01  0.10212042069E+01  0.10209513067E+01 0.  0.
     999903    2    3    3    0    0 -0.98775300233E-02  0.10809553714E+00  0.73443844995E-01  0.13262790791E+00  0.20345830994E-01 0.  0.
         14    1    1    2    0    0 -0.18449743670E-01 -0.50189100934E-02 -0.12283288272E-01  0.22725793073E-01  0.00000000000E+00 0.  1.
     999901    1    3    3    0    0  0.28327273694E-01 -0.10307662705E+00 -0.61160556723E-01  0.88857629902E+00  0.88000000000E+00 0. -1.
        -11    1    4    4    0    0 -0.10824553717E-01  0.69873864446E-01  0.36996488599E-01  0.79803065013E-01  0.51100000000E-03 0.  1.
         11    1    4    4    0    0  0.94702369385E-03  0.38221672697E-01  0.36447356397E-01  0.52824842895E-01  0.51100000000E-03 0. -1.
</event>
<event>
 8    1  0.1116619E+005  0.1043930E+01  0.7957747E-01            NaN
         13   -1    0    0    0    0  0.00000000000E+00  0.00000000000E+00  0.74505805969E-08  0.10566000000E+00  0.10566000000E+00 0.  1.
     999900   -1    0    0    0    0 -0.00000000000E+00 -0.00000000000E+00 -0.74505805969E-08  0.93827000000E+00  0.93827000000E+00 0.  1.
     999902    2    1    2    0    0  0.62927413224E-02 -0.22475784057E-01 -0.36179396403E-02  0.10203111738E+01  0.10200377652E+01 0.  0.
     999903    2    3    3    0    0  0.44882871106E-01 -0.10928012525E+00  0.58066910316E-01  0.13305179097E+00  0.19349292283E-01 0.  0.
         14    1    1    2    0    0 -0.62927413224E-02  0.22475784057E-01  0.36179396403E-02  0.23618826168E-01  0.00000000000E+00 0. -1.
     999901    1    3    3    0    0 -0.38590129784E-01  0.86804341196E-01 -0.61684849956E-01  0.88725938286E+00  0.88000000000E+00 0. -1.
        -11    1    4    4    0    0  0.18810244841E-01 -0.24831238849E-01  0.12034487695E-01  0.33399187847E-01  0.51100000000E-03 0. -1.
         11    1    4    4    0    0  0.26072626265E-01 -0.84448886404E-01  0.46032422621E-01  0.99652603120E-01  0.51100000000E-03 0.  1.
</event>
<event>
 8    1  0.1116619E+005  0.1043930E+01  0.7957747E-01            NaN
         13   -1    0    0    0    0  0.00000000000E+00  0.00000000000E+00  0.74505805969E-08  0.10566000000E+00  0.10566000000E+00 0.  1.
     999900   -1    0    0    0    0 -0.00000000000E+00 -0.00000000000E+00 -0.74505805969E-08  0.93827000000E+00  0.93827000000E+00 0. -1.
     999902    2    1    2    0    0  0.99179493555E-02 -0.98379714105E-02 -0.20654227166E-01  0.10189951148E+01  0.10186899899E+01 0.  0.
     999903    2    3    3    0    0 -0.11631413246E+00 -0.46681455926E-01  0.17763185831E-01  0.12839538513E+00  0.21487401333E-01 0.  0.
         14    1    1    2    0    0 -0.99179493555E-02  0.98379714105E-02  0.20654227166E-01  0.24934885216E-01  0.00000000000E+00 0.  1.
     999901    1    3    3    0    0  0.12623208181E+00  0.36843484515E-01 -0.38417412997E-01  0.89059972965E+00  0.88000000000E+00 0.  1.
        -11    1    4    4    0    0 -0.85649154061E-01 -0.25052732693E-01  0.17087095332E-01  0.90860590768E-01  0.51100000000E-03 0. -1.
         11    1    4    4    0    0 -0.30664978397E-01 -0.21628723233E-01  0.67609049848E-03  0.37534794367E-01  0.51100000000E-03 0.  1.
</event>
<event>
 8    1  0.1116619E+005  0.1043930E+01  0.7957747E-01            NaN
         13   -1    0    0    0    0  0.00000000000E+00  0.00000000000E+00  0.74505805969E-08  0.10566000000E+00  0.10566000000E+00 0.  1.
     999900   -1    0    0    0    0 -0.00000000000E+00 -0.00000000000E+00 -0.74505805969E-08  0.93827000000E+00  0.93827000000E+00 0. -1.
     999902    2    1    2    0    0 -0.21464700761E-01 -0.44789255305E-02  0.62817125548E-02  0.10211209214E+01  0.10208661431E+01 0.  0.
     999903    2    3    3    0    0  0.34101940580E-01 -0.12292466886E+00  0.22228880115E-01  0.13130557098E+00  0.21762658199E-01 0.  0.
         14    1    1    2    0    0  0.21464700761E-01  0.44789255305E-02 -0.62817125548E-02  0.22809078571E-01  0.00000000000E+00 0. -1.
     999901    1    3    3    0    0 -0.55566641341E-01  0.11844574333E+00 -0.15947167560E-01  0.88981535045E+00  0.88000000000E+00 0.  1.
        -11    1    4    4    0    0  0.27740628118E-01 -0.65771834987E-01  0.64678321472E-02  0.71676849119E-01  0.51100000000E-03 0. -1.
         11    1    4    4    0    0  0.63613124613E-02 -0.57152833878E-01  0.15761047968E-01  0.59628721859E-01  0.51100000000E-03 0.  1.
</event>
<event>
 8    1  0.1116619E+005  0.1043930E+01  0.7957747E-01            NaN
         13   -1    0    0    0    0  0.00000000000E+00  0.00000000000E+00  0.74505805969E-08  0.10566000000E+00  0.10566000000E+00 0.  1.
     999900   -1    0    0    0    0 -0.00000000000E+00 -0.00000000000E+00 -0.74505805969E-08  0.93827000000E+00  0.93827000000E+00 0.  1.
     999902    2    1    2    0    0  0.19300394601E-01 -0.13262467620E-01  0.16651793473E-02  0.10204529665E+01  0.10201828688E+01 0.  0.
     999903    2    3    3    0    0 -0.10926086605E+00 -0.66518623300E-01 -0.34708343273E-02  0.12950370056E+00  0.19912249303E-01 0.  0.
         14    1    1    2    0    0 -0.19300394601E-01  0.13262467620E-01 -0.16651793473E-02  0.23477033488E-01  0.00000000000E+00 0. -1.
     999901    1    3    3    0    0  0.12856126065E+00  0.53256155680E-01  0.51360136746E-02  0.89094926595E+00  0.88000000000E+00 0. -1.
        -11    1    4    4    0    0 -0.10637194196E+00 -0.66058114440E-01 -0.63379510452E-02  0.12537581610E+00  0.51100000000E-03 0. -1.
         11    1    4    4    0    0 -0.28889240966E-02 -0.46050885956E-03  0.28671167179E-02  0.41278844606E-02  0.51100000000E-03 0.  1.
</event>
<event>
 8    1  0.1116619E+005  0.1043930E+01  0.7957747E-01            NaN
         13   -1    0    0    0    0  0.00000000000E+00  0.00000000000E+00  0.74505805969E-08  0.10566000000E+00  0.10566000000E+00 0.  1.
     999900   -1    0    0    0    0 -0.00000000000E+00 -0.00000000000E+00 -0.74505805969E-08  0.93827000000E+00  0.93827000000E+00 0.  1.
     999902    2    1    2    0    0 -0.17640894917E-01 -0.10676317660E-01 -0.12287710243E-01  0.10199264012E+01  0.10196439041E+01 0.  0.
     999903    2    3    3    0    0  0.26915769841E-01  0.12467579184E+00  0.76334326318E-02  0.12824128758E+00  0.10910857385E-01 0.  0.
         14    1    1    2    0    0  0.17640894917E-01  0.10676317660E-01  0.12287710243E-01  0.24003598798E-01  0.00000000000E+00 0. -1.
     999901    1    3    3    0    0 -0.44556664758E-01 -0.13535210950E+00 -0.19921142875E-01  0.89168511362E+00  0.88000000000E+00 0.  1.
        -11    1    4    4    0    0  0.23161742923E-01  0.96155870856E-01  0.97862430211E-02  0.99390389418E-01  0.51100000000E-03 0. -1.
         11    1    4    4    0    0  0.37540269181E-02  0.28519920986E-01 -0.21528103894E-02  0.28850898162E-01  0.51100000000E-03 0.  1.
</event>
<event>
 8    1  0.1116619E+005  0.1043930E+01  0.7957747E-01            NaN
         13   -1    0    0    0    0  0.00000000000E+00  0.00000000000E+00  0.74505805969E-08  0.10566000000E+00  0.10566000000E+00 0. -1.
     999900   -1    0    0    0    0 -0.00000000000E+00 -0.00000000000E+00 -0.74505805969E-08  0.93827000000E+00  0.93827000000E+00 0. -1.
     999902    2    1    2    0    0  0.59536807177E-02 -0.19633960877E-01 -0.13067110537E-01  0.10196053600E+01  0.10193151632E+01 0.  0.
     999903    2    3    3    0    0  0.10385458270E+00 -0.45395581633E-01  0.61717376477E-01  0.13065037395E+00  0.20345822047E-01 0.  0.
         14    1    1    2    0    0 -0.59536807177E-02  0.19633960877E-01  0.13067110537E-01  0.24324640009E-01  0.00000000000E+00 0. -1.
     999901    1    3    3    0    0 -0.97900901978E-01  0.25761620756E-01 -0.74784487014E-01  0.88895498604E+00  0.88000000000E+00 0. -1.
        -11    1    4    4    0    0  0.72563333822E-01 -0.41145588016E-01  0.47736365906E-01  0.96111490362E-01  0.51100000000E-03 0.  1.
         11    1    4    4    0    0  0.31291248873E-01 -0.42499936173E-02  0.13981010571E-01  0.34538883586E-01  0.51100000000E-03 0. -1.
</event>
<event>
 8    1  0.1116619E+005  0.1043930E+01  0.7957747E-01            NaN
         13   -1    0    0    0    0  0.00000000000E+00  0.00000000000E+00  0.74505805969E-08  0.10566000000E+00  0.10566000000E+00 0.  1.
     999900   -1    0    0    0    0 -0.00000000000E+00 -0.00000000000E+00 -0.74505805969E-08  0.93827000000E+00  0.93827000000E+00 0.  1.
     999902    2    1    2    0    0  0.15297648686E-01  0.61821693611E-02  0.17109110024E-01  0.10201611355E+01  0.10198842010E+01 0.  0.
     999903    2    3    3    0    0 -0.10749780412E+00 -0.60955239501E-01 -0.26428951739E-01  0.12803910478E+00  0.20596207138E-01 0.  0.
         14    1    1    2    0    0 -0.15297648686E-01 -0.61821693611E-02 -0.17109110024E-01  0.23768864490E-01  0.00000000000E+00 0. -1.
     999901    1    3    3    0    0  0.12279545281E+00  0.67137408862E-01  0.43538061762E-01  0.89212203073E+00  0.88000000000E+00 0. -1.
        -11    1    4    4    0    0 -0.85819786633E-01 -0.51556962647E-01 -0.13278911021E-01  0.10099379572E+00  0.51100000000E-03 0.  1.
         11    1    4    4    0    0 -0.21678017488E-01 -0.93982768531E-02 -0.13150040718E-01  0.27045309056E-01  0.51100000000E-03 0. -1.
</event>
<event>
 8    1  0.1116619E+005  0.1043930E+01  0.7957747E-01            NaN
         13   -1    0    0    0    0  0.00000000000E+00  0.00000000000E+00  0.74505805969E-08  0.10566000000E+00  0.10566000000E+00 0. -1.
     999900   -1    0    0    0    0 -0.00000000000E+00 -0.00000000000E+00 -0.74505805969E-08  0.93827000000E+00  0.93827000000E+00 0.  1.
     999902    2    1    2    0    0 -0.11756521685E-01 -0.18567368719E-01  0.81934356128E-02  0.10204758880E+01  0.10202063235E+01 0.  0.
     999903    2    3    3    0    0 -0.99076737170E-01 -0.83997923616E-01 -0.20996159384E-01  0.13325663098E+00  0.21086487875E-01 0.  0.
         14    1    1    2    0    0  0.11756521685E-01  0.18567368719E-01 -0.81934356128E-02  0.23454112015E-01  0.00000000000E+00 0.  1.
     999901    1    3    3    0    0  0.87320215485E-01  0.65430554897E-01  0.29189594997E-01  0.88721925701E+00  0.88000000000E+00 0. -1.
        -11    1    4    4    0    0 -0.34644354445E-01 -0.34379252487E-01  0.16471592527E-02  0.48837880289E-01  0.51100000000E-03 0.  1.
         11    1    4    4    0    0 -0.64432382724E-01 -0.49618671130E-01 -0.22643318637E-01  0.84418750690E-01  0.51100000000E-03 0. -1.
</event>
<event>
 8    1  0.1116619E+005  0.1043930E+01  0.7957747E-01            NaN
         13   -1    0    0    0    0  0.00000000000E+00  0.00000000000E+00  0.74505805969E-08  0.10566000000E+00  0.10566000000E+00 0.  1.
     999900   -1    0    0    0    0 -0.00000000000E+00 -0.00000000000E+00 -0.74505805969E-08  0.93827000000E+00  0.93827000000E+00 0.  1.
     999902    2    1    2    0    0  0.62951608576E-02  0.96917635727E-02  0.20872921180E-01  0.10200712873E+01  0.10197922303E+01 0.  0.
     999903    2    3    3    0    0  0.17537574614E-01  0.56347589701E-01 -0.11236804856E+00  0.12874849845E+00  0.21609722948E-01 0.  0.
         14    1    1    2    0    0 -0.62951608576E-02 -0.96917635727E-02 -0.20872921180E-01  0.23858712664E-01  0.00000000000E+00 0. -1.
     999901    1    3    3    0    0 -0.11242413756E-01 -0.46655826129E-01  0.13324096974E+00  0.89132278889E+00  0.88000000000E+00 0. -1.
        -11    1    4    4    0    0  0.21167715054E-01  0.48038102839E-01 -0.84919870123E-01  0.99836751488E-01  0.51100000000E-03 0.  1.
         11    1    4    4    0    0 -0.36301404401E-02  0.83094868624E-02 -0.27448178438E-01  0.28911746957E-01  0.51100000000E-03 0. -1.
</event>
<event>
 8    1  0.1116619E+005  0.1043930E+01  0.7957747E-01            NaN
         13   -1    0    0    0    0  0.00000000000E+00  0.00000000000E+00  0.74505805969E-08  0.10566000000E+00  0.10566000000E+00 0. -1.
     999900   -1    0    0    0    0 -0.00000000000E+00 -0.00000000000E+00 -0.74505805969E-08  0.93827000000E+00  0.93827000000E+00 0. -1.
     999902    2    1    2    0    0  0.22479130944E-02  0.14900775711E-02  0.23345234870E-01  0.10204295014E+01  0.10201588572E+01 0.  0.
     999903    2    3    3    0    0 -0.68460694904E-01  0.69235660226E-01  0.87752039916E-01  0.13265846797E+00  0.20430497342E-01 0.  0.
         14    1    1    2    0    0 -0.22479130944E-02 -0.14900775711E-02 -0.23345234870E-01  0.23500498625E-01  0.00000000000E+00 0.  1.
     999901    1    3    3    0    0  0.70708607998E-01 -0.67745582655E-01 -0.64406805045E-01  0.88777103340E+00  0.88000000000E+00 0. -1.
        -11    1    4    4    0    0 -0.54320470045E-01  0.45353431154E-01  0.70958268418E-01  0.10021469035E+00  0.51100000000E-03 0.  1.
         11    1    4    4    0    0 -0.14140224858E-01  0.23882229072E-01  0.16793771498E-01  0.32443777625E-01  0.51100000000E-03 0. -1.
</event>
<event>
 8    1  0.1116619E+005  0.1043930E+01  0.7957747E-01            NaN
         13   -1    0    0    0    0  0.00000000000E+00  0.00000000000E+00  0.74505805969E-08  0.10566000000E+00  0.10566000000E+00 0. -1.
     999900   -1    0    0    0    0 -0.00000000000E+00 -0.00000000000E+00 -0.74505805969E-08  0.93827000000E+00  0.93827000000E+00 0. -1.
     999902    2    1    2    0    0  0.79394432420E-02  0.62382652959E-02 -0.20775780180E-01  0.10208305681E+01  0.10205691868E+01 0.  0.
     999903    2    3    3    0    0  0.51035721738E-01  0.75268977179E-01 -0.96217504381E-01  0.13386158207E+00  0.19775014157E-01 0.  0.
         14    1    1    2    0    0 -0.79394432420E-02 -0.62382652959E-02  0.20775780180E-01  0.23099431919E-01  0.00000000000E+00 0. -1.
     999901    1    3    3    0    0 -0.43096278496E-01 -0.69030711883E-01  0.75441724201E-01  0.88696898602E+00  0.88000000000E+00 0.  1.
        -11    1    4    4    0    0  0.44369623996E-01  0.54569544875E-01 -0.81218703537E-01  0.10743946057E+00  0.51100000000E-03 0.  1.
         11    1    4    4    0    0  0.66660977429E-02  0.20699432303E-01 -0.14998800843E-01  0.26422121500E-01  0.51100000000E-03 0. -1.
</event>
<event>
 8    1  0.1116619E+005  0.1043930E+01  0.7957747E-01            NaN
         13   -1    0    0    0    0  0.00000000000E+00  0.00000000000E+00  0.74505805969E-08  0.10566000000E+00  0.10566000000E+00 0.  1.
     999900   -1    0    0    0    0 -0.00000000000E+00 -0.00000000000E+00 -0.74505805969E-08  0.93827000000E+00  0.93827000000E+00 0. -1.
     999902    2    1    2    0    0  0.10689423487E-02 -0.21696734639E-01  0.13002633163E-01  0.10186128240E+01  0.10182981517E+01 0.  0.
     999903    2    3    3    0    0  0.26485293466E-02  0.80263466690E-01 -0.95460797434E-01  0.12610921418E+00  0.18480564449E-01 0.  0.
         14    1    1    2    0    0 -0.10689423487E-02  0.21696734639E-01 -0.13002633163E-01  0.25317176006E-01  0.00000000000E+00 0. -1.
     999901    1    3    3    0    0 -0.15795869979E-02 -0.10196020133E+00  0.10846343060E+00  0.89250360981E+00  0.88000000000E+00 0.  1.
        -11    1    4    4    0    0  0.54094945843E-02  0.60407452814E-01 -0.81851627823E-01  0.10187380961E+00  0.51100000000E-03 0.  1.
         11    1    4    4    0    0 -0.27609652377E-02  0.19856013876E-01 -0.13609169610E-01  0.24235404568E-01  0.51100000000E-03 0. -1.
</event>
<event>
 8    1  0.1116619E+005  0.1043930E+01  0.7957747E-01            NaN
         13   -1    0    0    0    0  0.00000000000E+00  0.00000000000E+00  0.74505805969E-08  0.10566000000E+00  0.10566000000E+00 0. -1.
     999900   -1    0    0    0    0 -0.00000000000E+00 -0.00000000000E+00 -0.74505805969E-08  0.93827000000E+00  0.93827000000E+00 0. -1.
     999902    2    1    2    0    0 -0.58190481225E-02 -0.92547956213E-03 -0.22831449668E-01  0.10203504977E+01  0.10200780094E+01 0.  0.
     999903    2    3    3    0    0  0.16487045063E-01  0.76956048775E-01  0.99181451789E-01  0.12824610789E+00  0.20397247646E-01 0.  0.
         14    1    1    2    0    0  0.58190481225E-02  0.92547956213E-03  0.22831449668E-01  0.23579502273E-01  0.00000000000E+00 0. -1.
     999901    1    3    3    0    0 -0.22306093185E-01 -0.77881528337E-01 -0.12201290146E+00  0.89210438984E+00  0.88000000000E+00 0. -1.
        -11    1    4    4    0    0  0.19993395697E-01  0.50001224121E-01  0.70672113275E-01  0.88851938644E-01  0.51100000000E-03 0.  1.
         11    1    4    4    0    0 -0.35063506346E-02  0.26954824654E-01  0.28509338514E-01  0.39394169244E-01  0.51100000000E-03 0. -1.
</event>
<event>
 8    1  0.1116619E+005  0.1043930E+01  0.7957747E-01            NaN
         13   -1    0    0    0    0  0.00000000000E+00  0.00000000000E+00  0.74505805969E-08  0.10566000000E+00  0.10566000000E+00 0.  1.
     999900   -1    0    0    0    0 -0.00000000000E+00 -0.00000000000E+00 -0.74505805969E-08  0.93827000000E+00  0.93827000000E+00 0.  1.
     999902    2    1    2    0    0 -0.20253130081E-01  0.66131279287E-02 -0.10342274281E-01  0.10202469813E+01  0.10199720670E+01 0.  0.
     999903    2    3    3    0    0  0.11535724239E+00 -0.51494790424E-01 -0.29921882467E-02  0.12793496910E+00  0.19984902193E-01 0.  0.
         14    1    1    2    0    0  0.20253130081E-01 -0.66131279287E-02  0.10342274281E-01  0.23683018735E-01  0.00000000000E+00 0. -1.
     999901    1    3    3    0    0 -0.13561037247E+00  0.58107918353E-01 -0.73500860344E-02  0.89231201217E+00  0.88000000000E+00 0.  1.
        -11    1    4    4    0    0  0.22872627514E-01 -0.15250107523E-01 -0.74952132092E-02  0.28498459799E-01  0.51100000000E-03 0.  1.
         11    1    4    4    0    0  0.92484614871E-01 -0.36244682901E-01  0.45030249624E-02  0.99436509297E-01  0.51100000000E-03 0. -1.
</event>
<event>
 8    1  0.1116619E+005  0.1043930E+01  0.7957747E-01            NaN
         13   -1    0    0    0    0  0.00000000000E+00  0.00000000000E+00  0.74505805969E-08  0.10566000000E+00  0.10566000000E+00 0.  1.
     999900   -1    0    0    0    0 -0.00000000000E+00 -0.00000000000E+00 -0.74505805969E-08  0.93827000000E+00  0.93827000000E+00 0. -1.
     999902    2    1    2    0    0 -0.22157545992E-01  0.27686102824E-02  0.82341032055E-02  0.10201303676E+01  0.10198527072E+01 0.  0.
     999903    2    3    3    0    0  0.12310012535E+00 -0.23361033584E-01  0.15441353684E-01  0.12781064135E+00  0.19943567586E-01 0.  0.
         14    1    1    2    0    0  0.22157545992E-01 -0.27686102824E-02 -0.82341032055E-02  0.23799632411E-01  0.00000000000E+00 0. -1.
     999901    1    3    3    0    0 -0.14525767134E+00  0.26129643866E-01 -0.72072504789E-02  0.89231972624E+00  0.88000000000E+00 0. -1.
        -11    1    4    4    0    0  0.10533803022E+00 -0.14862946152E-01  0.18177732581E-01  0.10792450539E+00  0.51100000000E-03 0.  1.
         11    1    4    4    0    0  0.17762095125E-01 -0.84980874317E-02 -0.27363788963E-02  0.19886135967E-01  0.51100000000E-03 0. -1.
</event>
<event>
 8    1  0.1116619E+005  0.1043930E+01  0.7957747E-01            NaN
         13   -1    0    0    0    0  0.00000000000E+00  0.00000000000E+00  0.74505805969E-08  0.10566000000E+00  0.10566000000E+00 0.  1.
     999900   -1    0    0    0    0 -0.00000000000E+00 -0.00000000000E+00 -0.74505805969E-08  0.93827000000E+00  0.93827000000E+00 0. -1.
     999902    2    1    2    0    0 -0.15107316295E-01 -0.90624580829E-02 -0.15558288760E-01  0.10204263939E+01  0.10201556772E+01 0.  0.
     999903    2    3    3    0    0 -0.58238143285E-01 -0.95454248877E-01  0.66215970414E-01  0.13137586706E+00  0.19283898614E-01 0.  0.
         14    1    1    2    0    0  0.15107316295E-01  0.90624580829E-02  0.15558288760E-01  0.23503606133E-01  0.00000000000E+00 0.  1.
     999901    1    3    3    0    0  0.43130826990E-01  0.86391790794E-01 -0.81774259173E-01  0.88905052681E+00  0.88000000000E+00 0. -1.
        -11    1    4    4    0    0 -0.25670122570E-01 -0.59605316002E-01  0.34772669837E-01  0.73628449509E-01  0.51100000000E-03 0.  1.
         11    1    4    4    0    0 -0.32568020715E-01 -0.35848932875E-01  0.31443300577E-01  0.57747417551E-01  0.51100000000E-03 0. -1.
</event>
<event>
 8    1  0.1116619E+005  0.1043930E+01  0.7957747E-01            NaN
         13   -1    0    0    0    0  0.00000000000E+00  0.00000000000E+00  0.74505805969E-08  0.10566000000E+00  0.10566000000E+00 0.  1.
     999900   -1    0    0    0    0 -0.00000000000E+00 -0.00000000000E+00 -0.74505805969E-08  0.93827000000E+00  0.93827000000E+00 0. -1.
     999902    2    1    2    0    0  0.16270606382E-02 -0.50037822415E-02  0.22986148614E-01  0.10203493259E+01  0.10200768102E+01 0.  0.
     999903    2    3    3    0    0  0.56070576166E-01 -0.92291283588E-01  0.74800104473E-01  0.13284276801E+00  0.19762460499E-01 0.  0.
         14    1    1    2    0    0 -0.16270606382E-02  0.50037822415E-02 -0.22986148614E-01  0.23580674103E-01  0.00000000000E+00 0. -1.
     999901    1    3    3    0    0 -0.54443515527E-01  0.87287501347E-01 -0.51813955859E-01  0.88750655789E+00  0.88000000000E+00 0. -1.
        -11    1    4    4    0    0  0.21916198215E-01 -0.53039049158E-01  0.44568536116E-01  0.72664131539E-01  0.51100000000E-03 0. -1.
         11    1    4    4    0    0  0.34154377951E-01 -0.39252234431E-01  0.30231568357E-01  0.60178636469E-01  0.51100000000E-03 0.  1.
</event>
<event>
 8    1  0.1116619E+005  0.1043930E+01  0.7957747E-01            NaN
         13   -1    0    0    0    0  0.00000000000E+00  0.00000000000E+00  0.74505805969E-08  0.10566000000E+00  0.10566000000E+00 0.  1.
     999900   -1    0    0    0    0 -0.00000000000E+00 -0.00000000000E+00 -0.74505805969E-08  0.93827000000E+00  0.93827000000E+00 0. -1.
     999902    2    1    2    0    0  0.32415251584E-02 -0.22103893408E-01  0.93710095884E-02  0.10197038693E+01  0.10194160464E+01 0.  0.
     999903    2    3    3    0    0 -0.71199582137E-01  0.92607231144E-01  0.48612710614E-01  0.12827802735E+00  0.21132366436E-01 0.  0.
         14    1    1    2    0    0 -0.32415251584E-02  0.22103893408E-01 -0.93710095884E-02  0.24226130724E-01  0.00000000000E+00 0. -1.
     999901    1    3    3    0    0  0.74441107296E-01 -0.11471112455E+00 -0.39241701026E-01  0.89142584192E+00  0.88000000000E+00 0.  1.
        -11    1    4    4    0    0 -0.49918187841E-01  0.48744251807E-01  0.25103243587E-01  0.74150263123E-01  0.51100000000E-03 0. -1.
         11    1    4    4    0    0 -0.21281394297E-01  0.43862979337E-01  0.23509467027E-01  0.54127764229E-01  0.51100000000E-03 0.  1.
</event>
<event>
 8    1  0.1116619E+005  0.1043930E+01  0.7957747E-01            NaN
         13   -1    0    0    0    0  0.00000000000E+00  0.00000000000E+00  0.74505805969E-08  0.10566000000E+00  0.10566000000E+00 0.  1.
     999900   -1    0    0    0    0 -0.00000000000E+00 -0.00000000000E+00 -0.74505805969E-08  0.93827000000E+00  0.93827000000E+00 0.  1.
     999902    2    1    2    0    0  0.22725949382E-01  0.65785531347E-02 -0.21597489427E-02  0.10201726716E+01  0.10198960090E+01 0.  0.
     999903    2    3    3    0    0 -0.11035346873E+00  0.50619881250E-01 -0.35782954924E-01  0.12844385068E+00  0.21843591159E-01 0.  0.
         14    1    1    2    0    0 -0.22725949382E-01 -0.65785531347E-02  0.21597489427E-02  0.23757328389E-01  0.00000000000E+00 0. -1.
     999901    1    3    3    0    0  0.13307941811E+00 -0.44041328115E-01  0.33623205981E-01  0.89172882094E+00  0.88000000000E+00 0. -1.
        -11    1    4    4    0    0 -0.64668935006E-01  0.40953675492E-01 -0.19556232059E-01  0.79006215100E-01  0.51100000000E-03 0.  1.
         11    1    4    4    0    0 -0.45684533724E-01  0.96662057583E-02 -0.16226722865E-01  0.49437635576E-01  0.51100000000E-03 0. -1.
</event>
<event>
 7    1  0.1116619E+005  0.1043930E+01  0.7957747E-01            NaN
         13   -1    0    0    0    0  0.00000000000E+00  0.00000000000E+00  0.74505805969E-08  0.10566000000E+00  0.10566000000E+00 0. -1.
     999900   -1    0    0    0    0 -0.00000000000E+00 -0.00000000000E+00 -0.74505805969E-08  0.93827000000E+00  0.93827000000E+00 0. -1.
     999903    2    1    2    0    0 -0.23578826813E-01 -0.35623205383E-01  0.59001220017E-01  0.75853266509E-01  0.21156564962E-01 0.  0.
         14    1    1    2    0    0  0.56122731439E-01  0.55676440882E-01  0.25839673776E-01  0.83170402153E-01  0.00000000000E+00 0.  1.
     999901    1    1    2    0    0 -0.32543904626E-01 -0.20053235499E-01 -0.84840893793E-01  0.88490633134E+00  0.88000000000E+00 0. -1.
        -11    1    3    3    0    0 -0.42495050753E-02 -0.14042051822E-02  0.19931761802E-01  0.20434439927E-01  0.51100000000E-03 0. -1.
         11    1    3    3    0    0 -0.19329321737E-01 -0.34219000201E-01  0.39069458215E-01  0.55418826583E-01  0.51100000000E-03 0.  1.
</event>
<event>
 8    1  0.1116619E+005  0.1043930E+01  0.7957747E-01            NaN
         13   -1    0    0    0    0  0.00000000000E+00  0.00000000000E+00  0.74505805969E-08  0.10566000000E+00  0.10566000000E+00 0.  1.
     999900   -1    0    0    0    0 -0.00000000000E+00 -0.00000000000E+00 -0.74505805969E-08  0.93827000000E+00  0.93827000000E+00 0.  1.
     999902    2    1    2    0    0 -0.16992354431E-01 -0.16379209227E-01 -0.14799844235E-02  0.10202824006E+01  0.10200083176E+01 0.  0.
     999903    2    3    3    0    0  0.65874684966E-01 -0.33821662699E-01  0.10420392408E+00  0.12992276880E+00  0.23196747039E-01 0.  0.
         14    1    1    2    0    0  0.16992354431E-01  0.16379209227E-01  0.14799844235E-02  0.23647599411E-01  0.00000000000E+00 0. -1.
     999901    1    3    3    0    0 -0.82867039397E-01  0.17442453472E-01 -0.10568390850E+00  0.89035963179E+00  0.88000000000E+00 0.  1.
        -11    1    4    4    0    0  0.43568495418E-02  0.14118908100E-02  0.10020770189E-02  0.47160208801E-02  0.51100000000E-03 0. -1.
         11    1    4    4    0    0  0.61517835424E-01 -0.35233553509E-01  0.10320184706E+00  0.12520674792E+00  0.51100000000E-03 0.  1.
</event>
<event>
 8    1  0.1116619E+005  0.1043930E+01  0.7957747E-01            NaN
         13   -1    0    0    0    0  0.00000000000E+00  0.00000000000E+00  0.74505805969E-08  0.10566000000E+00  0.10566000000E+00 0.  1.
     999900   -1    0    0    0    0 -0.00000000000E+00 -0.00000000000E+00 -0.74505805969E-08  0.93827000000E+00  0.93827000000E+00 0.  1.
     999902    2    1    2    0    0  0.41210488603E-03 -0.80672346129E-02 -0.18156168602E-01  0.10240579955E+01  0.10238651677E+01 0.  0.
     999903    2    3    3    0    0  0.83416759115E-01  0.98750759262E-01  0.22882465270E-01  0.13277575854E+00  0.19892880223E-01 0.  0.
         14    1    1    2    0    0 -0.41210488603E-03  0.80672346129E-02  0.18156168602E-01  0.19872004505E-01  0.00000000000E+00 0.  1.
     999901    1    3    3    0    0 -0.83004654229E-01 -0.10681799387E+00 -0.41038633872E-01  0.89128223695E+00  0.88000000000E+00 0. -1.
        -11    1    4    4    0    0  0.33770730865E-01  0.25630252791E-01  0.67587920160E-02  0.42933838773E-01  0.51100000000E-03 0.  1.
         11    1    4    4    0    0  0.49646028250E-01  0.73120506471E-01  0.16123673254E-01  0.89841919769E-01  0.51100000000E-03 0. -1.
</event>
<event>
 8    1  0.1116619E+005  0.1043930E+01  0.7957747E-01            NaN
         13   -1    0    0    0    0  0.00000000000E+00  0.00000000000E+00  0.74505805969E-08  0.10566000000E+00  0.10566000000E+00 0. -1.
     999900   -1    0    0    0    0 -0.00000000000E+00 -0.00000000000E+00 -0.74505805969E-08  0.93827000000E+00  0.93827000000E+00 0.  1.
     999902    2    1    2    0    0  0.68851502470E-02 -0.57872420221E-02 -0.21523515582E-01  0.10206027801E+01  0.10203361581E+01 0.  0.
     999903    2    3    3    0    0  0.56629719918E-01  0.86005737324E-01 -0.80682951889E-01  0.13245847193E+00  0.20774889422E-01 0.  0.
         14    1    1    2    0    0 -0.68851502470E-02  0.57872420221E-02  0.21523515582E-01  0.23327219876E-01  0.00000000000E+00 0. -1.
     999901    1    3    3    0    0 -0.49744569671E-01 -0.91792979346E-01  0.59159436306E-01  0.88814430819E+00  0.88000000000E+00 0. -1.
        -11    1    4    4    0    0  0.26226870171E-01  0.27545420597E-01 -0.39044877079E-01  0.54510205118E-01  0.51100000000E-03 0. -1.
         11    1    4    4    0    0  0.30402849747E-01  0.58460316727E-01 -0.41638074810E-01  0.77948266814E-01  0.51100000000E-03 0.  1.
</event>
<event>
 8    1  0.1116619E+005  0.1043930E+01  0.7957747E-01            NaN
         13   -1    0    0    0    0  0.00000000000E+00  0.00000000000E+00  0.74505805969E-08  0.10566000000E+00  0.10566000000E+00 0.  1.
     999900   -1    0    0    0    0 -0.00000000000E+00 -0.00000000000E+00 -0.74505805969E-08  0.93827000000E+00  0.93827000000E+00 0.  1.
     999902    2    1    2    0    0 -0.21496462015E-02 -0.19708428110E-02 -0.23462931372E-01  0.10202865157E+01  0.10200125292E+01 0.  0.
     999903    2    3    3    0    0  0.77142178161E-02  0.12613095138E+00  0.22167365581E-01  0.12978694274E+00  0.19614595487E-01 0.  0.
         14    1    1    2    0    0  0.21496462015E-02  0.19708428110E-02  0.23462931372E-01  0.23643484277E-01  0.00000000000E+00 0.  1.
     999901    1    3    3    0    0 -0.98638640176E-02 -0.12810179419E+00 -0.45630296953E-01  0.89049957299E+00  0.88000000000E+00 0.  1.
        -11    1    4    4    0    0  0.11012576301E-01  0.83694355902E-01  0.21927232055E-01  0.87218614259E-01  0.51100000000E-03 0.  1.
         11    1    4    4    0    0 -0.32983584849E-02  0.42436595477E-01  0.24013352610E-03  0.42568328479E-01  0.51100000000E-03 0. -1.
</event>
<event>
 8    1  0.1116619E+005  0.1043930E+01  0.7957747E-01            NaN
         13   -1    0    0    0    0  0.00000000000E+00  0.00000000000E+00  0.74505805969E-08  0.10566000000E+00  0.10566000000E+00 0. -1.
     999900   -1    0    0    0    0 -0.00000000000E+00 -0.00000000000E+00 -0.74505805969E-08  0.93827000000E+00  0.93827000000E+00 0. -1.
     999902    2    1    2    0    0  0.83857096205E-02 -0.11282536831E-02 -0.21859521390E-01  0.10204900393E+01  0.10202208038E+01 0.  0.
     999903    2    3    3    0    0  0.59073236457E-01 -0.36262853598E-01 -0.11241322387E+00  0.13369601670E+00  0.20814662231E-01 0.  0.
         14    1    1    2    0    0 -0.83857096205E-02  0.11282536831E-02  0.21859521390E-01  0.23439960700E-01  0.00000000000E+00 0. -1.
     999901    1    3    3    0    0 -0.50687526837E-01  0.35134599915E-01  0.90553702480E-01  0.88679402260E+00  0.88000000000E+00 0.  1.
        -11    1    4    4    0    0  0.26685772855E-01 -0.14129063272E-01 -0.68195944585E-01  0.74583569777E-01  0.51100000000E-03 0.  1.
         11    1    4    4    0    0  0.32387463602E-01 -0.22133790326E-01 -0.44217279285E-01  0.59112446922E-01  0.51100000000E-03 0. -1.
</event>
<event>
 7    1  0.1116619E+005  0.1043930E+01  0.7957747E-01            NaN
         13   -1    0    0    0    0  0.00000000000E+00  0.00000000000E+00  0.74505805969E-08  0.10566000000E+00  0.10566000000E+00 0.  1.
     999900   -1    0    0    0    0 -0.00000000000E+00 -0.00000000000E+00 -0.74505805969E-08  0.93827000000E+00  0.93827000000E+00 0. -1.
     999903    2    1    2    0    0  0.35605977988E-01 -0.11005302778E-01 -0.10632397017E+00  0.11456449330E+00  0.20768585263E-01 0.  0.
         14    1    1    2    0    0 -0.39217761639E-01 -0.33509398391E-02  0.22301148984E-01  0.45239395131E-01  0.00000000000E+00 0.  1.
     999901    1    1    2    0    0  0.36117836510E-02  0.14356242617E-01  0.84022821187E-01  0.88412611157E+00  0.88000000000E+00 0.  1.
        -11    1    3    3    0    0  0.19642119628E-02 -0.73856765989E-02 -0.10933347899E-01  0.13349365705E-01  0.51100000000E-03 0. -1.
         11    1    3    3    0    0  0.33641766025E-01 -0.36196261788E-02 -0.95390622272E-01  0.10121512759E+00  0.51100000000E-03 0.  1.
</event>
<event>
 8    1  0.1116619E+005  0.1043930E+01  0.7957747E-01            NaN
         13   -1    0    0    0    0  0.00000000000E+00  0.00000000000E+00  0.74505805969E-08  0.10566000000E+00  0.10566000000E+00 0. -1.
     999900   -1    0    0    0    0 -0.00000000000E+00 -0.00000000000E+00 -0.74505805969E-08  0.93827000000E+00  0.93827000000E+00 0.  1.
     999902    2    1    2    0    0 -0.10728791717E-01 -0.63649568795E-02  0.19557508785E-01  0.10207326769E+01  0.10204690500E+01 0.  0.
     999903    2    3    3    0    0 -0.13804120921E-01  0.75846784217E-01 -0.10084434019E+00  0.12873220985E+00  0.21426910083E-01 0.  0.
         14    1    1    2    0    0  0.10728791717E-01  0.63649568795E-02 -0.19557508785E-01  0.23197323072E-01  0.00000000000E+00 0.  1.
     999901    1    3    3    0    0  0.30753292033E-02 -0.82211741096E-01  0.12040184897E+00  0.89200046707E+00  0.88000000000E+00 0. -1.
        -11    1    4    4    0    0 -0.16144026853E-01  0.40436634591E-01 -0.65429877764E-01  0.78594408486E-01  0.51100000000E-03 0.  1.
         11    1    4    4    0    0  0.23399059323E-02  0.35410149626E-01 -0.35414462424E-01  0.50137801368E-01  0.51100000000E-03 0. -1.
</event>
<event>
 8    1  0.1116619E+005  0.1043930E+01  0.7957747E-01            NaN
         13   -1    0    0    0    0  0.00000000000E+00  0.00000000000E+00  0.74505805969E-08  0.10566000000E+00  0.10566000000E+00 0.  1.
     999900   -1    0    0    0    0 -0.00000000000E+00 -0.00000000000E+00 -0.74505805969E-08  0.93827000000E+00  0.93827000000E+00 0. -1.
     999902    2    1    2    0    0  0.59385341353E-02  0.19820268183E-01  0.11824765294E-01  0.10200986280E+01  0.10198202177E+01 0.  0.
     999903    2    3    3    0    0  0.57322791081E-01  0.80191985544E-01 -0.84022407029E-01  0.13135132611E+00  0.21834584165E-01 0.  0.
         14    1    1    2    0    0 -0.59385341353E-02 -0.19820268183E-01 -0.11824765294E-01  0.23831372029E-01  0.00000000000E+00 0. -1.
     999901    1    3    3    0    0 -0.51384256946E-01 -0.60371717362E-01  0.95847172323E-01  0.88874730186E+00  0.88000000000E+00 0.  1.
        -11    1    4    4    0    0  0.17660961667E-01  0.11367490340E-01 -0.23235883525E-01  0.31325657340E-01  0.51100000000E-03 0.  1.
         11    1    4    4    0    0  0.39661829415E-01  0.68824495204E-01 -0.60786523504E-01  0.10002566877E+00  0.51100000000E-03 0. -1.
</event>
<event>
 8    1  0.1116619E+005  0.1043930E+01  0.7957747E-01            NaN
         13   -1    0    0    0    0  0.00000000000E+00  0.00000000000E+00  0.74505805969E-08  0.10566000000E+00  0.10566000000E+00 0.  1.
     999900   -1    0    0    0    0 -0.00000000000E+00 -0.00000000000E+00 -0.74505805969E-08  0.93827000000E+00  0.93827000000E+00 0.  1.
     999902    2    1    2    0    0  0.43928445466E-02  0.16513077159E-01 -0.18313862660E-01  0.10188825178E+01  0.10185745965E+01 0.  0.
     999903    2    3    3    0    0  0.66301756063E-01 -0.89538421874E-01  0.57884309035E-01  0.12709454121E+00  0.19732646145E-01 0.  0.
         14    1    1    2    0    0 -0.43928445466E-02 -0.16513077159E-01  0.18313862660E-01  0.25047482229E-01  0.00000000000E+00 0.  1.
     999901    1    3    3    0    0 -0.61908911517E-01  0.10605149903E+00 -0.76198171695E-01  0.89178797656E+00  0.88000000000E+00 0. -1.
        -11    1    4    4    0    0  0.44684795082E-01 -0.59375807947E-01  0.48743313773E-01  0.88872882475E-01  0.51100000000E-03 0. -1.
         11    1    4    4    0    0  0.21616960981E-01 -0.30162613927E-01  0.91409952615E-02  0.38221658733E-01  0.51100000000E-03 0.  1.
</event>
<event>
 8    1  0.1116619E+005  0.1043930E+01  0.7957747E-01            NaN
         13   -1    0    0    0    0  0.00000000000E+00  0.00000000000E+00  0.74505805969E-08  0.10566000000E+00  0.10566000000E+00 0.  1.
     999900   -1    0    0    0    0 -0.00000000000E+00 -0.00000000000E+00 -0.74505805969E-08  0.93827000000E+00  0.93827000000E+00 0.  1.
     999902    2    1    2    0    0  0.16139989727E-01 -0.14969412847E-01  0.13612575077E-02  0.10218747147E+01  0.10216366756E+01 0.  0.
     999903    2    3    3    0    0  0.44189985626E-01  0.11908701107E+00 -0.24603880255E-01  0.13090214749E+00  0.19888445358E-01 0.  0.
         14    1    1    2    0    0 -0.16139989727E-01  0.14969412847E-01 -0.13612575077E-02  0.22055285339E-01  0.00000000000E+00 0.  1.
     999901    1    3    3    0    0 -0.28049995899E-01 -0.13405642392E+00  0.25965137763E-01  0.89097256717E+00  0.88000000000E+00 0. -1.
        -11    1    4    4    0    0  0.18766369035E-01  0.37215306629E-01 -0.16356025031E-01  0.44776515385E-01  0.51100000000E-03 0.  1.
         11    1    4    4    0    0  0.25423616591E-01  0.81871704446E-01 -0.82478552243E-02  0.86125632110E-01  0.51100000000E-03 0. -1.
</event>
<event>
 8    1  0.1116619E+005  0.1043930E+01  0.7957747E-01            NaN
         13   -1    0    0    0    0  0.00000000000E+00  0.00000000000E+00  0.74505805969E-08  0.10566000000E+00  0.10566000000E+00 0.  1.
     999900   -1    0    0    0    0 -0.00000000000E+00 -0.00000000000E+00 -0.74505805969E-08  0.93827000000E+00  0.93827000000E+00 0.  1.
     999902    2    1    2    0    0 -0.95341389701E-02  0.36873408990E-04 -0.21692724879E-01  0.10202345262E+01  0.10199593193E+01 0.  0.
     999903    2    3    3    0    0  0.47975852797E-01  0.11620599013E+00 -0.29881609702E-01  0.13070109757E+00  0.19604890006E-01 0.  0.
         14    1    1    2    0    0  0.95341389701E-02 -0.36873408990E-04  0.21692724879E-01  0.23695473792E-01  0.00000000000E+00 0.  1.
     999901    1    3    3    0    0 -0.57509991767E-01 -0.11616911673E+00  0.81888848223E-02  0.88953342864E+00  0.88000000000E+00 0.  1.
        -11    1    4    4    0    0  0.21385574252E-01  0.32024836591E-01 -0.40924734750E-02  0.38729089906E-01  0.51100000000E-03 0.  1.
         11    1    4    4    0    0  0.26590278545E-01  0.84181153543E-01 -0.25789136227E-01  0.91972007662E-01  0.51100000000E-03 0. -1.
</event>
<event>
 8    1  0.1116619E+005  0.1043930E+01  0.7957747E-01            NaN
         13   -1    0    0    0    0  0.00000000000E+00  0.00000000000E+00  0.74505805969E-08  0.10566000000E+00  0.10566000000E+00 0.  1.
     999900   -1    0    0    0    0 -0.00000000000E+00 -0.00000000000E+00 -0.74505805969E-08  0.93827000000E+00  0.93827000000E+00 0.  1.
     999902    2    1    2    0    0  0.97331497982E-02 -0.35879685303E-02  0.21391973899E-01  0.10201555543E+01  0.10198784882E+01 0.  0.
     999903    2    3    3    0    0 -0.12219848776E-01 -0.57628865350E-01  0.11742408139E+00  0.13301153080E+00  0.20814456765E-01 0.  0.
         14    1    1    2    0    0 -0.97331497982E-02  0.35879685303E-02 -0.21391973899E-01  0.23774445744E-01  0.00000000000E+00 0. -1.
     999901    1    3    3    0    0  0.21952998574E-01  0.54040896820E-01 -0.96032107493E-01  0.88714402345E+00  0.88000000000E+00 0.  1.
        -11    1    4    4    0    0 -0.17749229932E-01 -0.37060767325E-01  0.80471540125E-01  0.90357432063E-01  0.51100000000E-03 0. -1.
         11    1    4    4    0    0  0.55293811558E-02 -0.20568098025E-01  0.36952541267E-01  0.42654098741E-01  0.51100000000E-03 0.  1.
</event>
<event>
 8    1  0.1116619E+005  0.1043930E+01  0.7957747E-01            NaN
         13   -1    0    0    0    0  0.00000000000E+00  0.00000000000E+00  0.74505805969E-08  0.10566000000E+00  0.10566000000E+00 0.  1.
     999900   -1    0    0    0    0 -0.00000000000E+00 -0.00000000000E+00 -0.74505805969E-08  0.93827000000E+00  0.93827000000E+00 0.  1.
     999902    2    1    2    0    0  0.23894445915E-01 -0.28430487304E-03  0.14685969819E-02  0.10199887771E+01  0.10197077637E+01 0.  0.
     999903    2    3    3    0    0  0.30833505468E-01  0.11633162506E+00 -0.47724765827E-01  0.13090643416E+00  0.19367219284E-01 0.  0.
         14    1    1    2    0    0 -0.23894445915E-01  0.28430487304E-03 -0.14685969819E-02  0.23941222858E-01  0.00000000000E+00 0.  1.
     999901    1    3    3    0    0 -0.69390595526E-02 -0.11661592993E+00  0.49193362809E-01  0.88908234298E+00  0.88000000000E+00 0. -1.
        -11    1    4    4    0    0  0.12927508978E-01  0.67905524714E-01 -0.36080862302E-01  0.77976730635E-01  0.51100000000E-03 0.  1.
         11    1    4    4    0    0  0.17905996489E-01  0.48426100344E-01 -0.11643903526E-01  0.52929703524E-01  0.51100000000E-03 0. -1.
</event>
<event>
 8    1  0.1116619E+005  0.1043930E+01  0.7957747E-01            NaN
         13   -1    0    0    0    0  0.00000000000E+00  0.00000000000E+00  0.74505805969E-08  0.10566000000E+00  0.10566000000E+00 0.  1.
     999900   -1    0    0    0    0 -0.00000000000E+00 -0.00000000000E+00 -0.74505805969E-08  0.93827000000E+00  0.93827000000E+00 0. -1.
     999902    2    1    2    0    0 -0.23973727838E-01 -0.15430857613E-02 -0.10622822713E-02  0.10198831877E+01  0.10195996603E+01 0.  0.
     999903    2    3    3    0    0  0.11904893982E+00  0.23466032961E-01  0.33122545177E-01  0.12733092481E+00  0.19818088715E-01 0.  0.
         14    1    1    2    0    0  0.23973727838E-01  0.15430857613E-02  0.10622822713E-02  0.24046812340E-01  0.00000000000E+00 0.  1.
     999901    1    3    3    0    0 -0.14302266766E+00 -0.25009118722E-01 -0.34184827448E-01  0.89255226285E+00  0.88000000000E+00 0. -1.
        -11    1    4    4    0    0  0.63007888421E-01  0.63162897054E-02  0.90416700483E-02  0.63967979780E-01  0.51100000000E-03 0. -1.
         11    1    4    4    0    0  0.56041051398E-01  0.17149743256E-01  0.24080875128E-01  0.63362945035E-01  0.51100000000E-03 0.  1.
</event>
<event>
 8    1  0.1116619E+005  0.1043930E+01  0.7957747E-01            NaN
         13   -1    0    0    0    0  0.00000000000E+00  0.00000000000E+00  0.74505805969E-08  0.10566000000E+00  0.10566000000E+00 0.  1.
     999900   -1    0    0    0    0 -0.00000000000E+00 -0.00000000000E+00 -0.74505805969E-08  0.93827000000E+00  0.93827000000E+00 0. -1.
     999902    2    1    2    0    0  0.10431957687E-01 -0.19464134785E-01 -0.96181799499E-02  0.10198429149E+01  0.10195584257E+01 0.  0.
     999903    2    3    3    0    0 -0.57145380763E-01 -0.11184986966E+00  0.32997455456E-01  0.13140725989E+00  0.20076055364E-01 0.  0.
         14    1    1    2    0    0 -0.10431957687E-01  0.19464134785E-01  0.96181799499E-02  0.24087085121E-01  0.00000000000E+00 0.  1.
     999901    1    3    3    0    0  0.67577338450E-01  0.92385734875E-01 -0.42615635406E-01  0.88843565499E+00  0.88000000000E+00 0. -1.
        -11    1    4    4    0    0 -0.51662158782E-01 -0.10500712660E+00  0.25309221494E-01  0.11973426034E+00  0.51100000000E-03 0. -1.
         11    1    4    4    0    0 -0.54832219801E-02 -0.68427430631E-02  0.76882339615E-02  0.11672999544E-01  0.51100000000E-03 0.  1.
</event>
<event>
 8    1  0.1116619E+005  0.1043930E+01  0.7957747E-01            NaN
         13   -1    0    0    0    0  0.00000000000E+00  0.00000000000E+00  0.74505805969E-08  0.10566000000E+00  0.10566000000E+00 0.  1.
     999900   -1    0    0    0    0 -0.00000000000E+00 -0.00000000000E+00 -0.74505805969E-08  0.93827000000E+00  0.93827000000E+00 0.  1.
     999902    2    1    2    0    0  0.13467316934E-01 -0.15679543942E-01 -0.11179097744E-01  0.10204312990E+01  0.10201606966E+01 0.  0.
     999903    2    3    3    0    0 -0.63105588902E-01 -0.10300229339E+00 -0.49514479337E-01  0.13197292968E+00  0.19323113368E-01 0.  0.
         14    1    1    2    0    0 -0.13467316934E-01  0.15679543942E-01  0.11179097744E-01  0.23498701028E-01  0.00000000000E+00 0. -1.
     999901    1    3    3    0    0  0.76572905836E-01  0.87322749450E-01  0.38335381593E-01  0.88845836929E+00  0.88000000000E+00 0.  1.
        -11    1    4    4    0    0 -0.18098579526E-01 -0.43474476514E-01 -0.12803205693E-01  0.48803400354E-01  0.51100000000E-03 0.  1.
         11    1    4    4    0    0 -0.45007009376E-01 -0.59527816877E-01 -0.36711273644E-01  0.83169529328E-01  0.51100000000E-03 0. -1.
</event>
<event>
 8    1  0.1116619E+005  0.1043930E+01  0.7957747E-01            NaN
         13   -1    0    0    0    0  0.00000000000E+00  0.00000000000E+00  0.74505805969E-08  0.10566000000E+00  0.10566000000E+00 0. -1.
     999900   -1    0    0    0    0 -0.00000000000E+00 -0.00000000000E+00 -0.74505805969E-08  0.93827000000E+00  0.93827000000E+00 0.  1.
     999902    2    1    2    0    0  0.87794742611E-02  0.17394263515E-01 -0.11567461473E-01  0.10212706590E+01  0.10210192521E+01 0.  0.
     999903    2    3    3    0    0 -0.24632887313E-02 -0.93925416318E-01  0.85762537944E-01  0.12886290483E+00  0.20551975700E-01 0.  0.
         14    1    1    2    0    0 -0.87794742611E-02 -0.17394263515E-01  0.11567461473E-01  0.22659341042E-01  0.00000000000E+00 0. -1.
     999901    1    3    3    0    0  0.11242762992E-01  0.11131967983E+00 -0.97329999417E-01  0.89240775413E+00  0.88000000000E+00 0.  1.
        -11    1    4    4    0    0 -0.48094141239E-02 -0.55571233209E-01  0.63215832467E-01  0.84307739977E-01  0.51100000000E-03 0. -1.
         11    1    4    4    0    0  0.23461253926E-02 -0.38354183110E-01  0.22546705477E-01  0.44555164855E-01  0.51100000000E-03 0.  1.
</event>
<event>
 8    1  0.1116619E+005  0.1043930E+01  0.7957747E-01            NaN
         13   -1    0    0    0    0  0.00000000000E+00  0.00000000000E+00  0.74505805969E-08  0.10566000000E+00  0.10566000000E+00 0. -1.
     999900   -1    0    0    0    0 -0.00000000000E+00 -0.00000000000E+00 -0.74505805969E-08  0.93827000000E+00  0.93827000000E+00 0.  1.
     999902    2    1    2    0    0 -0.51278457800E-02 -0.70584688360E-02  0.22975288833E-01  0.10193539816E+01  0.10190576819E+01 0.  0.
     999903    2    3    3    0    0  0.62924852701E-02  0.11032834999E+00  0.66233161269E-01  0.13043253807E+00  0.20343921751E-01 0.  0.
         14    1    1    2    0    0  0.51278457800E-02  0.70584688360E-02 -0.22975288833E-01  0.24576018425E-01  0.00000000000E+00 0.  1.
     999901    1    3    3    0    0 -0.11420331050E-01 -0.11738681883E+00 -0.43257872436E-01  0.88892144351E+00  0.88000000000E+00 0.  1.
        -11    1    4    4    0    0  0.76988274447E-02  0.78270673557E-01  0.36591412298E-01  0.86745390990E-01  0.51100000000E-03 0.  1.
         11    1    4    4    0    0 -0.14063421746E-02  0.32057676438E-01  0.29641748971E-01  0.43687147079E-01  0.51100000000E-03 0. -1.
</event>
<event>
 8    1  0.1116619E+005  0.1043930E+01  0.7957747E-01            NaN
         13   -1    0    0    0    0  0.00000000000E+00  0.00000000000E+00  0.74505805969E-08  0.10566000000E+00  0.10566000000E+00 0. -1.
     999900   -1    0    0    0    0 -0.00000000000E+00 -0.00000000000E+00 -0.74505805969E-08  0.93827000000E+00  0.93827000000E+00 0. -1.
     999902    2    1    2    0    0  0.80602399837E-02  0.72537299174E-02  0.20559083246E-01  0.10206865069E+01  0.10204218174E+01 0.  0.
     999903    2    3    3    0    0 -0.14690682049E-01  0.62025895639E-01 -0.11081903215E+00  0.12895908008E+00  0.16928041192E-01 0.  0.
         14    1    1    2    0    0 -0.80602399837E-02 -0.72537299174E-02 -0.20559083246E-01  0.23243493072E-01  0.00000000000E+00 0.  1.
     999901    1    3    3    0    0  0.22750922033E-01 -0.54772165721E-01  0.13137811540E+00  0.89172742685E+00  0.88000000000E+00 0.  1.
        -11    1    4    4    0    0 -0.12971527340E-01  0.22541266313E-01 -0.51187391126E-01  0.57417587374E-01  0.51100000000E-03 0.  1.
         11    1    4    4    0    0 -0.17191547098E-02  0.39484629326E-01 -0.59631641025E-01  0.71541492704E-01  0.51100000000E-03 0. -1.
</event>
<event>
 8    1  0.1116619E+005  0.1043930E+01  0.7957747E-01            NaN
         13   -1    0    0    0    0  0.00000000000E+00  0.00000000000E+00  0.74505805969E-08  0.10566000000E+00  0.10566000000E+00 0.  1.
     999900   -1    0    0    0    0 -0.00000000000E+00 -0.00000000000E+00 -0.74505805969E-08  0.93827000000E+00  0.93827000000E+00 0. -1.
     999902    2    1    2    0    0 -0.34625063280E-04 -0.75962041620E-02  0.22323258410E-01  0.10203496823E+01  0.10200771749E+01 0.  0.
     999903    2    3    3    0    0  0.14925680445E-01 -0.12897788767E+00 -0.92858522554E-02  0.13132973894E+00  0.17412691685E-01 0.  0.
         14    1    1    2    0    0  0.34625063280E-04  0.75962041620E-02 -0.22323258410E-01  0.23580317695E-01  0.00000000000E+00 0. -1.
     999901    1    3    3    0    0 -0.14960305508E-01  0.12138168351E+00  0.31609110665E-01  0.88901994337E+00  0.88000000000E+00 0.  1.
        -11    1    4    4    0    0  0.17701759723E-02 -0.83656956683E-01 -0.31326449901E-02  0.83735861553E-01  0.51100000000E-03 0.  1.
         11    1    4    4    0    0  0.13155504472E-01 -0.45320930989E-01 -0.61532072653E-02  0.47593877382E-01  0.51100000000E-03 0. -1.
</event>
<event>
 8    1  0.1116619E+005  0.1043930E+01  0.7957747E-01            NaN
         13   -1    0    0    0    0  0.00000000000E+00  0.00000000000E+00  0.74505805969E-08  0.10566000000E+00  0.10566000000E+00 0. -1.
     999900   -1    0    0    0    0 -0.00000000000E+00 -0.00000000000E+00 -0.74505805969E-08  0.93827000000E+00  0.93827000000E+00 0. -1.
     999902    2    1    2    0    0 -0.19076595539E-01 -0.12569738798E-01 -0.60087830023E-02  0.10203075466E+01  0.10200340530E+01 0.  0.
     999903    2    3    3    0    0  0.77087975487E-01 -0.10020104978E+00 -0.25296768243E-01  0.13053291348E+00  0.20398742069E-01 0.  0.
         14    1    1    2    0    0  0.19076595539E-01  0.12569738798E-01  0.60087830023E-02  0.23622453386E-01  0.00000000000E+00 0. -1.
     999901    1    3    3    0    0 -0.96164571026E-01  0.87631310981E-01  0.19287985241E-01  0.88977463313E+00  0.88000000000E+00 0.  1.
        -11    1    4    4    0    0  0.51495969784E-01 -0.79608433518E-01 -0.14280736605E-01  0.95882939828E-01  0.51100000000E-03 0.  1.
         11    1    4    4    0    0  0.25592005703E-01 -0.20592616261E-01 -0.11016031638E-01  0.34649973657E-01  0.51100000000E-03 0. -1.
</event>
<event>
 8    1  0.1116619E+005  0.1043930E+01  0.7957747E-01            NaN
         13   -1    0    0    0    0  0.00000000000E+00  0.00000000000E+00  0.74505805969E-08  0.10566000000E+00  0.10566000000E+00 0. -1.
     999900   -1    0    0    0    0 -0.00000000000E+00 -0.00000000000E+00 -0.74505805969E-08  0.93827000000E+00  0.93827000000E+00 0.  1.
     999902    2    1    2    0    0  0.72263121905E-02  0.21414788192E-01 -0.59993760896E-02  0.10205461326E+01  0.10202781991E+01 0.  0.
     999903    2    3    3    0    0 -0.94508489254E-01 -0.85987654108E-01  0.31988625017E-02  0.12815055774E+00  0.93059941544E-02 0.  0.
         14    1    1    2    0    0 -0.72263121905E-02 -0.21414788192E-01  0.59993760896E-02  0.23383867402E-01  0.00000000000E+00 0. -1.
     999901    1    3    3    0    0  0.10173480144E+00  0.10740244230E+00 -0.91982385913E-02  0.89239557486E+00  0.88000000000E+00 0. -1.
        -11    1    4    4    0    0 -0.82123528153E-01 -0.72450860034E-01  0.54920935647E-02  0.10965320428E+00  0.51100000000E-03 0.  1.
         11    1    4    4    0    0 -0.12384961101E-01 -0.13536794074E-01 -0.22932310631E-02  0.18497353459E-01  0.51100000000E-03 0. -1.
</event>
<event>
 7    1  0.1116619E+005  0.1043930E+01  0.7957747E-01            NaN
         13   -1    0    0    0    0  0.00000000000E+00  0.00000000000E+00  0.74505805969E-08  0.10566000000E+00  0.10566000000E+00 0. -1.
     999900   -1    0    0    0    0 -0.00000000000E+00 -0.00000000000E+00 -0.74505805969E-08  0.93827000000E+00  0.93827000000E+00 0.  1.
     999903    2    1    2    0    0 -0.10681173376E+00  0.17355603330E-01 -0.43048000868E-02  0.11017636252E+00  0.20256754845E-01 0.  0.
         14    1    1    2    0    0 -0.17362705947E-01  0.21678097428E-01 -0.33327443649E-01  0.43383429626E-01  0.00000000000E+00 0.  1.
     999901    1    1    2    0    0  0.12417443971E+00 -0.39033700758E-01  0.37632243736E-01  0.89037020786E+00  0.88000000000E+00 0. -1.
        -11    1    3    3    0    0 -0.59924284082E-01  0.10129042375E-01  0.76323992710E-02  0.61253832221E-01  0.51100000000E-03 0.  1.
         11    1    3    3    0    0 -0.46887449683E-01  0.72265609553E-02 -0.11937199358E-01  0.48922530295E-01  0.51100000000E-03 0. -1.
</event>
<event>
 8    1  0.1116619E+005  0.1043930E+01  0.7957747E-01            NaN
         13   -1    0    0    0    0  0.00000000000E+00  0.00000000000E+00  0.74505805969E-08  0.10566000000E+00  0.10566000000E+00 0. -1.
     999900   -1    0    0    0    0 -0.00000000000E+00 -0.00000000000E+00 -0.74505805969E-08  0.93827000000E+00  0.93827000000E+00 0.  1.
     999902    2    1    2    0    0  0.73771178033E-03 -0.10572385870E-01 -0.22252897195E-01  0.10192822619E+01  0.10189842091E+01 0.  0.
     999903    2    3    3    0    0  0.12727736020E+00  0.16640259582E-01 -0.73726017922E-02  0.12969008908E+00  0.16992330295E-01 0.  0.
         14    1    1    2    0    0 -0.73771178033E-03  0.10572385870E-01  0.22252897195E-01  0.24647738136E-01  0.00000000000E+00 0. -1.
     999901    1    3    3    0    0 -0.12653964842E+00 -0.27212645452E-01 -0.14880295403E-01  0.88959217279E+00  0.88000000000E+00 0. -1.
        -11    1    4    4    0    0  0.63465460020E-01  0.98641871805E-02 -0.12038697217E-01  0.65347977444E-01  0.51100000000E-03 0. -1.
         11    1    4    4    0    0  0.63811900180E-01  0.67760724018E-02  0.46660954251E-02  0.64342111632E-01  0.51100000000E-03 0.  1.
</event>
<event>
 8    1  0.1116619E+005  0.1043930E+01  0.7957747E-01            NaN
         13   -1    0    0    0    0  0.00000000000E+00  0.00000000000E+00  0.74505805969E-08  0.10566000000E+00  0.10566000000E+00 0. -1.
     999900   -1    0    0    0    0 -0.00000000000E+00 -0.00000000000E+00 -0.74505805969E-08  0.93827000000E+00  0.93827000000E+00 0.  1.
     999902    2    1    2    0    0 -0.22030566396E-01  0.23015873243E-02 -0.24506674610E-02  0.10216443784E+01  0.10214012860E+01 0.  0.
     999903    2    3    3    0    0  0.40348419461E-01  0.80011112792E-01 -0.93806652737E-01  0.13132094037E+00  0.20389412908E-01 0.  0.
         14    1    1    2    0    0  0.22030566396E-01 -0.23015873243E-02  0.24506674610E-02  0.22285621619E-01  0.00000000000E+00 0.  1.
     999901    1    3    3    0    0 -0.62378985857E-01 -0.77709525468E-01  0.91355985276E-01  0.89032343801E+00  0.88000000000E+00 0. -1.
        -11    1    4    4    0    0  0.19907481047E-01  0.58439169690E-01 -0.57166431887E-01  0.84140991266E-01  0.51100000000E-03 0.  1.
         11    1    4    4    0    0  0.20440938414E-01  0.21571943102E-01 -0.36640220851E-01  0.47179949104E-01  0.51100000000E-03 0. -1.
</event>
<event>
 8    1  0.1116619E+005  0.1043930E+01  0.7957747E-01            NaN
         13   -1    0    0    0    0  0.00000000000E+00  0.00000000000E+00  0.74505805969E-08  0.10566000000E+00  0.10566000000E+00 0.  1.
     999900   -1    0    0    0    0 -0.00000000000E+00 -0.00000000000E+00 -0.74505805969E-08  0.93827000000E+00  0.93827000000E+00 0. -1.
     999902    2    1    2    0    0  0.21265098738E-01  0.10240777812E-01  0.20894456346E-02  0.10202351960E+01  0.10199600048E+01 0.  0.
     999903    2    3    3    0    0  0.64713035774E-02 -0.11129494551E+00  0.62955365624E-01  0.12967669221E+00  0.20596693337E-01 0.  0.
         14    1    1    2    0    0 -0.21265098738E-01 -0.10240777812E-01 -0.20894456346E-02  0.23694804021E-01  0.00000000000E+00 0.  1.
     999901    1    3    3    0    0  0.14793795160E-01  0.12153572332E+00 -0.60865919990E-01  0.89055850377E+00  0.88000000000E+00 0.  1.
        -11    1    4    4    0    0  0.27373267986E-02 -0.10570783569E+00  0.62693086528E-01  0.12293219149E+00  0.51100000000E-03 0.  1.
         11    1    4    4    0    0  0.37339767788E-02 -0.55871098130E-02  0.26227909623E-03  0.67445007207E-02  0.51100000000E-03 0. -1.
</event>
<event>
 8    1  0.1116619E+005  0.1043930E+01  0.7957747E-01            NaN
         13   -1    0    0    0    0  0.00000000000E+00  0.00000000000E+00  0.74505805969E-08  0.10566000000E+00  0.10566000000E+00 0.  1.
     999900   -1    0    0    0    0 -0.00000000000E+00 -0.00000000000E+00 -0.74505805969E-08  0.93827000000E+00  0.93827000000E+00 0. -1.
     999902    2    1    2    0    0 -0.11147128378E-01 -0.55343262925E-02  0.21366559818E-01  0.10192031499E+01  0.10189031571E+01 0.  0.
     999903    2    3    3    0    0  0.11374352652E-01 -0.12706785800E+00 -0.13405759960E-01  0.12988502307E+00  0.20366354177E-01 0.  0.
         14    1    1    2    0    0  0.11147128378E-01  0.55343262925E-02 -0.21366559818E-01  0.24726850124E-01  0.00000000000E+00 0. -1.
     999901    1    3    3    0    0 -0.22521481030E-01  0.12153353171E+00  0.34772319778E-01  0.88931812680E+00  0.88000000000E+00 0. -1.
        -11    1    4    4    0    0  0.23077394337E-03 -0.10897971442E-01  0.45211938145E-02  0.11811915707E-01  0.51100000000E-03 0. -1.
         11    1    4    4    0    0  0.11143578709E-01 -0.11616988656E+00 -0.17926953775E-01  0.11807310737E+00  0.51100000000E-03 0.  1.
</event>
<event>
 8    1  0.1116619E+005  0.1043930E+01  0.7957747E-01            NaN
         13   -1    0    0    0    0  0.00000000000E+00  0.00000000000E+00  0.74505805969E-08  0.10566000000E+00  0.10566000000E+00 0.  1.
     999900   -1    0    0    0    0 -0.00000000000E+00 -0.00000000000E+00 -0.74505805969E-08  0.93827000000E+00  0.93827000000E+00 0. -1.
     999902    2    1    2    0    0  0.26332377225E-02 -0.22964528336E-02  0.22991644946E-01  0.10206743905E+01  0.10204094218E+01 0.  0.
     999903    2    3    3    0    0 -0.62943076953E-01 -0.22254181207E-01 -0.10793437484E+00  0.12835147437E+00  0.19162259341E-01 0.  0.
         14    1    1    2    0    0 -0.26332377225E-02  0.22964528336E-02 -0.22991644946E-01  0.23255609514E-01  0.00000000000E+00 0. -1.
     999901    1    3    3    0    0  0.65576314676E-01  0.19957728374E-01  0.13092601979E+00  0.89232291612E+00  0.88000000000E+00 0.  1.
        -11    1    4    4    0    0 -0.36687506071E-01 -0.42282960844E-02 -0.66753358435E-01  0.76289734387E-01  0.51100000000E-03 0.  1.
         11    1    4    4    0    0 -0.26255570882E-01 -0.18025885123E-01 -0.41181016407E-01  0.52061739984E-01  0.51100000000E-03 0. -1.
</event>
<event>
 8    1  0.1116619E+005  0.1043930E+01  0.7957747E-01            NaN
         13   -1    0    0    0    0  0.00000000000E+00  0.00000000000E+00  0.74505805969E-08  0.10566000000E+00  0.10566000000E+00 0.  1.
     999900   -1    0    0    0    0 -0.00000000000E+00 -0.00000000000E+00 -0.74505805969E-08  0.93827000000E+00  0.93827000000E+00 0. -1.
     999902    2    1    2    0    0 -0.16091923871E-01 -0.19068198741E-01  0.75334855664E-02  0.10178666230E+01  0.10175328803E+01 0.  0.
     999903    2    3    3    0    0 -0.64558186676E-01 -0.91288502614E-01 -0.64588353837E-01  0.13064268809E+00  0.19862183232E-01 0.  0.
         14    1    1    2    0    0  0.16091923871E-01  0.19068198741E-01 -0.75334855664E-02  0.26063377024E-01  0.00000000000E+00 0. -1.
     999901    1    3    3    0    0  0.48466262805E-01  0.72220303873E-01  0.72121839403E-01  0.88722393489E+00  0.88000000000E+00 0.  1.
        -11    1    4    4    0    0 -0.55578763763E-01 -0.82440819240E-01 -0.49792681324E-01  0.11119829087E+00  0.51100000000E-03 0. -1.
         11    1    4    4    0    0 -0.89794229125E-02 -0.88476833739E-02 -0.14795672513E-01  0.19444397214E-01  0.51100000000E-03 0.  1.
</event>
<event>
 8    1  0.1116619E+005  0.1043930E+01  0.7957747E-01            NaN
         13   -1    0    0    0    0  0.00000000000E+00  0.00000000000E+00  0.74505805969E-08  0.10566000000E+00  0.10566000000E+00 0. -1.
     999900   -1    0    0    0    0 -0.00000000000E+00 -0.00000000000E+00 -0.74505805969E-08  0.93827000000E+00  0.93827000000E+00 0.  1.
     999902    2    1    2    0    0 -0.17585276193E-01  0.91499050288E-02  0.11213567320E-01  0.10211548646E+01  0.10209008525E+01 0.  0.
     999903    2    3    3    0    0 -0.50022040046E-01 -0.37722117376E-01  0.11577202228E+00  0.13313369331E+00  0.19906193106E-01 0.  0.
         14    1    1    2    0    0  0.17585276193E-01 -0.91499050288E-02 -0.11213567320E-01  0.22775135408E-01  0.00000000000E+00 0.  1.
     999901    1    3    3    0    0  0.32436763853E-01  0.46872022405E-01 -0.10455845496E+00  0.88802117128E+00  0.88000000000E+00 0.  1.
        -11    1    4    4    0    0 -0.27702003625E-01 -0.30092027344E-01  0.60432405745E-01  0.72974433191E-01  0.51100000000E-03 0.  1.
         11    1    4    4    0    0 -0.22320036421E-01 -0.76300900321E-02  0.55339616531E-01  0.60159260123E-01  0.51100000000E-03 0. -1.
</event>
<event>
 8    1  0.1116619E+005  0.1043930E+01  0.7957747E-01            NaN
         13   -1    0    0    0    0  0.00000000000E+00  0.00000000000E+00  0.74505805969E-08  0.10566000000E+00  0.10566000000E+00 0.  1.
     999900   -1    0    0    0    0 -0.00000000000E+00 -0.00000000000E+00 -0.74505805969E-08  0.93827000000E+00  0.93827000000E+00 0. -1.
     999902    2    1    2    0    0  0.21688067154E-01 -0.37945312704E-03 -0.10163717843E-01  0.10199755139E+01  0.10196941854E+01 0.  0.
     999903    2    3    3    0    0 -0.76246772518E-01 -0.80298823983E-01  0.61270456285E-01  0.12807799748E+00  0.19708708011E-01 0.  0.
         14    1    1    2    0    0 -0.21688067154E-01  0.37945312704E-03  0.10163717843E-01  0.23954486051E-01  0.00000000000E+00 0.  1.
     999901    1    3    3    0    0  0.97934839673E-01  0.79919370856E-01 -0.71434174127E-01  0.89189751647E+00  0.88000000000E+00 0. -1.
        -11    1    4    4    0    0 -0.56880121006E-01 -0.53034203401E-01  0.33806998855E-01  0.84800643798E-01  0.51100000000E-03 0. -1.
         11    1    4    4    0    0 -0.19366651512E-01 -0.27264620582E-01  0.27463457430E-01  0.43277353677E-01  0.51100000000E-03 0.  1.
</event>
<event>
 8    1  0.1116619E+005  0.1043930E+01  0.7957747E-01            NaN
         13   -1    0    0    0    0  0.00000000000E+00  0.00000000000E+00  0.74505805969E-08  0.10566000000E+00  0.10566000000E+00 0. -1.
     999900   -1    0    0    0    0 -0.00000000000E+00 -0.00000000000E+00 -0.74505805969E-08  0.93827000000E+00  0.93827000000E+00 0.  1.
     999902    2    1    2    0    0  0.15139812970E-01  0.13897238803E-01 -0.10496473734E-01  0.10208535370E+01  0.10205926812E+01 0.  0.
     999903    2    3    3    0    0  0.54636865084E-01  0.66418376664E-01  0.97823165214E-01  0.13178006917E+00  0.20000679794E-01 0.  0.
         14    1    1    2    0    0 -0.15139812970E-01 -0.13897238803E-01  0.10496473734E-01  0.23076462986E-01  0.00000000000E+00 0. -1.
     999901    1    3    3    0    0 -0.39497052114E-01 -0.52521137861E-01 -0.10831963895E+00  0.88907346785E+00  0.88000000000E+00 0.  1.
        -11    1    4    4    0    0  0.46740022630E-01  0.48592175437E-01  0.65333720747E-01  0.93886023543E-01  0.51100000000E-03 0.  1.
         11    1    4    4    0    0  0.78968424538E-02  0.17826201227E-01  0.32489444467E-01  0.37894045623E-01  0.51100000000E-03 0. -1.
</event>
<event>
 8    1  0.1116619E+005  0.1043930E+01  0.7957747E-01            NaN
         13   -1    0    0    0    0  0.00000000000E+00  0.00000000000E+00  0.74505805969E-08  0.10566000000E+00  0.10566000000E+00 0.  1.
     999900   -1    0    0    0    0 -0.00000000000E+00 -0.00000000000E+00 -0.74505805969E-08  0.93827000000E+00  0.93827000000E+00 0.  1.
     999902    2    1    2    0    0  0.33826462605E-02  0.22477762309E-01 -0.81899420462E-02  0.10197687243E+01  0.10194824588E+01 0.  0.
     999903    2    3    3    0    0  0.12178654989E+00  0.14516926502E-01 -0.42196896058E-01  0.13115219718E+00  0.19432341590E-01 0.  0.
         14    1    1    2    0    0 -0.33826462605E-02 -0.22477762309E-01  0.81899420462E-02  0.24161275730E-01  0.00000000000E+00 0.  1.
     999901    1    3    3    0    0 -0.11840390362E+00  0.79608358074E-02  0.34006954012E-01  0.88861652709E+00  0.88000000000E+00 0.  1.
        -11    1    4    4    0    0  0.52683632990E-01  0.13920585404E-01 -0.12356316163E-01  0.55877433309E-01  0.51100000000E-03 0. -1.
         11    1    4    4    0    0  0.69102916895E-01  0.59634109747E-03 -0.29840579895E-01  0.75274763870E-01  0.51100000000E-03 0.  1.
</event>
<event>
 8    1  0.1116619E+005  0.1043930E+01  0.7957747E-01            NaN
         13   -1    0    0    0    0  0.00000000000E+00  0.00000000000E+00  0.74505805969E-08  0.10566000000E+00  0.10566000000E+00 0. -1.
     999900   -1    0    0    0    0 -0.00000000000E+00 -0.00000000000E+00 -0.74505805969E-08  0.93827000000E+00  0.93827000000E+00 0. -1.
     999902    2    1    2    0    0 -0.44256974838E-02 -0.64326005798E-02  0.22029002001E-01  0.10205581777E+01  0.10202905233E+01 0.  0.
     999903    2    3    3    0    0 -0.11065513231E+00  0.17081240954E-01 -0.62952579928E-01  0.12979476195E+00  0.18636679175E-01 0.  0.
         14    1    1    2    0    0  0.44256974838E-02  0.64326005798E-02 -0.22029002001E-01  0.23371822300E-01  0.00000000000E+00 0.  1.
     999901    1    3    3    0    0  0.10622943483E+00 -0.23513841534E-01  0.84981581930E-01  0.89076341575E+00  0.88000000000E+00 0.  1.
        -11    1    4    4    0    0 -0.98334161713E-01  0.96018198373E-02 -0.57867680585E-01  0.11450210427E+00  0.51100000000E-03 0. -1.
         11    1    4    4    0    0 -0.12320970600E-01  0.74794211167E-02 -0.50848993438E-02  0.15292657686E-01  0.51100000000E-03 0.  1.
</event>
<event>
 8    1  0.1116619E+005  0.1043930E+01  0.7957747E-01            NaN
         13   -1    0    0    0    0  0.00000000000E+00  0.00000000000E+00  0.74505805969E-08  0.10566000000E+00  0.10566000000E+00 0. -1.
     999900   -1    0    0    0    0 -0.00000000000E+00 -0.00000000000E+00 -0.74505805969E-08  0.93827000000E+00  0.93827000000E+00 0. -1.
     999902    2    1    2    0    0  0.16320158086E-01 -0.16427724053E-01  0.36842749211E-02  0.10204823656E+01  0.10202129518E+01 0.  0.
     999903    2    3    3    0    0 -0.73271430558E-01 -0.28390809171E-01  0.10207991461E+00  0.13039727412E+00  0.20208897778E-01 0.  0.
         14    1    1    2    0    0 -0.16320158086E-01  0.16427724053E-01 -0.36842749211E-02  0.23447634406E-01  0.00000000000E+00 0. -1.
     999901    1    3    3    0    0  0.89591588643E-01  0.11963085118E-01 -0.98395639687E-01  0.89008509148E+00  0.88000000000E+00 0. -1.
        -11    1    4    4    0    0 -0.28619839331E-01 -0.71392743452E-02  0.24269605323E-01  0.38201299783E-01  0.51100000000E-03 0.  1.
         11    1    4    4    0    0 -0.44651591226E-01 -0.21251534826E-01  0.77810309284E-01  0.92195974334E-01  0.51100000000E-03 0. -1.
</event>
<event>
 8    1  0.1116619E+005  0.1043930E+01  0.7957747E-01            NaN
         13   -1    0    0    0    0  0.00000000000E+00  0.00000000000E+00  0.74505805969E-08  0.10566000000E+00  0.10566000000E+00 0. -1.
     999900   -1    0    0    0    0 -0.00000000000E+00 -0.00000000000E+00 -0.74505805969E-08  0.93827000000E+00  0.93827000000E+00 0.  1.
     999902    2    1    2    0    0  0.64994761006E-02  0.11213480122E-01 -0.20470852498E-01  0.10197010684E+01  0.10194131781E+01 0.  0.
     999903    2    3    3    0    0 -0.79189595667E-01  0.59110200800E-01 -0.85038579730E-01  0.13189157063E+00  0.19970439665E-01 0.  0.
         14    1    1    2    0    0 -0.64994761006E-02 -0.11213480122E-01  0.20470852498E-01  0.24228931632E-01  0.00000000000E+00 0. -1.
     999901    1    3    3    0    0  0.85689071768E-01 -0.47896720678E-01  0.64567727232E-01  0.88780949774E+00  0.88000000000E+00 0.  1.
        -11    1    4    4    0    0 -0.15245139597E-01  0.17774757842E-01 -0.11735517263E-01  0.26198087413E-01  0.51100000000E-03 0.  1.
         11    1    4    4    0    0 -0.63944456071E-01  0.41335442958E-01 -0.73303062467E-01  0.10569348322E+00  0.51100000000E-03 0. -1.
</event>
<event>
 8    1  0.1116619E+005  0.1043930E+01  0.7957747E-01            NaN
         13   -1    0    0    0    0  0.00000000000E+00  0.00000000000E+00  0.74505805969E-08  0.10566000000E+00  0.10566000000E+00 0. -1.
     999900   -1    0    0    0    0 -0.00000000000E+00 -0.00000000000E+00 -0.74505805969E-08  0.93827000000E+00  0.93827000000E+00 0.  1.
     999902    2    1    2    0    0  0.16340137688E-01  0.15766105437E-01 -0.59448284501E-02  0.10204585031E+01  0.10201885343E+01 0.  0.
     999903    2    3    3    0    0  0.10212528698E+00 -0.61894620087E-01  0.50686390565E-01  0.13107817104E+00  0.18757891670E-01 0.  0.
         14    1    1    2    0    0 -0.16340137688E-01 -0.15766105437E-01  0.59448284501E-02  0.23471496876E-01  0.00000000000E+00 0.  1.
     999901    1    3    3    0    0 -0.85785149287E-01  0.77660725523E-01 -0.56631219015E-01  0.88938033208E+00  0.88000000000E+00 0.  1.
        -11    1    4    4    0    0  0.62648196287E-01 -0.47034025755E-01  0.37700085821E-01  0.86939942884E-01  0.51100000000E-03 0.  1.
         11    1    4    4    0    0  0.39477090688E-01 -0.14860594332E-01  0.12986304744E-01  0.44138228159E-01  0.51100000000E-03 0. -1.
</event>
<event>
 8    1  0.1116619E+005  0.1043930E+01  0.7957747E-01            NaN
         13   -1    0    0    0    0  0.00000000000E+00  0.00000000000E+00  0.74505805969E-08  0.10566000000E+00  0.10566000000E+00 0. -1.
     999900   -1    0    0    0    0 -0.00000000000E+00 -0.00000000000E+00 -0.74505805969E-08  0.93827000000E+00  0.93827000000E+00 0.  1.
     999902    2    1    2    0    0  0.15123977467E-01 -0.10736030435E-01 -0.14917393897E-01  0.10201282000E+01  0.10198504884E+01 0.  0.
     999903    2    3    3    0    0  0.72666999074E-01  0.10320662348E+00 -0.25580967979E-01  0.13085442912E+00  0.23160220477E-01 0.  0.
         14    1    1    2    0    0 -0.15123977467E-01  0.10736030435E-01  0.14917393897E-01  0.23801800029E-01  0.00000000000E+00 0. -1.
     999901    1    3    3    0    0 -0.57543021607E-01 -0.11394265391E+00  0.10663574082E-01  0.88927377085E+00  0.88000000000E+00 0.  1.
        -11    1    4    4    0    0  0.51315136103E-01  0.68964064773E-01 -0.64835932146E-02  0.86206632722E-01  0.51100000000E-03 0.  1.
         11    1    4    4    0    0  0.21351862970E-01  0.34242558706E-01 -0.19097374765E-01  0.44647796395E-01  0.51100000000E-03 0. -1.
</event>
<event>
 8    1  0.1116619E+005  0.1043930E+01  0.7957747E-01            NaN
         13   -1    0    0    0    0  0.00000000000E+00  0.00000000000E+00  0.74505805969E-08  0.10566000000E+00  0.10566000000E+00 0.  1.
     999900   -1    0    0    0    0 -0.00000000000E+00 -0.00000000000E+00 -0.74505805969E-08  0.93827000000E+00  0.93827000000E+00 0. -1.
     999902    2    1    2    0    0  0.19832763019E-01 -0.70573995278E-02 -0.98214909379E-02  0.10207005562E+01  0.10204361902E+01 0.  0.
     999903    2    3    3    0    0 -0.24415220817E-01  0.28210948397E-01  0.12195821517E+00  0.12909098276E+00  0.19967848292E-01 0.  0.
         14    1    1    2    0    0 -0.19832763019E-01  0.70573995278E-02  0.98214909379E-02  0.23229443844E-01  0.00000000000E+00 0.  1.
     999901    1    3    3    0    0  0.44247983836E-01 -0.35268347925E-01 -0.13177970610E+00  0.89160957340E+00  0.88000000000E+00 0. -1.
        -11    1    4    4    0    0 -0.10378954042E-01  0.12700057915E-01  0.85447794831E-01  0.87009200206E-01  0.51100000000E-03 0. -1.
         11    1    4    4    0    0 -0.14036266774E-01  0.15510890483E-01  0.36510420335E-01  0.42081782550E-01  0.51100000000E-03 0.  1.
</event>
<event>
 8    1  0.1116619E+005  0.1043930E+01  0.7957747E-01            NaN
         13   -1    0    0    0    0  0.00000000000E+00  0.00000000000E+00  0.74505805969E-08  0.10566000000E+00  0.10566000000E+00 0. -1.
     999900   -1    0    0    0    0 -0.00000000000E+00 -0.00000000000E+00 -0.74505805969E-08  0.93827000000E+00  0.93827000000E+00 0. -1.
     999902    2    1    2    0    0  0.57684976254E-02  0.15890751966E-01  0.14381981900E-01  0.10217346634E+01  0.10214935582E+01 0.  0.
     999903    2    3    3    0    0  0.74861610617E-01 -0.70853628976E-01 -0.76923941738E-01  0.13008718959E+00  0.19516316223E-01 0.  0.
         14    1    1    2    0    0 -0.57684976254E-02 -0.15890751966E-01 -0.14381981900E-01  0.22195336588E-01  0.00000000000E+00 0.  1.
     999901    1    3    3    0    0 -0.69093112992E-01  0.86744380941E-01  0.91305923637E-01  0.89164747383E+00  0.88000000000E+00 0. -1.
        -11    1    4    4    0    0  0.22413127017E-01 -0.11165485593E-01 -0.23450743801E-01  0.34310564510E-01  0.51100000000E-03 0.  1.
         11    1    4    4    0    0  0.52448483600E-01 -0.59688143383E-01 -0.53473197937E-01  0.95776625076E-01  0.51100000000E-03 0. -1.
</event>
<event>
 8    1  0.1116619E+005  0.1043930E+01  0.7957747E-01            NaN
         13   -1    0    0    0    0  0.00000000000E+00  0.00000000000E+00  0.74505805969E-08  0.10566000000E+00  0.10566000000E+00 0. -1.
     999900   -1    0    0    0    0 -0.00000000000E+00 -0.00000000000E+00 -0.74505805969E-08  0.93827000000E+00  0.93827000000E+00 0.  1.
     999902    2    1    2    0    0 -0.16036928401E-01  0.98851346626E-03  0.17064467723E-01  0.10204916492E+01  0.10202224511E+01 0.  0.
     999903    2    3    3    0    0 -0.12409110596E+00 -0.44989019052E-02 -0.39862391519E-01  0.13203991478E+00  0.20656382594E-01 0.  0.
         14    1    1    2    0    0  0.16036928401E-01 -0.98851346626E-03 -0.17064467723E-01  0.23438350840E-01  0.00000000000E+00 0.  1.
     999901    1    3    3    0    0  0.10805417756E+00  0.54874153714E-02  0.56926859242E-01  0.88845173438E+00  0.88000000000E+00 0.  1.
        -11    1    4    4    0    0 -0.10328629552E+00 -0.11244331624E-01 -0.30869618855E-01  0.10838675345E+00  0.51100000000E-03 0. -1.
         11    1    4    4    0    0 -0.20804810442E-01  0.67454297193E-02 -0.89927726635E-02  0.23653161328E-01  0.51100000000E-03 0.  1.
</event>
<event>
 8    1  0.1116619E+005  0.1043930E+01  0.7957747E-01            NaN
         13   -1    0    0    0    0  0.00000000000E+00  0.00000000000E+00  0.74505805969E-08  0.10566000000E+00  0.10566000000E+00 0. -1.
     999900   -1    0    0    0    0 -0.00000000000E+00 -0.00000000000E+00 -0.74505805969E-08  0.93827000000E+00  0.93827000000E+00 0.  1.
     999902    2    1    2    0    0 -0.21667989151E-01 -0.68124984898E-02  0.48371941690E-02  0.10207069439E+01  0.10204427249E+01 0.  0.
     999903    2    3    3    0    0  0.10697518398E+00 -0.67428527594E-01  0.18679065868E-01  0.12918298658E+00  0.18682617558E-01 0.  0.
         14    1    1    2    0    0  0.21667989151E-01  0.68124984898E-02 -0.48371941690E-02  0.23223056150E-01  0.00000000000E+00 0.  1.
     999901    1    3    3    0    0 -0.12864317313E+00  0.60616029105E-01 -0.13841871699E-01  0.89152395727E+00  0.88000000000E+00 0.  1.
        -11    1    4    4    0    0  0.75858089027E-01 -0.50275551648E-01  0.21575195513E-01  0.93529839874E-01  0.51100000000E-03 0. -1.
         11    1    4    4    0    0  0.31117094951E-01 -0.17152975946E-01 -0.28961296449E-02  0.35653146705E-01  0.51100000000E-03 0.  1.
</event>
<event>
 8    1  0.1116619E+005  0.1043930E+01  0.7957747E-01            NaN
         13   -1    0    0    0    0  0.00000000000E+00  0.00000000000E+00  0.74505805969E-08  0.10566000000E+00  0.10566000000E+00 0.  1.
     999900   -1    0    0    0    0 -0.00000000000E+00 -0.00000000000E+00 -0.74505805969E-08  0.93827000000E+00  0.93827000000E+00 0.  1.
     999902    2    1    2    0    0  0.11929396917E-01  0.12804652925E-01  0.16451206355E-01  0.10199110109E+01  0.10196281471E+01 0.  0.
     999903    2    3    3    0    0 -0.11921810491E+00  0.39216312082E-01  0.26176711350E-01  0.12974707744E+00  0.19955155099E-01 0.  0.
         14    1    1    2    0    0 -0.11929396917E-01 -0.12804652925E-01 -0.16451206355E-01  0.24018989110E-01  0.00000000000E+00 0. -1.
     999901    1    3    3    0    0  0.13114750182E+00 -0.26411659157E-01 -0.97255049952E-02  0.89016393345E+00  0.88000000000E+00 0. -1.
        -11    1    4    4    0    0 -0.73470417485E-01  0.26569444183E-01  0.66164049949E-02  0.78408389511E-01  0.51100000000E-03 0.  1.
         11    1    4    4    0    0 -0.45747687423E-01  0.12646867899E-01  0.19560306356E-01  0.51338687925E-01  0.51100000000E-03 0. -1.
</event>
<event>
 8    1  0.1116619E+005  0.1043930E+01  0.7957747E-01            NaN
         13   -1    0    0    0    0  0.00000000000E+00  0.00000000000E+00  0.74505805969E-08  0.10566000000E+00  0.10566000000E+00 0. -1.
     999900   -1    0    0    0    0 -0.00000000000E+00 -0.00000000000E+00 -0.74505805969E-08  0.93827000000E+00  0.93827000000E+00 0.  1.
     999902    2    1    2    0    0  0.41288007658E-02  0.13662430171E-01 -0.21837338309E-01  0.10178421036E+01  0.10175077246E+01 0.  0.
     999903    2    3    3    0    0  0.29769799726E-01 -0.18985006670E-01 -0.12461656369E+00  0.13088839279E+00  0.18862978746E-01 0.  0.
         14    1    1    2    0    0 -0.41288007658E-02 -0.13662430171E-01  0.21837338309E-01  0.26087896396E-01  0.00000000000E+00 0. -1.
     999901    1    3    3    0    0 -0.25640998960E-01  0.32647436841E-01  0.10277922538E+00  0.88695371082E+00  0.88000000000E+00 0. -1.
        -11    1    4    4    0    0  0.12402256266E-01  0.18964138638E-02 -0.32185516740E-01  0.34548240980E-01  0.51100000000E-03 0. -1.
         11    1    4    4    0    0  0.17367543461E-01 -0.20881420534E-01 -0.92431046949E-01  0.96340151808E-01  0.51100000000E-03 0.  1.
</event>
<event>
 8    1  0.1116619E+005  0.1043930E+01  0.7957747E-01            NaN
         13   -1    0    0    0    0  0.00000000000E+00  0.00000000000E+00  0.74505805969E-08  0.10566000000E+00  0.10566000000E+00 0. -1.
     999900   -1    0    0    0    0 -0.00000000000E+00 -0.00000000000E+00 -0.74505805969E-08  0.93827000000E+00  0.93827000000E+00 0. -1.
     999902    2    1    2    0    0  0.14668280237E-01 -0.57198873615E-02  0.17716606975E-01  0.10202286558E+01  0.10199533108E+01 0.  0.
     999903    2    3    3    0    0 -0.75890474923E-01 -0.26267333455E-01 -0.97658903936E-01  0.12785284131E+00  0.18967090516E-01 0.  0.
         14    1    1    2    0    0 -0.14668280237E-01  0.57198873615E-02 -0.17716606975E-01  0.23701344250E-01  0.00000000000E+00 0.  1.
     999901    1    3    3    0    0  0.90558755160E-01  0.20547446093E-01  0.11537551091E+00  0.89237581444E+00  0.88000000000E+00 0.  1.
        -11    1    4    4    0    0 -0.37778339812E-01 -0.16806470336E-01 -0.36418643057E-01  0.55102078792E-01  0.51100000000E-03 0. -1.
         11    1    4    4    0    0 -0.38112135111E-01 -0.94608631194E-02 -0.61240260879E-01  0.72750762520E-01  0.51100000000E-03 0.  1.
</event>
<event>
 8    1  0.1116619E+005  0.1043930E+01  0.7957747E-01            NaN
         13   -1    0    0    0    0  0.00000000000E+00  0.00000000000E+00  0.74505805969E-08  0.10566000000E+00  0.10566000000E+00 0. -1.
     999900   -1    0    0    0    0 -0.00000000000E+00 -0.00000000000E+00 -0.74505805969E-08  0.93827000000E+00  0.93827000000E+00 0.  1.
     999902    2    1    2    0    0 -0.24379715661E-01  0.23396097102E-02  0.71749584796E-02  0.10184089432E+01  0.10180891176E+01 0.  0.
     999903    2    3    3    0    0  0.12014044307E+00  0.32453670821E-01 -0.34637346052E-02  0.12604908603E+00  0.19733418872E-01 0.  0.
         14    1    1    2    0    0  0.24379715661E-01 -0.23396097102E-02 -0.71749584796E-02  0.25521056767E-01  0.00000000000E+00 0.  1.
     999901    1    3    3    0    0 -0.14452015873E+00 -0.30114061111E-01  0.10638693085E-01  0.89235985720E+00  0.88000000000E+00 0. -1.
        -11    1    4    4    0    0  0.64906522622E-01  0.21434731628E-01 -0.10955064387E-01  0.69228454812E-01  0.51100000000E-03 0. -1.
         11    1    4    4    0    0  0.55233920450E-01  0.11018939193E-01  0.74913297821E-02  0.56820631219E-01  0.51100000000E-03 0.  1.
</event>
<event>
 8    1  0.1116619E+005  0.1043930E+01  0.7957747E-01            NaN
         13   -1    0    0    0    0  0.00000000000E+00  0.00000000000E+00  0.74505805969E-08  0.10566000000E+00  0.10566000000E+00 0. -1.
     999900   -1    0    0    0    0 -0.00000000000E+00 -0.00000000000E+00 -0.74505805969E-08  0.93827000000E+00  0.93827000000E+00 0. -1.
     999902    2    1    2    0    0 -0.54533976232E-02  0.22440563543E-01  0.33124064816E-02  0.10205999663E+01  0.10203332792E+01 0.  0.
     999903    2    3    3    0    0 -0.74185593907E-01 -0.66745381031E-01 -0.80037107665E-01  0.12951894355E+00  0.20267459222E-01 0.  0.
         14    1    1    2    0    0  0.54533976232E-02 -0.22440563543E-01 -0.33124064816E-02  0.23330033744E-01  0.00000000000E+00 0. -1.
     999901    1    3    3    0    0  0.68732196283E-01  0.89185944574E-01  0.83349514146E-01  0.89108102270E+00  0.88000000000E+00 0.  1.
        -11    1    4    4    0    0 -0.56350886670E-01 -0.40564937499E-01 -0.47649334805E-01  0.84211975462E-01  0.51100000000E-03 0.  1.
         11    1    4    4    0    0 -0.17834707236E-01 -0.26180443532E-01 -0.32387772860E-01  0.45306968090E-01  0.51100000000E-03 0. -1.
</event>
<event>
 8    1  0.1116619E+005  0.1043930E+01  0.7957747E-01            NaN
         13   -1    0    0    0    0  0.00000000000E+00  0.00000000000E+00  0.74505805969E-08  0.10566000000E+00  0.10566000000E+00 0. -1.
     999900   -1    0    0    0    0 -0.00000000000E+00 -0.00000000000E+00 -0.74505805969E-08  0.93827000000E+00  0.93827000000E+00 0. -1.
     999902    2    1    2    0    0  0.22287311482E-01  0.60007846187E-02  0.16925620349E-03  0.10208483554E+01  0.10205873811E+01 0.  0.
     999903    2    3    3    0    0  0.73244190667E-01  0.10607457270E+00  0.26878980961E-01  0.13330975006E+00  0.20796235320E-01 0.  0.
         14    1    1    2    0    0 -0.22287311482E-01 -0.60007846187E-02 -0.16925620349E-03  0.23081644586E-01  0.00000000000E+00 0. -1.
     999901    1    3    3    0    0 -0.50956879185E-01 -0.10007378808E+00 -0.26709724758E-01  0.88753860535E+00  0.88000000000E+00 0. -1.
        -11    1    4    4    0    0  0.42837809944E-01  0.59101966312E-01  0.47981002358E-02  0.73153286117E-01  0.51100000000E-03 0. -1.
         11    1    4    4    0    0  0.30406380723E-01  0.46972606388E-01  0.22080880725E-01  0.60156463943E-01  0.51100000000E-03 0.  1.
</event>
<event>
 8    1  0.1374512E+005  0.1043930E+01  0.7957747E-01            NaN
         13   -1    0    0    0    0  0.00000000000E+00  0.00000000000E+00  0.74505805969E-08  0.10566000000E+00  0.10566000000E+00 0.  1.
     999900   -1    0    0    0    0 -0.00000000000E+00 -0.00000000000E+00 -0.74505805969E-08  0.93827000000E+00  0.93827000000E+00 0. -1.
     999902    2    1    2    0    0 -0.14157440783E-01 -0.28648028480E-02 -0.17866782527E-01  0.10209547493E+01  0.10206962026E+01 0.  0.
     999903    2    3    3    0    0 -0.11809593858E+00 -0.46083319670E-01  0.32451843412E-01  0.13235865683E+00  0.19883883820E-01 0.  0.
         14    1    1    2    0    0  0.14157440783E-01  0.28648028480E-02  0.17866782527E-01  0.22975250657E-01  0.00000000000E+00 0.  1.
     999901    1    3    3    0    0  0.10393849779E+00  0.43218516822E-01 -0.50318625939E-01  0.88859609252E+00  0.88000000000E+00 0.  1.
        -11    1    4    4    0    0 -0.74790091202E-01 -0.39268170052E-01  0.21806736232E-01  0.87243004231E-01  0.51100000000E-03 0. -1.
         11    1    4    4    0    0 -0.43305847375E-01 -0.68151496185E-02  0.10645107180E-01  0.45115652595E-01  0.51100000000E-03 0.  1.
</event>
<event>
 8    1  0.1116619E+005  0.1043930E+01  0.7957747E-01            NaN
         13   -1    0    0    0    0  0.00000000000E+00  0.00000000000E+00  0.74505805969E-08  0.10566000000E+00  0.10566000000E+00 0.  1.
     999900   -1    0    0    0    0 -0.00000000000E+00 -0.00000000000E+00 -0.74505805969E-08  0.93827000000E+00  0.93827000000E+00 0.  1.
     999902    2    1    2    0    0  0.14754810693E-01  0.20835082650E-01 -0.81997319118E-03  0.10183863616E+01  0.10180659625E+01 0.  0.
     999903    2    3    3    0    0 -0.10829397522E+00  0.13866001756E-01  0.62797104729E-01  0.12752346281E+00  0.19972634581E-01 0.  0.
         14    1    1    2    0    0 -0.14754810693E-01 -0.20835082650E-01  0.81997319118E-03  0.25543638419E-01  0.00000000000E+00 0.  1.
     999901    1    3    3    0    0  0.12304878591E+00  0.69690808945E-02 -0.63617077920E-01  0.89086289877E+00  0.88000000000E+00 0. -1.
        -11    1    4    4    0    0 -0.77785641605E-01  0.18679442830E-01  0.47720641364E-01  0.93150675562E-01  0.51100000000E-03 0. -1.
         11    1    4    4    0    0 -0.30508333611E-01 -0.48134410742E-02  0.15076463365E-01  0.34372787249E-01  0.51100000000E-03 0.  1.
</event>
<event>
 8    1  0.1116619E+005  0.1043930E+01  0.7957747E-01            NaN
         13   -1    0    0    0    0  0.00000000000E+00  0.00000000000E+00  0.74505805969E-08  0.10566000000E+00  0.10566000000E+00 0. -1.
     999900   -1    0    0    0    0 -0.00000000000E+00 -0.00000000000E+00 -0.74505805969E-08  0.93827000000E+00  0.93827000000E+00 0. -1.
     999902    2    1    2    0    0  0.87945377455E-02  0.21622638018E-01  0.26782776818E-02  0.10204341378E+01  0.10201636016E+01 0.  0.
     999903    2    3    3    0    0  0.21990833837E-01 -0.12156282404E+00  0.29051182597E-01  0.12837374249E+00  0.19357933450E-01 0.  0.
         14    1    1    2    0    0 -0.87945377455E-02 -0.21622638018E-01 -0.26782776818E-02  0.23495862197E-01  0.00000000000E+00 0.  1.
     999901    1    3    3    0    0 -0.13196296092E-01  0.14318546206E+00 -0.26372904916E-01  0.89206039532E+00  0.88000000000E+00 0.  1.
        -11    1    4    4    0    0  0.96674936791E-03 -0.52262491321E-01  0.74661956140E-02  0.52804429752E-01  0.51100000000E-03 0. -1.
         11    1    4    4    0    0  0.21024084470E-01 -0.69300332723E-01  0.21584986983E-01  0.75569312736E-01  0.51100000000E-03 0.  1.
</event>
<event>
 8    1  0.1116619E+005  0.1043930E+01  0.7957747E-01            NaN
         13   -1    0    0    0    0  0.00000000000E+00  0.00000000000E+00  0.74505805969E-08  0.10566000000E+00  0.10566000000E+00 0.  1.
     999900   -1    0    0    0    0 -0.00000000000E+00 -0.00000000000E+00 -0.74505805969E-08  0.93827000000E+00  0.93827000000E+00 0. -1.
     999902    2    1    2    0    0 -0.10293041467E-01 -0.11126938345E-01 -0.16670896160E-01  0.10213983725E+01  0.10211498230E+01 0.  0.
     999903    2    3    3    0    0 -0.50938591414E-01 -0.20906125893E-01 -0.12076971390E+00  0.13427704082E+00  0.20327166560E-01 0.  0.
         14    1    1    2    0    0  0.10293041467E-01  0.11126938345E-01  0.16670896160E-01  0.22531627513E-01  0.00000000000E+00 0.  1.
     999901    1    3    3    0    0  0.40645549948E-01  0.97791875474E-02  0.10409881774E+00  0.88712133167E+00  0.88000000000E+00 0.  1.
        -11    1    4    4    0    0 -0.29973364802E-01 -0.14115601086E-02 -0.64580688875E-01  0.71213212230E-01  0.51100000000E-03 0.  1.
         11    1    4    4    0    0 -0.20965226612E-01 -0.19494565784E-01 -0.56189025030E-01  0.63063828593E-01  0.51100000000E-03 0. -1.
</event>
<event>
 8    1  0.1116619E+005  0.1043930E+01  0.7957747E-01            NaN
         13   -1    0    0    0    0  0.00000000000E+00  0.00000000000E+00  0.74505805969E-08  0.10566000000E+00  0.10566000000E+00 0. -1.
     999900   -1    0    0    0    0 -0.00000000000E+00 -0.00000000000E+00 -0.74505805969E-08  0.93827000000E+00  0.93827000000E+00 0.  1.
     999902    2    1    2    0    0  0.26378008164E-01 -0.86424836699E-02  0.14487093654E-03  0.10161718872E+01  0.10157926912E+01 0.  0.
     999903    2    3    3    0    0  0.69002350019E-01 -0.35320565423E-01 -0.10115974370E+00  0.12893393743E+00  0.19539698697E-01 0.  0.
         14    1    1    2    0    0 -0.26378008164E-01  0.86424836699E-02 -0.14487093654E-03  0.27758112801E-01  0.00000000000E+00 0.  1.
     999901    1    3    3    0    0 -0.42624341854E-01  0.26678081753E-01  0.10130461464E+00  0.88723794977E+00  0.88000000000E+00 0. -1.
        -11    1    4    4    0    0  0.42317107203E-02  0.23862209796E-02 -0.79233864863E-02  0.93082007174E-02  0.51100000000E-03 0.  1.
         11    1    4    4    0    0  0.64770639299E-01 -0.37706786402E-01 -0.93236357216E-01  0.11962573671E+00  0.51100000000E-03 0. -1.
</event>
<event>
 8    1  0.1116619E+005  0.1043930E+01  0.7957747E-01            NaN
         13   -1    0    0    0    0  0.00000000000E+00  0.00000000000E+00  0.74505805969E-08  0.10566000000E+00  0.10566000000E+00 0.  1.
     999900   -1    0    0    0    0 -0.00000000000E+00 -0.00000000000E+00 -0.74505805969E-08  0.93827000000E+00  0.93827000000E+00 0. -1.
     999902    2    1    2    0    0  0.91229398861E-02  0.69326560936E-02  0.17206661642E-01  0.10232573379E+01  0.10230484938E+01 0.  0.
     999903    2    3    3    0    0  0.44510503951E-01  0.75860753069E-01  0.10150984170E+00  0.13583951727E+00  0.20299942617E-01 0.  0.
         14    1    1    2    0    0 -0.91229398861E-02 -0.69326560936E-02 -0.17206661642E-01  0.20672662082E-01  0.00000000000E+00 0. -1.
     999901    1    3    3    0    0 -0.35387564065E-01 -0.68928096975E-01 -0.84303180061E-01  0.88741782065E+00  0.88000000000E+00 0.  1.
        -11    1    4    4    0    0  0.86179588009E-02  0.33758926665E-01  0.36225126721E-01  0.50263856502E-01  0.51100000000E-03 0.  1.
         11    1    4    4    0    0  0.35892545150E-01  0.42101826404E-01  0.65284714982E-01  0.85575660764E-01  0.51100000000E-03 0. -1.
</event>
<event>
 8    1  0.1116619E+005  0.1043930E+01  0.7957747E-01            NaN
         13   -1    0    0    0    0  0.00000000000E+00  0.00000000000E+00  0.74505805969E-08  0.10566000000E+00  0.10566000000E+00 0.  1.
     999900   -1    0    0    0    0 -0.00000000000E+00 -0.00000000000E+00 -0.74505805969E-08  0.93827000000E+00  0.93827000000E+00 0. -1.
     999902    2    1    2    0    0 -0.80558765440E-02 -0.18223713944E-01 -0.14665836684E-01  0.10191895945E+01  0.10188892687E+01 0.  0.
     999903    2    3    3    0    0  0.97709380709E-01  0.41663899917E-01  0.66831756688E-01  0.12710514021E+00  0.20155131599E-01 0.  0.
         14    1    1    2    0    0  0.80558765440E-02  0.18223713944E-01  0.14665836684E-01  0.24740405463E-01  0.00000000000E+00 0.  1.
     999901    1    3    3    0    0 -0.10576525725E+00 -0.59887613861E-01 -0.81497593372E-01  0.89208445433E+00  0.88000000000E+00 0. -1.
        -11    1    4    4    0    0  0.22090733263E-01  0.16712365676E-01  0.10793876247E-01  0.29733357497E-01  0.51100000000E-03 0. -1.
         11    1    4    4    0    0  0.75618647446E-01  0.24951534241E-01  0.56037880441E-01  0.97371782708E-01  0.51100000000E-03 0.  1.
</event>
<event>
 8    1  0.1116619E+005  0.1043930E+01  0.7957747E-01            NaN
         13   -1    0    0    0    0  0.00000000000E+00  0.00000000000E+00  0.74505805969E-08  0.10566000000E+00  0.10566000000E+00 0. -1.
     999900   -1    0    0    0    0 -0.00000000000E+00 -0.00000000000E+00 -0.74505805969E-08  0.93827000000E+00  0.93827000000E+00 0. -1.
     999902    2    1    2    0    0  0.10885360355E-01  0.23777539500E-02  0.21214868470E-01  0.10199672074E+01  0.10196856814E+01 0.  0.
     999903    2    3    3    0    0 -0.82495679437E-01  0.55291886390E-01 -0.77738717119E-01  0.12794044992E+00  0.21510945105E-01 0.  0.
         14    1    1    2    0    0 -0.10885360355E-01 -0.23777539500E-02 -0.21214868470E-01  0.23962792577E-01  0.00000000000E+00 0.  1.
     999901    1    3    3    0    0  0.93381039792E-01 -0.52914132440E-01  0.98953585589E-01  0.89202675751E+00  0.88000000000E+00 0. -1.
        -11    1    4    4    0    0 -0.52982120401E-01  0.25307805102E-01 -0.53186122837E-01  0.79225089869E-01  0.51100000000E-03 0. -1.
         11    1    4    4    0    0 -0.29513559036E-01  0.29984081288E-01 -0.24552594282E-01  0.48715360049E-01  0.51100000000E-03 0.  1.
</event>
<event>
 8    1  0.1116619E+005  0.1043930E+01  0.7957747E-01            NaN
         13   -1    0    0    0    0  0.00000000000E+00  0.00000000000E+00  0.74505805969E-08  0.10566000000E+00  0.10566000000E+00 0.  1.
     999900   -1    0    0    0    0 -0.00000000000E+00 -0.00000000000E+00 -0.74505805969E-08  0.93827000000E+00  0.93827000000E+00 0. -1.
     999902    2    1    2    0    0 -0.22002099494E-01 -0.75670647119E-02  0.36572546203E-02  0.10203773279E+01  0.10201054666E+01 0.  0.
     999903    2    3    3    0    0 -0.11947183876E+00 -0.45638375786E-01 -0.32364342803E-01  0.13344591554E+00  0.20099255918E-01 0.  0.
         14    1    1    2    0    0  0.22002099494E-01  0.75670647119E-02 -0.36572546203E-02  0.23552672075E-01  0.00000000000E+00 0. -1.
     999901    1    3    3    0    0  0.97469739261E-01  0.38071311074E-01  0.36021597424E-01  0.88693141239E+00  0.88000000000E+00 0. -1.
        -11    1    4    4    0    0 -0.96250634215E-01 -0.43715815157E-01 -0.30692675222E-01  0.11007978250E+00  0.51100000000E-03 0.  1.
         11    1    4    4    0    0 -0.23221204541E-01 -0.19225606289E-02 -0.16716675818E-02  0.23366133039E-01  0.51100000000E-03 0. -1.
</event>
<event>
 8    1  0.1116619E+005  0.1043930E+01  0.7957747E-01            NaN
         13   -1    0    0    0    0  0.00000000000E+00  0.00000000000E+00  0.74505805969E-08  0.10566000000E+00  0.10566000000E+00 0. -1.
     999900   -1    0    0    0    0 -0.00000000000E+00 -0.00000000000E+00 -0.74505805969E-08  0.93827000000E+00  0.93827000000E+00 0.  1.
     999902    2    1    2    0    0  0.21779458765E-01  0.37688011436E-02  0.77257536756E-02  0.10205155610E+01  0.10202469182E+01 0.  0.
     999903    2    3    3    0    0 -0.98114168699E-01 -0.36836125684E-01 -0.70866173250E-01  0.12799108904E+00  0.19401394445E-01 0.  0.
         14    1    1    2    0    0 -0.21779458765E-01 -0.37688011436E-02 -0.77257536756E-02  0.23414439050E-01  0.00000000000E+00 0. -1.
     999901    1    3    3    0    0  0.11989362746E+00  0.40604926828E-01  0.78591926925E-01  0.89252447191E+00  0.88000000000E+00 0.  1.
        -11    1    4    4    0    0 -0.54766125651E-01 -0.20085515480E-01 -0.50858866355E-01  0.77392776529E-01  0.51100000000E-03 0. -1.
         11    1    4    4    0    0 -0.43348043048E-01 -0.16750610204E-01 -0.20007306895E-01  0.50598312506E-01  0.51100000000E-03 0.  1.
</event>
<event>
 8    1  0.1116619E+005  0.1043930E+01  0.7957747E-01            NaN
         13   -1    0    0    0    0  0.00000000000E+00  0.00000000000E+00  0.74505805969E-08  0.10566000000E+00  0.10566000000E+00 0.  1.
     999900   -1    0    0    0    0 -0.00000000000E+00 -0.00000000000E+00 -0.74505805969E-08  0.93827000000E+00  0.93827000000E+00 0.  1.
     999902    2    1    2    0    0 -0.15249077212E-01  0.36655753546E-02 -0.15981025836E-01  0.10215388414E+01  0.10212934154E+01 0.  0.
     999903    2    3    3    0    0 -0.12442075345E+00  0.30269349717E-01  0.29642804064E-01  0.13322147152E+00  0.21737231162E-01 0.  0.
         14    1    1    2    0    0  0.15249077212E-01 -0.36655753546E-02  0.15981025836E-01  0.22391158641E-01  0.00000000000E+00 0.  1.
     999901    1    3    3    0    0  0.10917167624E+00 -0.26603774363E-01 -0.45623829900E-01  0.88831736984E+00  0.88000000000E+00 0.  1.
        -11    1    4    4    0    0 -0.21784861194E-01  0.18382515140E-02  0.12961337918E-01  0.25420793605E-01  0.51100000000E-03 0. -1.
         11    1    4    4    0    0 -0.10263589226E+00  0.28431098203E-01  0.16681466146E-01  0.10780067791E+00  0.51100000000E-03 0.  1.
</event>
<event>
 8    1  0.1116619E+005  0.1043930E+01  0.7957747E-01            NaN
         13   -1    0    0    0    0  0.00000000000E+00  0.00000000000E+00  0.74505805969E-08  0.10566000000E+00  0.10566000000E+00 0. -1.
     999900   -1    0    0    0    0 -0.00000000000E+00 -0.00000000000E+00 -0.74505805969E-08  0.93827000000E+00  0.93827000000E+00 0.  1.
     999902    2    1    2    0    0 -0.17368048791E-01 -0.10909220318E-01 -0.11233003844E-01  0.10205453772E+01  0.10202774262E+01 0.  0.
     999903    2    3    3    0    0 -0.77824240301E-01  0.89813746944E-01  0.49428192592E-01  0.13066906674E+00  0.22541900097E-01 0.  0.
         14    1    1    2    0    0  0.17368048791E-01  0.10909220318E-01  0.11233003844E-01  0.23384622770E-01  0.00000000000E+00 0.  1.
     999901    1    3    3    0    0  0.60456191511E-01 -0.10072296726E+00 -0.60661196435E-01  0.88987631049E+00  0.88000000000E+00 0.  1.
        -11    1    4    4    0    0 -0.41856908920E-01  0.32605410611E-01  0.26487276271E-01  0.59303883100E-01  0.51100000000E-03 0.  1.
         11    1    4    4    0    0 -0.35967331381E-01  0.57208336334E-01  0.22940916320E-01  0.71365183636E-01  0.51100000000E-03 0. -1.
</event>
<event>
 8    1  0.1116619E+005  0.1043930E+01  0.7957747E-01            NaN
         13   -1    0    0    0    0  0.00000000000E+00  0.00000000000E+00  0.74505805969E-08  0.10566000000E+00  0.10566000000E+00 0. -1.
     999900   -1    0    0    0    0 -0.00000000000E+00 -0.00000000000E+00 -0.74505805969E-08  0.93827000000E+00  0.93827000000E+00 0. -1.
     999902    2    1    2    0    0  0.18183407333E-01 -0.60071050037E-02 -0.14760806943E-01  0.10197514344E+01  0.10194647541E+01 0.  0.
     999903    2    3    3    0    0  0.10977271600E+00  0.69684513614E-01 -0.10020793977E-01  0.13175352319E+00  0.18777485068E-01 0.  0.
         14    1    1    2    0    0 -0.18183407333E-01  0.60071050037E-02  0.14760806943E-01  0.24178565598E-01  0.00000000000E+00 0. -1.
     999901    1    3    3    0    0 -0.91589308669E-01 -0.75691618617E-01 -0.47400129661E-02  0.88799791121E+00  0.88000000000E+00 0.  1.
        -11    1    4    4    0    0  0.50717592363E-01  0.34129867586E-01 -0.13957325212E-01  0.62707177297E-01  0.51100000000E-03 0. -1.
         11    1    4    4    0    0  0.59055123639E-01  0.35554646028E-01  0.39365312358E-02  0.69046345894E-01  0.51100000000E-03 0.  1.
</event>
<event>
 8    1  0.1116619E+005  0.1043930E+01  0.7957747E-01            NaN
         13   -1    0    0    0    0  0.00000000000E+00  0.00000000000E+00  0.74505805969E-08  0.10566000000E+00  0.10566000000E+00 0.  1.
     999900   -1    0    0    0    0 -0.00000000000E+00 -0.00000000000E+00 -0.74505805969E-08  0.93827000000E+00  0.93827000000E+00 0.  1.
     999902    2    1    2    0    0  0.18704060508E-01  0.15418971178E-01 -0.22734260862E-02  0.10195834393E+01  0.10192927130E+01 0.  0.
     999903    2    3    3    0    0  0.54812909725E-01 -0.11266606057E+00  0.25054850282E-01  0.12915856373E+00  0.18870420869E-01 0.  0.
         14    1    1    2    0    0 -0.18704060508E-01 -0.15418971178E-01  0.22734260862E-02  0.24346560699E-01  0.00000000000E+00 0. -1.
     999901    1    3    3    0    0 -0.36108849217E-01  0.12808503175E+00 -0.27328276368E-01  0.89042487557E+00  0.88000000000E+00 0.  1.
        -11    1    4    4    0    0  0.24082838589E-01 -0.67921563447E-01  0.19066328583E-01  0.74546011981E-01  0.51100000000E-03 0.  1.
         11    1    4    4    0    0  0.30730071137E-01 -0.44744497126E-01  0.59885216994E-02  0.54612551747E-01  0.51100000000E-03 0. -1.
</event>
<event>
 8    1  0.1116619E+005  0.1043930E+01  0.7957747E-01            NaN
         13   -1    0    0    0    0  0.00000000000E+00  0.00000000000E+00  0.74505805969E-08  0.10566000000E+00  0.10566000000E+00 0.  1.
     999900   -1    0    0    0    0 -0.00000000000E+00 -0.00000000000E+00 -0.74505805969E-08  0.93827000000E+00  0.93827000000E+00 0. -1.
     999902    2    1    2    0    0 -0.21824145249E-01  0.52688353476E-03 -0.88778830048E-02  0.10203633344E+01  0.10200911461E+01 0.  0.
     999903    2    3    3    0    0 -0.21202890004E-01  0.13868397656E-01 -0.12821476302E+00  0.13220812672E+00  0.19951649473E-01 0.  0.
         14    1    1    2    0    0  0.21824145249E-01 -0.52688353476E-03  0.88778830048E-02  0.23566665627E-01  0.00000000000E+00 0.  1.
     999901    1    3    3    0    0 -0.62125524533E-03 -0.13341514121E-01  0.11933688001E+00  0.88815520766E+00  0.88000000000E+00 0.  1.
        -11    1    4    4    0    0 -0.24381087766E-01  0.85151587562E-02 -0.97420792719E-01  0.10078698996E+00  0.51100000000E-03 0.  1.
         11    1    4    4    0    0  0.31781977619E-02  0.53532388996E-02 -0.30793970296E-01  0.31421136761E-01  0.51100000000E-03 0. -1.
</event>
<event>
 8    1  0.1116619E+005  0.1043930E+01  0.7957747E-01            NaN
         13   -1    0    0    0    0  0.00000000000E+00  0.00000000000E+00  0.74505805969E-08  0.10566000000E+00  0.10566000000E+00 0.  1.
     999900   -1    0    0    0    0 -0.00000000000E+00 -0.00000000000E+00 -0.74505805969E-08  0.93827000000E+00  0.93827000000E+00 0.  1.
     999902    2    1    2    0    0  0.18300645272E-01  0.23081428728E-01  0.31739870269E-02  0.10143033201E+01  0.10138705465E+01 0.  0.
     999903    2    3    3    0    0  0.33985970129E-01  0.68620091602E-01  0.10001945131E+00  0.12768116652E+00  0.20852493976E-01 0.  0.
         14    1    1    2    0    0 -0.18300645272E-01 -0.23081428728E-01 -0.31739870269E-02  0.29626679921E-01  0.00000000000E+00 0.  1.
     999901    1    3    3    0    0 -0.15685324857E-01 -0.45538662874E-01 -0.96845464287E-01  0.88662215356E+00  0.88000000000E+00 0.  1.
        -11    1    4    4    0    0  0.42622070422E-02  0.26997184797E-01  0.26135875190E-01  0.37820093717E-01  0.51100000000E-03 0.  1.
         11    1    4    4    0    0  0.29723763087E-01  0.41622906805E-01  0.73883576124E-01  0.89861072801E-01  0.51100000000E-03 0. -1.
</event>
<event>
 8    1  0.1116619E+005  0.1043930E+01  0.7957747E-01            NaN
         13   -1    0    0    0    0  0.00000000000E+00  0.00000000000E+00  0.74505805969E-08  0.10566000000E+00  0.10566000000E+00 0.  1.
     999900   -1    0    0    0    0 -0.00000000000E+00 -0.00000000000E+00 -0.74505805969E-08  0.93827000000E+00  0.93827000000E+00 0. -1.
     999902    2    1    2    0    0 -0.15647506490E-01 -0.12307608596E-01 -0.10446419715E-01  0.10214477987E+01  0.10212003507E+01 0.  0.
     999903    2    3    3    0    0 -0.17353562939E-01 -0.10014267794E+00 -0.84945291102E-01  0.13394118362E+00  0.19870483097E-01 0.  0.
         14    1    1    2    0    0  0.15647506490E-01  0.12307608596E-01  0.10446419715E-01  0.22482201262E-01  0.00000000000E+00 0.  1.
     999901    1    3    3    0    0  0.17060564484E-02  0.87835069342E-01  0.74498871387E-01  0.88750661512E+00  0.88000000000E+00 0.  1.
        -11    1    4    4    0    0  0.23592060109E-02 -0.37674640845E-01 -0.26207948621E-01  0.45957176890E-01  0.51100000000E-03 0. -1.
         11    1    4    4    0    0 -0.19712768950E-01 -0.62468037093E-01 -0.58737342482E-01  0.87984006733E-01  0.51100000000E-03 0.  1.
</event>
<event>
 8    1  0.1116619E+005  0.1043930E+01  0.7957747E-01            NaN
         13   -1    0    0    0    0  0.00000000000E+00  0.00000000000E+00  0.74505805969E-08  0.10566000000E+00  0.10566000000E+00 0. -1.
     999900   -1    0    0    0    0 -0.00000000000E+00 -0.00000000000E+00 -0.74505805969E-08  0.93827000000E+00  0.93827000000E+00 0. -1.
     999902    2    1    2    0    0  0.27277330210E-03 -0.15958044951E-01 -0.17541527202E-01  0.10202142082E+01  0.10199385236E+01 0.  0.
     999903    2    3    3    0    0  0.12056741110E+00 -0.34035565618E-02 -0.45193636818E-01  0.13151119019E+00  0.26545122340E-01 0.  0.
         14    1    1    2    0    0 -0.27277330210E-03  0.15958044951E-01  0.17541527202E-01  0.23715791796E-01  0.00000000000E+00 0. -1.
     999901    1    3    3    0    0 -0.12029463780E+00 -0.12554488389E-01  0.27652109616E-01  0.88870301801E+00  0.88000000000E+00 0.  1.
        -11    1    4    4    0    0  0.14629534278E-01  0.46601269468E-02  0.15445179201E-02  0.15439776972E-01  0.51100000000E-03 0.  1.
         11    1    4    4    0    0  0.10593787682E+00 -0.80636835086E-02 -0.46738154738E-01  0.11607141322E+00  0.51100000000E-03 0. -1.
</event>
<event>
 8    1  0.1116619E+005  0.1043930E+01  0.7957747E-01            NaN
         13   -1    0    0    0    0  0.00000000000E+00  0.00000000000E+00  0.74505805969E-08  0.10566000000E+00  0.10566000000E+00 0.  1.
     999900   -1    0    0    0    0 -0.00000000000E+00 -0.00000000000E+00 -0.74505805969E-08  0.93827000000E+00  0.93827000000E+00 0. -1.
     999902    2    1    2    0    0 -0.19396165207E-01  0.10498861302E-01 -0.91316267845E-02  0.10200590151E+01  0.10197796675E+01 0.  0.
     999903    2    3    3    0    0  0.21736357335E-01 -0.94076901804E-01  0.81987842887E-01  0.12824584384E+00  0.20051368983E-01 0.  0.
         14    1    1    2    0    0  0.19396165207E-01 -0.10498861302E-01  0.91316267845E-02  0.23870984921E-01  0.00000000000E+00 0. -1.
     999901    1    3    3    0    0 -0.41132522542E-01  0.10457576311E+00 -0.91119469672E-01  0.89181317124E+00  0.88000000000E+00 0. -1.
        -11    1    4    4    0    0 -0.33152397046E-02 -0.22186233735E-01  0.20304557632E-01  0.30261460032E-01  0.51100000000E-03 0. -1.
         11    1    4    4    0    0  0.25051597040E-01 -0.71890668069E-01  0.61683285255E-01  0.97984383809E-01  0.51100000000E-03 0.  1.
</event>
<event>
 8    1  0.1116619E+005  0.1043930E+01  0.7957747E-01            NaN
         13   -1    0    0    0    0  0.00000000000E+00  0.00000000000E+00  0.74505805969E-08  0.10566000000E+00  0.10566000000E+00 0. -1.
     999900   -1    0    0    0    0 -0.00000000000E+00 -0.00000000000E+00 -0.74505805969E-08  0.93827000000E+00  0.93827000000E+00 0.  1.
     999902    2    1    2    0    0 -0.25792288273E-01  0.11856605531E-01 -0.81498386257E-02  0.10143962718E+01  0.10139662496E+01 0.  0.
     999903    2    3    3    0    0  0.84136093900E-01 -0.29942594934E-01 -0.82281716060E-01  0.12348271958E+00  0.22411156773E-01 0.  0.
         14    1    1    2    0    0  0.25792288273E-01 -0.11856605531E-01  0.81498386257E-02  0.29533728154E-01  0.00000000000E+00 0. -1.
     999901    1    3    3    0    0 -0.10992838217E+00  0.41799200465E-01  0.74131877434E-01  0.89091355227E+00  0.88000000000E+00 0. -1.
        -11    1    4    4    0    0  0.50951367467E-01 -0.20365175699E-01 -0.64328320275E-01  0.84552800891E-01  0.51100000000E-03 0. -1.
         11    1    4    4    0    0  0.33184726433E-01 -0.95774192345E-02 -0.17953395785E-01  0.38929918685E-01  0.51100000000E-03 0.  1.
</event>
<event>
 8    1  0.1116619E+005  0.1043930E+01  0.7957747E-01            NaN
         13   -1    0    0    0    0  0.00000000000E+00  0.00000000000E+00  0.74505805969E-08  0.10566000000E+00  0.10566000000E+00 0. -1.
     999900   -1    0    0    0    0 -0.00000000000E+00 -0.00000000000E+00 -0.74505805969E-08  0.93827000000E+00  0.93827000000E+00 0.  1.
     999902    2    1    2    0    0 -0.18612898426E-01 -0.81613119822E-02  0.13638365402E-01  0.10194544609E+01  0.10191606085E+01 0.  0.
     999903    2    3    3    0    0 -0.86678114897E-01 -0.87786198569E-01 -0.41102075528E-01  0.13155271406E+00  0.19930471696E-01 0.  0.
         14    1    1    2    0    0  0.18612898426E-01  0.81613119822E-02 -0.13638365402E-01  0.24475539052E-01  0.00000000000E+00 0.  1.
     999901    1    3    3    0    0  0.68065216471E-01  0.79624886586E-01  0.54740440930E-01  0.88790174689E+00  0.88000000000E+00 0. -1.
        -11    1    4    4    0    0 -0.43961083963E-01 -0.50357308364E-01 -0.12677349073E-01  0.68039780344E-01  0.51100000000E-03 0.  1.
         11    1    4    4    0    0 -0.42717030934E-01 -0.37428890205E-01 -0.28424726455E-01  0.63512933713E-01  0.51100000000E-03 0. -1.
</event>
<event>
 8    1  0.1116619E+005  0.1043930E+01  0.7957747E-01            NaN
         13   -1    0    0    0    0  0.00000000000E+00  0.00000000000E+00  0.74505805969E-08  0.10566000000E+00  0.10566000000E+00 0. -1.
     999900   -1    0    0    0    0 -0.00000000000E+00 -0.00000000000E+00 -0.74505805969E-08  0.93827000000E+00  0.93827000000E+00 0.  1.
     999902    2    1    2    0    0 -0.20556124956E-01  0.91400556434E-02 -0.53657078130E-02  0.10208024037E+01  0.10205403773E+01 0.  0.
     999903    2    3    3    0    0  0.92730422583E-01 -0.53018705214E-02 -0.88064200414E-01  0.12957771162E+00  0.20199971576E-01 0.  0.
         14    1    1    2    0    0  0.20556124956E-01 -0.91400556434E-02  0.53657078130E-02  0.23127596302E-01  0.00000000000E+00 0.  1.
     999901    1    3    3    0    0 -0.11328654754E+00  0.14441926165E-01  0.82698492601E-01  0.89122469207E+00  0.88000000000E+00 0.  1.
        -11    1    4    4    0    0  0.16778941213E-01  0.62553176787E-02 -0.12719405316E-01  0.21970577144E-01  0.51100000000E-03 0.  1.
         11    1    4    4    0    0  0.75951481370E-01 -0.11557188200E-01 -0.75344795098E-01  0.10760713448E+00  0.51100000000E-03 0. -1.
</event>
<event>
 8    1  0.1116619E+005  0.1043930E+01  0.7957747E-01            NaN
         13   -1    0    0    0    0  0.00000000000E+00  0.00000000000E+00  0.74505805969E-08  0.10566000000E+00  0.10566000000E+00 0.  1.
     999900   -1    0    0    0    0 -0.00000000000E+00 -0.00000000000E+00 -0.74505805969E-08  0.93827000000E+00  0.93827000000E+00 0.  1.
     999902    2    1    2    0    0  0.18544359099E-01 -0.59213177231E-02  0.73608074061E-02  0.10231180625E+01  0.10229063657E+01 0.  0.
     999903    2    3    3    0    0  0.78619729843E-01 -0.10759800001E+00 -0.81424818609E-02  0.13509354149E+00  0.20629430808E-01 0.  0.
         14    1    1    2    0    0 -0.18544359099E-01  0.59213177231E-02 -0.73608074061E-02  0.20811937527E-01  0.00000000000E+00 0. -1.
     999901    1    3    3    0    0 -0.60075370744E-01  0.10167668228E+00  0.15503289267E-01  0.88802452098E+00  0.88000000000E+00 0. -1.
        -11    1    4    4    0    0  0.79034812557E-01 -0.10116051144E+00 -0.76113714515E-02  0.12860071838E+00  0.51100000000E-03 0.  1.
         11    1    4    4    0    0 -0.41508271437E-03 -0.64374885670E-02 -0.53111040938E-03  0.64928231130E-02  0.51100000000E-03 0. -1.
</event>
<event>
 8    1  0.1116619E+005  0.1043930E+01  0.7957747E-01            NaN
         13   -1    0    0    0    0  0.00000000000E+00  0.00000000000E+00  0.74505805969E-08  0.10566000000E+00  0.10566000000E+00 0. -1.
     999900   -1    0    0    0    0 -0.00000000000E+00 -0.00000000000E+00 -0.74505805969E-08  0.93827000000E+00  0.93827000000E+00 0.  1.
     999902    2    1    2    0    0 -0.19279831329E-01  0.28504973463E-02  0.14094828106E-01  0.10198779437E+01  0.10195942912E+01 0.  0.
     999903    2    3    3    0    0  0.19818620973E-01  0.12000283224E+00  0.42165591491E-01  0.13081027123E+00  0.23236447035E-01 0.  0.
         14    1    1    2    0    0  0.19279831329E-01 -0.28504973463E-02 -0.14094828106E-01  0.24052056264E-01  0.00000000000E+00 0.  1.
     999901    1    3    3    0    0 -0.39098452302E-01 -0.11715233489E+00 -0.28070763384E-01  0.88906767251E+00  0.88000000000E+00 0. -1.
        -11    1    4    4    0    0  0.65647175819E-02  0.94235171009E-01  0.27840008616E-01  0.98481928153E-01  0.51100000000E-03 0.  1.
         11    1    4    4    0    0  0.13253903391E-01  0.25767661227E-01  0.14325582875E-01  0.32328343074E-01  0.51100000000E-03 0. -1.
</event>
<event>
 8    1  0.1116619E+005  0.1043930E+01  0.7957747E-01            NaN
         13   -1    0    0    0    0  0.00000000000E+00  0.00000000000E+00  0.74505805969E-08  0.10566000000E+00  0.10566000000E+00 0.  1.
     999900   -1    0    0    0    0 -0.00000000000E+00 -0.00000000000E+00 -0.74505805969E-08  0.93827000000E+00  0.93827000000E+00 0. -1.
     999902    2    1    2    0    0  0.15927050697E-02  0.16164602347E-01 -0.16703166650E-01  0.10206313551E+01  0.10203653934E+01 0.  0.
     999903    2    3    3    0    0  0.52726710410E-01  0.37412740537E-01  0.11058745881E+00  0.12975028940E+00  0.20633284000E-01 0.  0.
         14    1    1    2    0    0 -0.15927050697E-02 -0.16164602347E-01  0.16703166650E-01  0.23298644909E-01  0.00000000000E+00 0. -1.
     999901    1    3    3    0    0 -0.51134005341E-01 -0.21248138190E-01 -0.12729062546E+00  0.89088106569E+00  0.88000000000E+00 0. -1.
        -11    1    4    4    0    0  0.32107276379E-01  0.10168702568E-01  0.56022547222E-01  0.65368697605E-01  0.51100000000E-03 0. -1.
         11    1    4    4    0    0  0.20619434032E-01  0.27244037969E-01  0.54564911586E-01  0.64381591794E-01  0.51100000000E-03 0.  1.
</event>
<event>
 8    1  0.1116619E+005  0.1043930E+01  0.7957747E-01            NaN
         13   -1    0    0    0    0  0.00000000000E+00  0.00000000000E+00  0.74505805969E-08  0.10566000000E+00  0.10566000000E+00 0. -1.
     999900   -1    0    0    0    0 -0.00000000000E+00 -0.00000000000E+00 -0.74505805969E-08  0.93827000000E+00  0.93827000000E+00 0.  1.
     999902    2    1    2    0    0  0.13290676807E-01 -0.13365850578E-01  0.14104183581E-01  0.10203882064E+01  0.10201165991E+01 0.  0.
     999903    2    3    3    0    0  0.22888902304E-01 -0.30716869149E-01 -0.12222294889E+00  0.12967036621E+00  0.20212044388E-01 0.  0.
         14    1    1    2    0    0 -0.13290676807E-01  0.13365850578E-01 -0.14104183581E-01  0.23541793606E-01  0.00000000000E+00 0.  1.
     999901    1    3    3    0    0 -0.95982254972E-02  0.17351018571E-01  0.13632713247E+00  0.89071784019E+00  0.88000000000E+00 0. -1.
        -11    1    4    4    0    0  0.20715716620E-01 -0.13104578236E-01 -0.84383250205E-01  0.87873004512E-01  0.51100000000E-03 0. -1.
         11    1    4    4    0    0  0.21731856844E-02 -0.17612290913E-01 -0.37839698685E-01  0.41797361696E-01  0.51100000000E-03 0.  1.
</event>
<event>
 8    1  0.1116619E+005  0.1043930E+01  0.7957747E-01            NaN
         13   -1    0    0    0    0  0.00000000000E+00  0.00000000000E+00  0.74505805969E-08  0.10566000000E+00  0.10566000000E+00 0. -1.
     999900   -1    0    0    0    0 -0.00000000000E+00 -0.00000000000E+00 -0.74505805969E-08  0.93827000000E+00  0.93827000000E+00 0. -1.
     999902    2    1    2    0    0 -0.10539734959E-01  0.17449220591E-01 -0.11747638642E-01  0.10204019672E+01  0.10201306810E+01 0.  0.
     999903    2    3    3    0    0  0.72039525566E-01  0.43371607578E-01 -0.99326176370E-01  0.13182934517E+00  0.21035620912E-01 0.  0.
         14    1    1    2    0    0  0.10539734959E-01 -0.17449220591E-01  0.11747638642E-01  0.23528032767E-01  0.00000000000E+00 0. -1.
     999901    1    3    3    0    0 -0.82579260524E-01 -0.25922386987E-01  0.87578537727E-01  0.88857262207E+00  0.88000000000E+00 0.  1.
        -11    1    4    4    0    0  0.46548437556E-01  0.38310611759E-01 -0.63435968672E-01  0.87514817343E-01  0.51100000000E-03 0. -1.
         11    1    4    4    0    0  0.25491088010E-01  0.50609958184E-02 -0.35890207698E-01  0.44314527823E-01  0.51100000000E-03 0.  1.
</event>
<event>
 8    1  0.1116619E+005  0.1043930E+01  0.7957747E-01            NaN
         13   -1    0    0    0    0  0.00000000000E+00  0.00000000000E+00  0.74505805969E-08  0.10566000000E+00  0.10566000000E+00 0.  1.
     999900   -1    0    0    0    0 -0.00000000000E+00 -0.00000000000E+00 -0.74505805969E-08  0.93827000000E+00  0.93827000000E+00 0. -1.
     999902    2    1    2    0    0 -0.13974970035E-01  0.15425177932E-01 -0.11712234011E-01  0.10200466935E+01  0.10197670541E+01 0.  0.
     999903    2    3    3    0    0 -0.37365206986E-01 -0.52793413176E-01 -0.11252667012E+00  0.13135978024E+00  0.20244436480E-01 0.  0.
         14    1    1    2    0    0  0.13974970035E-01 -0.15425177932E-01  0.11712234011E-01  0.23883306455E-01  0.00000000000E+00 0.  1.
     999901    1    3    3    0    0  0.23390236952E-01  0.68218591107E-01  0.10081443611E+00  0.88868691331E+00  0.88000000000E+00 0.  1.
        -11    1    4    4    0    0 -0.20568122130E-01 -0.40187038871E-01 -0.62497615677E-01  0.77099019627E-01  0.51100000000E-03 0. -1.
         11    1    4    4    0    0 -0.16797084856E-01 -0.12606374305E-01 -0.50029054440E-01  0.54260760610E-01  0.51100000000E-03 0.  1.
</event>
<event>
 8    1  0.1116619E+005  0.1043930E+01  0.7957747E-01            NaN
         13   -1    0    0    0    0  0.00000000000E+00  0.00000000000E+00  0.74505805969E-08  0.10566000000E+00  0.10566000000E+00 0.  1.
     999900   -1    0    0    0    0 -0.00000000000E+00 -0.00000000000E+00 -0.74505805969E-08  0.93827000000E+00  0.93827000000E+00 0. -1.
     999902    2    1    2    0    0 -0.15275584778E-01  0.71334014874E-02 -0.16739545638E-01  0.10201720267E+01  0.10198953489E+01 0.  0.
     999903    2    3    3    0    0  0.28396507559E-01  0.23095872811E-01  0.12150020198E+00  0.12816738548E+00  0.18022170745E-01 0.  0.
         14    1    1    2    0    0  0.15275584778E-01 -0.71334014874E-02  0.16739545638E-01  0.23757973298E-01  0.00000000000E+00 0.  1.
     999901    1    3    3    0    0 -0.43672092337E-01 -0.15962471323E-01 -0.13823974761E+00  0.89200464122E+00  0.88000000000E+00 0. -1.
        -11    1    4    4    0    0  0.12689316451E-01  0.18096668109E-01  0.48102331102E-01  0.52939621524E-01  0.51100000000E-03 0. -1.
         11    1    4    4    0    0  0.15707191109E-01  0.49992047018E-02  0.73397870874E-01  0.75227763957E-01  0.51100000000E-03 0.  1.
</event>
<event>
 8    1  0.1116619E+005  0.1043930E+01  0.7957747E-01            NaN
         13   -1    0    0    0    0  0.00000000000E+00  0.00000000000E+00  0.74505805969E-08  0.10566000000E+00  0.10566000000E+00 0.  1.
     999900   -1    0    0    0    0 -0.00000000000E+00 -0.00000000000E+00 -0.74505805969E-08  0.93827000000E+00  0.93827000000E+00 0.  1.
     999902    2    1    2    0    0 -0.15804010239E-01 -0.17473207021E-01  0.13773579112E-03  0.10203694679E+01  0.10200974229E+01 0.  0.
     999903    2    3    3    0    0  0.10239502323E-01 -0.12711229127E+00 -0.30147527008E-01  0.13266670766E+00  0.20717141094E-01 0.  0.
         14    1    1    2    0    0  0.15804010239E-01  0.17473207021E-01 -0.13773579112E-03  0.23560532133E-01  0.00000000000E+00 0.  1.
     999901    1    3    3    0    0 -0.26043512562E-01  0.10963908425E+00  0.30285262799E-01  0.88770276021E+00  0.88000000000E+00 0. -1.
        -11    1    4    4    0    0  0.11494478408E-02 -0.50334768023E-01 -0.21919057112E-01  0.54914627268E-01  0.51100000000E-03 0.  1.
         11    1    4    4    0    0  0.90900544825E-02 -0.76777523251E-01 -0.82284698959E-02  0.77752080389E-01  0.51100000000E-03 0. -1.
</event>
<event>
 8    1  0.1116619E+005  0.1043930E+01  0.7957747E-01            NaN
         13   -1    0    0    0    0  0.00000000000E+00  0.00000000000E+00  0.74505805969E-08  0.10566000000E+00  0.10566000000E+00 0. -1.
     999900   -1    0    0    0    0 -0.00000000000E+00 -0.00000000000E+00 -0.74505805969E-08  0.93827000000E+00  0.93827000000E+00 0. -1.
     999902    2    1    2    0    0  0.23043921249E-02 -0.14651893702E-01  0.17893671811E-01  0.10206884058E+01  0.10204237600E+01 0.  0.
     999903    2    3    3    0    0 -0.66748143400E-01  0.19587537239E-01  0.11087568858E+00  0.13243942786E+00  0.20193995941E-01 0.  0.
         14    1    1    2    0    0 -0.23043921249E-02  0.14651893702E-01 -0.17893671811E-01  0.23241594244E-01  0.00000000000E+00 0.  1.
     999901    1    3    3    0    0  0.69052535524E-01 -0.34239430941E-01 -0.92982016764E-01  0.88824897790E+00  0.88000000000E+00 0. -1.
        -11    1    4    4    0    0 -0.24007103671E-01  0.15332442140E-01  0.55204910092E-01  0.62123007235E-01  0.51100000000E-03 0. -1.
         11    1    4    4    0    0 -0.42741039728E-01  0.42550950982E-02  0.55670778484E-01  0.70316420624E-01  0.51100000000E-03 0.  1.
</event>
<event>
 8    1  0.1116619E+005  0.1043930E+01  0.7957747E-01            NaN
         13   -1    0    0    0    0  0.00000000000E+00  0.00000000000E+00  0.74505805969E-08  0.10566000000E+00  0.10566000000E+00 0.  1.
     999900   -1    0    0    0    0 -0.00000000000E+00 -0.00000000000E+00 -0.74505805969E-08  0.93827000000E+00  0.93827000000E+00 0. -1.
     999902    2    1    2    0    0 -0.23285313550E-01 -0.19476411799E-02  0.25044605425E-02  0.10204295435E+01  0.10201589003E+01 0.  0.
     999903    2    3    3    0    0 -0.12159903233E+00  0.39765693107E-01 -0.28605233243E-01  0.13342706176E+00  0.24837198487E-01 0.  0.
         14    1    1    2    0    0  0.23285313550E-01  0.19476411799E-02 -0.25044605425E-02  0.23500456504E-01  0.00000000000E+00 0. -1.
     999901    1    3    3    0    0  0.98313718782E-01 -0.41713334287E-01  0.31109693785E-01  0.88700248174E+00  0.88000000000E+00 0.  1.
        -11    1    4    4    0    0 -0.46457468993E-01  0.27510781370E-01 -0.15463763872E-01  0.56165190563E-01  0.51100000000E-03 0.  1.
         11    1    4    4    0    0 -0.75141563339E-01  0.12254911737E-01 -0.13141469370E-01  0.77261871198E-01  0.51100000000E-03 0. -1.
</event>
<event>
 8    1  0.1116619E+005  0.1043930E+01  0.7957747E-01            NaN
         13   -1    0    0    0    0  0.00000000000E+00  0.00000000000E+00  0.74505805969E-08  0.10566000000E+00  0.10566000000E+00 0. -1.
     999900   -1    0    0    0    0 -0.00000000000E+00 -0.00000000000E+00 -0.74505805969E-08  0.93827000000E+00  0.93827000000E+00 0.  1.
     999902    2    1    2    0    0  0.18550912860E-02 -0.16470812707E-01 -0.17571279265E-01  0.10197746923E+01  0.10194885699E+01 0.  0.
     999903    2    3    3    0    0 -0.62309233552E-01 -0.11396957363E+00 -0.13417613507E-01  0.13205834014E+00  0.19694378631E-01 0.  0.
         14    1    1    2    0    0 -0.18550912860E-02  0.16470812707E-01  0.17571279265E-01  0.24155307697E-01  0.00000000000E+00 0. -1.
     999901    1    3    3    0    0  0.64164324838E-01  0.97498760918E-01 -0.41536657582E-02  0.88771635217E+00  0.88000000000E+00 0.  1.
        -11    1    4    4    0    0 -0.31529770920E-01 -0.51256248622E-01 -0.15579635569E-01  0.62163619928E-01  0.51100000000E-03 0. -1.
         11    1    4    4    0    0 -0.30779462631E-01 -0.62713325003E-01  0.21620220622E-02  0.69894720210E-01  0.51100000000E-03 0.  1.
</event>
<event>
 8    1  0.1116619E+005  0.1043930E+01  0.7957747E-01            NaN
         13   -1    0    0    0    0  0.00000000000E+00  0.00000000000E+00  0.74505805969E-08  0.10566000000E+00  0.10566000000E+00 0.  1.
     999900   -1    0    0    0    0 -0.00000000000E+00 -0.00000000000E+00 -0.74505805969E-08  0.93827000000E+00  0.93827000000E+00 0.  1.
     999902    2    1    2    0    0 -0.90432061443E-02  0.13995116603E-01 -0.20516848968E-01  0.10174992611E+01  0.10171559184E+01 0.  0.
     999903    2    3    3    0    0  0.50583586661E-01 -0.11262234730E+00  0.14443492440E-01  0.12575402729E+00  0.19051733631E-01 0.  0.
         14    1    1    2    0    0  0.90432061443E-02 -0.13995116603E-01  0.20516848968E-01  0.26430738879E-01  0.00000000000E+00 0.  1.
     999901    1    3    3    0    0 -0.59626792805E-01  0.12661746391E+00 -0.34960341408E-01  0.89174523383E+00  0.88000000000E+00 0. -1.
        -11    1    4    4    0    0  0.30683071183E-01 -0.65445603595E-01 -0.93699691180E-03  0.72289120698E-01  0.51100000000E-03 0. -1.
         11    1    4    4    0    0  0.19900515478E-01 -0.47176743710E-01  0.15380489352E-01  0.53464906594E-01  0.51100000000E-03 0.  1.
</event>
<event>
 8    1  0.1116619E+005  0.1043930E+01  0.7957747E-01            NaN
         13   -1    0    0    0    0  0.00000000000E+00  0.00000000000E+00  0.74505805969E-08  0.10566000000E+00  0.10566000000E+00 0. -1.
     999900   -1    0    0    0    0 -0.00000000000E+00 -0.00000000000E+00 -0.74505805969E-08  0.93827000000E+00  0.93827000000E+00 0.  1.
     999902    2    1    2    0    0  0.21395387370E-01  0.88967682133E-02  0.45524975392E-02  0.10203155909E+01  0.10200422857E+01 0.  0.
     999903    2    3    3    0    0  0.27187260522E-01  0.78877556935E-01 -0.99512738373E-01  0.13140590483E+00  0.20097527285E-01 0.  0.
         14    1    1    2    0    0 -0.21395387370E-01 -0.88967682133E-02 -0.45524975392E-02  0.23614409144E-01  0.00000000000E+00 0.  1.
     999901    1    3    3    0    0 -0.57918731520E-02 -0.69980788722E-01  0.10406523591E+00  0.88890968603E+00  0.88000000000E+00 0. -1.
        -11    1    4    4    0    0  0.11013002104E-01  0.59727999981E-01 -0.69537021396E-01  0.92327561771E-01  0.51100000000E-03 0.  1.
         11    1    4    4    0    0  0.16174258418E-01  0.19149556954E-01 -0.29975716978E-01  0.39078343059E-01  0.51100000000E-03 0. -1.
</event>
<event>
 8    1  0.1116619E+005  0.1043930E+01  0.7957747E-01            NaN
         13   -1    0    0    0    0  0.00000000000E+00  0.00000000000E+00  0.74505805969E-08  0.10566000000E+00  0.10566000000E+00 0. -1.
     999900   -1    0    0    0    0 -0.00000000000E+00 -0.00000000000E+00 -0.74505805969E-08  0.93827000000E+00  0.93827000000E+00 0. -1.
     999902    2    1    2    0    0 -0.54778203731E-02 -0.90281400393E-02 -0.24085945108E-01  0.10176308255E+01  0.10172909369E+01 0.  0.
     999903    2    3    3    0    0  0.98689753930E-01  0.27777102396E-01  0.70037923623E-01  0.12574248490E+00  0.19865216186E-01 0.  0.
         14    1    1    2    0    0  0.54778203731E-02  0.90281400393E-02  0.24085945108E-01  0.26299174519E-01  0.00000000000E+00 0. -1.
     999901    1    3    3    0    0 -0.10416757430E+00 -0.36805242436E-01 -0.94123868731E-01  0.89188834059E+00  0.88000000000E+00 0. -1.
        -11    1    4    4    0    0  0.94990680806E-01  0.30348398672E-01  0.68381837597E-01  0.12091563826E+00  0.51100000000E-03 0. -1.
         11    1    4    4    0    0  0.36990731238E-02 -0.25712962755E-02  0.16560860261E-02  0.48268466350E-02  0.51100000000E-03 0.  1.
</event>
<event>
 8    1  0.1116619E+005  0.1043930E+01  0.7957747E-01            NaN
         13   -1    0    0    0    0  0.00000000000E+00  0.00000000000E+00  0.74505805969E-08  0.10566000000E+00  0.10566000000E+00 0. -1.
     999900   -1    0    0    0    0 -0.00000000000E+00 -0.00000000000E+00 -0.74505805969E-08  0.93827000000E+00  0.93827000000E+00 0. -1.
     999902    2    1    2    0    0 -0.16918607280E-01 -0.15485767954E-01 -0.57854113160E-02  0.10202758404E+01  0.10200016036E+01 0.  0.
     999903    2    3    3    0    0  0.54376369378E-01  0.82588224924E-01 -0.80222025325E-01  0.12884873107E+00  0.19718461104E-01 0.  0.
         14    1    1    2    0    0  0.16918607280E-01  0.15485767954E-01  0.57854113160E-02  0.23654159582E-01  0.00000000000E+00 0. -1.
     999901    1    3    3    0    0 -0.71294976657E-01 -0.98073992879E-01  0.74436614009E-01  0.89142710935E+00  0.88000000000E+00 0. -1.
        -11    1    4    4    0    0  0.88888153767E-02  0.16692486182E-01 -0.25960753103E-01  0.32122763835E-01  0.51100000000E-03 0. -1.
         11    1    4    4    0    0  0.45487554001E-01  0.65895738742E-01 -0.54261272222E-01  0.96725967235E-01  0.51100000000E-03 0.  1.
</event>
<event>
 8    1  0.1116619E+005  0.1043930E+01  0.7957747E-01            NaN
         13   -1    0    0    0    0  0.00000000000E+00  0.00000000000E+00  0.74505805969E-08  0.10566000000E+00  0.10566000000E+00 0. -1.
     999900   -1    0    0    0    0 -0.00000000000E+00 -0.00000000000E+00 -0.74505805969E-08  0.93827000000E+00  0.93827000000E+00 0.  1.
     999902    2    1    2    0    0  0.18546339268E-01  0.13532219896E-01  0.40098404626E-02  0.10206240674E+01  0.10203579374E+01 0.  0.
     999903    2    3    3    0    0 -0.53968783744E-01 -0.35954293223E-01 -0.10955382216E+00  0.12899406365E+00  0.20786719040E-01 0.  0.
         14    1    1    2    0    0 -0.18546339268E-01 -0.13532219896E-01 -0.40098404626E-02  0.23305932637E-01  0.00000000000E+00 0.  1.
     999901    1    3    3    0    0  0.72515123011E-01  0.49486513119E-01  0.11356366262E+00  0.89163000371E+00  0.88000000000E+00 0. -1.
        -11    1    4    4    0    0 -0.25323984032E-02 -0.54435019527E-02 -0.23077789875E-01  0.23851420538E-01  0.51100000000E-03 0. -1.
         11    1    4    4    0    0 -0.51436385340E-01 -0.30510791270E-01 -0.86476032284E-01  0.10514264312E+00  0.51100000000E-03 0.  1.
</event>
<event>
 7    1  0.1690658E+005  0.1043930E+01  0.7957747E-01            NaN
         13   -1    0    0    0    0  0.00000000000E+00  0.00000000000E+00  0.74505805969E-08  0.10566000000E+00  0.10566000000E+00 0. -1.
     999900   -1    0    0    0    0 -0.00000000000E+00 -0.00000000000E+00 -0.74505805969E-08  0.93827000000E+00  0.93827000000E+00 0. -1.
     999903    2    1    2    0    0  0.34975935415E-01  0.17580485142E-01  0.78357589240E-01  0.90065605380E-01  0.20964540654E-01 0.  0.
         14    1    1    2    0    0  0.54739398449E-01  0.19520111059E-01  0.23495994575E-01  0.62685710010E-01  0.00000000000E+00 0. -1.
     999901    1    1    2    0    0 -0.89715333865E-01 -0.37100596201E-01 -0.10185358381E+00  0.89117868461E+00  0.88000000000E+00 0. -1.
        -11    1    3    3    0    0  0.18337647804E-01  0.19139470216E-01  0.37548774151E-01  0.45964771384E-01  0.51100000000E-03 0.  1.
         11    1    3    3    0    0  0.16638287611E-01 -0.15589850747E-02  0.40808815089E-01  0.44100833996E-01  0.51100000000E-03 0. -1.
</event>
<event>
 8    1  0.1116619E+005  0.1043930E+01  0.7957747E-01            NaN
         13   -1    0    0    0    0  0.00000000000E+00  0.00000000000E+00  0.74505805969E-08  0.10566000000E+00  0.10566000000E+00 0.  1.
     999900   -1    0    0    0    0 -0.00000000000E+00 -0.00000000000E+00 -0.74505805969E-08  0.93827000000E+00  0.93827000000E+00 0. -1.
     999902    2    1    2    0    0 -0.78664841195E-02 -0.15485216606E-01  0.16168811598E-01  0.10202001881E+01  0.10199241735E+01 0.  0.
     999903    2    3    3    0    0  0.27865263535E-01  0.42009124368E-01  0.11985722398E+00  0.13153059599E+00  0.19831895999E-01 0.  0.
         14    1    1    2    0    0  0.78664841195E-02  0.15485216606E-01 -0.16168811598E-01  0.23729811930E-01  0.00000000000E+00 0. -1.
     999901    1    3    3    0    0 -0.35731747655E-01 -0.57494340974E-01 -0.10368841238E+00  0.88866959208E+00  0.88000000000E+00 0. -1.
        -11    1    4    4    0    0  0.14431608129E-01  0.76750012399E-02  0.48949060909E-01  0.51608610155E-01  0.51100000000E-03 0. -1.
         11    1    4    4    0    0  0.13433655406E-01  0.34334123128E-01  0.70908163067E-01  0.79921985830E-01  0.51100000000E-03 0.  1.
</event>
<event>
 8    1  0.1116619E+005  0.1043930E+01  0.7957747E-01            NaN
         13   -1    0    0    0    0  0.00000000000E+00  0.00000000000E+00  0.74505805969E-08  0.10566000000E+00  0.10566000000E+00 0.  1.
     999900   -1    0    0    0    0 -0.00000000000E+00 -0.00000000000E+00 -0.74505805969E-08  0.93827000000E+00  0.93827000000E+00 0.  1.
     999902    2    1    2    0    0  0.11473381730E-01  0.15772174974E-03  0.21396816545E-01  0.10196506441E+01  0.10193615398E+01 0.  0.
     999903    2    3    3    0    0  0.30886577056E-01 -0.25353511238E-02 -0.12232943782E+00  0.12777545049E+00  0.20041600282E-01 0.  0.
         14    1    1    2    0    0 -0.11473381730E-01 -0.15772174974E-03 -0.21396816545E-01  0.24279355897E-01  0.00000000000E+00 0.  1.
     999901    1    3    3    0    0 -0.19413195326E-01  0.26930728735E-02  0.14372625437E+00  0.89187519362E+00  0.88000000000E+00 0. -1.
        -11    1    4    4    0    0  0.30163705798E-01  0.33778702257E-02 -0.92538423034E-01  0.97390348666E-01  0.51100000000E-03 0.  1.
         11    1    4    4    0    0  0.72287125793E-03 -0.59132213495E-02 -0.29791014788E-01  0.30385101821E-01  0.51100000000E-03 0. -1.
</event>
<event>
 8    1  0.1116619E+005  0.1043930E+01  0.7957747E-01            NaN
         13   -1    0    0    0    0  0.00000000000E+00  0.00000000000E+00  0.74505805969E-08  0.10566000000E+00  0.10566000000E+00 0. -1.
     999900   -1    0    0    0    0 -0.00000000000E+00 -0.00000000000E+00 -0.74505805969E-08  0.93827000000E+00  0.93827000000E+00 0. -1.
     999902    2    1    2    0    0 -0.19326920824E-01 -0.26092932939E-02  0.13570434577E-01  0.10201708970E+01  0.10198941926E+01 0.  0.
     999903    2    3    3    0    0 -0.10836499253E+00 -0.31980989354E-01 -0.64542462900E-01  0.13174976968E+00  0.20652288177E-01 0.  0.
         14    1    1    2    0    0  0.19326920824E-01  0.26092932939E-02 -0.13570434577E-01  0.23759102984E-01  0.00000000000E+00 0.  1.
     999901    1    3    3    0    0  0.89038071709E-01  0.29371696060E-01  0.78112897477E-01  0.88842112734E+00  0.88000000000E+00 0.  1.
        -11    1    4    4    0    0 -0.31836573941E-01 -0.85081881731E-02 -0.29996283423E-01  0.44564502090E-01  0.51100000000E-03 0.  1.
         11    1    4    4    0    0 -0.76528418591E-01 -0.23472801181E-01 -0.34546179477E-01  0.87185267591E-01  0.51100000000E-03 0. -1.
</event>
<event>
 8    1  0.1116619E+005  0.1043930E+01  0.7957747E-01            NaN
         13   -1    0    0    0    0  0.00000000000E+00  0.00000000000E+00  0.74505805969E-08  0.10566000000E+00  0.10566000000E+00 0. -1.
     999900   -1    0    0    0    0 -0.00000000000E+00 -0.00000000000E+00 -0.74505805969E-08  0.93827000000E+00  0.93827000000E+00 0. -1.
     999902    2    1    2    0    0 -0.17399899769E-02  0.21082033503E-01 -0.73005774008E-02  0.10215519274E+01  0.10213067915E+01 0.  0.
     999903    2    3    3    0    0  0.13645930309E-01  0.12973287353E+00 -0.26014105248E-01  0.13453900322E+00  0.20178697384E-01 0.  0.
         14    1    1    2    0    0  0.17399899769E-02 -0.21082033503E-01  0.73005774008E-02  0.22378072574E-01  0.00000000000E+00 0.  1.
     999901    1    3    3    0    0 -0.15385920286E-01 -0.10865084003E+00  0.18713527847E-01  0.88701292420E+00  0.88000000000E+00 0. -1.
        -11    1    4    4    0    0 -0.22573321942E-02  0.64279089041E-01 -0.80336581599E-02  0.64820503091E-01  0.51100000000E-03 0.  1.
         11    1    4    4    0    0  0.15903262503E-01  0.65453784488E-01 -0.17980447088E-01  0.69718500131E-01  0.51100000000E-03 0. -1.
</event>
<event>
 8    1  0.1116619E+005  0.1043930E+01  0.7957747E-01            NaN
         13   -1    0    0    0    0  0.00000000000E+00  0.00000000000E+00  0.74505805969E-08  0.10566000000E+00  0.10566000000E+00 0. -1.
     999900   -1    0    0    0    0 -0.00000000000E+00 -0.00000000000E+00 -0.74505805969E-08  0.93827000000E+00  0.93827000000E+00 0. -1.
     999902    2    1    2    0    0 -0.20970766364E-02  0.18619470578E-01 -0.11613839155E-01  0.10218854162E+01  0.10216476106E+01 0.  0.
     999903    2    3    3    0    0  0.11007071088E+00 -0.41159439153E-02  0.67828236562E-01  0.13092550968E+00  0.20206855819E-01 0.  0.
         14    1    1    2    0    0  0.20970766364E-02 -0.18619470578E-01  0.11613839155E-01  0.22044583800E-01  0.00000000000E+00 0. -1.
     999901    1    3    3    0    0 -0.11216778752E+00  0.22735414493E-01 -0.79442075717E-01  0.89095990652E+00  0.88000000000E+00 0. -1.
        -11    1    4    4    0    0  0.78960346850E-01 -0.11964676033E-01  0.49820479787E-01  0.94128800983E-01  0.51100000000E-03 0. -1.
         11    1    4    4    0    0  0.31110364031E-01  0.78487321176E-02  0.18007756775E-01  0.36796708699E-01  0.51100000000E-03 0.  1.
</event>
<event>
 8    1  0.1116619E+005  0.1043930E+01  0.7957747E-01            NaN
         13   -1    0    0    0    0  0.00000000000E+00  0.00000000000E+00  0.74505805969E-08  0.10566000000E+00  0.10566000000E+00 0. -1.
     999900   -1    0    0    0    0 -0.00000000000E+00 -0.00000000000E+00 -0.74505805969E-08  0.93827000000E+00  0.93827000000E+00 0. -1.
     999902    2    1    2    0    0  0.12295369929E-01 -0.17746993370E-01 -0.10361048570E-01  0.10199824903E+01  0.10197013275E+01 0.  0.
     999903    2    3    3    0    0 -0.31972718318E-01 -0.10897552343E+00 -0.64651169693E-01  0.13249743372E+00  0.21860392816E-01 0.  0.
         14    1    1    2    0    0 -0.12295369929E-01  0.17746993370E-01  0.10361048570E-01  0.23947509742E-01  0.00000000000E+00 0. -1.
     999901    1    3    3    0    0  0.44268088248E-01  0.91228530065E-01  0.54290121122E-01  0.88748505654E+00  0.88000000000E+00 0.  1.
        -11    1    4    4    0    0 -0.18959462931E-01 -0.40258861459E-01 -0.34618512460E-01  0.56382086575E-01  0.51100000000E-03 0.  1.
         11    1    4    4    0    0 -0.13013255387E-01 -0.68716661976E-01 -0.30032657232E-01  0.76115347141E-01  0.51100000000E-03 0. -1.
</event>
<event>
 8    1  0.1116619E+005  0.1043930E+01  0.7957747E-01            NaN
         13   -1    0    0    0    0  0.00000000000E+00  0.00000000000E+00  0.74505805969E-08  0.10566000000E+00  0.10566000000E+00 0. -1.
     999900   -1    0    0    0    0 -0.00000000000E+00 -0.00000000000E+00 -0.74505805969E-08  0.93827000000E+00  0.93827000000E+00 0. -1.
     999902    2    1    2    0    0  0.15713749154E-01  0.10684617533E-01  0.13482474582E-01  0.10206306420E+01  0.10203646638E+01 0.  0.
     999903    2    3    3    0    0 -0.60035383281E-01  0.10904099800E+00 -0.31512055779E-01  0.13077873495E+00  0.24816957234E-01 0.  0.
         14    1    1    2    0    0 -0.15713749154E-01 -0.10684617533E-01 -0.13482474582E-01  0.23299358042E-01  0.00000000000E+00 0. -1.
     999901    1    3    3    0    0  0.75749132435E-01 -0.98356380463E-01  0.44994530362E-01  0.88985190701E+00  0.88000000000E+00 0. -1.
        -11    1    4    4    0    0 -0.45234823865E-01  0.75977837016E-01 -0.33345676531E-01  0.94504054263E-01  0.51100000000E-03 0.  1.
         11    1    4    4    0    0 -0.14800559416E-01  0.33063160979E-01  0.18336207518E-02  0.36274680688E-01  0.51100000000E-03 0. -1.
</event>
<event>
 8    1  0.1116619E+005  0.1043930E+01  0.7957747E-01            NaN
         13   -1    0    0    0    0  0.00000000000E+00  0.00000000000E+00  0.74505805969E-08  0.10566000000E+00  0.10566000000E+00 0. -1.
     999900   -1    0    0    0    0 -0.00000000000E+00 -0.00000000000E+00 -0.74505805969E-08  0.93827000000E+00  0.93827000000E+00 0.  1.
     999902    2    1    2    0    0  0.17515391790E-02 -0.13781795190E-01  0.62476359926E-03  0.10300233074E+01  0.10299294237E+01 0.  0.
     999903    2    3    3    0    0  0.80546923236E-02 -0.64920430358E-03 -0.13742812084E+00  0.13914127621E+00  0.20211551506E-01 0.  0.
         14    1    1    2    0    0 -0.17515391790E-02  0.13781795190E-01 -0.62476359926E-03  0.13906692551E-01  0.00000000000E+00 0. -1.
     999901    1    3    3    0    0 -0.63031531446E-02 -0.13132590887E-01  0.13805288443E+00  0.89088203124E+00  0.88000000000E+00 0. -1.
        -11    1    4    4    0    0 -0.45361795522E-02 -0.61122500332E-02 -0.62601074792E-01  0.63064191198E-01  0.51100000000E-03 0. -1.
         11    1    4    4    0    0  0.12590871876E-01  0.54630457297E-02 -0.74827046044E-01  0.76077085012E-01  0.51100000000E-03 0.  1.
</event>
<event>
 8    1  0.1116619E+005  0.1043930E+01  0.7957747E-01            NaN
         13   -1    0    0    0    0  0.00000000000E+00  0.00000000000E+00  0.74505805969E-08  0.10566000000E+00  0.10566000000E+00 0.  1.
     999900   -1    0    0    0    0 -0.00000000000E+00 -0.00000000000E+00 -0.74505805969E-08  0.93827000000E+00  0.93827000000E+00 0.  1.
     999902    2    1    2    0    0  0.84551576714E-02  0.22207627929E-01  0.26895190079E-02  0.10200155286E+01  0.10197351503E+01 0.  0.
     999903    2    3    3    0    0  0.95131233162E-02  0.13641146742E-01 -0.12769794376E+00  0.13036649987E+00  0.20299730252E-01 0.  0.
         14    1    1    2    0    0 -0.84551576714E-02 -0.22207627929E-01 -0.26895190079E-02  0.23914471392E-01  0.00000000000E+00 0. -1.
     999901    1    3    3    0    0 -0.10579656448E-02  0.85664811871E-02  0.13038746276E+00  0.88964902874E+00  0.88000000000E+00 0. -1.
        -11    1    4    4    0    0 -0.29575288623E-02  0.13290174138E-01 -0.60096936603E-01  0.61622062734E-01  0.51100000000E-03 0. -1.
         11    1    4    4    0    0  0.12470652179E-01  0.35097260409E-03 -0.67601007154E-01  0.68744437133E-01  0.51100000000E-03 0.  1.
</event>
<event>
 8    1  0.1116619E+005  0.1043930E+01  0.7957747E-01            NaN
         13   -1    0    0    0    0  0.00000000000E+00  0.00000000000E+00  0.74505805969E-08  0.10566000000E+00  0.10566000000E+00 0.  1.
     999900   -1    0    0    0    0 -0.00000000000E+00 -0.00000000000E+00 -0.74505805969E-08  0.93827000000E+00  0.93827000000E+00 0.  1.
     999902    2    1    2    0    0 -0.19927601520E-02 -0.23560254061E-01  0.53311554341E-02  0.10196920570E+01  0.10194039499E+01 0.  0.
     999903    2    3    3    0    0 -0.54083346743E-01  0.68229775063E-01 -0.91559163691E-01  0.12810550895E+00  0.21157276934E-01 0.  0.
         14    1    1    2    0    0  0.19927601520E-02  0.23560254061E-01 -0.53311554341E-02  0.24237943038E-01  0.00000000000E+00 0. -1.
     999901    1    3    3    0    0  0.52090586591E-01 -0.91790029124E-01  0.96890319125E-01  0.89158654801E+00  0.88000000000E+00 0. -1.
        -11    1    4    4    0    0 -0.10239642651E-02  0.69709393451E-02 -0.15171346533E-01  0.16735392878E-01  0.51100000000E-03 0. -1.
         11    1    4    4    0    0 -0.53059382478E-01  0.61258835718E-01 -0.76387817158E-01  0.11137011607E+00  0.51100000000E-03 0.  1.
</event>
<event>
 8    1  0.1116619E+005  0.1043930E+01  0.7957747E-01            NaN
         13   -1    0    0    0    0  0.00000000000E+00  0.00000000000E+00  0.74505805969E-08  0.10566000000E+00  0.10566000000E+00 0.  1.
     999900   -1    0    0    0    0 -0.00000000000E+00 -0.00000000000E+00 -0.74505805969E-08  0.93827000000E+00  0.93827000000E+00 0.  1.
     999902    2    1    2    0    0  0.24145281129E-01 -0.29399131406E-02  0.28722660631E-02  0.10194373970E+01  0.10191431297E+01 0.  0.
     999903    2    3    3    0    0  0.46800530873E-02  0.71413378826E-01 -0.10601000939E+00  0.12940219710E+00  0.19622256542E-01 0.  0.
         14    1    1    2    0    0 -0.24145281129E-01  0.29399131406E-02 -0.28722660631E-02  0.24492603014E-01  0.00000000000E+00 0. -1.
     999901    1    3    3    0    0  0.19465228041E-01 -0.74353291967E-01  0.10888227545E+00  0.89003519989E+00  0.88000000000E+00 0. -1.
        -11    1    4    4    0    0 -0.34158101266E-02  0.53423440421E-01 -0.85974878246E-01  0.10128016862E+00  0.51100000000E-03 0.  1.
         11    1    4    4    0    0  0.80958632139E-02  0.17989938406E-01 -0.20035131141E-01  0.28122028481E-01  0.51100000000E-03 0. -1.
</event>
<event>
 8    1  0.1116619E+005  0.1043930E+01  0.7957747E-01            NaN
         13   -1    0    0    0    0  0.00000000000E+00  0.00000000000E+00  0.74505805969E-08  0.10566000000E+00  0.10566000000E+00 0. -1.
     999900   -1    0    0    0    0 -0.00000000000E+00 -0.00000000000E+00 -0.74505805969E-08  0.93827000000E+00  0.93827000000E+00 0. -1.
     999902    2    1    2    0    0 -0.19396945981E-01  0.87651142734E-02 -0.91090807939E-02  0.10207773739E+01  0.10205147735E+01 0.  0.
     999903    2    3    3    0    0 -0.11220377072E+00  0.64911038155E-01  0.24151101995E-01  0.13349404192E+00  0.20838773059E-01 0.  0.
         14    1    1    2    0    0  0.19396945981E-01 -0.87651142734E-02  0.91090807939E-02  0.23152626083E-01  0.00000000000E+00 0.  1.
     999901    1    3    3    0    0  0.92806824735E-01 -0.56145923881E-01 -0.33260182789E-01  0.88728333200E+00  0.88000000000E+00 0. -1.
        -11    1    4    4    0    0 -0.67424832035E-01  0.49209510402E-01  0.10614494643E-01  0.84146375480E-01  0.51100000000E-03 0. -1.
         11    1    4    4    0    0 -0.44778938681E-01  0.15701527753E-01  0.13536607352E-01  0.49347666437E-01  0.51100000000E-03 0.  1.
</event>
<event>
 8    1  0.1116619E+005  0.1043930E+01  0.7957747E-01            NaN
         13   -1    0    0    0    0  0.00000000000E+00  0.00000000000E+00  0.74505805969E-08  0.10566000000E+00  0.10566000000E+00 0.  1.
     999900   -1    0    0    0    0 -0.00000000000E+00 -0.00000000000E+00 -0.74505805969E-08  0.93827000000E+00  0.93827000000E+00 0. -1.
     999902    2    1    2    0    0 -0.30884497389E-02 -0.12578653617E-01  0.18342142822E-01  0.10214757075E+01  0.10212288802E+01 0.  0.
     999903    2    3    3    0    0 -0.71193265324E-01  0.97705269324E-01 -0.42836595894E-01  0.12987958388E+00  0.20467820620E-01 0.  0.
         14    1    1    2    0    0  0.30884497389E-02  0.12578653617E-01 -0.18342142822E-01  0.22454292506E-01  0.00000000000E+00 0. -1.
     999901    1    3    3    0    0  0.68104815585E-01 -0.11028392294E+00  0.61178738717E-01  0.89159612361E+00  0.88000000000E+00 0.  1.
        -11    1    4    4    0    0 -0.25552908909E-01  0.31672816806E-01 -0.24621933189E-01  0.47566996889E-01  0.51100000000E-03 0.  1.
         11    1    4    4    0    0 -0.45640356415E-01  0.66032452519E-01 -0.18214662705E-01  0.82312586995E-01  0.51100000000E-03 0. -1.
</event>
<event>
 8    1  0.1116619E+005  0.1043930E+01  0.7957747E-01            NaN
         13   -1    0    0    0    0  0.00000000000E+00  0.00000000000E+00  0.74505805969E-08  0.10566000000E+00  0.10566000000E+00 0. -1.
     999900   -1    0    0    0    0 -0.00000000000E+00 -0.00000000000E+00 -0.74505805969E-08  0.93827000000E+00  0.93827000000E+00 0.  1.
     999902    2    1    2    0    0  0.12653036365E-01  0.18276294643E-01 -0.44714954847E-02  0.10212558617E+01  0.10210041227E+01 0.  0.
     999903    2    3    3    0    0 -0.81626872549E-01 -0.78280978096E-01  0.58374316008E-01  0.12875286219E+00  0.19464863170E-01 0.  0.
         14    1    1    2    0    0 -0.12653036365E-01 -0.18276294643E-01  0.44714954847E-02  0.22674138286E-01  0.00000000000E+00 0. -1.
     999901    1    3    3    0    0  0.94279908914E-01  0.96557272738E-01 -0.62845811492E-01  0.89250299953E+00  0.88000000000E+00 0.  1.
        -11    1    4    4    0    0 -0.52577093897E-01 -0.62242005046E-01  0.39095141545E-01  0.90372059887E-01  0.51100000000E-03 0. -1.
         11    1    4    4    0    0 -0.29049778652E-01 -0.16038973050E-01  0.19279174463E-01  0.38380802300E-01  0.51100000000E-03 0.  1.
</event>
<event>
 8    1  0.1116619E+005  0.1043930E+01  0.7957747E-01            NaN
         13   -1    0    0    0    0  0.00000000000E+00  0.00000000000E+00  0.74505805969E-08  0.10566000000E+00  0.10566000000E+00 0.  1.
     999900   -1    0    0    0    0 -0.00000000000E+00 -0.00000000000E+00 -0.74505805969E-08  0.93827000000E+00  0.93827000000E+00 0.  1.
     999902    2    1    2    0    0 -0.17541459459E-01  0.15458556902E-01 -0.11785268854E-02  0.10205193463E+01  0.10202507914E+01 0.  0.
     999903    2    3    3    0    0 -0.90352047034E-01  0.57896415917E-01 -0.76086988511E-01  0.13332509971E+00  0.21699424259E-01 0.  0.
         14    1    1    2    0    0  0.17541459459E-01 -0.15458556902E-01  0.11785268854E-02  0.23410653709E-01  0.00000000000E+00 0. -1.
     999901    1    3    3    0    0  0.72810587575E-01 -0.42437859015E-01  0.74908461625E-01  0.88719424658E+00  0.88000000000E+00 0.  1.
        -11    1    4    4    0    0 -0.45080994976E-01  0.16320623199E-01 -0.31026152630E-01  0.57109912604E-01  0.51100000000E-03 0. -1.
         11    1    4    4    0    0 -0.45271052059E-01  0.41575792718E-01 -0.45060835880E-01  0.76215187108E-01  0.51100000000E-03 0.  1.
</event>
<event>
 7    1  0.1116619E+005  0.1043930E+01  0.7957747E-01            NaN
         13   -1    0    0    0    0  0.00000000000E+00  0.00000000000E+00  0.74505805969E-08  0.10566000000E+00  0.10566000000E+00 0.  1.
     999900   -1    0    0    0    0 -0.00000000000E+00 -0.00000000000E+00 -0.74505805969E-08  0.93827000000E+00  0.93827000000E+00 0. -1.
     999903    2    1    2    0    0 -0.72478785106E-01  0.25582677064E-01  0.29740578317E-01  0.86095861665E-01  0.24906781025E-01 0.  0.
         14    1    1    2    0    0  0.75195578485E-01 -0.17885950322E-01 -0.48167314938E-02  0.77443418990E-01  0.00000000000E+00 0.  1.
     999901    1    1    2    0    0 -0.27167933790E-02 -0.76967267415E-02 -0.24923846823E-01  0.88039071935E+00  0.88000000000E+00 0. -1.
        -11    1    3    3    0    0 -0.46089824786E-01  0.28163352001E-01  0.16667103716E-01  0.56528752083E-01  0.51100000000E-03 0.  1.
         11    1    3    3    0    0 -0.26388960320E-01 -0.25806749378E-02  0.13073474602E-01  0.29567109582E-01  0.51100000000E-03 0. -1.
</event>
<event>
 8    1  0.1116619E+005  0.1043930E+01  0.7957747E-01            NaN
         13   -1    0    0    0    0  0.00000000000E+00  0.00000000000E+00  0.74505805969E-08  0.10566000000E+00  0.10566000000E+00 0. -1.
     999900   -1    0    0    0    0 -0.00000000000E+00 -0.00000000000E+00 -0.74505805969E-08  0.93827000000E+00  0.93827000000E+00 0. -1.
     999902    2    1    2    0    0  0.17941808398E-01  0.12706681808E-01  0.87787679379E-02  0.10202564912E+01  0.10199818003E+01 0.  0.
     999903    2    3    3    0    0 -0.76494859537E-01 -0.10004179847E+00 -0.98968081440E-02  0.12785563892E+00  0.19730499618E-01 0.  0.
         14    1    1    2    0    0 -0.17941808398E-01 -0.12706681808E-01 -0.87787679379E-02  0.23673508773E-01  0.00000000000E+00 0. -1.
     999901    1    3    3    0    0  0.94436667934E-01  0.11274848028E+00  0.18675576082E-01  0.89240085231E+00  0.88000000000E+00 0.  1.
        -11    1    4    4    0    0 -0.23329185175E-01 -0.20044111159E-01  0.31354649208E-02  0.30921020914E-01  0.51100000000E-03 0.  1.
         11    1    4    4    0    0 -0.53165674362E-01 -0.79997687313E-01 -0.13032273065E-01  0.96934618006E-01  0.51100000000E-03 0. -1.
</event>
<event>
 8    1  0.1116619E+005  0.1043930E+01  0.7957747E-01            NaN
         13   -1    0    0    0    0  0.00000000000E+00  0.00000000000E+00  0.74505805969E-08  0.10566000000E+00  0.10566000000E+00 0. -1.
     999900   -1    0    0    0    0 -0.00000000000E+00 -0.00000000000E+00 -0.74505805969E-08  0.93827000000E+00  0.93827000000E+00 0. -1.
     999902    2    1    2    0    0 -0.12023255480E-01  0.11339586430E-01  0.18113231295E-01  0.10194099258E+01  0.10191149899E+01 0.  0.
     999903    2    3    3    0    0  0.55432913135E-01 -0.45407131119E-01 -0.10255968778E+00  0.12681120403E+00  0.20687592808E-01 0.  0.
         14    1    1    2    0    0  0.12023255480E-01 -0.11339586430E-01 -0.18113231295E-01  0.24520074239E-01  0.00000000000E+00 0.  1.
     999901    1    3    3    0    0 -0.67456168615E-01  0.56746717549E-01  0.12067291907E+00  0.89259872173E+00  0.88000000000E+00 0.  1.
        -11    1    4    4    0    0  0.37236067765E-01 -0.18456549380E-01 -0.64713358394E-01  0.76910654875E-01  0.51100000000E-03 0. -1.
         11    1    4    4    0    0  0.18196845370E-01 -0.26950581739E-01 -0.37846329381E-01  0.49900549156E-01  0.51100000000E-03 0.  1.
</event>
<event>
 8    1  0.1116619E+005  0.1043930E+01  0.7957747E-01            NaN
         13   -1    0    0    0    0  0.00000000000E+00  0.00000000000E+00  0.74505805969E-08  0.10566000000E+00  0.10566000000E+00 0. -1.
     999900   -1    0    0    0    0 -0.00000000000E+00 -0.00000000000E+00 -0.74505805969E-08  0.93827000000E+00  0.93827000000E+00 0. -1.
     999902    2    1    2    0    0 -0.23394548829E-01  0.24905836321E-02  0.27161396070E-02  0.10202469821E+01  0.10199720678E+01 0.  0.
     999903    2    3    3    0    0  0.72953804612E-01  0.51999626315E-01 -0.90141124270E-01  0.12875574718E+00  0.20649489152E-01 0.  0.
         14    1    1    2    0    0  0.23394548829E-01 -0.24905836321E-02 -0.27161396070E-02  0.23683017884E-01  0.00000000000E+00 0.  1.
     999901    1    3    3    0    0 -0.96348353441E-01 -0.49509042683E-01  0.92857263877E-01  0.89149123494E+00  0.88000000000E+00 0.  1.
        -11    1    4    4    0    0  0.95182994144E-02  0.16894012804E-01 -0.20542729810E-01  0.28253682262E-01  0.51100000000E-03 0.  1.
         11    1    4    4    0    0  0.63435505197E-01  0.35105613512E-01 -0.69598394460E-01  0.10050206491E+00  0.51100000000E-03 0. -1.
</event>
<event>
 8    1  0.1116619E+005  0.1043930E+01  0.7957747E-01            NaN
         13   -1    0    0    0    0  0.00000000000E+00  0.00000000000E+00  0.74505805969E-08  0.10566000000E+00  0.10566000000E+00 0.  1.
     999900   -1    0    0    0    0 -0.00000000000E+00 -0.00000000000E+00 -0.74505805969E-08  0.93827000000E+00  0.93827000000E+00 0. -1.
     999902    2    1    2    0    0 -0.67806197023E-02  0.18559699358E-01 -0.13581817055E-01  0.10199528234E+01  0.10196709552E+01 0.  0.
     999903    2    3    3    0    0  0.67605488601E-01 -0.84069320048E-01  0.64781003663E-01  0.12742453790E+00  0.20056962879E-01 0.  0.
         14    1    1    2    0    0  0.67806197023E-02 -0.18559699358E-01  0.13581817055E-01  0.23977176613E-01  0.00000000000E+00 0. -1.
     999901    1    3    3    0    0 -0.74386108303E-01  0.10262901941E+00 -0.78362820718E-01  0.89252828549E+00  0.88000000000E+00 0. -1.
        -11    1    4    4    0    0  0.28785022496E-01 -0.47154719658E-01  0.24702135254E-01  0.60519432526E-01  0.51100000000E-03 0. -1.
         11    1    4    4    0    0  0.38820466105E-01 -0.36914600389E-01  0.40078868409E-01  0.66905105369E-01  0.51100000000E-03 0.  1.
</event>
<event>
 8    1  0.1116619E+005  0.1043930E+01  0.7957747E-01            NaN
         13   -1    0    0    0    0  0.00000000000E+00  0.00000000000E+00  0.74505805969E-08  0.10566000000E+00  0.10566000000E+00 0. -1.
     999900   -1    0    0    0    0 -0.00000000000E+00 -0.00000000000E+00 -0.74505805969E-08  0.93827000000E+00  0.93827000000E+00 0.  1.
     999902    2    1    2    0    0 -0.72174480724E-02  0.19841871754E-01 -0.68001609082E-02  0.10217481692E+01  0.10215073605E+01 0.  0.
     999903    2    3    3    0    0  0.45895963239E-01  0.67757578516E-01 -0.10360938275E+00  0.13355394780E+00  0.20105319935E-01 0.  0.
         14    1    1    2    0    0  0.72174480724E-02 -0.19841871754E-01  0.68001609082E-02  0.22181830848E-01  0.00000000000E+00 0. -1.
     999901    1    3    3    0    0 -0.53113411312E-01 -0.47915706762E-01  0.96809221844E-01  0.88819422136E+00  0.88000000000E+00 0. -1.
        -11    1    4    4    0    0  0.21181506837E-01  0.29199999890E-01 -0.61693378968E-01  0.71467687489E-01  0.51100000000E-03 0. -1.
         11    1    4    4    0    0  0.24714456403E-01  0.38557578626E-01 -0.41916003784E-01  0.62086260308E-01  0.51100000000E-03 0.  1.
</event>
<event>
 6    1  0.1116619E+005  0.1043930E+01  0.7957747E-01            NaN
         13   -1    0    0    0    0  0.00000000000E+00  0.00000000000E+00  0.74505805969E-08  0.10566000000E+00  0.10566000000E+00 0. -1.
     999900   -1    0    0    0    0 -0.00000000000E+00 -0.00000000000E+00 -0.74505805969E-08  0.93827000000E+00  0.93827000000E+00 0. -1.
         14    1    1    2    0    0 -0.24070507994E-01 -0.27323390957E-02 -0.32887522195E-01  0.40846592858E-01  0.00000000000E+00 0.  1.
     999901    1    1    2    0    0 -0.29038642331E-01  0.89201403700E-01 -0.26592097371E-01  0.88538538096E+00  0.88000000000E+00 0. -1.
        -11    1    1    2    0    0  0.22383167306E-01 -0.35094394976E-01  0.26565236663E-01  0.49382139052E-01  0.51100000000E-03 0. -1.
         11    1    1    2    0    0  0.30725983018E-01 -0.51374669628E-01  0.32914382903E-01  0.68315887132E-01  0.51100000000E-03 0.  1.
</event>
<event>
 8    1  0.1116619E+005  0.1043930E+01  0.7957747E-01            NaN
         13   -1    0    0    0    0  0.00000000000E+00  0.00000000000E+00  0.74505805969E-08  0.10566000000E+00  0.10566000000E+00 0.  1.
     999900   -1    0    0    0    0 -0.00000000000E+00 -0.00000000000E+00 -0.74505805969E-08  0.93827000000E+00  0.93827000000E+00 0.  1.
     999902    2    1    2    0    0  0.14246192027E-01  0.28095716240E-01  0.16328958253E-01  0.10084481999E+01  0.10078238010E+01 0.  0.
     999903    2    3    3    0    0  0.74706146587E-01 -0.41812037646E-02 -0.90787938284E-01  0.11930747137E+00  0.19832604050E-01 0.  0.
         14    1    1    2    0    0 -0.14246192027E-01 -0.28095716240E-01 -0.16328958253E-01  0.35481800067E-01  0.00000000000E+00 0. -1.
     999901    1    3    3    0    0 -0.60459954560E-01  0.32276920005E-01  0.10711689654E+00  0.88914072857E+00  0.88000000000E+00 0. -1.
        -11    1    4    4    0    0  0.33507164451E-01 -0.11739003073E-01 -0.42588045060E-01  0.55448507335E-01  0.51100000000E-03 0. -1.
         11    1    4    4    0    0  0.41198982136E-01  0.75577993083E-02 -0.48199893225E-01  0.63858964033E-01  0.51100000000E-03 0.  1.
</event>
<event>
 8    1  0.1116619E+005  0.1043930E+01  0.7957747E-01            NaN
         13   -1    0    0    0    0  0.00000000000E+00  0.00000000000E+00  0.74505805969E-08  0.10566000000E+00  0.10566000000E+00 0.  1.
     999900   -1    0    0    0    0 -0.00000000000E+00 -0.00000000000E+00 -0.74505805969E-08  0.93827000000E+00  0.93827000000E+00 0.  1.
     999902    2    1    2    0    0 -0.46566098091E-02 -0.19333632947E-01  0.12687885218E-01  0.10203406844E+01  0.10200679666E+01 0.  0.
     999903    2    3    3    0    0  0.45862460099E-01  0.93371817325E-01  0.73854443442E-01  0.12961286809E+00  0.22876958776E-01 0.  0.
         14    1    1    2    0    0  0.46566098091E-02  0.19333632947E-01 -0.12687885218E-01  0.23589315572E-01  0.00000000000E+00 0. -1.
     999901    1    3    3    0    0 -0.50519069908E-01 -0.11270545027E+00 -0.61166558224E-01  0.89072781633E+00  0.88000000000E+00 0.  1.
        -11    1    4    4    0    0  0.18867235100E-01  0.50262746934E-01  0.50249200282E-01  0.73536110447E-01  0.51100000000E-03 0.  1.
         11    1    4    4    0    0  0.26995224998E-01  0.43109070391E-01  0.23605243160E-01  0.56076757648E-01  0.51100000000E-03 0. -1.
</event>
<event>
 8    1  0.1116619E+005  0.1043930E+01  0.7957747E-01            NaN
         13   -1    0    0    0    0  0.00000000000E+00  0.00000000000E+00  0.74505805969E-08  0.10566000000E+00  0.10566000000E+00 0.  1.
     999900   -1    0    0    0    0 -0.00000000000E+00 -0.00000000000E+00 -0.74505805969E-08  0.93827000000E+00  0.93827000000E+00 0.  1.
     999902    2    1    2    0    0 -0.12874411020E-01  0.68247190719E-02  0.19530243265E-01  0.10195628571E+01  0.10192716331E+01 0.  0.
     999903    2    3    3    0    0  0.58739021675E-01  0.10896977225E+00 -0.31771004626E-01  0.12928542079E+00  0.19509981096E-01 0.  0.
         14    1    1    2    0    0  0.12874411020E-01 -0.68247190719E-02 -0.19530243265E-01  0.24367142868E-01  0.00000000000E+00 0. -1.
     999901    1    3    3    0    0 -0.71613432695E-01 -0.10214505317E+00  0.51301247892E-01  0.89027743635E+00  0.88000000000E+00 0.  1.
        -11    1    4    4    0    0  0.34026391749E-01  0.43853218518E-01 -0.17365468150E-01  0.58161161568E-01  0.51100000000E-03 0. -1.
         11    1    4    4    0    0  0.24712629926E-01  0.65116553728E-01 -0.14405536476E-01  0.71124259219E-01  0.51100000000E-03 0.  1.
</event>
<event>
 8    1  0.1116619E+005  0.1043930E+01  0.7957747E-01            NaN
         13   -1    0    0    0    0  0.00000000000E+00  0.00000000000E+00  0.74505805969E-08  0.10566000000E+00  0.10566000000E+00 0.  1.
     999900   -1    0    0    0    0 -0.00000000000E+00 -0.00000000000E+00 -0.74505805969E-08  0.93827000000E+00  0.93827000000E+00 0.  1.
     999902    2    1    2    0    0  0.42364858298E-02 -0.78748255249E-02 -0.28060442508E-01  0.10144792084E+01  0.10140516334E+01 0.  0.
     999903    2    3    3    0    0  0.12152129924E+00  0.27712229755E-02  0.22302622318E-01  0.12520675070E+00  0.20105163829E-01 0.  0.
         14    1    1    2    0    0 -0.42364858298E-02  0.78748255249E-02  0.28060442508E-01  0.29450791551E-01  0.00000000000E+00 0.  1.
     999901    1    3    3    0    0 -0.11728481341E+00 -0.10646048500E-01 -0.50363064826E-01  0.88927245775E+00  0.88000000000E+00 0.  1.
        -11    1    4    4    0    0  0.88920897503E-01  0.10752909384E-01  0.14377604837E-01  0.90716744402E-01  0.51100000000E-03 0.  1.
         11    1    4    4    0    0  0.32600401741E-01 -0.79816864087E-02  0.79250174802E-02  0.34490006301E-01  0.51100000000E-03 0. -1.
</event>
<event>
 8    1  0.1116619E+005  0.1043930E+01  0.7957747E-01            NaN
         13   -1    0    0    0    0  0.00000000000E+00  0.00000000000E+00  0.74505805969E-08  0.10566000000E+00  0.10566000000E+00 0.  1.
     999900   -1    0    0    0    0 -0.00000000000E+00 -0.00000000000E+00 -0.74505805969E-08  0.93827000000E+00  0.93827000000E+00 0. -1.
     999902    2    1    2    0    0 -0.16188003754E-01 -0.63942295577E-02 -0.18571847019E-01  0.10184770800E+01  0.10181589813E+01 0.  0.
     999903    2    3    3    0    0 -0.58649864786E-01  0.11337978951E+00  0.19031855281E-03  0.12915101818E+00  0.19625645671E-01 0.  0.
         14    1    1    2    0    0  0.16188003754E-01  0.63942295577E-02  0.18571847019E-01  0.25452920046E-01  0.00000000000E+00 0.  1.
     999901    1    3    3    0    0  0.42461861032E-01 -0.11977401907E+00 -0.18762165572E-01  0.88932606177E+00  0.88000000000E+00 0.  1.
        -11    1    4    4    0    0 -0.11790554368E-01  0.96086329527E-02 -0.13548644065E-02  0.15278736142E-01  0.51100000000E-03 0. -1.
         11    1    4    4    0    0 -0.46859310418E-01  0.10377115656E+00  0.15451829594E-02  0.11387228204E+00  0.51100000000E-03 0.  1.
</event>
<event>
 8    1  0.1116619E+005  0.1043930E+01  0.7957747E-01            NaN
         13   -1    0    0    0    0  0.00000000000E+00  0.00000000000E+00  0.74505805969E-08  0.10566000000E+00  0.10566000000E+00 0. -1.
     999900   -1    0    0    0    0 -0.00000000000E+00 -0.00000000000E+00 -0.74505805969E-08  0.93827000000E+00  0.93827000000E+00 0. -1.
     999902    2    1    2    0    0 -0.14685736453E-01  0.18287410384E-01  0.28212711455E-02  0.10203067105E+01  0.10200331974E+01 0.  0.
     999903    2    3    3    0    0  0.51085121769E-01  0.37364704887E-02 -0.11731497825E+00  0.12959337054E+00  0.20198680395E-01 0.  0.
         14    1    1    2    0    0  0.14685736453E-01 -0.18287410384E-01 -0.28212711455E-02  0.23623289453E-01  0.00000000000E+00 0.  1.
     999901    1    3    3    0    0 -0.65770858221E-01  0.14550939896E-01  0.12013624939E+00  0.89071334000E+00  0.88000000000E+00 0. -1.
        -11    1    4    4    0    0  0.33488748747E-01  0.13156201288E-02 -0.96872524186E-01  0.10250743491E+00  0.51100000000E-03 0. -1.
         11    1    4    4    0    0  0.17596373022E-01  0.24208503598E-02 -0.20442454061E-01  0.27085935631E-01  0.51100000000E-03 0.  1.
</event>
<event>
 8    1  0.1116619E+005  0.1043930E+01  0.7957747E-01            NaN
         13   -1    0    0    0    0  0.00000000000E+00  0.00000000000E+00  0.74505805969E-08  0.10566000000E+00  0.10566000000E+00 0.  1.
     999900   -1    0    0    0    0 -0.00000000000E+00 -0.00000000000E+00 -0.74505805969E-08  0.93827000000E+00  0.93827000000E+00 0. -1.
     999902    2    1    2    0    0  0.39057552362E-02 -0.21565290321E-01 -0.92832626203E-02  0.10201288312E+01  0.10198511345E+01 0.  0.
     999903    2    3    3    0    0  0.99498592252E-01  0.20780054785E-01 -0.80358698599E-01  0.13109405330E+00  0.19908536703E-01 0.  0.
         14    1    1    2    0    0 -0.39057552362E-02  0.21565290321E-01  0.92832626203E-02  0.23801168784E-01  0.00000000000E+00 0.  1.
     999901    1    3    3    0    0 -0.95592837016E-01 -0.42345345106E-01  0.71075435978E-01  0.88903477791E+00  0.88000000000E+00 0.  1.
        -11    1    4    4    0    0  0.43510001867E-01  0.15058915642E-01 -0.46355350152E-01  0.65337361529E-01  0.51100000000E-03 0.  1.
         11    1    4    4    0    0  0.55988590385E-01  0.57211391426E-02 -0.34003348446E-01  0.65756691773E-01  0.51100000000E-03 0. -1.
</event>
<event>
 8    1  0.1116619E+005  0.1043930E+01  0.7957747E-01            NaN
         13   -1    0    0    0    0  0.00000000000E+00  0.00000000000E+00  0.74505805969E-08  0.10566000000E+00  0.10566000000E+00 0. -1.
     999900   -1    0    0    0    0 -0.00000000000E+00 -0.00000000000E+00 -0.74505805969E-08  0.93827000000E+00  0.93827000000E+00 0.  1.
     999902    2    1    2    0    0 -0.22770620570E-02  0.20871559064E-01 -0.23757023738E-02  0.10228006140E+01  0.10225823415E+01 0.  0.
     999903    2    3    3    0    0  0.44897318470E-01 -0.90085459543E-01 -0.81915689644E-01  0.13102514245E+00  0.18062350803E-01 0.  0.
         14    1    1    2    0    0  0.22770620570E-02 -0.20871559064E-01  0.23757023738E-02  0.21129385962E-01  0.00000000000E+00 0.  1.
     999901    1    3    3    0    0 -0.47174380527E-01  0.11095701861E+00  0.79539987271E-01  0.89177547159E+00  0.88000000000E+00 0. -1.
        -11    1    4    4    0    0  0.33544101593E-01 -0.70661566287E-01 -0.72424363674E-01  0.10660118797E+00  0.51100000000E-03 0. -1.
         11    1    4    4    0    0  0.11353216876E-01 -0.19423893256E-01 -0.94913259700E-02  0.24423954478E-01  0.51100000000E-03 0.  1.
</event>
<event>
 8    1  0.1116619E+005  0.1043930E+01  0.7957747E-01            NaN
         13   -1    0    0    0    0  0.00000000000E+00  0.00000000000E+00  0.74505805969E-08  0.10566000000E+00  0.10566000000E+00 0. -1.
     999900   -1    0    0    0    0 -0.00000000000E+00 -0.00000000000E+00 -0.74505805969E-08  0.93827000000E+00  0.93827000000E+00 0.  1.
     999902    2    1    2    0    0 -0.18851178371E-01  0.13465874530E-01 -0.43930056429E-02  0.10203504495E+01  0.10200779601E+01 0.  0.
     999903    2    3    3    0    0 -0.62509864029E-01  0.23816749307E-01 -0.11234559935E+00  0.13261908027E+00  0.22171290217E-01 0.  0.
         14    1    1    2    0    0  0.18851178371E-01 -0.13465874530E-01  0.43930056429E-02  0.23579550492E-01  0.00000000000E+00 0.  1.
     999901    1    3    3    0    0  0.43658685659E-01 -0.10350874777E-01  0.10795259371E+00  0.88773136924E+00  0.88000000000E+00 0.  1.
        -11    1    4    4    0    0 -0.38959665042E-01  0.20091044958E-01 -0.53776390530E-01  0.69380594456E-01  0.51100000000E-03 0.  1.
         11    1    4    4    0    0 -0.23550198988E-01  0.37257043492E-02 -0.58569208820E-01  0.63238485814E-01  0.51100000000E-03 0. -1.
</event>
<event>
 8    1  0.1116619E+005  0.1043930E+01  0.7957747E-01            NaN
         13   -1    0    0    0    0  0.00000000000E+00  0.00000000000E+00  0.74505805969E-08  0.10566000000E+00  0.10566000000E+00 0. -1.
     999900   -1    0    0    0    0 -0.00000000000E+00 -0.00000000000E+00 -0.74505805969E-08  0.93827000000E+00  0.93827000000E+00 0. -1.
     999902    2    1    2    0    0  0.18389293754E-01  0.27326695560E-02 -0.12504562417E-01  0.10215246951E+01  0.10212789555E+01 0.  0.
     999903    2    3    3    0    0  0.68627216137E-01  0.72285623673E-01  0.84178111349E-01  0.13208160995E+00  0.20608034145E-01 0.  0.
         14    1    1    2    0    0 -0.18389293754E-01 -0.27326695560E-02  0.12504562417E-01  0.22405304928E-01  0.00000000000E+00 0. -1.
     999901    1    3    3    0    0 -0.50237922384E-01 -0.69552954117E-01 -0.96682673766E-01  0.88944308513E+00  0.88000000000E+00 0.  1.
        -11    1    4    4    0    0  0.68886704637E-02  0.18746178776E-01  0.14465481502E-01  0.24665446996E-01  0.51100000000E-03 0. -1.
         11    1    4    4    0    0  0.61738545673E-01  0.53539444897E-01  0.69712629847E-01  0.10741616295E+00  0.51100000000E-03 0.  1.
</event>
<event>
 8    1  0.1116619E+005  0.1043930E+01  0.7957747E-01            NaN
         13   -1    0    0    0    0  0.00000000000E+00  0.00000000000E+00  0.74505805969E-08  0.10566000000E+00  0.10566000000E+00 0. -1.
     999900   -1    0    0    0    0 -0.00000000000E+00 -0.00000000000E+00 -0.74505805969E-08  0.93827000000E+00  0.93827000000E+00 0.  1.
     999902    2    1    2    0    0  0.67765368457E-02 -0.23286381140E-02  0.22864232048E-01  0.10199692589E+01  0.10196877816E+01 0.  0.
     999903    2    3    3    0    0 -0.97674245270E-03  0.15063122523E-01 -0.12492784094E+00  0.12744190160E+00  0.20164849535E-01 0.  0.
         14    1    1    2    0    0 -0.67765368457E-02  0.23286381140E-02 -0.22864232048E-01  0.23960741104E-01  0.00000000000E+00 0.  1.
     999901    1    3    3    0    0  0.77532792984E-02 -0.17391760637E-01  0.14779207299E+00  0.89252735729E+00  0.88000000000E+00 0. -1.
        -11    1    4    4    0    0 -0.73751991727E-02  0.16210155816E-01 -0.74842149708E-01  0.76933550603E-01  0.51100000000E-03 0. -1.
         11    1    4    4    0    0  0.63984567200E-02 -0.11470332928E-02 -0.50085691230E-01  0.50508351001E-01  0.51100000000E-03 0.  1.
</event>
<event>
 8    1  0.1116619E+005  0.1043930E+01  0.7957747E-01            NaN
         13   -1    0    0    0    0  0.00000000000E+00  0.00000000000E+00  0.74505805969E-08  0.10566000000E+00  0.10566000000E+00 0. -1.
     999900   -1    0    0    0    0 -0.00000000000E+00 -0.00000000000E+00 -0.74505805969E-08  0.93827000000E+00  0.93827000000E+00 0.  1.
     999902    2    1    2    0    0 -0.77246903123E-02 -0.23848270966E-02 -0.21173949284E-01  0.10212651733E+01  0.10210136433E+01 0.  0.
     999903    2    3    3    0    0 -0.95276669293E-01  0.87626685169E-01 -0.19815450961E-01  0.13235051662E+00  0.19181435984E-01 0.  0.
         14    1    1    2    0    0  0.77246903123E-02  0.23848270966E-02  0.21173949284E-01  0.22664826692E-01  0.00000000000E+00 0. -1.
     999901    1    3    3    0    0  0.87551978981E-01 -0.90011512266E-01 -0.13584983226E-02  0.88891465669E+00  0.88000000000E+00 0.  1.
        -11    1    4    4    0    0 -0.90360675938E-01  0.75843806516E-01 -0.19467366693E-01  0.11956828271E+00  0.51100000000E-03 0.  1.
         11    1    4    4    0    0 -0.49159933555E-02  0.11782878653E-01 -0.34808426850E-03  0.12782233908E-01  0.51100000000E-03 0. -1.
</event>
<event>
 8    1  0.1116619E+005  0.1043930E+01  0.7957747E-01            NaN
         13   -1    0    0    0    0  0.00000000000E+00  0.00000000000E+00  0.74505805969E-08  0.10566000000E+00  0.10566000000E+00 0.  1.
     999900   -1    0    0    0    0 -0.00000000000E+00 -0.00000000000E+00 -0.74505805969E-08  0.93827000000E+00  0.93827000000E+00 0.  1.
     999902    2    1    2    0    0  0.82956764147E-02  0.13485180491E-01 -0.17694364089E-01  0.10201863933E+01  0.10199100540E+01 0.  0.
     999903    2    3    3    0    0 -0.10611246734E+00 -0.69912195539E-02 -0.73074717822E-01  0.13081836489E+00  0.21559158927E-01 0.  0.
         14    1    1    2    0    0 -0.82956764147E-02 -0.13485180491E-01  0.17694364089E-01  0.23743606730E-01  0.00000000000E+00 0.  1.
     999901    1    3    3    0    0  0.11440814375E+00  0.20476400045E-01  0.55380353733E-01  0.88936802837E+00  0.88000000000E+00 0.  1.
        -11    1    4    4    0    0 -0.61397396510E-01  0.52551446167E-02 -0.35334962653E-01  0.71035748393E-01  0.51100000000E-03 0.  1.
         11    1    4    4    0    0 -0.44715070829E-01 -0.12246364171E-01 -0.37739755169E-01  0.59782616502E-01  0.51100000000E-03 0. -1.
</event>
<event>
 8    1  0.1116619E+005  0.1043930E+01  0.7957747E-01            NaN
         13   -1    0    0    0    0  0.00000000000E+00  0.00000000000E+00  0.74505805969E-08  0.10566000000E+00  0.10566000000E+00 0. -1.
     999900   -1    0    0    0    0 -0.00000000000E+00 -0.00000000000E+00 -0.74505805969E-08  0.93827000000E+00  0.93827000000E+00 0.  1.
     999902    2    1    2    0    0 -0.40091792660E-02 -0.24464941428E-01 -0.28220031330E-02  0.10189786357E+01  0.10186731024E+01 0.  0.
     999903    2    3    3    0    0  0.39312305574E-01 -0.22100887766E-01 -0.12041440456E+00  0.13009714043E+00  0.19792183185E-01 0.  0.
         14    1    1    2    0    0  0.40091792660E-02  0.24464941428E-01  0.28220031330E-02  0.24951364274E-01  0.00000000000E+00 0.  1.
     999901    1    3    3    0    0 -0.43321484840E-01 -0.23640536624E-02  0.11759240142E+00  0.88888149529E+00  0.88000000000E+00 0. -1.
        -11    1    4    4    0    0  0.28240085765E-01 -0.22627875716E-01 -0.74015579919E-01  0.82389868280E-01  0.51100000000E-03 0. -1.
         11    1    4    4    0    0  0.11072219809E-01  0.52698795059E-03 -0.46398824636E-01  0.47707272154E-01  0.51100000000E-03 0.  1.
</event>
<event>
 8    1  0.1116619E+005  0.1043930E+01  0.7957747E-01            NaN
         13   -1    0    0    0    0  0.00000000000E+00  0.00000000000E+00  0.74505805969E-08  0.10566000000E+00  0.10566000000E+00 0. -1.
     999900   -1    0    0    0    0 -0.00000000000E+00 -0.00000000000E+00 -0.74505805969E-08  0.93827000000E+00  0.93827000000E+00 0. -1.
     999902    2    1    2    0    0  0.90377460758E-02 -0.48505121041E-02  0.21728813910E-01  0.10199018982E+01  0.10196188172E+01 0.  0.
     999903    2    3    3    0    0  0.96720338819E-01  0.23965043440E-01 -0.79369763829E-01  0.12931810331E+00  0.22236573152E-01 0.  0.
         14    1    1    2    0    0 -0.90377460758E-02  0.48505121041E-02 -0.21728813910E-01  0.24028101792E-01  0.00000000000E+00 0.  1.
     999901    1    3    3    0    0 -0.87682592743E-01 -0.28815555544E-01  0.10109857774E+00  0.89058379490E+00  0.88000000000E+00 0.  1.
        -11    1    4    4    0    0  0.57265054818E-01  0.23274196742E-01 -0.56260877614E-01  0.83585418634E-01  0.51100000000E-03 0. -1.
         11    1    4    4    0    0  0.39455284001E-01  0.69084669761E-03 -0.23108886215E-01  0.45732684678E-01  0.51100000000E-03 0.  1.
</event>
<event>
 8    1  0.1116619E+005  0.1043930E+01  0.7957747E-01            NaN
         13   -1    0    0    0    0  0.00000000000E+00  0.00000000000E+00  0.74505805969E-08  0.10566000000E+00  0.10566000000E+00 0. -1.
     999900   -1    0    0    0    0 -0.00000000000E+00 -0.00000000000E+00 -0.74505805969E-08  0.93827000000E+00  0.93827000000E+00 0. -1.
     999902    2    1    2    0    0 -0.45438981179E-02  0.45052569940E-02  0.23037105741E-01  0.10200207426E+01  0.10197404879E+01 0.  0.
     999903    2    3    3    0    0 -0.17791129875E-01 -0.12399790279E+00  0.31101339483E-01  0.13055259636E+00  0.19613334777E-01 0.  0.
         14    1    1    2    0    0  0.45438981179E-02 -0.45052569940E-02 -0.23037105741E-01  0.23909257446E-01  0.00000000000E+00 0.  1.
     999901    1    3    3    0    0  0.13247231757E-01  0.12850315978E+00 -0.80642337418E-02  0.88946814619E+00  0.88000000000E+00 0. -1.
        -11    1    4    4    0    0  0.17965639248E-02 -0.17365335807E-01  0.99164329442E-02  0.20084304643E-01  0.51100000000E-03 0.  1.
         11    1    4    4    0    0 -0.19587693800E-01 -0.10663256698E+00  0.21184906539E-01  0.11046829172E+00  0.51100000000E-03 0. -1.
</event>
<event>
 8    1  0.1116619E+005  0.1043930E+01  0.7957747E-01            NaN
         13   -1    0    0    0    0  0.00000000000E+00  0.00000000000E+00  0.74505805969E-08  0.10566000000E+00  0.10566000000E+00 0.  1.
     999900   -1    0    0    0    0 -0.00000000000E+00 -0.00000000000E+00 -0.74505805969E-08  0.93827000000E+00  0.93827000000E+00 0.  1.
     999902    2    1    2    0    0  0.23381727278E-01 -0.11854178580E-03  0.19352515051E-02  0.10204680218E+01  0.10201982744E+01 0.  0.
     999903    2    3    3    0    0 -0.28228297830E-01  0.12012970259E+00  0.36151691868E-01  0.13013437661E+00  0.20000722712E-01 0.  0.
         14    1    1    2    0    0 -0.23381727278E-01  0.11854178580E-03 -0.19352515051E-02  0.23461978200E-01  0.00000000000E+00 0. -1.
     999901    1    3    3    0    0  0.51610025109E-01 -0.12024824437E+00 -0.34216440363E-01  0.89033364519E+00  0.88000000000E+00 0.  1.
        -11    1    4    4    0    0 -0.93584875252E-02  0.49178372388E-01  0.47730576002E-02  0.50290523952E-01  0.51100000000E-03 0. -1.
         11    1    4    4    0    0 -0.18869810305E-01  0.70951330198E-01  0.31378634268E-01  0.79843852658E-01  0.51100000000E-03 0.  1.
</event>
<event>
 8    1  0.1116619E+005  0.1043930E+01  0.7957747E-01            NaN
         13   -1    0    0    0    0  0.00000000000E+00  0.00000000000E+00  0.74505805969E-08  0.10566000000E+00  0.10566000000E+00 0. -1.
     999900   -1    0    0    0    0 -0.00000000000E+00 -0.00000000000E+00 -0.74505805969E-08  0.93827000000E+00  0.93827000000E+00 0.  1.
     999902    2    1    2    0    0 -0.62231124721E-02 -0.34543966239E-01  0.34953726260E-02  0.10086563503E+01  0.10080393855E+01 0.  0.
     999903    2    3    3    0    0  0.42809006341E-01  0.10689376859E+00 -0.65224568819E-02  0.11595867561E+00  0.12040897787E-01 0.  0.
         14    1    1    2    0    0  0.62231124721E-02  0.34543966239E-01 -0.34953726260E-02  0.35273649685E-01  0.00000000000E+00 0. -1.
     999901    1    3    3    0    0 -0.49032118813E-01 -0.14143773483E+00  0.10017829508E-01  0.89269767470E+00  0.88000000000E+00 0.  1.
        -11    1    4    4    0    0  0.23974762106E-01  0.44140075795E-01 -0.39137607958E-02  0.50385654246E-01  0.51100000000E-03 0. -1.
         11    1    4    4    0    0  0.18834244236E-01  0.62753692793E-01 -0.26086960861E-02  0.65573021368E-01  0.51100000000E-03 0.  1.
</event>
<event>
 8    1  0.1116619E+005  0.1043930E+01  0.7957747E-01            NaN
         13   -1    0    0    0    0  0.00000000000E+00  0.00000000000E+00  0.74505805969E-08  0.10566000000E+00  0.10566000000E+00 0.  1.
     999900   -1    0    0    0    0 -0.00000000000E+00 -0.00000000000E+00 -0.74505805969E-08  0.93827000000E+00  0.93827000000E+00 0.  1.
     999902    2    1    2    0    0 -0.16090288927E-01  0.14583857637E-01  0.62426180989E-02  0.10213345008E+01  0.10210845244E+01 0.  0.
     999903    2    3    3    0    0 -0.77819737531E-01 -0.74448302678E-01  0.73378675380E-01  0.13215257313E+00  0.21941086169E-01 0.  0.
         14    1    1    2    0    0  0.16090288927E-01 -0.14583857637E-01 -0.62426180989E-02  0.22595499155E-01  0.00000000000E+00 0.  1.
     999901    1    3    3    0    0  0.61729448604E-01  0.89032160315E-01 -0.67136057281E-01  0.88918192772E+00  0.88000000000E+00 0.  1.
        -11    1    4    4    0    0 -0.69430962321E-01 -0.59036206692E-01  0.68260654979E-01  0.11386707324E+00  0.51100000000E-03 0. -1.
         11    1    4    4    0    0 -0.83887752105E-02 -0.15412095986E-01  0.51180204004E-02  0.18285499885E-01  0.51100000000E-03 0.  1.
</event>
<event>
 8    1  0.1116619E+005  0.1043930E+01  0.7957747E-01            NaN
         13   -1    0    0    0    0  0.00000000000E+00  0.00000000000E+00  0.74505805969E-08  0.10566000000E+00  0.10566000000E+00 0.  1.
     999900   -1    0    0    0    0 -0.00000000000E+00 -0.00000000000E+00 -0.74505805969E-08  0.93827000000E+00  0.93827000000E+00 0. -1.
     999902    2    1    2    0    0  0.22740031419E-01  0.58336016516E-02  0.19978036303E-02  0.10203687785E+01  0.10200967175E+01 0.  0.
     999903    2    3    3    0    0  0.65839708122E-01  0.79162512434E-01 -0.80782148408E-01  0.13240074322E+00  0.20065661329E-01 0.  0.
         14    1    1    2    0    0 -0.22740031419E-01 -0.58336016516E-02 -0.19978036303E-02  0.23561221456E-01  0.00000000000E+00 0. -1.
     999901    1    3    3    0    0 -0.43099676703E-01 -0.73328910783E-01  0.82779952038E-01  0.88796803532E+00  0.88000000000E+00 0.  1.
        -11    1    4    4    0    0  0.49055576696E-01  0.44144342823E-01 -0.48520688330E-01  0.81912703076E-01  0.51100000000E-03 0.  1.
         11    1    4    4    0    0  0.16784131426E-01  0.35018169612E-01 -0.32261460078E-01  0.50488040148E-01  0.51100000000E-03 0. -1.
</event>
<event>
 8    1  0.1116619E+005  0.1043930E+01  0.7957747E-01            NaN
         13   -1    0    0    0    0  0.00000000000E+00  0.00000000000E+00  0.74505805969E-08  0.10566000000E+00  0.10566000000E+00 0. -1.
     999900   -1    0    0    0    0 -0.00000000000E+00 -0.00000000000E+00 -0.74505805969E-08  0.93827000000E+00  0.93827000000E+00 0.  1.
     999902    2    1    2    0    0 -0.18989429571E-01 -0.13753983025E-01  0.58789117968E-03  0.10204754461E+01  0.10202058713E+01 0.  0.
     999903    2    3    3    0    0  0.10127458528E+00  0.71933324952E-01  0.24111524235E-01  0.12786180661E+00  0.18339332755E-01 0.  0.
         14    1    1    2    0    0  0.18989429571E-01  0.13753983025E-01 -0.58789117968E-03  0.23454553940E-01  0.00000000000E+00 0.  1.
     999901    1    3    3    0    0 -0.12026401486E+00 -0.85687307976E-01 -0.23523633055E-01  0.89261363945E+00  0.88000000000E+00 0. -1.
        -11    1    4    4    0    0  0.44560006636E-01  0.32256383590E-01  0.19955381570E-01  0.58519627889E-01  0.51100000000E-03 0. -1.
         11    1    4    4    0    0  0.56714578648E-01  0.39676941362E-01  0.41561426648E-02  0.69342178722E-01  0.51100000000E-03 0.  1.
</event>
<event>
 8    1  0.1116619E+005  0.1043930E+01  0.7957747E-01            NaN
         13   -1    0    0    0    0  0.00000000000E+00  0.00000000000E+00  0.74505805969E-08  0.10566000000E+00  0.10566000000E+00 0. -1.
     999900   -1    0    0    0    0 -0.00000000000E+00 -0.00000000000E+00 -0.74505805969E-08  0.93827000000E+00  0.93827000000E+00 0.  1.
     999902    2    1    2    0    0 -0.21914345042E-01 -0.51811637071E-02 -0.20409649294E-02  0.10213191948E+01  0.10210688758E+01 0.  0.
     999903    2    3    3    0    0  0.19332317386E-01  0.11754311095E+00  0.49089634102E-01  0.13037762938E+00  0.19960276541E-01 0.  0.
         14    1    1    2    0    0  0.21914345042E-01  0.51811637071E-02  0.20409649294E-02  0.22610805245E-01  0.00000000000E+00 0. -1.
     999901    1    3    3    0    0 -0.41246662428E-01 -0.12272427466E+00 -0.51130599031E-01  0.89094156537E+00  0.88000000000E+00 0. -1.
        -11    1    4    4    0    0  0.97181112854E-02  0.93574828955E-01  0.31855926402E-01  0.99326489261E-01  0.51100000000E-03 0.  1.
         11    1    4    4    0    0  0.96142061006E-02  0.23968281996E-01  0.17233707700E-01  0.31051140122E-01  0.51100000000E-03 0. -1.
</event>
<event>
 8    1  0.1116619E+005  0.1043930E+01  0.7957747E-01            NaN
         13   -1    0    0    0    0  0.00000000000E+00  0.00000000000E+00  0.74505805969E-08  0.10566000000E+00  0.10566000000E+00 0.  1.
     999900   -1    0    0    0    0 -0.00000000000E+00 -0.00000000000E+00 -0.74505805969E-08  0.93827000000E+00  0.93827000000E+00 0.  1.
     999902    2    1    2    0    0 -0.17888076923E-01  0.14760323192E-01  0.13205447979E-01  0.10172422820E+01  0.10168921408E+01 0.  0.
     999903    2    3    3    0    0 -0.82902503071E-01 -0.84213560189E-01 -0.43684553601E-01  0.12748996955E+00  0.19509058846E-01 0.  0.
         14    1    1    2    0    0  0.17888076923E-01 -0.14760323192E-01 -0.13205447979E-01  0.26687718019E-01  0.00000000000E+00 0.  1.
     999901    1    3    3    0    0  0.65014426148E-01  0.98973883381E-01  0.56890001580E-01  0.88975231243E+00  0.88000000000E+00 0.  1.
        -11    1    4    4    0    0 -0.59916858121E-01 -0.67329944094E-01 -0.25526257392E-01  0.93676049214E-01  0.51100000000E-03 0.  1.
         11    1    4    4    0    0 -0.22985644950E-01 -0.16883616095E-01 -0.18158296209E-01  0.33813920335E-01  0.51100000000E-03 0. -1.
</event>
<event>
 8    1  0.1116619E+005  0.1043930E+01  0.7957747E-01            NaN
         13   -1    0    0    0    0  0.00000000000E+00  0.00000000000E+00  0.74505805969E-08  0.10566000000E+00  0.10566000000E+00 0. -1.
     999900   -1    0    0    0    0 -0.00000000000E+00 -0.00000000000E+00 -0.74505805969E-08  0.93827000000E+00  0.93827000000E+00 0.  1.
     999902    2    1    2    0    0 -0.37201074628E-02 -0.19552734571E-01  0.14154612797E-01  0.10195066159E+01  0.10192140296E+01 0.  0.
     999903    2    3    3    0    0 -0.98203278559E-01 -0.57870175195E-01 -0.60704162517E-01  0.13046267314E+00  0.18511419129E-01 0.  0.
         14    1    1    2    0    0  0.37201074628E-02  0.19552734571E-01 -0.14154612797E-01  0.24423384126E-01  0.00000000000E+00 0.  1.
     999901    1    3    3    0    0  0.94483171097E-01  0.38317440625E-01  0.74858775314E-01  0.88904394274E+00  0.88000000000E+00 0. -1.
        -11    1    4    4    0    0 -0.42269895468E-01 -0.25132056765E-01 -0.15954288738E-01  0.51702657478E-01  0.51100000000E-03 0.  1.
         11    1    4    4    0    0 -0.55933383091E-01 -0.32738118430E-01 -0.44749873778E-01  0.78760015658E-01  0.51100000000E-03 0. -1.
</event>
<event>
 8    1  0.1116619E+005  0.1043930E+01  0.7957747E-01            NaN
         13   -1    0    0    0    0  0.00000000000E+00  0.00000000000E+00  0.74505805969E-08  0.10566000000E+00  0.10566000000E+00 0.  1.
     999900   -1    0    0    0    0 -0.00000000000E+00 -0.00000000000E+00 -0.74505805969E-08  0.93827000000E+00  0.93827000000E+00 0.  1.
     999902    2    1    2    0    0  0.14285601081E-01 -0.19662736436E-01  0.28959308127E-02  0.10194537254E+01  0.10191598551E+01 0.  0.
     999903    2    3    3    0    0 -0.88240964923E-02  0.93107674420E-01  0.85142406167E-01  0.12815371622E+00  0.20669831568E-01 0.  0.
         14    1    1    2    0    0 -0.14285601081E-01  0.19662736436E-01 -0.28959308127E-02  0.24476274588E-01  0.00000000000E+00 0. -1.
     999901    1    3    3    0    0  0.23109697574E-01 -0.11277041086E+00 -0.82246475354E-01  0.89130000920E+00  0.88000000000E+00 0.  1.
        -11    1    4    4    0    0 -0.10265296673E-02  0.71823022292E-01  0.55183079551E-01  0.90581640988E-01  0.51100000000E-03 0.  1.
         11    1    4    4    0    0 -0.77975668250E-02  0.21284652128E-01  0.29959326616E-01  0.37572075228E-01  0.51100000000E-03 0. -1.
</event>
<event>
 7    1  0.1116619E+005  0.1043930E+01  0.7957747E-01            NaN
         13   -1    0    0    0    0  0.00000000000E+00  0.00000000000E+00  0.74505805969E-08  0.10566000000E+00  0.10566000000E+00 0. -1.
     999900   -1    0    0    0    0 -0.00000000000E+00 -0.00000000000E+00 -0.74505805969E-08  0.93827000000E+00  0.93827000000E+00 0. -1.
     999903    2    1    2    0    0  0.54188217483E-02  0.18733460110E-01  0.11514638495E+00  0.11887143341E+00  0.22168030068E-01 0.  0.
         14    1    1    2    0    0 -0.14852116411E-01  0.41982397583E-02 -0.38381831967E-01  0.41368775714E-01  0.00000000000E+00 0.  1.
     999901    1    1    2    0    0  0.94332946623E-02 -0.22931699869E-01 -0.76764552981E-01  0.88368979088E+00  0.88000000000E+00 0. -1.
        -11    1    3    3    0    0 -0.74456919856E-02  0.14800004266E-02  0.22309539287E-01  0.23571283261E-01  0.51100000000E-03 0. -1.
         11    1    3    3    0    0  0.12864513734E-01  0.17253459684E-01  0.92836845661E-01  0.95300150147E-01  0.51100000000E-03 0.  1.
</event>
<event>
 8    1  0.1116619E+005  0.1043930E+01  0.7957747E-01            NaN
         13   -1    0    0    0    0  0.00000000000E+00  0.00000000000E+00  0.74505805969E-08  0.10566000000E+00  0.10566000000E+00 0.  1.
     999900   -1    0    0    0    0 -0.00000000000E+00 -0.00000000000E+00 -0.74505805969E-08  0.93827000000E+00  0.93827000000E+00 0. -1.
     999902    2    1    2    0    0 -0.73474996858E-02  0.63764303757E-02  0.21811418044E-01  0.10200473165E+01  0.10197676918E+01 0.  0.
     999903    2    3    3    0    0 -0.29523330903E-01  0.74789519075E-01 -0.98149895160E-01  0.12900139460E+00  0.23299327422E-01 0.  0.
         14    1    1    2    0    0  0.73474996858E-02 -0.63764303757E-02 -0.21811418044E-01  0.23882683539E-01  0.00000000000E+00 0. -1.
     999901    1    3    3    0    0  0.22175831218E-01 -0.68413088699E-01  0.11996131320E+00  0.89104592186E+00  0.88000000000E+00 0. -1.
        -11    1    4    4    0    0 -0.24943329345E-01  0.74011777759E-01 -0.87020341455E-01  0.11693038046E+00  0.51100000000E-03 0. -1.
         11    1    4    4    0    0 -0.45800015589E-02  0.77774131618E-03 -0.11129553704E-01  0.12071014145E-01  0.51100000000E-03 0.  1.
</event>
<event>
 8    1  0.1116619E+005  0.1043930E+01  0.7957747E-01            NaN
         13   -1    0    0    0    0  0.00000000000E+00  0.00000000000E+00  0.74505805969E-08  0.10566000000E+00  0.10566000000E+00 0. -1.
     999900   -1    0    0    0    0 -0.00000000000E+00 -0.00000000000E+00 -0.74505805969E-08  0.93827000000E+00  0.93827000000E+00 0.  1.
     999902    2    1    2    0    0  0.10909626971E-01  0.18943343921E-01 -0.49355115639E-02  0.10215195222E+01  0.10212736679E+01 0.  0.
     999903    2    3    3    0    0  0.54143334289E-01  0.93204335203E-01 -0.77968439971E-01  0.13432300685E+00  0.18575354322E-01 0.  0.
         14    1    1    2    0    0 -0.10909626971E-01 -0.18943343921E-01  0.49355115639E-02  0.22410477772E-01  0.00000000000E+00 0.  1.
     999901    1    3    3    0    0 -0.43233707317E-01 -0.74260991282E-01  0.73032928407E-01  0.88719651538E+00  0.88000000000E+00 0. -1.
        -11    1    4    4    0    0  0.19117757112E-01  0.17959748773E-01 -0.21723307180E-01  0.34061773424E-01  0.51100000000E-03 0.  1.
         11    1    4    4    0    0  0.35025577177E-01  0.75244586431E-01 -0.56245132791E-01  0.10026123342E+00  0.51100000000E-03 0. -1.
</event>
<event>
 8    1  0.1116619E+005  0.1043930E+01  0.7957747E-01            NaN
         13   -1    0    0    0    0  0.00000000000E+00  0.00000000000E+00  0.74505805969E-08  0.10566000000E+00  0.10566000000E+00 0.  1.
     999900   -1    0    0    0    0 -0.00000000000E+00 -0.00000000000E+00 -0.74505805969E-08  0.93827000000E+00  0.93827000000E+00 0.  1.
     999902    2    1    2    0    0 -0.22760285284E-01  0.73086988517E-02  0.60384003147E-02  0.10192741702E+01  0.10189759193E+01 0.  0.
     999903    2    3    3    0    0 -0.88857974108E-01  0.84218777742E-01  0.46658164000E-01  0.13251939580E+00  0.19896329036E-01 0.  0.
         14    1    1    2    0    0  0.22760285284E-01 -0.73086988517E-02 -0.60384003147E-02  0.24655829807E-01  0.00000000000E+00 0.  1.
     999901    1    3    3    0    0  0.66097688823E-01 -0.76910078890E-01 -0.40619763685E-01  0.88675477439E+00  0.88000000000E+00 0.  1.
        -11    1    4    4    0    0 -0.18564006135E-01  0.26891842109E-01  0.65068138138E-02  0.33322563569E-01  0.51100000000E-03 0.  1.
         11    1    4    4    0    0 -0.70293967973E-01  0.57326935633E-01  0.40151350186E-01  0.99196832233E-01  0.51100000000E-03 0. -1.
</event>
<event>
 8    1  0.1116619E+005  0.1043930E+01  0.7957747E-01            NaN
         13   -1    0    0    0    0  0.00000000000E+00  0.00000000000E+00  0.74505805969E-08  0.10566000000E+00  0.10566000000E+00 0. -1.
     999900   -1    0    0    0    0 -0.00000000000E+00 -0.00000000000E+00 -0.74505805969E-08  0.93827000000E+00  0.93827000000E+00 0.  1.
     999902    2    1    2    0    0 -0.41535338264E-02 -0.17052758945E-02  0.23139331032E-01  0.10203590762E+01  0.10200867884E+01 0.  0.
     999903    2    3    3    0    0 -0.58764013834E-01 -0.14678139578E-01 -0.11139596313E+00  0.12836673031E+00  0.20007492217E-01 0.  0.
         14    1    1    2    0    0  0.41535338264E-02  0.17052758945E-02 -0.23139331032E-01  0.23570923821E-01  0.00000000000E+00 0.  1.
     999901    1    3    3    0    0  0.54610480007E-01  0.12972863684E-01  0.13453529416E+00  0.89199234587E+00  0.88000000000E+00 0. -1.
        -11    1    4    4    0    0 -0.18378796995E-01 -0.13327651265E-01 -0.31495348178E-01  0.38828141148E-01  0.51100000000E-03 0.  1.
         11    1    4    4    0    0 -0.40385216839E-01 -0.13504883137E-02 -0.79900614952E-01  0.89538589159E-01  0.51100000000E-03 0. -1.
</event>
<event>
 8    1  0.1116619E+005  0.1043930E+01  0.7957747E-01            NaN
         13   -1    0    0    0    0  0.00000000000E+00  0.00000000000E+00  0.74505805969E-08  0.10566000000E+00  0.10566000000E+00 0.  1.
     999900   -1    0    0    0    0 -0.00000000000E+00 -0.00000000000E+00 -0.74505805969E-08  0.93827000000E+00  0.93827000000E+00 0.  1.
     999902    2    1    2    0    0 -0.12140963812E-01  0.19139010391E-01  0.73502853379E-02  0.10201028849E+01  0.10198245753E+01 0.  0.
     999903    2    3    3    0    0 -0.22683487698E-01  0.10481880974E+00 -0.76197334819E-01  0.13194052490E+00  0.10037170328E-01 0.  0.
         14    1    1    2    0    0  0.12140963812E-01 -0.19139010391E-01 -0.73502853379E-02  0.23827115133E-01  0.00000000000E+00 0.  1.
     999901    1    3    3    0    0  0.10542523886E-01 -0.85679799348E-01  0.83547620157E-01  0.88816235997E+00  0.88000000000E+00 0. -1.
        -11    1    4    4    0    0 -0.20946465302E-01  0.82235516407E-01 -0.56820221399E-01  0.10212851339E+00  0.51100000000E-03 0. -1.
         11    1    4    4    0    0 -0.17370223962E-02  0.22583293333E-01 -0.19377113420E-01  0.29812011506E-01  0.51100000000E-03 0.  1.
</event>
<event>
 8    1  0.1116619E+005  0.1043930E+01  0.7957747E-01            NaN
         13   -1    0    0    0    0  0.00000000000E+00  0.00000000000E+00  0.74505805969E-08  0.10566000000E+00  0.10566000000E+00 0. -1.
     999900   -1    0    0    0    0 -0.00000000000E+00 -0.00000000000E+00 -0.74505805969E-08  0.93827000000E+00  0.93827000000E+00 0. -1.
     999902    2    1    2    0    0 -0.19760889764E-01 -0.47356541984E-02 -0.11960588135E-01  0.10203508810E+01  0.10200784016E+01 0.  0.
     999903    2    3    3    0    0  0.25271612862E-01  0.11605826100E+00  0.45477075625E-01  0.12910558284E+00  0.22179106151E-01 0.  0.
         14    1    1    2    0    0  0.19760889764E-01  0.47356541984E-02  0.11960588135E-01  0.23579119015E-01  0.00000000000E+00 0.  1.
     999901    1    3    3    0    0 -0.45032502627E-01 -0.12079391520E+00 -0.57437663760E-01  0.89124529814E+00  0.88000000000E+00 0. -1.
        -11    1    4    4    0    0  0.13391701913E-01  0.90609896862E-01  0.27030859777E-01  0.95500887906E-01  0.51100000000E-03 0.  1.
         11    1    4    4    0    0  0.11879910949E-01  0.25448364142E-01  0.18446215848E-01  0.33604694937E-01  0.51100000000E-03 0. -1.
</event>
<event>
 8    1  0.1116619E+005  0.1043930E+01  0.7957747E-01            NaN
         13   -1    0    0    0    0  0.00000000000E+00  0.00000000000E+00  0.74505805969E-08  0.10566000000E+00  0.10566000000E+00 0.  1.
     999900   -1    0    0    0    0 -0.00000000000E+00 -0.00000000000E+00 -0.74505805969E-08  0.93827000000E+00  0.93827000000E+00 0.  1.
     999902    2    1    2    0    0 -0.46203789394E-02  0.22821055643E-01 -0.54540703808E-02  0.10200156661E+01  0.10197352910E+01 0.  0.
     999903    2    3    3    0    0 -0.10345708776E+00  0.83251396114E-02  0.76381344213E-01  0.13059121081E+00  0.21148939412E-01 0.  0.
         14    1    1    2    0    0  0.46203789394E-02 -0.22821055643E-01  0.54540703808E-02  0.23914333900E-01  0.00000000000E+00 0. -1.
     999901    1    3    3    0    0  0.98836708822E-01  0.14495916031E-01 -0.81835414594E-01  0.88942445529E+00  0.88000000000E+00 0.  1.
        -11    1    4    4    0    0 -0.67978670625E-01  0.13361856601E-02  0.38148430645E-01  0.77964408122E-01  0.51100000000E-03 0.  1.
         11    1    4    4    0    0 -0.35478417137E-01  0.69889539513E-02  0.38232913568E-01  0.52626802684E-01  0.51100000000E-03 0. -1.
</event>
<event>
 8    1  0.1116619E+005  0.1043930E+01  0.7957747E-01            NaN
         13   -1    0    0    0    0  0.00000000000E+00  0.00000000000E+00  0.74505805969E-08  0.10566000000E+00  0.10566000000E+00 0.  1.
     999900   -1    0    0    0    0 -0.00000000000E+00 -0.00000000000E+00 -0.74505805969E-08  0.93827000000E+00  0.93827000000E+00 0.  1.
     999902    2    1    2    0    0  0.17545873707E-01  0.18547896539E-01 -0.67091464626E-02  0.10175312349E+01  0.10171887334E+01 0.  0.
     999903    2    3    3    0    0  0.74602502125E-01  0.72995658425E-01  0.75246799138E-01  0.13021122805E+00  0.19974575262E-01 0.  0.
         14    1    1    2    0    0 -0.17545873707E-01 -0.18547896539E-01  0.67091464626E-02  0.26398765055E-01  0.00000000000E+00 0.  1.
     999901    1    3    3    0    0 -0.57056628418E-01 -0.54447761886E-01 -0.81955945601E-01  0.88732000690E+00  0.88000000000E+00 0.  1.
        -11    1    4    4    0    0  0.52315515459E-01  0.42545019419E-01  0.56982703082E-01  0.88285227567E-01  0.51100000000E-03 0. -1.
         11    1    4    4    0    0  0.22286986667E-01  0.30450639005E-01  0.18264096057E-01  0.41926000480E-01  0.51100000000E-03 0.  1.
</event>
<event>
 8    1  0.1116619E+005  0.1043930E+01  0.7957747E-01            NaN
         13   -1    0    0    0    0  0.00000000000E+00  0.00000000000E+00  0.74505805969E-08  0.10566000000E+00  0.10566000000E+00 0.  1.
     999900   -1    0    0    0    0 -0.00000000000E+00 -0.00000000000E+00 -0.74505805969E-08  0.93827000000E+00  0.93827000000E+00 0.  1.
     999902    2    1    2    0    0 -0.80840760764E-02 -0.16186207502E-01 -0.18094792055E-01  0.10183415827E+01  0.10180200450E+01 0.  0.
     999903    2    3    3    0    0 -0.77779401357E-01 -0.95379363555E-01  0.37753866900E-01  0.13028298835E+00  0.20036075457E-01 0.  0.
         14    1    1    2    0    0  0.80840760764E-02  0.16186207502E-01  0.18094792055E-01  0.25588417278E-01  0.00000000000E+00 0.  1.
     999901    1    3    3    0    0  0.69695325281E-01  0.79193156052E-01 -0.55848658954E-01  0.88805859437E+00  0.88000000000E+00 0.  1.
        -11    1    4    4    0    0 -0.99728234198E-02 -0.85787735244E-02 -0.17194338911E-02  0.13276676393E-01  0.51100000000E-03 0. -1.
         11    1    4    4    0    0 -0.67806577938E-01 -0.86800590030E-01  0.39473300791E-01  0.11700631196E+00  0.51100000000E-03 0.  1.
</event>
<event>
 8    1  0.1116619E+005  0.1043930E+01  0.7957747E-01            NaN
         13   -1    0    0    0    0  0.00000000000E+00  0.00000000000E+00  0.74505805969E-08  0.10566000000E+00  0.10566000000E+00 0. -1.
     999900   -1    0    0    0    0 -0.00000000000E+00 -0.00000000000E+00 -0.74505805969E-08  0.93827000000E+00  0.93827000000E+00 0.  1.
     999902    2    1    2    0    0  0.16285265268E-01 -0.13465121536E-01 -0.10525375014E-01  0.10203227367E+01  0.10200495988E+01 0.  0.
     999903    2    3    3    0    0  0.27121018413E-01 -0.11698741123E+00 -0.51023620927E-01  0.13326333283E+00  0.27094316009E-01 0.  0.
         14    1    1    2    0    0 -0.16285265268E-01  0.13465121536E-01  0.10525375014E-01  0.23607263332E-01  0.00000000000E+00 0.  1.
     999901    1    3    3    0    0 -0.10835753144E-01  0.10352228969E+00  0.40498245913E-01  0.88705940383E+00  0.88000000000E+00 0. -1.
        -11    1    4    4    0    0 -0.53024874065E-02 -0.12513970623E-01 -0.38515568306E-02  0.14135467607E-01  0.51100000000E-03 0. -1.
         11    1    4    4    0    0  0.32423505819E-01 -0.10447344060E+00 -0.47172064097E-01  0.11912786523E+00  0.51100000000E-03 0.  1.
</event>
<event>
 8    1  0.1116619E+005  0.1043930E+01  0.7957747E-01            NaN
         13   -1    0    0    0    0  0.00000000000E+00  0.00000000000E+00  0.74505805969E-08  0.10566000000E+00  0.10566000000E+00 0.  1.
     999900   -1    0    0    0    0 -0.00000000000E+00 -0.00000000000E+00 -0.74505805969E-08  0.93827000000E+00  0.93827000000E+00 0. -1.
     999902    2    1    2    0    0  0.24813737780E-01  0.97355058817E-02  0.81191305780E-02  0.10160656511E+01  0.10156835065E+01 0.  0.
     999903    2    3    3    0    0 -0.75381745629E-02 -0.63204385951E-01 -0.10537058584E+00  0.12519709191E+00  0.22797653005E-01 0.  0.
         14    1    1    2    0    0 -0.24813737780E-01 -0.97355058817E-02 -0.81191305780E-02  0.27864348884E-01  0.00000000000E+00 0. -1.
     999901    1    3    3    0    0  0.32351912342E-01  0.72939891833E-01  0.11348971642E+00  0.89086855921E+00  0.88000000000E+00 0.  1.
        -11    1    4    4    0    0  0.28452336865E-02 -0.48810493046E-01 -0.85937225436E-01  0.98873795430E-01  0.51100000000E-03 0. -1.
         11    1    4    4    0    0 -0.10383408249E-01 -0.14393892905E-01 -0.19433360406E-01  0.26323296478E-01  0.51100000000E-03 0.  1.
</event>
<event>
 8    1  0.1116619E+005  0.1043930E+01  0.7957747E-01            NaN
         13   -1    0    0    0    0  0.00000000000E+00  0.00000000000E+00  0.74505805969E-08  0.10566000000E+00  0.10566000000E+00 0. -1.
     999900   -1    0    0    0    0 -0.00000000000E+00 -0.00000000000E+00 -0.74505805969E-08  0.93827000000E+00  0.93827000000E+00 0.  1.
     999902    2    1    2    0    0  0.13777771416E-01 -0.17702346428E-01 -0.77502790094E-02  0.10201967558E+01  0.10199206605E+01 0.  0.
     999903    2    3    3    0    0 -0.85023702625E-02  0.12245327936E+00  0.30133800728E-01  0.12802232913E+00  0.20361112028E-01 0.  0.
         14    1    1    2    0    0 -0.13777771416E-01  0.17702346428E-01  0.77502790094E-02  0.23733244173E-01  0.00000000000E+00 0. -1.
     999901    1    3    3    0    0  0.22280141679E-01 -0.14015562579E+00 -0.37884079737E-01  0.89217442670E+00  0.88000000000E+00 0.  1.
        -11    1    4    4    0    0 -0.20999495274E-02  0.76138961618E-01  0.89627620043E-02  0.76695133405E-01  0.51100000000E-03 0. -1.
         11    1    4    4    0    0 -0.64024207352E-02  0.46314317744E-01  0.21171038723E-01  0.51327195725E-01  0.51100000000E-03 0.  1.
</event>
<event>
 8    1  0.1116619E+005  0.1043930E+01  0.7957747E-01            NaN
         13   -1    0    0    0    0  0.00000000000E+00  0.00000000000E+00  0.74505805969E-08  0.10566000000E+00  0.10566000000E+00 0. -1.
     999900   -1    0    0    0    0 -0.00000000000E+00 -0.00000000000E+00 -0.74505805969E-08  0.93827000000E+00  0.93827000000E+00 0.  1.
     999902    2    1    2    0    0 -0.16874116301E-01  0.10616546444E-03  0.17084079161E-01  0.10199172360E+01  0.10196345206E+01 0.  0.
     999903    2    3    3    0    0 -0.11656941301E+00 -0.43053857602E-01  0.42529040167E-01  0.13287192389E+00  0.20103885094E-01 0.  0.
         14    1    1    2    0    0  0.16874116301E-01 -0.10616546444E-03 -0.17084079161E-01  0.24012763957E-01  0.00000000000E+00 0.  1.
     999901    1    3    3    0    0  0.99695296710E-01  0.43160023066E-01 -0.25444961005E-01  0.88704531216E+00  0.88000000000E+00 0.  1.
        -11    1    4    4    0    0 -0.42468511505E-01 -0.18186170913E-01  0.59863149362E-02  0.46587641811E-01  0.51100000000E-03 0.  1.
         11    1    4    4    0    0 -0.74100901506E-01 -0.24867686688E-01  0.36542725230E-01  0.86284282077E-01  0.51100000000E-03 0. -1.
</event>
<event>
 8    1  0.1116619E+005  0.1043930E+01  0.7957747E-01            NaN
         13   -1    0    0    0    0  0.00000000000E+00  0.00000000000E+00  0.74505805969E-08  0.10566000000E+00  0.10566000000E+00 0.  1.
     999900   -1    0    0    0    0 -0.00000000000E+00 -0.00000000000E+00 -0.74505805969E-08  0.93827000000E+00  0.93827000000E+00 0.  1.
     999902    2    1    2    0    0 -0.35894907782E-02 -0.10836340821E-01  0.22233049658E-01  0.10189376167E+01  0.10186310654E+01 0.  0.
     999903    2    3    3    0    0  0.92671703459E-01 -0.80289083328E-01 -0.34619852430E-01  0.12914991536E+00  0.21137287719E-01 0.  0.
         14    1    1    2    0    0  0.35894907782E-02  0.10836340821E-01 -0.22233049658E-01  0.24992383310E-01  0.00000000000E+00 0. -1.
     999901    1    3    3    0    0 -0.96261194238E-01  0.69452742507E-01  0.56852902088E-01  0.88978770133E+00  0.88000000000E+00 0. -1.
        -11    1    4    4    0    0  0.76605855918E-01 -0.64551633021E-01 -0.36395676668E-01  0.10658459967E+00  0.51100000000E-03 0. -1.
         11    1    4    4    0    0  0.16065847541E-01 -0.15737450307E-01  0.17758242373E-02  0.22565315688E-01  0.51100000000E-03 0.  1.
</event>
<event>
 8    1  0.1116619E+005  0.1043930E+01  0.7957747E-01            NaN
         13   -1    0    0    0    0  0.00000000000E+00  0.00000000000E+00  0.74505805969E-08  0.10566000000E+00  0.10566000000E+00 0. -1.
     999900   -1    0    0    0    0 -0.00000000000E+00 -0.00000000000E+00 -0.74505805969E-08  0.93827000000E+00  0.93827000000E+00 0. -1.
     999902    2    1    2    0    0  0.19913708994E-01 -0.74705627021E-02 -0.79024285119E-02  0.10212404983E+01  0.10209884141E+01 0.  0.
     999903    2    3    3    0    0  0.71153345641E-01  0.10575380986E+00  0.26473328863E-01  0.13184353874E+00  0.20861799308E-01 0.  0.
         14    1    1    2    0    0 -0.19913708994E-01  0.74705627021E-02  0.79024285119E-02  0.22689501743E-01  0.00000000000E+00 0. -1.
     999901    1    3    3    0    0 -0.51239636647E-01 -0.11322437256E+00 -0.34375757375E-01  0.88939695952E+00  0.88000000000E+00 0.  1.
        -11    1    4    4    0    0  0.38580373941E-01  0.69330282440E-01  0.24085844627E-01  0.82918769582E-01  0.51100000000E-03 0.  1.
         11    1    4    4    0    0  0.32572971699E-01  0.36423527420E-01  0.23874842362E-02  0.48924769156E-01  0.51100000000E-03 0. -1.
</event>
<event>
 8    1  0.1116619E+005  0.1043930E+01  0.7957747E-01            NaN
         13   -1    0    0    0    0  0.00000000000E+00  0.00000000000E+00  0.74505805969E-08  0.10566000000E+00  0.10566000000E+00 0.  1.
     999900   -1    0    0    0    0 -0.00000000000E+00 -0.00000000000E+00 -0.74505805969E-08  0.93827000000E+00  0.93827000000E+00 0. -1.
     999902    2    1    2    0    0  0.15754444964E-01 -0.17856999192E-01  0.30521082978E-02  0.10199218697E+01  0.10196392646E+01 0.  0.
     999903    2    3    3    0    0  0.36878893518E-01 -0.67329421970E-01  0.10563479551E+00  0.13233132745E+00  0.21437498731E-01 0.  0.
         14    1    1    2    0    0 -0.15754444964E-01  0.17856999192E-01 -0.30521082978E-02  0.24008130317E-01  0.00000000000E+00 0. -1.
     999901    1    3    3    0    0 -0.21124448554E-01  0.49472422778E-01 -0.10258268722E+00  0.88759054223E+00  0.88000000000E+00 0. -1.
        -11    1    4    4    0    0  0.34760431683E-01 -0.43829143345E-01  0.78052742122E-01  0.96030063474E-01  0.51100000000E-03 0. -1.
         11    1    4    4    0    0  0.21184618350E-02 -0.23500278626E-01  0.27582053392E-01  0.36301263977E-01  0.51100000000E-03 0.  1.
</event>
<event>
 8    1  0.1116619E+005  0.1043930E+01  0.7957747E-01            NaN
         13   -1    0    0    0    0  0.00000000000E+00  0.00000000000E+00  0.74505805969E-08  0.10566000000E+00  0.10566000000E+00 0.  1.
     999900   -1    0    0    0    0 -0.00000000000E+00 -0.00000000000E+00 -0.74505805969E-08  0.93827000000E+00  0.93827000000E+00 0. -1.
     999902    2    1    2    0    0 -0.42418853136E-02  0.10097589682E-01  0.26536269763E-01  0.10152223613E+01  0.10148163944E+01 0.  0.
     999903    2    3    3    0    0  0.99192171962E-02  0.99045493035E-01 -0.73059517145E-01  0.12503609587E+00  0.19695980946E-01 0.  0.
         14    1    1    2    0    0  0.42418853136E-02 -0.10097589682E-01 -0.26536269763E-01  0.28707638728E-01  0.00000000000E+00 0. -1.
     999901    1    3    3    0    0 -0.14161102510E-01 -0.88947903353E-01  0.99595786908E-01  0.89018626540E+00  0.88000000000E+00 0.  1.
        -11    1    4    4    0    0  0.15937004360E-01  0.69406844712E-01 -0.50547663997E-01  0.87330553974E-01  0.51100000000E-03 0.  1.
         11    1    4    4    0    0 -0.60177871638E-02  0.29638648322E-01 -0.22511853148E-01  0.37705541899E-01  0.51100000000E-03 0. -1.
</event>
<event>
 8    1  0.1116619E+005  0.1043930E+01  0.7957747E-01            NaN
         13   -1    0    0    0    0  0.00000000000E+00  0.00000000000E+00  0.74505805969E-08  0.10566000000E+00  0.10566000000E+00 0. -1.
     999900   -1    0    0    0    0 -0.00000000000E+00 -0.00000000000E+00 -0.74505805969E-08  0.93827000000E+00  0.93827000000E+00 0.  1.
     999902    2    1    2    0    0  0.10541143026E-01  0.91952050656E-02  0.19463960045E-01  0.10199609943E+01  0.10196793205E+01 0.  0.
     999903    2    3    3    0    0  0.25594116059E-01 -0.78517730141E-01 -0.95805708398E-01  0.12799280685E+00  0.19578869243E-01 0.  0.
         14    1    1    2    0    0 -0.10541143026E-01 -0.91952050656E-02 -0.19463960045E-01  0.23969005676E-01  0.00000000000E+00 0.  1.
     999901    1    3    3    0    0 -0.15052973033E-01  0.87712935206E-01  0.11526966844E+00  0.89196818747E+00  0.88000000000E+00 0. -1.
        -11    1    4    4    0    0  0.66625779180E-02 -0.45026424315E-01 -0.60989178285E-01  0.76103283897E-01  0.51100000000E-03 0. -1.
         11    1    4    4    0    0  0.18931538141E-01 -0.33491305826E-01 -0.34816530113E-01  0.51889522954E-01  0.51100000000E-03 0.  1.
</event>
<event>
 8    1  0.1116619E+005  0.1043930E+01  0.7957747E-01            NaN
         13   -1    0    0    0    0  0.00000000000E+00  0.00000000000E+00  0.74505805969E-08  0.10566000000E+00  0.10566000000E+00 0. -1.
     999900   -1    0    0    0    0 -0.00000000000E+00 -0.00000000000E+00 -0.74505805969E-08  0.93827000000E+00  0.93827000000E+00 0.  1.
     999902    2    1    2    0    0  0.10179382491E-01 -0.18496338663E-01 -0.11310495448E-01  0.10199787646E+01  0.10196975132E+01 0.  0.
     999903    2    3    3    0    0 -0.11680795785E+00 -0.44932885266E-01 -0.29913622708E-01  0.13027614461E+00  0.20346641880E-01 0.  0.
         14    1    1    2    0    0 -0.10179382491E-01  0.18496338663E-01  0.11310495448E-01  0.23951235440E-01  0.00000000000E+00 0. -1.
     999901    1    3    3    0    0  0.12698734034E+00  0.26436546603E-01  0.18603127260E-01  0.88970261995E+00  0.88000000000E+00 0. -1.
        -11    1    4    4    0    0 -0.61373015505E-01 -0.33557252351E-01 -0.20618859175E-01  0.72925542111E-01  0.51100000000E-03 0. -1.
         11    1    4    4    0    0 -0.55434942342E-01 -0.11375632916E-01 -0.92947635329E-02  0.57350602498E-01  0.51100000000E-03 0.  1.
</event>
<event>
 8    1  0.1116619E+005  0.1043930E+01  0.7957747E-01            NaN
         13   -1    0    0    0    0  0.00000000000E+00  0.00000000000E+00  0.74505805969E-08  0.10566000000E+00  0.10566000000E+00 0. -1.
     999900   -1    0    0    0    0 -0.00000000000E+00 -0.00000000000E+00 -0.74505805969E-08  0.93827000000E+00  0.93827000000E+00 0. -1.
     999902    2    1    2    0    0  0.34097646554E-02  0.29022630576E-02  0.23267073365E-01  0.10202359854E+01  0.10199608127E+01 0.  0.
     999903    2    3    3    0    0 -0.30282296990E-01  0.68691462551E-01 -0.10217478058E+00  0.12827240288E+00  0.19457364062E-01 0.  0.
         14    1    1    2    0    0 -0.34097646554E-02 -0.29022630576E-02 -0.23267073365E-01  0.23694014621E-01  0.00000000000E+00 0.  1.
     999901    1    3    3    0    0  0.33692061645E-01 -0.65789199494E-01  0.12544185394E+00  0.89196358250E+00  0.88000000000E+00 0.  1.
        -11    1    4    4    0    0 -0.14790968128E-01  0.27905661293E-01 -0.58811305148E-01  0.66757242338E-01  0.51100000000E-03 0. -1.
         11    1    4    4    0    0 -0.15491328861E-01  0.40785801259E-01 -0.43363475427E-01  0.61515160541E-01  0.51100000000E-03 0.  1.
</event>
<event>
 8    1  0.1116619E+005  0.1043930E+01  0.7957747E-01            NaN
         13   -1    0    0    0    0  0.00000000000E+00  0.00000000000E+00  0.74505805969E-08  0.10566000000E+00  0.10566000000E+00 0.  1.
     999900   -1    0    0    0    0 -0.00000000000E+00 -0.00000000000E+00 -0.74505805969E-08  0.93827000000E+00  0.93827000000E+00 0.  1.
     999902    2    1    2    0    0 -0.16319583335E-01 -0.45480666079E-02 -0.12207119030E-01  0.10230487293E+01  0.10228356051E+01 0.  0.
     999903    2    3    3    0    0  0.10389218956E-01  0.12818086824E+00  0.23908667385E-01  0.13196249315E+00  0.17441455484E-01 0.  0.
         14    1    1    2    0    0  0.16319583335E-01  0.45480666079E-02  0.12207119030E-01  0.20881270678E-01  0.00000000000E+00 0.  1.
     999901    1    3    3    0    0 -0.26708802291E-01 -0.13272893485E+00 -0.36115786415E-01  0.89108623617E+00  0.88000000000E+00 0. -1.
        -11    1    4    4    0    0  0.10376297374E-01  0.68584554986E-01  0.54948926764E-02  0.69584220168E-01  0.51100000000E-03 0.  1.
         11    1    4    4    0    0  0.12921581681E-04  0.59596313253E-01  0.18413774709E-01  0.62378272983E-01  0.51100000000E-03 0. -1.
</event>
<event>
 8    1  0.1116619E+005  0.1043930E+01  0.7957747E-01            NaN
         13   -1    0    0    0    0  0.00000000000E+00  0.00000000000E+00  0.74505805969E-08  0.10566000000E+00  0.10566000000E+00 0.  1.
     999900   -1    0    0    0    0 -0.00000000000E+00 -0.00000000000E+00 -0.74505805969E-08  0.93827000000E+00  0.93827000000E+00 0.  1.
     999902    2    1    2    0    0  0.15012194829E-01 -0.18620199334E-01 -0.17441408450E-02  0.10199483436E+01  0.10196663688E+01 0.  0.
     999903    2    3    3    0    0  0.48729415131E-01  0.72274708082E-02 -0.11985907740E+00  0.13104109802E+00  0.19462237794E-01 0.  0.
         14    1    1    2    0    0 -0.15012194829E-01  0.18620199334E-01  0.17441408450E-02  0.23981656409E-01  0.00000000000E+00 0. -1.
     999901    1    3    3    0    0 -0.33717220302E-01 -0.25847670143E-01  0.11811493656E+00  0.88890724557E+00  0.88000000000E+00 0. -1.
        -11    1    4    4    0    0  0.39782714482E-01  0.99912809568E-02 -0.77832614903E-01  0.87981061203E-01  0.51100000000E-03 0. -1.
         11    1    4    4    0    0  0.89467006480E-02 -0.27638101486E-02 -0.42026462501E-01  0.43060036814E-01  0.51100000000E-03 0.  1.
</event>
<event>
 8    1  0.1116619E+005  0.1043930E+01  0.7957747E-01            NaN
         13   -1    0    0    0    0  0.00000000000E+00  0.00000000000E+00  0.74505805969E-08  0.10566000000E+00  0.10566000000E+00 0.  1.
     999900   -1    0    0    0    0 -0.00000000000E+00 -0.00000000000E+00 -0.74505805969E-08  0.93827000000E+00  0.93827000000E+00 0. -1.
     999902    2    1    2    0    0  0.23377611237E-01 -0.30886917915E-02 -0.26150392068E-02  0.10202046727E+01  0.10199287637E+01 0.  0.
     999903    2    3    3    0    0  0.63026866758E-01  0.89556059178E-02 -0.11397650693E+00  0.13221902810E+00  0.20943697104E-01 0.  0.
         14    1    1    2    0    0 -0.23377611237E-01  0.30886917915E-02  0.26150392068E-02  0.23725327272E-01  0.00000000000E+00 0.  1.
     999901    1    3    3    0    0 -0.39649255521E-01 -0.12044297709E-01  0.11136146773E+00  0.88798564463E+00  0.88000000000E+00 0. -1.
        -11    1    4    4    0    0  0.34887512975E-01 -0.15330719612E-03 -0.43348323050E-01  0.55646206492E-01  0.51100000000E-03 0.  1.
         11    1    4    4    0    0  0.28139353783E-01  0.91089131139E-02 -0.70628183883E-01  0.76572821608E-01  0.51100000000E-03 0. -1.
</event>
<event>
 8    1  0.1116619E+005  0.1043930E+01  0.7957747E-01            NaN
         13   -1    0    0    0    0  0.00000000000E+00  0.00000000000E+00  0.74505805969E-08  0.10566000000E+00  0.10566000000E+00 0.  1.
     999900   -1    0    0    0    0 -0.00000000000E+00 -0.00000000000E+00 -0.74505805969E-08  0.93827000000E+00  0.93827000000E+00 0. -1.
     999902    2    1    2    0    0  0.12070519811E-01 -0.13032065072E-01 -0.15475387941E-01  0.10203711418E+01  0.10200991360E+01 0.  0.
     999903    2    3    3    0    0  0.29298629646E-01 -0.12213574161E+00  0.35250787662E-01  0.13201672777E+00  0.20254611914E-01 0.  0.
         14    1    1    2    0    0 -0.12070519811E-01  0.13032065072E-01  0.15475387941E-01  0.23558858217E-01  0.00000000000E+00 0. -1.
     999901    1    3    3    0    0 -0.17228109835E-01  0.10910367653E+00 -0.50726175604E-01  0.88835441401E+00  0.88000000000E+00 0. -1.
        -11    1    4    4    0    0  0.20702223084E-01 -0.96615633505E-01  0.35749218986E-01  0.10507821114E+00  0.51100000000E-03 0. -1.
         11    1    4    4    0    0  0.85964065627E-02 -0.25520108102E-01 -0.49843132327E-03  0.26938516628E-01  0.51100000000E-03 0.  1.
</event>
<event>
 8    1  0.1116619E+005  0.1043930E+01  0.7957747E-01            NaN
         13   -1    0    0    0    0  0.00000000000E+00  0.00000000000E+00  0.74505805969E-08  0.10566000000E+00  0.10566000000E+00 0. -1.
     999900   -1    0    0    0    0 -0.00000000000E+00 -0.00000000000E+00 -0.74505805969E-08  0.93827000000E+00  0.93827000000E+00 0.  1.
     999902    2    1    2    0    0  0.75009460234E-02  0.95791029658E-03  0.22476556012E-01  0.10202155033E+01  0.10199398491E+01 0.  0.
     999903    2    3    3    0    0  0.75607083749E-01 -0.93087775341E-01  0.51707194021E-01  0.13210657576E+00  0.19918544497E-01 0.  0.
         14    1    1    2    0    0 -0.75009460234E-02 -0.95791029658E-03 -0.22476556012E-01  0.23714496696E-01  0.00000000000E+00 0.  1.
     999901    1    3    3    0    0 -0.68106137725E-01  0.94045685638E-01 -0.29230638010E-01  0.88810892754E+00  0.88000000000E+00 0.  1.
        -11    1    4    4    0    0  0.30303779165E-01 -0.35689725269E-01  0.98413765149E-02  0.47845473497E-01  0.51100000000E-03 0. -1.
         11    1    4    4    0    0  0.45303304584E-01 -0.57398050072E-01  0.41865817507E-01  0.84261102264E-01  0.51100000000E-03 0.  1.
</event>
<event>
 8    1  0.1116619E+005  0.1043930E+01  0.7957747E-01            NaN
         13   -1    0    0    0    0  0.00000000000E+00  0.00000000000E+00  0.74505805969E-08  0.10566000000E+00  0.10566000000E+00 0. -1.
     999900   -1    0    0    0    0 -0.00000000000E+00 -0.00000000000E+00 -0.74505805969E-08  0.93827000000E+00  0.93827000000E+00 0. -1.
     999902    2    1    2    0    0  0.15053107147E-01  0.13482865470E-01 -0.15499485041E-01  0.10184620254E+01  0.10181435456E+01 0.  0.
     999903    2    3    3    0    0  0.38456933350E-01 -0.41728238865E-01 -0.11601204965E+00  0.13071274725E+00  0.20170398811E-01 0.  0.
         14    1    1    2    0    0 -0.15053107147E-01 -0.13482865470E-01  0.15499485041E-01  0.25467974647E-01  0.00000000000E+00 0. -1.
     999901    1    3    3    0    0 -0.23403826203E-01  0.55211104335E-01  0.10051256461E+00  0.88774927810E+00  0.88000000000E+00 0.  1.
        -11    1    4    4    0    0 -0.81505163668E-03 -0.80679747264E-02 -0.11256698029E-01  0.13882755378E-01  0.51100000000E-03 0.  1.
         11    1    4    4    0    0  0.39271984987E-01 -0.33660264138E-01 -0.10475535162E+00  0.11682999188E+00  0.51100000000E-03 0. -1.
</event>
<event>
 8    1  0.1116619E+005  0.1043930E+01  0.7957747E-01            NaN
         13   -1    0    0    0    0  0.00000000000E+00  0.00000000000E+00  0.74505805969E-08  0.10566000000E+00  0.10566000000E+00 0.  1.
     999900   -1    0    0    0    0 -0.00000000000E+00 -0.00000000000E+00 -0.74505805969E-08  0.93827000000E+00  0.93827000000E+00 0.  1.
     999902    2    1    2    0    0  0.21388825565E-01  0.39992609379E-02 -0.54065766016E-02  0.10215088712E+01  0.10212627805E+01 0.  0.
     999903    2    3    3    0    0  0.23254219290E-01 -0.11855478148E+00  0.50114923971E-01  0.13128102954E+00  0.11278660619E-01 0.  0.
         14    1    1    2    0    0 -0.21388825565E-01 -0.39992609379E-02  0.54065766016E-02  0.22421128822E-01  0.00000000000E+00 0.  1.
     999901    1    3    3    0    0 -0.18653937253E-02  0.12255404242E+00 -0.55521500573E-01  0.89022784164E+00  0.88000000000E+00 0.  1.
        -11    1    4    4    0    0 -0.10935063449E-02 -0.89022727676E-02  0.29423520602E-02  0.94532943042E-02  0.51100000000E-03 0. -1.
         11    1    4    4    0    0  0.24347725635E-01 -0.10965250871E+00  0.47172571911E-01  0.12182773523E+00  0.51100000000E-03 0.  1.
</event>
<event>
 8    1  0.1116619E+005  0.1043930E+01  0.7957747E-01            NaN
         13   -1    0    0    0    0  0.00000000000E+00  0.00000000000E+00  0.74505805969E-08  0.10566000000E+00  0.10566000000E+00 0.  1.
     999900   -1    0    0    0    0 -0.00000000000E+00 -0.00000000000E+00 -0.74505805969E-08  0.93827000000E+00  0.93827000000E+00 0.  1.
     999902    2    1    2    0    0  0.20445498385E-01 -0.10250724804E-01 -0.60459118334E-02  0.10202731022E+01  0.10199988011E+01 0.  0.
     999903    2    3    3    0    0  0.78299600808E-01 -0.25043052972E-01 -0.10266750759E+00  0.13297290334E+00  0.19575339608E-01 0.  0.
         14    1    1    2    0    0 -0.20445498385E-01  0.10250724804E-01  0.60459118334E-02  0.23656897791E-01  0.00000000000E+00 0.  1.
     999901    1    3    3    0    0 -0.57854102423E-01  0.14792328168E-01  0.96621595754E-01  0.88730019886E+00  0.88000000000E+00 0. -1.
        -11    1    4    4    0    0  0.61509131371E-01 -0.22087670768E-01 -0.67882378525E-01  0.94231188452E-01  0.51100000000E-03 0. -1.
         11    1    4    4    0    0  0.16790469437E-01 -0.29553822049E-02 -0.34785129062E-01  0.38741714891E-01  0.51100000000E-03 0.  1.
</event>
<event>
 8    1  0.1116619E+005  0.1043930E+01  0.7957747E-01            NaN
         13   -1    0    0    0    0  0.00000000000E+00  0.00000000000E+00  0.74505805969E-08  0.10566000000E+00  0.10566000000E+00 0. -1.
     999900   -1    0    0    0    0 -0.00000000000E+00 -0.00000000000E+00 -0.74505805969E-08  0.93827000000E+00  0.93827000000E+00 0. -1.
     999902    2    1    2    0    0  0.14564592563E-01 -0.16859249157E-01 -0.33015454483E-02  0.10214075259E+01  0.10211591806E+01 0.  0.
     999903    2    3    3    0    0 -0.59574151896E-01  0.53260059366E-01  0.99292759780E-01  0.12958979655E+00  0.23425407736E-01 0.  0.
         14    1    1    2    0    0 -0.14564592563E-01  0.16859249157E-01  0.33015454483E-02  0.22522474132E-01  0.00000000000E+00 0. -1.
     999901    1    3    3    0    0  0.74138744459E-01 -0.70119308524E-01 -0.10259430523E+00  0.89181772932E+00  0.88000000000E+00 0. -1.
        -11    1    4    4    0    0 -0.31388116701E-01  0.33489277731E-01  0.39344092727E-01  0.60456301132E-01  0.51100000000E-03 0.  1.
         11    1    4    4    0    0 -0.28186035195E-01  0.19770781635E-01  0.59948667054E-01  0.69133495420E-01  0.51100000000E-03 0. -1.
</event>
<event>
 8    1  0.1116619E+005  0.1043930E+01  0.7957747E-01            NaN
         13   -1    0    0    0    0  0.00000000000E+00  0.00000000000E+00  0.74505805969E-08  0.10566000000E+00  0.10566000000E+00 0. -1.
     999900   -1    0    0    0    0 -0.00000000000E+00 -0.00000000000E+00 -0.74505805969E-08  0.93827000000E+00  0.93827000000E+00 0. -1.
     999902    2    1    2    0    0 -0.33044258570E-02  0.20705927227E-01 -0.10668339819E-01  0.10204040967E+01  0.10201328602E+01 0.  0.
     999903    2    3    3    0    0 -0.10420056683E+00 -0.37933105551E-01 -0.66662318390E-01  0.13093577624E+00  0.20090649130E-01 0.  0.
         14    1    1    2    0    0  0.33044258570E-02 -0.20705927227E-01  0.10668339819E-01  0.23525903321E-01  0.00000000000E+00 0. -1.
     999901    1    3    3    0    0  0.10089614097E+00  0.58639032778E-01  0.55993978571E-01  0.88946832044E+00  0.88000000000E+00 0.  1.
        -11    1    4    4    0    0 -0.97972550771E-01 -0.29733635959E-01 -0.60594015382E-01  0.11897312988E+00  0.51100000000E-03 0.  1.
         11    1    4    4    0    0 -0.62280160577E-02 -0.81994695912E-02 -0.60683030081E-02  0.11962646362E-01  0.51100000000E-03 0. -1.
</event>
<event>
 8    1  0.1116619E+005  0.1043930E+01  0.7957747E-01            NaN
         13   -1    0    0    0    0  0.00000000000E+00  0.00000000000E+00  0.74505805969E-08  0.10566000000E+00  0.10566000000E+00 0. -1.
     999900   -1    0    0    0    0 -0.00000000000E+00 -0.00000000000E+00 -0.74505805969E-08  0.93827000000E+00  0.93827000000E+00 0.  1.
     999902    2    1    2    0    0 -0.22655056203E-01 -0.57980274171E-02 -0.39620825057E-02  0.10202115095E+01  0.10199357614E+01 0.  0.
     999903    2    3    3    0    0  0.42691773546E-01 -0.97515680844E-01 -0.72550804667E-01  0.13038751066E+00  0.20134252918E-01 0.  0.
         14    1    1    2    0    0  0.22655056203E-01  0.57980274171E-02  0.39620825057E-02  0.23718490493E-01  0.00000000000E+00 0. -1.
     999901    1    3    3    0    0 -0.65346829749E-01  0.91717653427E-01  0.68588722161E-01  0.88982399884E+00  0.88000000000E+00 0. -1.
        -11    1    4    4    0    0  0.14386737510E-01 -0.15781577288E-01 -0.19458595341E-01  0.28895232332E-01  0.51100000000E-03 0. -1.
         11    1    4    4    0    0  0.28305036037E-01 -0.81734103556E-01 -0.53092209326E-01  0.10149227833E+00  0.51100000000E-03 0.  1.
</event>
<event>
 8    1  0.1116619E+005  0.1043930E+01  0.7957747E-01            NaN
         13   -1    0    0    0    0  0.00000000000E+00  0.00000000000E+00  0.74505805969E-08  0.10566000000E+00  0.10566000000E+00 0. -1.
     999900   -1    0    0    0    0 -0.00000000000E+00 -0.00000000000E+00 -0.74505805969E-08  0.93827000000E+00  0.93827000000E+00 0. -1.
     999902    2    1    2    0    0  0.20105873780E-01  0.69317439206E-02 -0.98723160247E-02  0.10204830843E+01  0.10202136871E+01 0.  0.
     999903    2    3    3    0    0 -0.55000109229E-01  0.11510625024E+00 -0.40927013171E-04  0.13062956333E+00  0.28100182910E-01 0.  0.
         14    1    1    2    0    0 -0.20105873780E-01 -0.69317439206E-02  0.98723160247E-02  0.23446915744E-01  0.00000000000E+00 0. -1.
     999901    1    3    3    0    0  0.75105983009E-01 -0.10817450632E+00 -0.98313890115E-02  0.88985352093E+00  0.88000000000E+00 0. -1.
        -11    1    4    4    0    0 -0.13586888245E-01  0.43526639289E-01  0.11762670037E-01  0.47093453763E-01  0.51100000000E-03 0. -1.
         11    1    4    4    0    0 -0.41413220983E-01  0.71579610954E-01 -0.11803597050E-01  0.83536109562E-01  0.51100000000E-03 0.  1.
</event>
<event>
 8    1  0.1116619E+005  0.1043930E+01  0.7957747E-01            NaN
         13   -1    0    0    0    0  0.00000000000E+00  0.00000000000E+00  0.74505805969E-08  0.10566000000E+00  0.10566000000E+00 0. -1.
     999900   -1    0    0    0    0 -0.00000000000E+00 -0.00000000000E+00 -0.74505805969E-08  0.93827000000E+00  0.93827000000E+00 0.  1.
     999902    2    1    2    0    0  0.79311504062E-02 -0.17062912318E-01  0.81441890686E-02  0.10234269773E+01  0.10232215811E+01 0.  0.
     999903    2    3    3    0    0 -0.11067365243E+00 -0.39237575200E-01 -0.56934422696E-01  0.13281255983E+00  0.24686087379E-01 0.  0.
         14    1    1    2    0    0 -0.79311504062E-02  0.17062912318E-01 -0.81441890686E-02  0.20503022683E-01  0.00000000000E+00 0.  1.
     999901    1    3    3    0    0  0.11860480284E+00  0.22174662882E-01  0.65078611764E-01  0.89061441749E+00  0.88000000000E+00 0. -1.
        -11    1    4    4    0    0 -0.47708845983E-01 -0.16236036110E-01 -0.38103618634E-01  0.63181403336E-01  0.51100000000E-03 0.  1.
         11    1    4    4    0    0 -0.62964806450E-01 -0.23001539090E-01 -0.18830804062E-01  0.69631156492E-01  0.51100000000E-03 0. -1.
</event>
<event>
 8    1  0.1116619E+005  0.1043930E+01  0.7957747E-01            NaN
         13   -1    0    0    0    0  0.00000000000E+00  0.00000000000E+00  0.74505805969E-08  0.10566000000E+00  0.10566000000E+00 0.  1.
     999900   -1    0    0    0    0 -0.00000000000E+00 -0.00000000000E+00 -0.74505805969E-08  0.93827000000E+00  0.93827000000E+00 0. -1.
     999902    2    1    2    0    0 -0.16013428902E-02  0.22006805838E-01 -0.88162646618E-02  0.10201688905E+01  0.10198921388E+01 0.  0.
     999903    2    3    3    0    0 -0.96182348865E-01 -0.79169197619E-01 -0.26111563499E-01  0.12916873464E+00  0.21998685793E-01 0.  0.
         14    1    1    2    0    0  0.16013428902E-02 -0.22006805838E-01  0.88162646618E-02  0.23761109503E-01  0.00000000000E+00 0.  1.
     999901    1    3    3    0    0  0.94581005975E-01  0.10117600346E+00  0.17295298837E-01  0.89100015585E+00  0.88000000000E+00 0. -1.
        -11    1    4    4    0    0 -0.14993116049E-01 -0.21100619669E-01 -0.11330995048E-01  0.28260966881E-01  0.51100000000E-03 0. -1.
         11    1    4    4    0    0 -0.81189232816E-01 -0.58068577951E-01 -0.14780568450E-01  0.10090776776E+00  0.51100000000E-03 0.  1.
</event>
<event>
 8    1  0.1116619E+005  0.1043930E+01  0.7957747E-01            NaN
         13   -1    0    0    0    0  0.00000000000E+00  0.00000000000E+00  0.74505805969E-08  0.10566000000E+00  0.10566000000E+00 0. -1.
     999900   -1    0    0    0    0 -0.00000000000E+00 -0.00000000000E+00 -0.74505805969E-08  0.93827000000E+00  0.93827000000E+00 0. -1.
     999902    2    1    2    0    0 -0.20895050800E-01 -0.95575888267E-02  0.33760367536E-02  0.10207061270E+01  0.10204418893E+01 0.  0.
     999903    2    3    3    0    0 -0.59406504886E-01 -0.11734604193E+00 -0.20292059980E-02  0.13327686259E+00  0.21433106298E-01 0.  0.
         14    1    1    2    0    0  0.20895050800E-01  0.95575888267E-02 -0.33760367536E-02  0.23223872982E-01  0.00000000000E+00 0.  1.
     999901    1    3    3    0    0  0.38511454086E-01  0.10778845310E+00  0.54052427516E-02  0.88742926443E+00  0.88000000000E+00 0. -1.
        -11    1    4    4    0    0 -0.39285634722E-01 -0.56357674467E-01 -0.57805731917E-02  0.68943634327E-01  0.51100000000E-03 0. -1.
         11    1    4    4    0    0 -0.20120870164E-01 -0.60988367461E-01  0.37513671938E-02  0.64333228261E-01  0.51100000000E-03 0.  1.
</event>
<event>
 8    1  0.1116619E+005  0.1043930E+01  0.7957747E-01            NaN
         13   -1    0    0    0    0  0.00000000000E+00  0.00000000000E+00  0.74505805969E-08  0.10566000000E+00  0.10566000000E+00 0. -1.
     999900   -1    0    0    0    0 -0.00000000000E+00 -0.00000000000E+00 -0.74505805969E-08  0.93827000000E+00  0.93827000000E+00 0.  1.
     999902    2    1    2    0    0 -0.27486746984E-02  0.22556371530E-01  0.85665274652E-02  0.10196456326E+01  0.10193564075E+01 0.  0.
     999903    2    3    3    0    0  0.89556111934E-01 -0.88298218906E-01  0.14884037437E-01  0.12787838446E+00  0.17733414614E-01 0.  0.
         14    1    1    2    0    0  0.27486746984E-02 -0.22556371530E-01 -0.85665274652E-02  0.24284367441E-01  0.00000000000E+00 0.  1.
     999901    1    3    3    0    0 -0.92304786633E-01  0.11085459044E+00 -0.63175099720E-02  0.89176724810E+00  0.88000000000E+00 0.  1.
        -11    1    4    4    0    0  0.26426822222E-01 -0.33883830909E-01  0.11398771631E-01  0.44459915041E-01  0.51100000000E-03 0. -1.
         11    1    4    4    0    0  0.63129289713E-01 -0.54414387998E-01  0.34852658061E-02  0.83418469415E-01  0.51100000000E-03 0.  1.
</event>
<event>
 8    1  0.1116619E+005  0.1043930E+01  0.7957747E-01            NaN
         13   -1    0    0    0    0  0.00000000000E+00  0.00000000000E+00  0.74505805969E-08  0.10566000000E+00  0.10566000000E+00 0. -1.
     999900   -1    0    0    0    0 -0.00000000000E+00 -0.00000000000E+00 -0.74505805969E-08  0.93827000000E+00  0.93827000000E+00 0. -1.
     999902    2    1    2    0    0  0.19807001387E-01 -0.14701922691E-02 -0.11882035524E-01  0.10207856370E+01  0.10205232262E+01 0.  0.
     999903    2    3    3    0    0  0.31088453189E-01 -0.62710037868E-01  0.10822659752E+00  0.13044655916E+00  0.20106407341E-01 0.  0.
         14    1    1    2    0    0 -0.19807001387E-01  0.14701922691E-02  0.11882035524E-01  0.23144362973E-01  0.00000000000E+00 0. -1.
     999901    1    3    3    0    0 -0.11281451803E-01  0.61239845599E-01 -0.12010863304E+00  0.89033907787E+00  0.88000000000E+00 0. -1.
        -11    1    4    4    0    0  0.29440185754E-01 -0.39143417259E-01  0.68228482033E-01  0.83989990674E-01  0.51100000000E-03 0.  1.
         11    1    4    4    0    0  0.16482674359E-02 -0.23566620609E-01  0.39998115483E-01  0.46456568487E-01  0.51100000000E-03 0. -1.
</event>
<event>
 8    1  0.1116619E+005  0.1043930E+01  0.7957747E-01            NaN
         13   -1    0    0    0    0  0.00000000000E+00  0.00000000000E+00  0.74505805969E-08  0.10566000000E+00  0.10566000000E+00 0. -1.
     999900   -1    0    0    0    0 -0.00000000000E+00 -0.00000000000E+00 -0.74505805969E-08  0.93827000000E+00  0.93827000000E+00 0. -1.
     999902    2    1    2    0    0 -0.19499591774E-01 -0.12642360126E-01 -0.68807468710E-02  0.10196934981E+01  0.10194054257E+01 0.  0.
     999903    2    3    3    0    0  0.54151279863E-01  0.54262940754E-01 -0.10174270388E+00  0.12901984230E+00  0.20438054288E-01 0.  0.
         14    1    1    2    0    0  0.19499591774E-01  0.12642360126E-01  0.68807468710E-02  0.24236501943E-01  0.00000000000E+00 0. -1.
     999901    1    3    3    0    0 -0.73650871637E-01 -0.66905300880E-01  0.94861957010E-01  0.89067365576E+00  0.88000000000E+00 0.  1.
        -11    1    4    4    0    0  0.17371086274E-01  0.67870723632E-02 -0.17650989320E-01  0.25683409715E-01  0.51100000000E-03 0. -1.
         11    1    4    4    0    0  0.36780193590E-01  0.47475868390E-01 -0.84091714561E-01  0.10333643258E+00  0.51100000000E-03 0.  1.
</event>
<event>
 8    1  0.1116619E+005  0.1043930E+01  0.7957747E-01            NaN
         13   -1    0    0    0    0  0.00000000000E+00  0.00000000000E+00  0.74505805969E-08  0.10566000000E+00  0.10566000000E+00 0. -1.
     999900   -1    0    0    0    0 -0.00000000000E+00 -0.00000000000E+00 -0.74505805969E-08  0.93827000000E+00  0.93827000000E+00 0. -1.
     999902    2    1    2    0    0 -0.17907892023E-01  0.42696200617E-02  0.13740010504E-01  0.10209580575E+01  0.10206995861E+01 0.  0.
     999903    2    3    3    0    0 -0.62799086380E-01 -0.11166318203E+00 -0.21398297585E-01  0.13152546614E+00  0.20704338485E-01 0.  0.
         14    1    1    2    0    0  0.17907892023E-01 -0.42696200617E-02 -0.13740010504E-01  0.22971942470E-01  0.00000000000E+00 0.  1.
     999901    1    3    3    0    0  0.44891194356E-01  0.11593280209E+00  0.35138308089E-01  0.88943259139E+00  0.88000000000E+00 0.  1.
        -11    1    4    4    0    0 -0.18918151173E-01 -0.40670677611E-01  0.18198136718E-02  0.44895136751E-01  0.51100000000E-03 0.  1.
         11    1    4    4    0    0 -0.43880935207E-01 -0.70992504421E-01 -0.23218111257E-01  0.86630329388E-01  0.51100000000E-03 0. -1.
</event>
<event>
 8    1  0.1116619E+005  0.1043930E+01  0.7957747E-01            NaN
         13   -1    0    0    0    0  0.00000000000E+00  0.00000000000E+00  0.74505805969E-08  0.10566000000E+00  0.10566000000E+00 0. -1.
     999900   -1    0    0    0    0 -0.00000000000E+00 -0.00000000000E+00 -0.74505805969E-08  0.93827000000E+00  0.93827000000E+00 0.  1.
     999902    2    1    2    0    0 -0.12142589281E-01 -0.36422881119E-02 -0.22588717214E-01  0.10180271260E+01  0.10176975338E+01 0.  0.
     999903    2    3    3    0    0  0.16971789461E-01  0.98382674333E-01  0.74724077565E-01  0.12632845488E+00  0.20198972710E-01 0.  0.
         14    1    1    2    0    0  0.12142589281E-01  0.36422881119E-02  0.22588717214E-01  0.25902874020E-01  0.00000000000E+00 0. -1.
     999901    1    3    3    0    0 -0.29114378741E-01 -0.10202496244E+00 -0.97312794778E-01  0.89169867110E+00  0.88000000000E+00 0.  1.
        -11    1    4    4    0    0  0.14972190620E-01  0.45029913853E-01  0.44061929998E-01  0.64757813658E-01  0.51100000000E-03 0. -1.
         11    1    4    4    0    0  0.19995988402E-02  0.53352760479E-01  0.30662147567E-01  0.61570641224E-01  0.51100000000E-03 0.  1.
</event>
<event>
 8    1  0.1116619E+005  0.1043930E+01  0.7957747E-01            NaN
         13   -1    0    0    0    0  0.00000000000E+00  0.00000000000E+00  0.74505805969E-08  0.10566000000E+00  0.10566000000E+00 0.  1.
     999900   -1    0    0    0    0 -0.00000000000E+00 -0.00000000000E+00 -0.74505805969E-08  0.93827000000E+00  0.93827000000E+00 0. -1.
     999902    2    1    2    0    0  0.99311869157E-03 -0.13687960108E-01  0.18778021664E-01  0.10206714395E+01  0.10204064028E+01 0.  0.
     999903    2    3    3    0    0 -0.59453632966E-01  0.34744587768E-01  0.11132174401E+00  0.13243506221E+00  0.20114526118E-01 0.  0.
         14    1    1    2    0    0 -0.99311869157E-03  0.13687960108E-01 -0.18778021664E-01  0.23258560451E-01  0.00000000000E+00 0. -1.
     999901    1    3    3    0    0  0.60446751657E-01 -0.48432547875E-01 -0.92543722348E-01  0.88823637734E+00  0.88000000000E+00 0. -1.
        -11    1    4    4    0    0 -0.48496759389E-01  0.21535931356E-01  0.94606520710E-01  0.10847297771E+00  0.51100000000E-03 0.  1.
         11    1    4    4    0    0 -0.10956873576E-01  0.13208656411E-01  0.16715223302E-01  0.23962084505E-01  0.51100000000E-03 0. -1.
</event>
<event>
 8    1  0.1116619E+005  0.1043930E+01  0.7957747E-01            NaN
         13   -1    0    0    0    0  0.00000000000E+00  0.00000000000E+00  0.74505805969E-08  0.10566000000E+00  0.10566000000E+00 0.  1.
     999900   -1    0    0    0    0 -0.00000000000E+00 -0.00000000000E+00 -0.74505805969E-08  0.93827000000E+00  0.93827000000E+00 0.  1.
     999902    2    1    2    0    0 -0.32920348935E-02  0.51402892648E-02 -0.23148219043E-01  0.10199904906E+01  0.10197095178E+01 0.  0.
     999903    2    3    3    0    0 -0.53364152314E-01 -0.10353679272E+00  0.51317947433E-01  0.12877607470E+00  0.19548541796E-01 0.  0.
         14    1    1    2    0    0  0.32920348935E-02 -0.51402892648E-02  0.23148219043E-01  0.23939509442E-01  0.00000000000E+00 0.  1.
     999901    1    3    3    0    0  0.50072117420E-01  0.10867708198E+00 -0.74466166476E-01  0.89121441586E+00  0.88000000000E+00 0.  1.
        -11    1    4    4    0    0 -0.21528558341E-01 -0.33664193223E-01  0.84898544872E-02  0.40854564982E-01  0.51100000000E-03 0.  1.
         11    1    4    4    0    0 -0.31835593973E-01 -0.69872599496E-01  0.42828092946E-01  0.87921509714E-01  0.51100000000E-03 0. -1.
</event>
<event>
 8    1  0.1116619E+005  0.1043930E+01  0.7957747E-01            NaN
         13   -1    0    0    0    0  0.00000000000E+00  0.00000000000E+00  0.74505805969E-08  0.10566000000E+00  0.10566000000E+00 0.  1.
     999900   -1    0    0    0    0 -0.00000000000E+00 -0.00000000000E+00 -0.74505805969E-08  0.93827000000E+00  0.93827000000E+00 0. -1.
     999902    2    1    2    0    0 -0.19414362019E-01 -0.10534842819E-01 -0.98627313719E-02  0.10197396334E+01  0.10194526699E+01 0.  0.
     999903    2    3    3    0    0 -0.41439707002E-01  0.34181205619E-01  0.11694102713E+00  0.12925446566E+00  0.12079276949E-01 0.  0.
         14    1    1    2    0    0  0.19414362019E-01  0.10534842819E-01  0.98627313719E-02  0.24190366594E-01  0.00000000000E+00 0.  1.
     999901    1    3    3    0    0  0.22025344983E-01 -0.44716048439E-01 -0.12680375850E+00  0.89048516775E+00  0.88000000000E+00 0. -1.
        -11    1    4    4    0    0 -0.12190594129E-01  0.66782296965E-02  0.41874045937E-01  0.44123759826E-01  0.51100000000E-03 0.  1.
         11    1    4    4    0    0 -0.29249112873E-01  0.27502975923E-01  0.75066981195E-01  0.85130705831E-01  0.51100000000E-03 0. -1.
</event>
<event>
 8    1  0.1116619E+005  0.1043930E+01  0.7957747E-01            NaN
         13   -1    0    0    0    0  0.00000000000E+00  0.00000000000E+00  0.74505805969E-08  0.10566000000E+00  0.10566000000E+00 0. -1.
     999900   -1    0    0    0    0 -0.00000000000E+00 -0.00000000000E+00 -0.74505805969E-08  0.93827000000E+00  0.93827000000E+00 0.  1.
     999902    2    1    2    0    0  0.89046685248E-02  0.81394016479E-02 -0.19428452554E-01  0.10210606373E+01  0.10208044952E+01 0.  0.
     999903    2    3    3    0    0  0.11837711182E+00  0.12186698569E-01 -0.56923277822E-01  0.13347601692E+00  0.20345301883E-01 0.  0.
         14    1    1    2    0    0 -0.89046685248E-02 -0.81394016479E-02  0.19428452554E-01  0.22869362679E-01  0.00000000000E+00 0. -1.
     999901    1    3    3    0    0 -0.10947244330E+00 -0.40472969208E-02  0.37494825268E-01  0.88758462040E+00  0.88000000000E+00 0. -1.
        -11    1    4    4    0    0  0.42762789255E-01 -0.13557758864E-02 -0.29226203367E-01  0.51816275024E-01  0.51100000000E-03 0. -1.
         11    1    4    4    0    0  0.75614322568E-01  0.13542474455E-01 -0.27697074455E-01  0.81659741894E-01  0.51100000000E-03 0.  1.
</event>
<event>
 8    1  0.1116619E+005  0.1043930E+01  0.7957747E-01            NaN
         13   -1    0    0    0    0  0.00000000000E+00  0.00000000000E+00  0.74505805969E-08  0.10566000000E+00  0.10566000000E+00 0.  1.
     999900   -1    0    0    0    0 -0.00000000000E+00 -0.00000000000E+00 -0.74505805969E-08  0.93827000000E+00  0.93827000000E+00 0. -1.
     999902    2    1    2    0    0 -0.58289898693E-02  0.19788250706E-01  0.11545231249E-01  0.10202901110E+01  0.10200162088E+01 0.  0.
     999903    2    3    3    0    0 -0.34535521005E-01  0.40012231246E-01 -0.11706147229E+00  0.13024923633E+00  0.21628555422E-01 0.  0.
         14    1    1    2    0    0  0.58289898693E-02 -0.19788250706E-01 -0.11545231249E-01  0.23639889033E-01  0.00000000000E+00 0.  1.
     999901    1    3    3    0    0  0.28706531136E-01 -0.20223980540E-01  0.12860670354E+00  0.89004087463E+00  0.88000000000E+00 0.  1.
        -11    1    4    4    0    0 -0.29871573771E-01  0.27940346505E-01 -0.10444004053E+00  0.11216486558E+00  0.51100000000E-03 0.  1.
         11    1    4    4    0    0 -0.46639472342E-02  0.12071884741E-01 -0.12621431763E-01  0.18084370759E-01  0.51100000000E-03 0. -1.
</event>
<event>
 8    1  0.1116619E+005  0.1043930E+01  0.7957747E-01            NaN
         13   -1    0    0    0    0  0.00000000000E+00  0.00000000000E+00  0.74505805969E-08  0.10566000000E+00  0.10566000000E+00 0.  1.
     999900   -1    0    0    0    0 -0.00000000000E+00 -0.00000000000E+00 -0.74505805969E-08  0.93827000000E+00  0.93827000000E+00 0. -1.
     999902    2    1    2    0    0  0.38426468231E-02  0.22747880829E-01  0.41956087830E-04  0.10208598076E+01  0.10205990951E+01 0.  0.
     999903    2    3    3    0    0  0.51580603731E-01  0.94788637660E-01 -0.75892123448E-01  0.13337191044E+00  0.19570579521E-01 0.  0.
         14    1    1    2    0    0 -0.38426468231E-02 -0.22747880829E-01 -0.41956087830E-04  0.23070192395E-01  0.00000000000E+00 0. -1.
     999901    1    3    3    0    0 -0.47737956908E-01 -0.72040756831E-01  0.75934079536E-01  0.88748789716E+00  0.88000000000E+00 0.  1.
        -11    1    4    4    0    0  0.18197429280E-01  0.40803722723E-01 -0.42429472080E-01  0.61616649069E-01  0.51100000000E-03 0. -1.
         11    1    4    4    0    0  0.33383174451E-01  0.53984914937E-01 -0.33462651369E-01  0.71755261374E-01  0.51100000000E-03 0.  1.
</event>
<event>
 8    1  0.1116619E+005  0.1043930E+01  0.7957747E-01            NaN
         13   -1    0    0    0    0  0.00000000000E+00  0.00000000000E+00  0.74505805969E-08  0.10566000000E+00  0.10566000000E+00 0.  1.
     999900   -1    0    0    0    0 -0.00000000000E+00 -0.00000000000E+00 -0.74505805969E-08  0.93827000000E+00  0.93827000000E+00 0.  1.
     999902    2    1    2    0    0 -0.50358313244E-02 -0.22696314035E-01  0.43450819410E-02  0.10202791648E+01  0.10200050059E+01 0.  0.
     999903    2    3    3    0    0 -0.67019842718E-01  0.46965328117E-01  0.99391894431E-01  0.13026306461E+00  0.19806967470E-01 0.  0.
         14    1    1    2    0    0  0.50358313244E-02  0.22696314035E-01 -0.43450819410E-02  0.23650835185E-01  0.00000000000E+00 0.  1.
     999901    1    3    3    0    0  0.61984011394E-01 -0.69661642152E-01 -0.95046812490E-01  0.89001610020E+00  0.88000000000E+00 0.  1.
        -11    1    4    4    0    0 -0.22832560668E-01  0.24907977112E-01  0.50523722211E-01  0.60783556802E-01  0.51100000000E-03 0. -1.
         11    1    4    4    0    0 -0.44187282050E-01  0.22057351005E-01  0.48868172220E-01  0.69479507810E-01  0.51100000000E-03 0.  1.
</event>
<event>
 8    1  0.1123187E+005  0.1043930E+01  0.7957747E-01            NaN
         13   -1    0    0    0    0  0.00000000000E+00  0.00000000000E+00  0.74505805969E-08  0.10566000000E+00  0.10566000000E+00 0. -1.
     999900   -1    0    0    0    0 -0.00000000000E+00 -0.00000000000E+00 -0.74505805969E-08  0.93827000000E+00  0.93827000000E+00 0. -1.
     999902    2    1    2    0    0 -0.15735918235E-01  0.10476097893E-01  0.18051962463E-01  0.10177911190E+01  0.10174554147E+01 0.  0.
     999903    2    3    3    0    0  0.74477644361E-01 -0.53653522961E-01  0.88295830421E-01  0.12808032549E+00  0.13520209787E-01 0.  0.
         14    1    1    2    0    0  0.15735918235E-01 -0.10476097893E-01 -0.18051962463E-01  0.26138880973E-01  0.00000000000E+00 0.  1.
     999901    1    3    3    0    0 -0.90213562597E-01  0.64129620854E-01 -0.70243867958E-01  0.88971079354E+00  0.88000000000E+00 0. -1.
        -11    1    4    4    0    0  0.29163872956E-01 -0.28557452874E-01  0.42656545942E-01  0.59041524652E-01  0.51100000000E-03 0. -1.
         11    1    4    4    0    0  0.45313771405E-01 -0.25096070087E-01  0.45639284479E-01  0.69038800840E-01  0.51100000000E-03 0.  1.
</event>
<event>
 8    1  0.1116619E+005  0.1043930E+01  0.7957747E-01            NaN
         13   -1    0    0    0    0  0.00000000000E+00  0.00000000000E+00  0.74505805969E-08  0.10566000000E+00  0.10566000000E+00 0.  1.
     999900   -1    0    0    0    0 -0.00000000000E+00 -0.00000000000E+00 -0.74505805969E-08  0.93827000000E+00  0.93827000000E+00 0. -1.
     999902    2    1    2    0    0  0.18791374147E-01  0.13386070691E-01 -0.38389170889E-02  0.10205411156E+01  0.10202730657E+01 0.  0.
     999903    2    3    3    0    0  0.74646118144E-01  0.50869841054E-02 -0.10760002398E+00  0.13264754392E+00  0.20486224249E-01 0.  0.
         14    1    1    2    0    0 -0.18791374147E-01 -0.13386070691E-01  0.38389170889E-02  0.23388884439E-01  0.00000000000E+00 0.  1.
     999901    1    3    3    0    0 -0.55854743997E-01  0.82990865859E-02  0.10376110690E+00  0.88789357165E+00  0.88000000000E+00 0.  1.
        -11    1    4    4    0    0  0.65056990782E-01  0.55064792523E-02 -0.79076112232E-01  0.10254767677E+00  0.51100000000E-03 0.  1.
         11    1    4    4    0    0  0.95891273629E-02 -0.41949514698E-03 -0.28523911752E-01  0.30099867150E-01  0.51100000000E-03 0. -1.
</event>
<event>
 8    1  0.1116619E+005  0.1043930E+01  0.7957747E-01            NaN
         13   -1    0    0    0    0  0.00000000000E+00  0.00000000000E+00  0.74505805969E-08  0.10566000000E+00  0.10566000000E+00 0.  1.
     999900   -1    0    0    0    0 -0.00000000000E+00 -0.00000000000E+00 -0.74505805969E-08  0.93827000000E+00  0.93827000000E+00 0.  1.
     999902    2    1    2    0    0  0.10792106541E-01  0.12974538982E-01 -0.17194293051E-01  0.10198374298E+01  0.10195528095E+01 0.  0.
     999903    2    3    3    0    0 -0.41480395503E-01 -0.69816760914E-01  0.95886114319E-01  0.12721545363E+00  0.19865080106E-01 0.  0.
         14    1    1    2    0    0 -0.10792106541E-01 -0.12974538982E-01  0.17194293051E-01  0.24092570201E-01  0.00000000000E+00 0.  1.
     999901    1    3    3    0    0  0.52272502043E-01  0.82791299895E-01 -0.11308040737E+00  0.89262197617E+00  0.88000000000E+00 0.  1.
        -11    1    4    4    0    0 -0.18138451509E-01 -0.46250877107E-01  0.49005053769E-01  0.69784693682E-01  0.51100000000E-03 0.  1.
         11    1    4    4    0    0 -0.23341943993E-01 -0.23565883806E-01  0.46881060550E-01  0.57430759949E-01  0.51100000000E-03 0. -1.
</event>
<event>
 8    1  0.1116619E+005  0.1043930E+01  0.7957747E-01            NaN
         13   -1    0    0    0    0  0.00000000000E+00  0.00000000000E+00  0.74505805969E-08  0.10566000000E+00  0.10566000000E+00 0.  1.
     999900   -1    0    0    0    0 -0.00000000000E+00 -0.00000000000E+00 -0.74505805969E-08  0.93827000000E+00  0.93827000000E+00 0. -1.
     999902    2    1    2    0    0 -0.13387116687E-01  0.11957723992E-01  0.16924162687E-01  0.10192595858E+01  0.10189609776E+01 0.  0.
     999903    2    3    3    0    0  0.12286302697E+00 -0.14167177660E-01 -0.26158237003E-01  0.12735000217E+00  0.15418734413E-01 0.  0.
         14    1    1    2    0    0  0.13387116687E-01 -0.11957723992E-01 -0.16924162687E-01  0.24670414242E-01  0.00000000000E+00 0. -1.
     999901    1    3    3    0    0 -0.13625014366E+00  0.26124901652E-01  0.43082399690E-01  0.89190958359E+00  0.88000000000E+00 0.  1.
        -11    1    4    4    0    0  0.58774097883E-01 -0.57699592171E-02 -0.20283218478E-01  0.62444832325E-01  0.51100000000E-03 0.  1.
         11    1    4    4    0    0  0.64088929086E-01 -0.83972184429E-02 -0.58750185252E-02  0.64905169845E-01  0.51100000000E-03 0. -1.
</event>
<event>
 8    1  0.1116619E+005  0.1043930E+01  0.7957747E-01            NaN
         13   -1    0    0    0    0  0.00000000000E+00  0.00000000000E+00  0.74505805969E-08  0.10566000000E+00  0.10566000000E+00 0.  1.
     999900   -1    0    0    0    0 -0.00000000000E+00 -0.00000000000E+00 -0.74505805969E-08  0.93827000000E+00  0.93827000000E+00 0.  1.
     999902    2    1    2    0    0 -0.51489125037E-02 -0.19299398401E-01 -0.12869438519E-01  0.10201686758E+01  0.10198919191E+01 0.  0.
     999903    2    3    3    0    0 -0.86932147062E-01  0.15281344795E-01 -0.96060084689E-01  0.13179656412E+00  0.18763708354E-01 0.  0.
         14    1    1    2    0    0  0.51489125037E-02  0.19299398401E-01  0.12869438519E-01  0.23761324172E-01  0.00000000000E+00 0.  1.
     999901    1    3    3    0    0  0.81783234558E-01 -0.34580743196E-01  0.83190646170E-01  0.88837211171E+00  0.88000000000E+00 0.  1.
        -11    1    4    4    0    0 -0.24858110499E-01 -0.16278461402E-02 -0.36001455957E-01  0.43782890410E-01  0.51100000000E-03 0.  1.
         11    1    4    4    0    0 -0.62074036563E-01  0.16909190935E-01 -0.60058628731E-01  0.88013673707E-01  0.51100000000E-03 0. -1.
</event>
<event>
 8    1  0.1348396E+005  0.1043930E+01  0.7957747E-01            NaN
         13   -1    0    0    0    0  0.00000000000E+00  0.00000000000E+00  0.74505805969E-08  0.10566000000E+00  0.10566000000E+00 0. -1.
     999900   -1    0    0    0    0 -0.00000000000E+00 -0.00000000000E+00 -0.74505805969E-08  0.93827000000E+00  0.93827000000E+00 0. -1.
     999902    2    1    2    0    0 -0.13411113208E-01 -0.87802583509E-02  0.17702772490E-01  0.10200482277E+01  0.10197686246E+01 0.  0.
     999903    2    3    3    0    0  0.83665257746E-01 -0.33894701749E-01 -0.88843914452E-01  0.12796821248E+00  0.18272824337E-01 0.  0.
         14    1    1    2    0    0  0.13411113208E-01  0.87802583509E-02 -0.17702772490E-01  0.23881772297E-01  0.00000000000E+00 0.  1.
     999901    1    3    3    0    0 -0.97076370955E-01  0.25114443398E-01  0.10654668694E+00  0.89208001522E+00  0.88000000000E+00 0.  1.
        -11    1    4    4    0    0  0.44545622227E-01 -0.27041919845E-01 -0.45542147733E-01  0.69209292943E-01  0.51100000000E-03 0.  1.
         11    1    4    4    0    0  0.39119635520E-01 -0.68527819046E-02 -0.43301766719E-01  0.58758919536E-01  0.51100000000E-03 0. -1.
</event>
<event>
 8    1  0.1116619E+005  0.1043930E+01  0.7957747E-01            NaN
         13   -1    0    0    0    0  0.00000000000E+00  0.00000000000E+00  0.74505805969E-08  0.10566000000E+00  0.10566000000E+00 0.  1.
     999900   -1    0    0    0    0 -0.00000000000E+00 -0.00000000000E+00 -0.74505805969E-08  0.93827000000E+00  0.93827000000E+00 0. -1.
     999902    2    1    2    0    0 -0.26663262860E-03  0.16124519595E-01  0.16843255507E-01  0.10206111990E+01  0.10203447716E+01 0.  0.
     999903    2    3    3    0    0  0.82918323430E-01 -0.69787170292E-01  0.72054173346E-01  0.13080852376E+00  0.13166947011E-01 0.  0.
         14    1    1    2    0    0  0.26663262860E-03 -0.16124519595E-01 -0.16843255507E-01  0.23318801024E-01  0.00000000000E+00 0. -1.
     999901    1    3    3    0    0 -0.83184956059E-01  0.85911689887E-01 -0.55210917839E-01  0.88980267522E+00  0.88000000000E+00 0. -1.
        -11    1    4    4    0    0  0.32430044572E-01 -0.27405183803E-01  0.36020617140E-01  0.55682114457E-01  0.51100000000E-03 0. -1.
         11    1    4    4    0    0  0.50488278858E-01 -0.42381986489E-01  0.36033556206E-01  0.75126409303E-01  0.51100000000E-03 0.  1.
</event>
<event>
 8    1  0.1116619E+005  0.1043930E+01  0.7957747E-01            NaN
         13   -1    0    0    0    0  0.00000000000E+00  0.00000000000E+00  0.74505805969E-08  0.10566000000E+00  0.10566000000E+00 0. -1.
     999900   -1    0    0    0    0 -0.00000000000E+00 -0.00000000000E+00 -0.74505805969E-08  0.93827000000E+00  0.93827000000E+00 0. -1.
     999902    2    1    2    0    0  0.12251747484E-01 -0.39279160737E-02 -0.60344913901E-02  0.10297191264E+01  0.10296210616E+01 0.  0.
     999903    2    3    3    0    0 -0.73914715261E-01 -0.13754596317E-01 -0.11502558347E+00  0.13876442439E+00  0.19290064040E-01 0.  0.
         14    1    1    2    0    0 -0.12251747484E-01  0.39279160737E-02  0.60344913901E-02  0.14210873563E-01  0.00000000000E+00 0.  1.
     999901    1    3    3    0    0  0.86166462745E-01  0.98266802436E-02  0.10899109208E+00  0.89095470205E+00  0.88000000000E+00 0.  1.
        -11    1    4    4    0    0 -0.30096663285E-01  0.34081579987E-02 -0.50705761974E-01  0.59065726951E-01  0.51100000000E-03 0.  1.
         11    1    4    4    0    0 -0.43818051977E-01 -0.17162754316E-01 -0.64319821499E-01  0.79698697439E-01  0.51100000000E-03 0. -1.
</event>
<event>
 8    1  0.1116619E+005  0.1043930E+01  0.7957747E-01            NaN
         13   -1    0    0    0    0  0.00000000000E+00  0.00000000000E+00  0.74505805969E-08  0.10566000000E+00  0.10566000000E+00 0. -1.
     999900   -1    0    0    0    0 -0.00000000000E+00 -0.00000000000E+00 -0.74505805969E-08  0.93827000000E+00  0.93827000000E+00 0.  1.
     999902    2    1    2    0    0 -0.10180526760E-01 -0.45417114120E-02  0.20015486435E-01  0.10210195228E+01  0.10207624484E+01 0.  0.
     999903    2    3    3    0    0  0.11380652301E+00 -0.57929304224E-01  0.19455545030E-01  0.13072556175E+00  0.20072999155E-01 0.  0.
         14    1    1    2    0    0  0.10180526760E-01  0.45417114120E-02 -0.20015486435E-01  0.22910477186E-01  0.00000000000E+00 0.  1.
     999901    1    3    3    0    0 -0.12398704977E+00  0.53387592812E-01  0.55994140467E-03  0.89029396107E+00  0.88000000000E+00 0. -1.
        -11    1    4    4    0    0  0.52653839223E-01 -0.30017656833E-01 -0.46350417832E-03  0.60613220206E-01  0.51100000000E-03 0. -1.
         11    1    4    4    0    0  0.61152683784E-01 -0.27911647391E-01  0.19919049209E-01  0.70112341541E-01  0.51100000000E-03 0.  1.
</event>
<event>
 8    1  0.1116619E+005  0.1043930E+01  0.7957747E-01            NaN
         13   -1    0    0    0    0  0.00000000000E+00  0.00000000000E+00  0.74505805969E-08  0.10566000000E+00  0.10566000000E+00 0.  1.
     999900   -1    0    0    0    0 -0.00000000000E+00 -0.00000000000E+00 -0.74505805969E-08  0.93827000000E+00  0.93827000000E+00 0.  1.
     999902    2    1    2    0    0  0.13878707495E-01  0.13812735908E-01 -0.75957253585E-02  0.10229274945E+01  0.10227118625E+01 0.  0.
     999903    2    3    3    0    0  0.22019643694E-02 -0.12473429558E+00  0.34996638846E-01  0.13099378855E+00  0.19264339272E-01 0.  0.
         14    1    1    2    0    0 -0.13878707495E-01 -0.13812735908E-01  0.75957253585E-02  0.21002505534E-01  0.00000000000E+00 0.  1.
     999901    1    3    3    0    0  0.11676743125E-01  0.13854703148E+00 -0.42592364204E-01  0.89193370592E+00  0.88000000000E+00 0. -1.
        -11    1    4    4    0    0 -0.40412805528E-02 -0.73652052009E-01  0.12454946697E-01  0.74808712941E-01  0.51100000000E-03 0. -1.
         11    1    4    4    0    0  0.62432449222E-02 -0.51082243568E-01  0.22541692149E-01  0.56185075608E-01  0.51100000000E-03 0.  1.
</event>
<event>
 8    1  0.1116619E+005  0.1043930E+01  0.7957747E-01            NaN
         13   -1    0    0    0    0  0.00000000000E+00  0.00000000000E+00  0.74505805969E-08  0.10566000000E+00  0.10566000000E+00 0. -1.
     999900   -1    0    0    0    0 -0.00000000000E+00 -0.00000000000E+00 -0.74505805969E-08  0.93827000000E+00  0.93827000000E+00 0.  1.
     999902    2    1    2    0    0  0.16903664435E-02  0.11486512337E-01  0.20813767830E-01  0.10200970347E+01  0.10198185868E+01 0.  0.
     999903    2    3    3    0    0 -0.12254231069E+00 -0.26515609347E-01  0.30415300320E-01  0.13050718046E+00  0.19680909730E-01 0.  0.
         14    1    1    2    0    0 -0.16903664435E-02 -0.11486512337E-01 -0.20813767830E-01  0.23832965314E-01  0.00000000000E+00 0.  1.
     999901    1    3    3    0    0  0.12423267714E+00  0.38002121685E-01 -0.96015324903E-02  0.88958985423E+00  0.88000000000E+00 0. -1.
        -11    1    4    4    0    0 -0.13501693866E-01 -0.41576953826E-02  0.10060625554E-01  0.17351065549E-01  0.51100000000E-03 0.  1.
         11    1    4    4    0    0 -0.10904061683E+00 -0.22357913965E-01  0.20354674766E-01  0.11315611491E+00  0.51100000000E-03 0. -1.
</event>
<event>
 8    1  0.1116619E+005  0.1043930E+01  0.7957747E-01            NaN
         13   -1    0    0    0    0  0.00000000000E+00  0.00000000000E+00  0.74505805969E-08  0.10566000000E+00  0.10566000000E+00 0. -1.
     999900   -1    0    0    0    0 -0.00000000000E+00 -0.00000000000E+00 -0.74505805969E-08  0.93827000000E+00  0.93827000000E+00 0.  1.
     999902    2    1    2    0    0 -0.21435761502E-01  0.60044167947E-02  0.81960153528E-02  0.10202082893E+01  0.10199324654E+01 0.  0.
     999903    2    3    3    0    0 -0.12850999043E+00  0.28386993093E-01  0.92838632989E-02  0.13343489452E+00  0.19950988476E-01 0.  0.
         14    1    1    2    0    0  0.21435761502E-01 -0.60044167947E-02 -0.81960153528E-02  0.23721710728E-01  0.00000000000E+00 0.  1.
     999901    1    3    3    0    0  0.10707422893E+00 -0.22382576298E-01 -0.10878479461E-02  0.88677339475E+00  0.88000000000E+00 0.  1.
        -11    1    4    4    0    0 -0.67492025675E-01  0.15394006012E-01  0.14839794714E-01  0.70799926405E-01  0.51100000000E-03 0.  1.
         11    1    4    4    0    0 -0.61017964755E-01  0.12992987080E-01 -0.55559314150E-02  0.62634968117E-01  0.51100000000E-03 0. -1.
</event>
<event>
 8    1  0.1116619E+005  0.1043930E+01  0.7957747E-01            NaN
         13   -1    0    0    0    0  0.00000000000E+00  0.00000000000E+00  0.74505805969E-08  0.10566000000E+00  0.10566000000E+00 0.  1.
     999900   -1    0    0    0    0 -0.00000000000E+00 -0.00000000000E+00 -0.74505805969E-08  0.93827000000E+00  0.93827000000E+00 0. -1.
     999902    2    1    2    0    0  0.14857296528E-01 -0.98555048990E-02  0.14189354900E-01  0.10211438632E+01  0.10208896029E+01 0.  0.
     999903    2    3    3    0    0  0.11302849767E+00  0.55712951666E-01  0.37114803956E-01  0.13296461135E+00  0.20559789202E-01 0.  0.
         14    1    1    2    0    0 -0.14857296528E-01  0.98555048990E-02 -0.14189354900E-01  0.22786136781E-01  0.00000000000E+00 0.  1.
     999901    1    3    3    0    0 -0.98171201137E-01 -0.65568456565E-01 -0.22925449057E-01  0.88817925186E+00  0.88000000000E+00 0. -1.
        -11    1    4    4    0    0  0.28243524982E-01  0.19883737719E-01  0.25350148170E-02  0.34637366386E-01  0.51100000000E-03 0.  1.
         11    1    4    4    0    0  0.84784972684E-01  0.35829213947E-01  0.34579789139E-01  0.98327244968E-01  0.51100000000E-03 0. -1.
</event>
<event>
 8    1  0.1116619E+005  0.1043930E+01  0.7957747E-01            NaN
         13   -1    0    0    0    0  0.00000000000E+00  0.00000000000E+00  0.74505805969E-08  0.10566000000E+00  0.10566000000E+00 0. -1.
     999900   -1    0    0    0    0 -0.00000000000E+00 -0.00000000000E+00 -0.74505805969E-08  0.93827000000E+00  0.93827000000E+00 0. -1.
     999902    2    1    2    0    0  0.52059086517E-02 -0.16149281653E-01 -0.16608505256E-01  0.10201867224E+01  0.10199103909E+01 0.  0.
     999903    2    3    3    0    0  0.11877586096E+00 -0.24759250665E-01  0.44490937815E-01  0.13074565773E+00  0.19855926766E-01 0.  0.
         14    1    1    2    0    0 -0.52059086517E-02  0.16149281653E-01  0.16608505256E-01  0.23743277568E-01  0.00000000000E+00 0. -1.
     999901    1    3    3    0    0 -0.11356995231E+00  0.86099690117E-02 -0.61099443072E-01  0.88944106470E+00  0.88000000000E+00 0. -1.
        -11    1    4    4    0    0  0.70291377747E-01 -0.24277734785E-01  0.24537524655E-01  0.78311157756E-01  0.51100000000E-03 0.  1.
         11    1    4    4    0    0  0.48484483212E-01 -0.48151587998E-03  0.19953413161E-01  0.52434499975E-01  0.51100000000E-03 0. -1.
</event>
<event>
 8    1  0.1116619E+005  0.1043930E+01  0.7957747E-01            NaN
         13   -1    0    0    0    0  0.00000000000E+00  0.00000000000E+00  0.74505805969E-08  0.10566000000E+00  0.10566000000E+00 0.  1.
     999900   -1    0    0    0    0 -0.00000000000E+00 -0.00000000000E+00 -0.74505805969E-08  0.93827000000E+00  0.93827000000E+00 0. -1.
     999902    2    1    2    0    0  0.19626417082E-01 -0.12265189682E-01 -0.88781514121E-02  0.10191418436E+01  0.10188403431E+01 0.  0.
     999903    2    3    3    0    0 -0.37645517024E-01 -0.89539253485E-01  0.83162528619E-01  0.12912901102E+00  0.17995345333E-01 0.  0.
         14    1    1    2    0    0 -0.19626417082E-01  0.12265189682E-01  0.88781514121E-02  0.24788156404E-01  0.00000000000E+00 0. -1.
     999901    1    3    3    0    0  0.57271934106E-01  0.77274063803E-01 -0.92040680031E-01  0.89001283258E+00  0.88000000000E+00 0. -1.
        -11    1    4    4    0    0 -0.34950244936E-01 -0.64629231975E-01  0.65890966615E-01  0.98693149961E-01  0.51100000000E-03 0.  1.
         11    1    4    4    0    0 -0.26952720881E-02 -0.24910021510E-01  0.17271562004E-01  0.30435861057E-01  0.51100000000E-03 0. -1.
</event>
<event>
 8    1  0.1116619E+005  0.1043930E+01  0.7957747E-01            NaN
         13   -1    0    0    0    0  0.00000000000E+00  0.00000000000E+00  0.74505805969E-08  0.10566000000E+00  0.10566000000E+00 0.  1.
     999900   -1    0    0    0    0 -0.00000000000E+00 -0.00000000000E+00 -0.74505805969E-08  0.93827000000E+00  0.93827000000E+00 0.  1.
     999902    2    1    2    0    0  0.12498497162E-01  0.18036644875E-01  0.12696716961E-01  0.10185776902E+01  0.10182621330E+01 0.  0.
     999903    2    3    3    0    0 -0.21624779066E-01 -0.80108944328E-01 -0.92931451934E-01  0.12619085441E+00  0.20069951352E-01 0.  0.
         14    1    1    2    0    0 -0.12498497162E-01 -0.18036644875E-01 -0.12696716961E-01  0.25352309781E-01  0.00000000000E+00 0.  1.
     999901    1    3    3    0    0  0.34123276228E-01  0.98145589203E-01  0.10562816890E+00  0.89238683581E+00  0.88000000000E+00 0. -1.
        -11    1    4    4    0    0 -0.50399554358E-02 -0.52113857374E-01 -0.50784636049E-01  0.72942413319E-01  0.51100000000E-03 0.  1.
         11    1    4    4    0    0 -0.16584823631E-01 -0.27995086954E-01 -0.42146815885E-01  0.53248441091E-01  0.51100000000E-03 0. -1.
</event>
<event>
 8    1  0.1116619E+005  0.1043930E+01  0.7957747E-01            NaN
         13   -1    0    0    0    0  0.00000000000E+00  0.00000000000E+00  0.74505805969E-08  0.10566000000E+00  0.10566000000E+00 0.  1.
     999900   -1    0    0    0    0 -0.00000000000E+00 -0.00000000000E+00 -0.74505805969E-08  0.93827000000E+00  0.93827000000E+00 0. -1.
     999902    2    1    2    0    0  0.18255505352E-01  0.16740836183E-03  0.11693632762E-01  0.10222497660E+01  0.10220198391E+01 0.  0.
     999903    2    3    3    0    0  0.41257822672E-01 -0.34841014772E-01 -0.11801091370E+00  0.13175666342E+00  0.22740676342E-01 0.  0.
         14    1    1    2    0    0 -0.18255505352E-01 -0.16740836183E-03 -0.11693632762E-01  0.21680234048E-01  0.00000000000E+00 0. -1.
     999901    1    3    3    0    0 -0.23002317320E-01  0.35008423134E-01  0.12970454646E+00  0.89049310254E+00  0.88000000000E+00 0.  1.
        -11    1    4    4    0    0  0.35449224744E-01 -0.18258150139E-01 -0.92971963160E-01  0.10116350447E+00  0.51100000000E-03 0.  1.
         11    1    4    4    0    0  0.58085979285E-02 -0.16582864633E-01 -0.25038950538E-01  0.30593158947E-01  0.51100000000E-03 0. -1.
</event>
<event>
 8    1  0.1116619E+005  0.1043930E+01  0.7957747E-01            NaN
         13   -1    0    0    0    0  0.00000000000E+00  0.00000000000E+00  0.74505805969E-08  0.10566000000E+00  0.10566000000E+00 0.  1.
     999900   -1    0    0    0    0 -0.00000000000E+00 -0.00000000000E+00 -0.74505805969E-08  0.93827000000E+00  0.93827000000E+00 0. -1.
     999902    2    1    2    0    0 -0.10089957385E-01 -0.21895394661E-01 -0.44352636944E-02  0.10194170012E+01  0.10191222376E+01 0.  0.
     999903    2    3    3    0    0  0.12045694313E+00 -0.41329229318E-01 -0.10401580886E-01  0.12955422293E+00  0.21403818554E-01 0.  0.
         14    1    1    2    0    0  0.10089957385E-01  0.21895394661E-01  0.44352636944E-02  0.24512998826E-01  0.00000000000E+00 0.  1.
     999901    1    3    3    0    0 -0.13054690052E+00  0.19433834657E-01  0.59663171920E-02  0.88986277824E+00  0.88000000000E+00 0. -1.
        -11    1    4    4    0    0  0.12622409546E-01 -0.64832191853E-02  0.52783400473E-02  0.15148575788E-01  0.51100000000E-03 0.  1.
         11    1    4    4    0    0  0.10783453359E+00 -0.34846010133E-01 -0.15679920934E-01  0.11440564714E+00  0.51100000000E-03 0. -1.
</event>
<event>
 8    1  0.1116619E+005  0.1043930E+01  0.7957747E-01            NaN
         13   -1    0    0    0    0  0.00000000000E+00  0.00000000000E+00  0.74505805969E-08  0.10566000000E+00  0.10566000000E+00 0.  1.
     999900   -1    0    0    0    0 -0.00000000000E+00 -0.00000000000E+00 -0.74505805969E-08  0.93827000000E+00  0.93827000000E+00 0.  1.
     999902    2    1    2    0    0  0.64769197619E-02 -0.92891956233E-02 -0.19318163796E-01  0.10215373428E+01  0.10212918836E+01 0.  0.
     999903    2    3    3    0    0  0.22143598910E-01  0.43562038667E-01  0.11795565175E+00  0.12919055020E+00  0.19714773539E-01 0.  0.
         14    1    1    2    0    0 -0.64769197619E-02  0.92891956233E-02  0.19318163796E-01  0.22392657220E-01  0.00000000000E+00 0.  1.
     999901    1    3    3    0    0 -0.15666679148E-01 -0.52851234290E-01 -0.13727381554E+00  0.89234679258E+00  0.88000000000E+00 0.  1.
        -11    1    4    4    0    0  0.49255448384E-02  0.29655045834E-01  0.59082650517E-01  0.66292559526E-01  0.51100000000E-03 0. -1.
         11    1    4    4    0    0  0.17218054072E-01  0.13906992833E-01  0.58873001228E-01  0.62897990670E-01  0.51100000000E-03 0.  1.
</event>
<event>
 8    1  0.1116619E+005  0.1043930E+01  0.7957747E-01            NaN
         13   -1    0    0    0    0  0.00000000000E+00  0.00000000000E+00  0.74505805969E-08  0.10566000000E+00  0.10566000000E+00 0.  1.
     999900   -1    0    0    0    0 -0.00000000000E+00 -0.00000000000E+00 -0.74505805969E-08  0.93827000000E+00  0.93827000000E+00 0.  1.
     999902    2    1    2    0    0 -0.41259745479E-02 -0.21315997184E-01  0.12271409057E-01  0.10189904154E+01  0.10186851740E+01 0.  0.
     999903    2    3    3    0    0  0.11067260654E+00  0.40295382081E-01 -0.44763583144E-01  0.12757150900E+00  0.19964164823E-01 0.  0.
         14    1    1    2    0    0  0.41259745479E-02  0.21315997184E-01 -0.12271409057E-01  0.24939584643E-01  0.00000000000E+00 0. -1.
     999901    1    3    3    0    0 -0.11479858109E+00 -0.61611379265E-01  0.57034992201E-01  0.89141890636E+00  0.88000000000E+00 0. -1.
        -11    1    4    4    0    0  0.62354525664E-01  0.33125788524E-01 -0.26722084465E-01  0.75496593666E-01  0.51100000000E-03 0.  1.
         11    1    4    4    0    0  0.48318080877E-01  0.71695935571E-02 -0.18041498680E-01  0.52074915334E-01  0.51100000000E-03 0. -1.
</event>
<event>
 8    1  0.1116619E+005  0.1043930E+01  0.7957747E-01            NaN
         13   -1    0    0    0    0  0.00000000000E+00  0.00000000000E+00  0.74505805969E-08  0.10566000000E+00  0.10566000000E+00 0. -1.
     999900   -1    0    0    0    0 -0.00000000000E+00 -0.00000000000E+00 -0.74505805969E-08  0.93827000000E+00  0.93827000000E+00 0. -1.
     999902    2    1    2    0    0 -0.72801381116E-02  0.21148752438E-01 -0.80961138520E-02  0.10201430876E+01  0.10198657275E+01 0.  0.
     999903    2    3    3    0    0  0.71542756522E-01 -0.62924437575E-01  0.79312910200E-01  0.12833498749E+00  0.33188558775E-01 0.  0.
         14    1    1    2    0    0  0.72801381116E-02 -0.21148752438E-01  0.80961138520E-02  0.23786912370E-01  0.00000000000E+00 0. -1.
     999901    1    3    3    0    0 -0.78822894634E-01  0.84073190013E-01 -0.87409024052E-01  0.89180810014E+00  0.88000000000E+00 0.  1.
        -11    1    4    4    0    0  0.25646874443E-01 -0.21575569157E-01  0.89349830240E-02  0.34689514205E-01  0.51100000000E-03 0. -1.
         11    1    4    4    0    0  0.45895882079E-01 -0.41348868417E-01  0.70377927176E-01  0.93645473280E-01  0.51100000000E-03 0.  1.
</event>
<event>
 8    1  0.1116619E+005  0.1043930E+01  0.7957747E-01            NaN
         13   -1    0    0    0    0  0.00000000000E+00  0.00000000000E+00  0.74505805969E-08  0.10566000000E+00  0.10566000000E+00 0. -1.
     999900   -1    0    0    0    0 -0.00000000000E+00 -0.00000000000E+00 -0.74505805969E-08  0.93827000000E+00  0.93827000000E+00 0.  1.
     999902    2    1    2    0    0  0.17225041973E-01 -0.90371148527E-02 -0.12736249388E-01  0.10206795470E+01  0.10204146971E+01 0.  0.
     999903    2    3    3    0    0 -0.10259421809E+00  0.23914010842E-01  0.70330989622E-01  0.12807515650E+00  0.18956373882E-01 0.  0.
         14    1    1    2    0    0 -0.17225041973E-01  0.90371148527E-02  0.12736249388E-01  0.23250452991E-01  0.00000000000E+00 0. -1.
     999901    1    3    3    0    0  0.11981926006E+00 -0.32951125694E-01 -0.83067239010E-01  0.89260439051E+00  0.88000000000E+00 0.  1.
        -11    1    4    4    0    0 -0.41055830110E-01  0.47951018752E-02  0.18111745726E-01  0.45131703294E-01  0.51100000000E-03 0. -1.
         11    1    4    4    0    0 -0.61538387978E-01  0.19118908966E-01  0.52219243896E-01  0.82943453202E-01  0.51100000000E-03 0.  1.
</event>
<event>
 8    1  0.1116619E+005  0.1043930E+01  0.7957747E-01            NaN
         13   -1    0    0    0    0  0.00000000000E+00  0.00000000000E+00  0.74505805969E-08  0.10566000000E+00  0.10566000000E+00 0. -1.
     999900   -1    0    0    0    0 -0.00000000000E+00 -0.00000000000E+00 -0.74505805969E-08  0.93827000000E+00  0.93827000000E+00 0. -1.
     999902    2    1    2    0    0 -0.79284591854E-02 -0.88854857599E-02 -0.20032184817E-01  0.10206254779E+01  0.10203593805E+01 0.  0.
     999903    2    3    3    0    0 -0.43861417425E-01 -0.12362207066E+00  0.12788699502E-02  0.13219437620E+00  0.16354733191E-01 0.  0.
         14    1    1    2    0    0  0.79284591854E-02  0.88854857599E-02  0.20032184817E-01  0.23304522110E-01  0.00000000000E+00 0. -1.
     999901    1    3    3    0    0  0.35932958239E-01  0.11473658490E+00 -0.21311054767E-01  0.88843110169E+00  0.88000000000E+00 0. -1.
        -11    1    4    4    0    0 -0.28589340077E-01 -0.56481254585E-01  0.18635919090E-02  0.63334165987E-01  0.51100000000E-03 0. -1.
         11    1    4    4    0    0 -0.15272077347E-01 -0.67140816071E-01 -0.58472195872E-03  0.68860210209E-01  0.51100000000E-03 0.  1.
</event>
<event>
 8    1  0.1116619E+005  0.1043930E+01  0.7957747E-01            NaN
         13   -1    0    0    0    0  0.00000000000E+00  0.00000000000E+00  0.74505805969E-08  0.10566000000E+00  0.10566000000E+00 0.  1.
     999900   -1    0    0    0    0 -0.00000000000E+00 -0.00000000000E+00 -0.74505805969E-08  0.93827000000E+00  0.93827000000E+00 0. -1.
     999902    2    1    2    0    0 -0.17921393755E-01 -0.15560308882E-01  0.10215432219E-02  0.10201740930E+01  0.10198974639E+01 0.  0.
     999903    2    3    3    0    0  0.10664128757E+00  0.15870498412E-01  0.66958660294E-01  0.12840536703E+00  0.19499721990E-01 0.  0.
         14    1    1    2    0    0  0.17921393755E-01  0.15560308882E-01 -0.10215432219E-02  0.23755906995E-01  0.00000000000E+00 0. -1.
     999901    1    3    3    0    0 -0.12456268133E+00 -0.31430807294E-01 -0.65937117072E-01  0.89176872598E+00  0.88000000000E+00 0. -1.
        -11    1    4    4    0    0  0.78747285601E-01  0.55490296587E-02  0.55623841553E-01  0.96572250620E-01  0.51100000000E-03 0. -1.
         11    1    4    4    0    0  0.27894001972E-01  0.10321468754E-01  0.11334818741E-01  0.31833116406E-01  0.51100000000E-03 0.  1.
</event>
<event>
 8    1  0.1116619E+005  0.1043930E+01  0.7957747E-01            NaN
         13   -1    0    0    0    0  0.00000000000E+00  0.00000000000E+00  0.74505805969E-08  0.10566000000E+00  0.10566000000E+00 0.  1.
     999900   -1    0    0    0    0 -0.00000000000E+00 -0.00000000000E+00 -0.74505805969E-08  0.93827000000E+00  0.93827000000E+00 0. -1.
     999902    2    1    2    0    0  0.57091705285E-02 -0.11747344348E-01  0.19536632304E-01  0.10204294739E+01  0.10201588290E+01 0.  0.
     999903    2    3    3    0    0  0.43032667580E-02  0.86469892899E-01 -0.92139896360E-01  0.12794964253E+00  0.19641538657E-01 0.  0.
         14    1    1    2    0    0 -0.57091705285E-02  0.11747344348E-01 -0.19536632304E-01  0.23500526145E-01  0.00000000000E+00 0. -1.
     999901    1    3    3    0    0  0.14059037705E-02 -0.98217237247E-01  0.11167652866E+00  0.89247983132E+00  0.88000000000E+00 0.  1.
        -11    1    4    4    0    0 -0.58976138871E-02  0.59935741836E-01 -0.65621050629E-01  0.89069963544E-01  0.51100000000E-03 0. -1.
         11    1    4    4    0    0  0.10200880645E-01  0.26534151063E-01 -0.26518845731E-01  0.38879678991E-01  0.51100000000E-03 0.  1.
</event>
<event>
 8    1  0.1116619E+005  0.1043930E+01  0.7957747E-01            NaN
         13   -1    0    0    0    0  0.00000000000E+00  0.00000000000E+00  0.74505805969E-08  0.10566000000E+00  0.10566000000E+00 0. -1.
     999900   -1    0    0    0    0 -0.00000000000E+00 -0.00000000000E+00 -0.74505805969E-08  0.93827000000E+00  0.93827000000E+00 0.  1.
     999902    2    1    2    0    0 -0.32463228150E-02 -0.11966122297E-01  0.19584160635E-01  0.10207510000E+01  0.10204877941E+01 0.  0.
     999903    2    3    3    0    0 -0.10510383897E+00 -0.54271292814E-01 -0.52461126181E-01  0.13094472645E+00  0.20053963029E-01 0.  0.
         14    1    1    2    0    0  0.32463228150E-02  0.11966122297E-01 -0.19584160635E-01  0.23179000030E-01  0.00000000000E+00 0.  1.
     999901    1    3    3    0    0  0.10185751616E+00  0.42305170517E-01  0.72045286816E-01  0.88980627352E+00  0.88000000000E+00 0. -1.
        -11    1    4    4    0    0 -0.55690440726E-01 -0.26958984178E-01 -0.38176102163E-01  0.72704112081E-01  0.51100000000E-03 0. -1.
         11    1    4    4    0    0 -0.49413398247E-01 -0.27312308636E-01 -0.14285024018E-01  0.58240614364E-01  0.51100000000E-03 0.  1.
</event>
<event>
 8    1  0.1116619E+005  0.1043930E+01  0.7957747E-01            NaN
         13   -1    0    0    0    0  0.00000000000E+00  0.00000000000E+00  0.74505805969E-08  0.10566000000E+00  0.10566000000E+00 0.  1.
     999900   -1    0    0    0    0 -0.00000000000E+00 -0.00000000000E+00 -0.74505805969E-08  0.93827000000E+00  0.93827000000E+00 0. -1.
     999902    2    1    2    0    0  0.88028777010E-04 -0.12117815998E-01 -0.28476128063E-01  0.10129826401E+01  0.10125097975E+01 0.  0.
     999903    2    3    3    0    0 -0.39622312364E-01  0.11344469439E+00  0.11572210701E-01  0.12228250841E+00  0.19479976350E-01 0.  0.
         14    1    1    2    0    0 -0.88028777010E-04  0.12117815998E-01  0.28476128063E-01  0.30947359873E-01  0.00000000000E+00 0.  1.
     999901    1    3    3    0    0  0.39710341141E-01 -0.12556251039E+00 -0.40048338765E-01  0.89070013172E+00  0.88000000000E+00 0. -1.
        -11    1    4    4    0    0 -0.21819973616E-01  0.37351884502E-01  0.83981402595E-02  0.44068859814E-01  0.51100000000E-03 0. -1.
         11    1    4    4    0    0 -0.17802338749E-01  0.76092809891E-01  0.31740704420E-02  0.78213648593E-01  0.51100000000E-03 0.  1.
</event>
<event>
 8    1  0.1116619E+005  0.1043930E+01  0.7957747E-01            NaN
         13   -1    0    0    0    0  0.00000000000E+00  0.00000000000E+00  0.74505805969E-08  0.10566000000E+00  0.10566000000E+00 0.  1.
     999900   -1    0    0    0    0 -0.00000000000E+00 -0.00000000000E+00 -0.74505805969E-08  0.93827000000E+00  0.93827000000E+00 0.  1.
     999902    2    1    2    0    0  0.22765429359E-01 -0.80213572689E-02  0.33456526607E-02  0.10195619812E+01  0.10192707360E+01 0.  0.
     999903    2    3    3    0    0 -0.12097477175E+00  0.25014573654E-01  0.20817343155E-01  0.12711709325E+00  0.21558509300E-01 0.  0.
         14    1    1    2    0    0 -0.22765429359E-01  0.80213572689E-02 -0.33456526607E-02  0.24368018755E-01  0.00000000000E+00 0. -1.
     999901    1    3    3    0    0  0.14374020111E+00 -0.33035930923E-01 -0.17471690494E-01  0.89244488800E+00  0.88000000000E+00 0. -1.
        -11    1    4    4    0    0 -0.48990146228E-01  0.19629007475E-01  0.14026484085E-01  0.54610765776E-01  0.51100000000E-03 0. -1.
         11    1    4    4    0    0 -0.71984625526E-01  0.53855661786E-02  0.67908590693E-02  0.72506327469E-01  0.51100000000E-03 0.  1.
</event>
<event>
 8    1  0.1116619E+005  0.1043930E+01  0.7957747E-01            NaN
         13   -1    0    0    0    0  0.00000000000E+00  0.00000000000E+00  0.74505805969E-08  0.10566000000E+00  0.10566000000E+00 0.  1.
     999900   -1    0    0    0    0 -0.00000000000E+00 -0.00000000000E+00 -0.74505805969E-08  0.93827000000E+00  0.93827000000E+00 0. -1.
     999902    2    1    2    0    0  0.69930699269E-02  0.21633121244E-01  0.69956785964E-02  0.10201427244E+01  0.10198653556E+01 0.  0.
     999903    2    3    3    0    0 -0.11659761953E+00  0.34279386510E-01 -0.41730864698E-01  0.13008156775E+00  0.20240256406E-01 0.  0.
         14    1    1    2    0    0 -0.69930699269E-02 -0.21633121244E-01 -0.69956785964E-02  0.23787275606E-01  0.00000000000E+00 0. -1.
     999901    1    3    3    0    0  0.12359068946E+00 -0.12646265266E-01  0.48726543294E-01  0.89006115664E+00  0.88000000000E+00 0.  1.
        -11    1    4    4    0    0 -0.10336485756E+00  0.35279280054E-01 -0.32661192630E-01  0.11399971932E+00  0.51100000000E-03 0.  1.
         11    1    4    4    0    0 -0.13232761969E-01 -0.99989354467E-03 -0.90696720675E-02  0.16081848427E-01  0.51100000000E-03 0. -1.
</event>
<event>
 8    1  0.1116619E+005  0.1043930E+01  0.7957747E-01            NaN
         13   -1    0    0    0    0  0.00000000000E+00  0.00000000000E+00  0.74505805969E-08  0.10566000000E+00  0.10566000000E+00 0. -1.
     999900   -1    0    0    0    0 -0.00000000000E+00 -0.00000000000E+00 -0.74505805969E-08  0.93827000000E+00  0.93827000000E+00 0. -1.
     999902    2    1    2    0    0 -0.14046421441E-01  0.85563083509E-02 -0.17272802231E-01  0.10200791706E+01  0.10198003001E+01 0.  0.
     999903    2    3    3    0    0 -0.29573578686E-01  0.12620443967E+00 -0.21236091161E-01  0.13210513768E+00  0.14093923725E-01 0.  0.
         14    1    1    2    0    0  0.14046421441E-01 -0.85563083509E-02  0.17272802231E-01  0.23850829436E-01  0.00000000000E+00 0. -1.
     999901    1    3    3    0    0  0.15527157245E-01 -0.11764813132E+00  0.39632889303E-02  0.88797403288E+00  0.88000000000E+00 0.  1.
        -11    1    4    4    0    0 -0.22096673243E-01  0.10883533271E+00 -0.14380099265E-01  0.11198411044E+00  0.51100000000E-03 0.  1.
         11    1    4    4    0    0 -0.74769054434E-02  0.17369106960E-01 -0.68559918955E-02  0.20121027246E-01  0.51100000000E-03 0. -1.
</event>
<event>
 8    1  0.1293421E+005  0.1043930E+01  0.7957747E-01            NaN
         13   -1    0    0    0    0  0.00000000000E+00  0.00000000000E+00  0.74505805969E-08  0.10566000000E+00  0.10566000000E+00 0.  1.
     999900   -1    0    0    0    0 -0.00000000000E+00 -0.00000000000E+00 -0.74505805969E-08  0.93827000000E+00  0.93827000000E+00 0. -1.
     999902    2    1    2    0    0 -0.16518068807E-01 -0.10520984063E-02 -0.17372217215E-01  0.10199352623E+01  0.10196529761E+01 0.  0.
     999903    2    3    3    0    0  0.11268905448E+00 -0.99041774757E-02  0.55167750713E-01  0.12750325535E+00  0.20412831160E-01 0.  0.
         14    1    1    2    0    0  0.16518068807E-01  0.10520984063E-02  0.17372217215E-01  0.23994737738E-01  0.00000000000E+00 0.  1.
     999901    1    3    3    0    0 -0.12920712328E+00  0.88520790694E-02 -0.72539967928E-01  0.89243200691E+00  0.88000000000E+00 0. -1.
        -11    1    4    4    0    0  0.74176570434E-01 -0.16050156243E-01  0.34609654491E-01  0.83413790358E-01  0.51100000000E-03 0. -1.
         11    1    4    4    0    0  0.38512484043E-01  0.61459787671E-02  0.20558096222E-01  0.44089464994E-01  0.51100000000E-03 0.  1.
</event>
<event>
 8    1  0.1116619E+005  0.1043930E+01  0.7957747E-01            NaN
         13   -1    0    0    0    0  0.00000000000E+00  0.00000000000E+00  0.74505805969E-08  0.10566000000E+00  0.10566000000E+00 0. -1.
     999900   -1    0    0    0    0 -0.00000000000E+00 -0.00000000000E+00 -0.74505805969E-08  0.93827000000E+00  0.93827000000E+00 0. -1.
     999902    2    1    2    0    0  0.16689032188E-01  0.86381767736E-02 -0.13671987026E-01  0.10206906988E+01  0.10204261058E+01 0.  0.
     999903    2    3    3    0    0  0.89249405146E-01 -0.20536732371E-02  0.94032110319E-01  0.13109556839E+00  0.19347774733E-01 0.  0.
         14    1    1    2    0    0 -0.16689032188E-01 -0.86381767736E-02  0.13671987026E-01  0.23239301250E-01  0.00000000000E+00 0.  1.
     999901    1    3    3    0    0 -0.72560372958E-01  0.10691850011E-01 -0.10770409735E+00  0.88959513036E+00  0.88000000000E+00 0. -1.
        -11    1    4    4    0    0  0.59719915036E-01 -0.79561908377E-02  0.53329035588E-01  0.80461272563E-01  0.51100000000E-03 0. -1.
         11    1    4    4    0    0  0.29529490109E-01  0.59025176006E-02  0.40703074731E-01  0.50634295825E-01  0.51100000000E-03 0.  1.
</event>
<event>
 8    1  0.1116619E+005  0.1043930E+01  0.7957747E-01            NaN
         13   -1    0    0    0    0  0.00000000000E+00  0.00000000000E+00  0.74505805969E-08  0.10566000000E+00  0.10566000000E+00 0. -1.
     999900   -1    0    0    0    0 -0.00000000000E+00 -0.00000000000E+00 -0.74505805969E-08  0.93827000000E+00  0.93827000000E+00 0. -1.
     999902    2    1    2    0    0  0.14720016353E-01 -0.16375162173E-01  0.16937561219E-05  0.10219112621E+01  0.10216740198E+01 0.  0.
     999903    2    3    3    0    0 -0.31656878537E-02  0.62161955653E-01  0.11344990804E+00  0.13098002194E+00  0.20267071886E-01 0.  0.
         14    1    1    2    0    0 -0.14720016353E-01  0.16375162173E-01 -0.16937561218E-05  0.22018737940E-01  0.00000000000E+00 0. -1.
     999901    1    3    3    0    0  0.17885704207E-01 -0.78537117826E-01 -0.11344821429E+00  0.89093124012E+00  0.88000000000E+00 0. -1.
        -11    1    4    4    0    0  0.53391366470E-02  0.39608844268E-01  0.83157557499E-01  0.92264876386E-01  0.51100000000E-03 0.  1.
         11    1    4    4    0    0 -0.85048245007E-02  0.22553111386E-01  0.30292350544E-01  0.38715145556E-01  0.51100000000E-03 0. -1.
</event>
<event>
 8    1  0.1116619E+005  0.1043930E+01  0.7957747E-01            NaN
         13   -1    0    0    0    0  0.00000000000E+00  0.00000000000E+00  0.74505805969E-08  0.10566000000E+00  0.10566000000E+00 0. -1.
     999900   -1    0    0    0    0 -0.00000000000E+00 -0.00000000000E+00 -0.74505805969E-08  0.93827000000E+00  0.93827000000E+00 0. -1.
     999902    2    1    2    0    0 -0.17743555949E-01  0.16634765757E-01 -0.13798442516E-02  0.10195691055E+01  0.10192780326E+01 0.  0.
     999903    2    3    3    0    0 -0.11695176979E+00  0.22700060634E-01 -0.53732803447E-01  0.13242769074E+00  0.21374515126E-01 0.  0.
         14    1    1    2    0    0  0.17743555949E-01 -0.16634765757E-01  0.13798442516E-02  0.24360894476E-01  0.00000000000E+00 0. -1.
     999901    1    3    3    0    0  0.99208213843E-01 -0.60652948773E-02  0.52352959196E-01  0.88714141479E+00  0.88000000000E+00 0. -1.
        -11    1    4    4    0    0 -0.39822857193E-01  0.18057722503E-01 -0.17834458515E-01  0.47225737988E-01  0.51100000000E-03 0.  1.
         11    1    4    4    0    0 -0.77128912599E-01  0.46423381313E-02 -0.35898344932E-01  0.85201952747E-01  0.51100000000E-03 0. -1.
</event>
<event>
 8    1  0.1116619E+005  0.1043930E+01  0.7957747E-01            NaN
         13   -1    0    0    0    0  0.00000000000E+00  0.00000000000E+00  0.74505805969E-08  0.10566000000E+00  0.10566000000E+00 0.  1.
     999900   -1    0    0    0    0 -0.00000000000E+00 -0.00000000000E+00 -0.74505805969E-08  0.93827000000E+00  0.93827000000E+00 0. -1.
     999902    2    1    2    0    0 -0.23078573995E-01  0.27783143390E-02  0.28607988718E-02  0.10205094155E+01  0.10202406301E+01 0.  0.
     999903    2    3    3    0    0 -0.65448073883E-01  0.75881078179E-01 -0.83772439900E-01  0.13222764339E+00  0.20614062890E-01 0.  0.
         14    1    1    2    0    0  0.23078573995E-01 -0.27783143390E-02 -0.28607988718E-02  0.23420584502E-01  0.00000000000E+00 0. -1.
     999901    1    3    3    0    0  0.42369499888E-01 -0.73102763840E-01  0.86633238771E-01  0.88828177211E+00  0.88000000000E+00 0. -1.
        -11    1    4    4    0    0 -0.26986138506E-01  0.39107481928E-01 -0.51117510377E-01  0.69791889230E-01  0.51100000000E-03 0. -1.
         11    1    4    4    0    0 -0.38461935377E-01  0.36773596251E-01 -0.32654929522E-01  0.62435754158E-01  0.51100000000E-03 0.  1.
</event>
<event>
 8    1  0.1116619E+005  0.1043930E+01  0.7957747E-01            NaN
         13   -1    0    0    0    0  0.00000000000E+00  0.00000000000E+00  0.74505805969E-08  0.10566000000E+00  0.10566000000E+00 0.  1.
     999900   -1    0    0    0    0 -0.00000000000E+00 -0.00000000000E+00 -0.74505805969E-08  0.93827000000E+00  0.93827000000E+00 0.  1.
     999902    2    1    2    0    0  0.18750197463E-02  0.22069902237E-01  0.71982958178E-02  0.10206402652E+01  0.10203745093E+01 0.  0.
     999903    2    3    3    0    0  0.86302740161E-01  0.43540798540E-01 -0.86722753835E-01  0.13136516552E+00  0.19799156117E-01 0.  0.
         14    1    1    2    0    0 -0.18750197463E-02 -0.22069902237E-01 -0.71982958178E-02  0.23289734787E-01  0.00000000000E+00 0.  1.
     999901    1    3    3    0    0 -0.84427720415E-01 -0.21470896303E-01  0.93921049653E-01  0.88927509969E+00  0.88000000000E+00 0.  1.
        -11    1    4    4    0    0  0.20362379932E-01  0.19707599240E-01 -0.28938782836E-01  0.40505928669E-01  0.51100000000E-03 0. -1.
         11    1    4    4    0    0  0.65940360229E-01  0.23833199300E-01 -0.57783970999E-01  0.90859236853E-01  0.51100000000E-03 0.  1.
</event>
<event>
 8    1  0.1116619E+005  0.1043930E+01  0.7957747E-01            NaN
         13   -1    0    0    0    0  0.00000000000E+00  0.00000000000E+00  0.74505805969E-08  0.10566000000E+00  0.10566000000E+00 0.  1.
     999900   -1    0    0    0    0 -0.00000000000E+00 -0.00000000000E+00 -0.74505805969E-08  0.93827000000E+00  0.93827000000E+00 0.  1.
     999902    2    1    2    0    0  0.20475697050E-01 -0.10535716296E-02 -0.13700194152E-01  0.10192711374E+01  0.10189728123E+01 0.  0.
     999903    2    3    3    0    0 -0.21563048416E-01 -0.10437901156E+00  0.68749231334E-01  0.12840565353E+00  0.20040257978E-01 0.  0.
         14    1    1    2    0    0 -0.20475697050E-01  0.10535716296E-02  0.13700194152E-01  0.24658862558E-01  0.00000000000E+00 0.  1.
     999901    1    3    3    0    0  0.42038745466E-01  0.10332543993E+00 -0.82449425486E-01  0.89086548391E+00  0.88000000000E+00 0.  1.
        -11    1    4    4    0    0 -0.20650161845E-03 -0.82367574219E-02  0.12522447927E-01  0.14998654567E-01  0.51100000000E-03 0.  1.
         11    1    4    4    0    0 -0.21356546798E-01 -0.96142254134E-01  0.56226783407E-01  0.11340699897E+00  0.51100000000E-03 0. -1.
</event>
<event>
 8    1  0.1116619E+005  0.1043930E+01  0.7957747E-01            NaN
         13   -1    0    0    0    0  0.00000000000E+00  0.00000000000E+00  0.74505805969E-08  0.10566000000E+00  0.10566000000E+00 0. -1.
     999900   -1    0    0    0    0 -0.00000000000E+00 -0.00000000000E+00 -0.74505805969E-08  0.93827000000E+00  0.93827000000E+00 0.  1.
     999902    2    1    2    0    0 -0.85206048211E-02 -0.33799152809E-02 -0.17223067709E-01  0.10244195260E+01  0.10242337168E+01 0.  0.
     999903    2    3    3    0    0  0.12278718683E+00 -0.86387020181E-02  0.44711506918E-01  0.13250849765E+00  0.20200561281E-01 0.  0.
         14    1    1    2    0    0  0.85206048211E-02  0.33799152809E-02  0.17223067709E-01  0.19510473985E-01  0.00000000000E+00 0. -1.
     999901    1    3    3    0    0 -0.13130779165E+00  0.52587867371E-02 -0.61934574626E-01  0.89191102837E+00  0.88000000000E+00 0. -1.
        -11    1    4    4    0    0  0.39660305600E-01 -0.11894496355E-01  0.11957040640E-01  0.43100473613E-01  0.51100000000E-03 0. -1.
         11    1    4    4    0    0  0.83126881230E-01  0.32557943367E-02  0.32754466277E-01  0.89408024036E-01  0.51100000000E-03 0.  1.
</event>
<event>
 8    1  0.1116619E+005  0.1043930E+01  0.7957747E-01            NaN
         13   -1    0    0    0    0  0.00000000000E+00  0.00000000000E+00  0.74505805969E-08  0.10566000000E+00  0.10566000000E+00 0. -1.
     999900   -1    0    0    0    0 -0.00000000000E+00 -0.00000000000E+00 -0.74505805969E-08  0.93827000000E+00  0.93827000000E+00 0. -1.
     999902    2    1    2    0    0  0.47992616855E-02  0.13450764380E-01 -0.19846255702E-01  0.10194794409E+01  0.10191861952E+01 0.  0.
     999903    2    3    3    0    0  0.59618524573E-02 -0.29681079581E-01  0.12260690477E+00  0.12698035938E+00  0.13230585758E-01 0.  0.
         14    1    1    2    0    0 -0.47992616855E-02 -0.13450764380E-01  0.19846255702E-01  0.24450559104E-01  0.00000000000E+00 0. -1.
     999901    1    3    3    0    0 -0.11625907718E-02  0.43131843961E-01 -0.14245316048E+00  0.89249908152E+00  0.88000000000E+00 0. -1.
        -11    1    4    4    0    0 -0.12564239027E-02 -0.13011894573E-01  0.32033067529E-01  0.34601539528E-01  0.51100000000E-03 0.  1.
         11    1    4    4    0    0  0.72182763599E-02 -0.16669185008E-01  0.90573837246E-01  0.92378819850E-01  0.51100000000E-03 0. -1.
</event>
<event>
 8    1  0.1116619E+005  0.1043930E+01  0.7957747E-01            NaN
         13   -1    0    0    0    0  0.00000000000E+00  0.00000000000E+00  0.74505805969E-08  0.10566000000E+00  0.10566000000E+00 0. -1.
     999900   -1    0    0    0    0 -0.00000000000E+00 -0.00000000000E+00 -0.74505805969E-08  0.93827000000E+00  0.93827000000E+00 0.  1.
     999902    2    1    2    0    0  0.90700805339E-02  0.21348397970E-01  0.79566460370E-02  0.10194079961E+01  0.10191130133E+01 0.  0.
     999903    2    3    3    0    0  0.15041929713E-01  0.88204213435E-01 -0.93738257912E-01  0.13101212913E+00  0.19263282840E-01 0.  0.
         14    1    1    2    0    0 -0.90700805339E-02 -0.21348397970E-01 -0.79566460370E-02  0.24522003853E-01  0.00000000000E+00 0. -1.
     999901    1    3    3    0    0 -0.59718491791E-02 -0.66855815464E-01  0.10169490395E+00  0.88839586702E+00  0.88000000000E+00 0. -1.
        -11    1    4    4    0    0  0.16120614665E-01  0.38148972719E-01 -0.44365598514E-01  0.60694198975E-01  0.51100000000E-03 0. -1.
         11    1    4    4    0    0 -0.10786849518E-02  0.50055240716E-01 -0.49372659397E-01  0.70317930155E-01  0.51100000000E-03 0.  1.
</event>
<event>
 8    1  0.1116619E+005  0.1043930E+01  0.7957747E-01            NaN
         13   -1    0    0    0    0  0.00000000000E+00  0.00000000000E+00  0.74505805969E-08  0.10566000000E+00  0.10566000000E+00 0. -1.
     999900   -1    0    0    0    0 -0.00000000000E+00 -0.00000000000E+00 -0.74505805969E-08  0.93827000000E+00  0.93827000000E+00 0.  1.
     999902    2    1    2    0    0  0.14387254466E-01 -0.16483456593E-01  0.60572941873E-03  0.10220424615E+01  0.10218080685E+01 0.  0.
     999903    2    3    3    0    0 -0.34855233201E-01 -0.76162921454E-01  0.10124155661E+00  0.13293390188E+00  0.20146751541E-01 0.  0.
         14    1    1    2    0    0 -0.14387254466E-01  0.16483456593E-01 -0.60572941873E-03  0.21887538474E-01  0.00000000000E+00 0.  1.
     999901    1    3    3    0    0  0.49242487667E-01  0.59679464860E-01 -0.10063582720E+00  0.88910855964E+00  0.88000000000E+00 0.  1.
        -11    1    4    4    0    0 -0.21272329288E-01 -0.33383153659E-01  0.34555475285E-01  0.52547967941E-01  0.51100000000E-03 0.  1.
         11    1    4    4    0    0 -0.13582903913E-01 -0.42779767795E-01  0.66686081329E-01  0.80385933940E-01  0.51100000000E-03 0. -1.
</event>
<event>
 8    1  0.1116619E+005  0.1043930E+01  0.7957747E-01            NaN
         13   -1    0    0    0    0  0.00000000000E+00  0.00000000000E+00  0.74505805969E-08  0.10566000000E+00  0.10566000000E+00 0. -1.
     999900   -1    0    0    0    0 -0.00000000000E+00 -0.00000000000E+00 -0.74505805969E-08  0.93827000000E+00  0.93827000000E+00 0. -1.
     999902    2    1    2    0    0 -0.85817634618E-03 -0.90138115477E-02  0.21427359443E-01  0.10206680784E+01  0.10204029641E+01 0.  0.
     999903    2    3    3    0    0 -0.73928453054E-01  0.35158168220E-01  0.10255164779E+00  0.13282148166E+00  0.20571644594E-01 0.  0.
         14    1    1    2    0    0  0.85817634618E-03  0.90138115477E-02 -0.21427359443E-01  0.23261921631E-01  0.00000000000E+00 0.  1.
     999901    1    3    3    0    0  0.73070276707E-01 -0.44171979767E-01 -0.81124288347E-01  0.88784659671E+00  0.88000000000E+00 0. -1.
        -11    1    4    4    0    0 -0.36717863348E-01  0.16350710493E-01  0.66477584042E-01  0.77685761395E-01  0.51100000000E-03 0.  1.
         11    1    4    4    0    0 -0.37210589706E-01  0.18807457727E-01  0.36074063749E-01  0.55135720261E-01  0.51100000000E-03 0. -1.
</event>
<event>
 8    1  0.1116619E+005  0.1043930E+01  0.7957747E-01            NaN
         13   -1    0    0    0    0  0.00000000000E+00  0.00000000000E+00  0.74505805969E-08  0.10566000000E+00  0.10566000000E+00 0.  1.
     999900   -1    0    0    0    0 -0.00000000000E+00 -0.00000000000E+00 -0.74505805969E-08  0.93827000000E+00  0.93827000000E+00 0. -1.
     999902    2    1    2    0    0  0.72328449119E-02 -0.14058129305E-01 -0.13981407391E-01  0.10228249106E+01  0.10226071450E+01 0.  0.
     999903    2    3    3    0    0  0.55252611056E-01  0.14805938559E-01  0.11658000962E+00  0.13142975921E+00  0.20268599272E-01 0.  0.
         14    1    1    2    0    0 -0.72328449119E-02  0.14058129305E-01  0.13981407391E-01  0.21105089379E-01  0.00000000000E+00 0. -1.
     999901    1    3    3    0    0 -0.48019766144E-01 -0.28864067865E-01 -0.13056141701E+00  0.89139515142E+00  0.88000000000E+00 0. -1.
        -11    1    4    4    0    0  0.11617272626E-01 -0.45170420488E-02  0.17942571353E-01  0.21853184663E-01  0.51100000000E-03 0. -1.
         11    1    4    4    0    0  0.43635338430E-01  0.19322980608E-01  0.98637438268E-01  0.10957657454E+00  0.51100000000E-03 0.  1.
</event>
<event>
 8    1  0.1116619E+005  0.1043930E+01  0.7957747E-01            NaN
         13   -1    0    0    0    0  0.00000000000E+00  0.00000000000E+00  0.74505805969E-08  0.10566000000E+00  0.10566000000E+00 0. -1.
     999900   -1    0    0    0    0 -0.00000000000E+00 -0.00000000000E+00 -0.74505805969E-08  0.93827000000E+00  0.93827000000E+00 0.  1.
     999902    2    1    2    0    0 -0.78269345037E-03  0.23516504152E-01 -0.57302794337E-02  0.10197127607E+01  0.10194251516E+01 0.  0.
     999903    2    3    3    0    0  0.89267628959E-01  0.88970535791E-01  0.31062973478E-01  0.13193630558E+00  0.23618098762E-01 0.  0.
         14    1    1    2    0    0  0.78269345037E-03 -0.23516504152E-01  0.57302794337E-02  0.24217239292E-01  0.00000000000E+00 0.  1.
     999901    1    3    3    0    0 -0.90050322409E-01 -0.65454031640E-01 -0.36793252912E-01  0.88777645513E+00  0.88000000000E+00 0. -1.
        -11    1    4    4    0    0  0.56614611793E-01  0.48420030831E-01  0.28642230408E-01  0.79814485765E-01  0.51100000000E-03 0.  1.
         11    1    4    4    0    0  0.32653017166E-01  0.40550504960E-01  0.24207430707E-02  0.52121819813E-01  0.51100000000E-03 0. -1.
</event>
<event>
 8    1  0.1265052E+005  0.1043930E+01  0.7957747E-01            NaN
         13   -1    0    0    0    0  0.00000000000E+00  0.00000000000E+00  0.74505805969E-08  0.10566000000E+00  0.10566000000E+00 0. -1.
     999900   -1    0    0    0    0 -0.00000000000E+00 -0.00000000000E+00 -0.74505805969E-08  0.93827000000E+00  0.93827000000E+00 0. -1.
     999902    2    1    2    0    0  0.22429671015E-01 -0.64709700508E-02  0.46802380373E-02  0.10201210054E+01  0.10198431239E+01 0.  0.
     999903    2    3    3    0    0 -0.29528737433E-01  0.71054248371E-01  0.10259376438E+00  0.12978573466E+00  0.19955046632E-01 0.  0.
         14    1    1    2    0    0 -0.22429671015E-01  0.64709700508E-02 -0.46802380373E-02  0.23808994589E-01  0.00000000000E+00 0.  1.
     999901    1    3    3    0    0  0.51958408449E-01 -0.77525218422E-01 -0.97913526342E-01  0.89033527075E+00  0.88000000000E+00 0. -1.
        -11    1    4    4    0    0 -0.12791608576E-01  0.25116170619E-01  0.53638137938E-01  0.60595034772E-01  0.51100000000E-03 0.  1.
         11    1    4    4    0    0 -0.16737128857E-01  0.45938077753E-01  0.48955626441E-01  0.69190699890E-01  0.51100000000E-03 0. -1.
</event>
<event>
 8    1  0.1116619E+005  0.1043930E+01  0.7957747E-01            NaN
         13   -1    0    0    0    0  0.00000000000E+00  0.00000000000E+00  0.74505805969E-08  0.10566000000E+00  0.10566000000E+00 0. -1.
     999900   -1    0    0    0    0 -0.00000000000E+00 -0.00000000000E+00 -0.74505805969E-08  0.93827000000E+00  0.93827000000E+00 0.  1.
     999902    2    1    2    0    0 -0.13260970928E-01 -0.15401659665E-01  0.11693642153E-01  0.10204820633E+01  0.10202126424E+01 0.  0.
     999903    2    3    3    0    0 -0.32954164709E-01 -0.66975528973E-01 -0.10547423477E+00  0.13100131740E+00  0.21559974691E-01 0.  0.
         14    1    1    2    0    0  0.13260970928E-01  0.15401659665E-01 -0.11693642153E-01  0.23447936736E-01  0.00000000000E+00 0.  1.
     999901    1    3    3    0    0  0.19693193781E-01  0.51573869309E-01  0.11716787692E+00  0.88948074586E+00  0.88000000000E+00 0. -1.
        -11    1    4    4    0    0 -0.50730731483E-02 -0.13382560763E-01 -0.37059506674E-01  0.39730305305E-01  0.51100000000E-03 0.  1.
         11    1    4    4    0    0 -0.27881091561E-01 -0.53592968211E-01 -0.68414728092E-01  0.91271012097E-01  0.51100000000E-03 0. -1.
</event>
<event>
 8    1  0.1116619E+005  0.1043930E+01  0.7957747E-01            NaN
         13   -1    0    0    0    0  0.00000000000E+00  0.00000000000E+00  0.74505805969E-08  0.10566000000E+00  0.10566000000E+00 0.  1.
     999900   -1    0    0    0    0 -0.00000000000E+00 -0.00000000000E+00 -0.74505805969E-08  0.93827000000E+00  0.93827000000E+00 0.  1.
     999902    2    1    2    0    0  0.29024515444E-02  0.11436740524E-01 -0.20580320822E-01  0.10202071658E+01  0.10199313154E+01 0.  0.
     999903    2    3    3    0    0 -0.33734629956E-01  0.11870124012E+00  0.39013487877E-01  0.13093815661E+00  0.19868038552E-01 0.  0.
         14    1    1    2    0    0 -0.29024515444E-02 -0.11436740524E-01  0.20580320822E-01  0.23722834231E-01  0.00000000000E+00 0.  1.
     999901    1    3    3    0    0  0.36637081500E-01 -0.10726449960E+00 -0.59593808699E-01  0.88926900916E+00  0.88000000000E+00 0. -1.
        -11    1    4    4    0    0 -0.26650731041E-01  0.65504132144E-01  0.28512256365E-01  0.76251312625E-01  0.51100000000E-03 0.  1.
         11    1    4    4    0    0 -0.70838989145E-02  0.53197107976E-01  0.10501231512E-01  0.54686843986E-01  0.51100000000E-03 0. -1.
</event>
<event>
 8    1  0.1116619E+005  0.1043930E+01  0.7957747E-01            NaN
         13   -1    0    0    0    0  0.00000000000E+00  0.00000000000E+00  0.74505805969E-08  0.10566000000E+00  0.10566000000E+00 0.  1.
     999900   -1    0    0    0    0 -0.00000000000E+00 -0.00000000000E+00 -0.74505805969E-08  0.93827000000E+00  0.93827000000E+00 0. -1.
     999902    2    1    2    0    0 -0.19970267805E-01  0.53430563260E-02 -0.12290968640E-01  0.10198794749E+01  0.10195958589E+01 0.  0.
     999903    2    3    3    0    0 -0.88144899066E-01  0.74756275459E-01  0.59665941763E-01  0.13159811616E+00  0.20000390483E-01 0.  0.
         14    1    1    2    0    0  0.19970267805E-01 -0.53430563260E-02  0.12290968640E-01  0.24050525092E-01  0.00000000000E+00 0.  1.
     999901    1    3    3    0    0  0.68174631262E-01 -0.69413219133E-01 -0.71956910403E-01  0.88828135874E+00  0.88000000000E+00 0. -1.
        -11    1    4    4    0    0 -0.18312110784E-01  0.18208731286E-01  0.22865818168E-01  0.34496348472E-01  0.51100000000E-03 0. -1.
         11    1    4    4    0    0 -0.69832788282E-01  0.56547544173E-01  0.36800123595E-01  0.97101767692E-01  0.51100000000E-03 0.  1.
</event>
<event>
 8    1  0.1116619E+005  0.1043930E+01  0.7957747E-01            NaN
         13   -1    0    0    0    0  0.00000000000E+00  0.00000000000E+00  0.74505805969E-08  0.10566000000E+00  0.10566000000E+00 0.  1.
     999900   -1    0    0    0    0 -0.00000000000E+00 -0.00000000000E+00 -0.74505805969E-08  0.93827000000E+00  0.93827000000E+00 0. -1.
     999902    2    1    2    0    0  0.22708018993E-01 -0.24139209378E-03 -0.59194630954E-02  0.10204618846E+01  0.10201919944E+01 0.  0.
     999903    2    3    3    0    0 -0.11560319929E+00  0.51015808578E-01  0.68785113138E-02  0.12809364118E+00  0.19848289152E-01 0.  0.
         14    1    1    2    0    0 -0.22708018993E-01  0.24139209378E-03  0.59194630954E-02  0.23468115392E-01  0.00000000000E+00 0. -1.
     999901    1    3    3    0    0  0.13831121828E+00 -0.51257200671E-01 -0.12797974409E-01  0.89236824342E+00  0.88000000000E+00 0. -1.
        -11    1    4    4    0    0 -0.57534105572E-01  0.14607553002E-01  0.38258995114E-02  0.59484893349E-01  0.51100000000E-03 0.  1.
         11    1    4    4    0    0 -0.58069093720E-01  0.36408255576E-01  0.30526118023E-02  0.68608747834E-01  0.51100000000E-03 0. -1.
</event>
<event>
 8    1  0.1116619E+005  0.1043930E+01  0.7957747E-01            NaN
         13   -1    0    0    0    0  0.00000000000E+00  0.00000000000E+00  0.74505805969E-08  0.10566000000E+00  0.10566000000E+00 0. -1.
     999900   -1    0    0    0    0 -0.00000000000E+00 -0.00000000000E+00 -0.74505805969E-08  0.93827000000E+00  0.93827000000E+00 0. -1.
     999902    2    1    2    0    0 -0.20256111526E-01  0.13483545852E-01 -0.55564564055E-02  0.10189702270E+01  0.10186644851E+01 0.  0.
     999903    2    3    3    0    0 -0.20893854649E-01  0.14409162071E-01  0.12529086539E+00  0.12929484508E+00  0.19369535355E-01 0.  0.
         14    1    1    2    0    0  0.20256111526E-01 -0.13483545852E-01  0.55564564055E-02  0.24959773049E-01  0.00000000000E+00 0. -1.
     999901    1    3    3    0    0  0.63774312328E-03 -0.92561621937E-03 -0.13084732180E+00  0.88967538187E+00  0.88000000000E+00 0. -1.
        -11    1    4    4    0    0 -0.17594452258E-01  0.14984200771E-01  0.66438614325E-01  0.70345160582E-01  0.51100000000E-03 0. -1.
         11    1    4    4    0    0 -0.32994023912E-02 -0.57503869952E-03  0.58852251069E-01  0.58949684499E-01  0.51100000000E-03 0.  1.
</event>
<event>
 8    1  0.1116619E+005  0.1043930E+01  0.7957747E-01            NaN
         13   -1    0    0    0    0  0.00000000000E+00  0.00000000000E+00  0.74505805969E-08  0.10566000000E+00  0.10566000000E+00 0. -1.
     999900   -1    0    0    0    0 -0.00000000000E+00 -0.00000000000E+00 -0.74505805969E-08  0.93827000000E+00  0.93827000000E+00 0. -1.
     999902    2    1    2    0    0  0.23121622387E-01 -0.48906219973E-02 -0.68060105797E-02  0.10193363141E+01  0.10190395831E+01 0.  0.
     999903    2    3    3    0    0 -0.49307331267E-01 -0.79399761824E-01  0.85761143087E-01  0.12840071421E+00  0.19905643705E-01 0.  0.
         14    1    1    2    0    0 -0.23121622387E-01  0.48906219973E-02  0.68060105797E-02  0.24593685884E-01  0.00000000000E+00 0. -1.
     999901    1    3    3    0    0  0.72428953655E-01  0.74509139826E-01 -0.92567153666E-01  0.89093559991E+00  0.88000000000E+00 0.  1.
        -11    1    4    4    0    0 -0.19945071972E-01 -0.24265769198E-01  0.40519896277E-01  0.51271401054E-01  0.51100000000E-03 0.  1.
         11    1    4    4    0    0 -0.29362259296E-01 -0.55133992625E-01  0.45241246810E-01  0.77129313154E-01  0.51100000000E-03 0. -1.
</event>
<event>
 8    1  0.1116619E+005  0.1043930E+01  0.7957747E-01            NaN
         13   -1    0    0    0    0  0.00000000000E+00  0.00000000000E+00  0.74505805969E-08  0.10566000000E+00  0.10566000000E+00 0.  1.
     999900   -1    0    0    0    0 -0.00000000000E+00 -0.00000000000E+00 -0.74505805969E-08  0.93827000000E+00  0.93827000000E+00 0. -1.
     999902    2    1    2    0    0 -0.80697407901E-02 -0.22868122824E-01 -0.30125022165E-02  0.10194934101E+01  0.10192005035E+01 0.  0.
     999903    2    3    3    0    0 -0.26688680176E-01 -0.57098987166E-01 -0.11385020794E+00  0.13168520218E+00  0.20162902568E-01 0.  0.
         14    1    1    2    0    0  0.80697407901E-02  0.22868122824E-01  0.30125022165E-02  0.24436589932E-01  0.00000000000E+00 0.  1.
     999901    1    3    3    0    0  0.18618939386E-01  0.34230864342E-01  0.11083770573E+00  0.88780820789E+00  0.88000000000E+00 0.  1.
        -11    1    4    4    0    0 -0.18573070349E-01 -0.53790795030E-01 -0.10349417141E+00  0.11810890402E+00  0.51100000000E-03 0.  1.
         11    1    4    4    0    0 -0.81156098264E-02 -0.33081921360E-02 -0.10356036531E-01  0.13576298159E-01  0.51100000000E-03 0. -1.
</event>
<event>
 8    1  0.1116619E+005  0.1043930E+01  0.7957747E-01            NaN
         13   -1    0    0    0    0  0.00000000000E+00  0.00000000000E+00  0.74505805969E-08  0.10566000000E+00  0.10566000000E+00 0. -1.
     999900   -1    0    0    0    0 -0.00000000000E+00 -0.00000000000E+00 -0.74505805969E-08  0.93827000000E+00  0.93827000000E+00 0.  1.
     999902    2    1    2    0    0  0.22016859686E-01  0.76996428792E-03  0.76994596302E-02  0.10205929772E+01  0.10203261285E+01 0.  0.
     999903    2    3    3    0    0 -0.69470205345E-01  0.70821472606E-01  0.82011339334E-01  0.12997557765E+00  0.18055486513E-01 0.  0.
         14    1    1    2    0    0 -0.22016859686E-01 -0.76996428792E-03 -0.76994596302E-02  0.23337022818E-01  0.00000000000E+00 0.  1.
     999901    1    3    3    0    0  0.91487065031E-01 -0.70051508318E-01 -0.74311879703E-01  0.89061739953E+00  0.88000000000E+00 0.  1.
        -11    1    4    4    0    0 -0.32779053249E-01  0.30824088619E-01  0.25960316355E-01  0.51949878897E-01  0.51100000000E-03 0. -1.
         11    1    4    4    0    0 -0.36691152096E-01  0.39997383986E-01  0.56051022978E-01  0.78025698752E-01  0.51100000000E-03 0.  1.
</event>
<event>
 8    1  0.1116619E+005  0.1043930E+01  0.7957747E-01            NaN
         13   -1    0    0    0    0  0.00000000000E+00  0.00000000000E+00  0.74505805969E-08  0.10566000000E+00  0.10566000000E+00 0.  1.
     999900   -1    0    0    0    0 -0.00000000000E+00 -0.00000000000E+00 -0.74505805969E-08  0.93827000000E+00  0.93827000000E+00 0.  1.
     999902    2    1    2    0    0  0.11597565828E-01  0.17588778713E-01  0.21119878867E-02  0.10227562152E+01  0.10225370148E+01 0.  0.
     999903    2    3    3    0    0  0.36988416691E-01  0.83626926509E-02 -0.12591377161E+00  0.13308188655E+00  0.20455636080E-01 0.  0.
         14    1    1    2    0    0 -0.11597565828E-01 -0.17588778713E-01 -0.21119878867E-02  0.21173784796E-01  0.00000000000E+00 0. -1.
     999901    1    3    3    0    0 -0.25390850864E-01  0.92260860625E-02  0.12802575950E+00  0.88967432865E+00  0.88000000000E+00 0. -1.
        -11    1    4    4    0    0  0.21252346424E-01  0.18814955527E-02 -0.98698734270E-01  0.10097971837E+00  0.51100000000E-03 0.  1.
         11    1    4    4    0    0  0.15736070267E-01  0.64811970982E-02 -0.27215037345E-01  0.32102168182E-01  0.51100000000E-03 0. -1.
</event>
<event>
 8    1  0.1116619E+005  0.1043930E+01  0.7957747E-01            NaN
         13   -1    0    0    0    0  0.00000000000E+00  0.00000000000E+00  0.74505805969E-08  0.10566000000E+00  0.10566000000E+00 0. -1.
     999900   -1    0    0    0    0 -0.00000000000E+00 -0.00000000000E+00 -0.74505805969E-08  0.93827000000E+00  0.93827000000E+00 0. -1.
     999902    2    1    2    0    0  0.20359197439E-01  0.10312228225E-01  0.30398387952E-02  0.10209065426E+01  0.10206468974E+01 0.  0.
     999903    2    3    3    0    0 -0.64384411958E-01  0.90770352298E-01 -0.65570731428E-01  0.13053448586E+00  0.18844676125E-01 0.  0.
         14    1    1    2    0    0 -0.20359197439E-01 -0.10312228225E-01 -0.30398387952E-02  0.23023457412E-01  0.00000000000E+00 0. -1.
     999901    1    3    3    0    0  0.84743609397E-01 -0.80458124073E-01  0.68610570223E-01  0.89037205673E+00  0.88000000000E+00 0.  1.
        -11    1    4    4    0    0 -0.34112187253E-01  0.58649229553E-01 -0.31669153497E-01  0.74877031529E-01  0.51100000000E-03 0.  1.
         11    1    4    4    0    0 -0.30272224705E-01  0.32121122744E-01 -0.33901577931E-01  0.55657454327E-01  0.51100000000E-03 0. -1.
</event>
<event>
 8    1  0.1116619E+005  0.1043930E+01  0.7957747E-01            NaN
         13   -1    0    0    0    0  0.00000000000E+00  0.00000000000E+00  0.74505805969E-08  0.10566000000E+00  0.10566000000E+00 0.  1.
     999900   -1    0    0    0    0 -0.00000000000E+00 -0.00000000000E+00 -0.74505805969E-08  0.93827000000E+00  0.93827000000E+00 0.  1.
     999902    2    1    2    0    0 -0.29308309469E-02 -0.17383834983E-01 -0.17239928908E-01  0.10192722905E+01  0.10189739936E+01 0.  0.
     999903    2    3    3    0    0 -0.73089206340E-01  0.79366051151E-01  0.64692170937E-01  0.12742274765E+00  0.20260243822E-01 0.  0.
         14    1    1    2    0    0  0.29308309469E-02  0.17383834983E-01  0.17239928908E-01  0.24657709494E-01  0.00000000000E+00 0.  1.
     999901    1    3    3    0    0  0.70158375393E-01 -0.96749886134E-01 -0.81932099845E-01  0.89184954285E+00  0.88000000000E+00 0.  1.
        -11    1    4    4    0    0 -0.46156397567E-01  0.36527702466E-01  0.29990646489E-01  0.66063500374E-01  0.51100000000E-03 0. -1.
         11    1    4    4    0    0 -0.26932808773E-01  0.42838348684E-01  0.34701524448E-01  0.61359247277E-01  0.51100000000E-03 0.  1.
</event>
<event>
 8    1  0.1116619E+005  0.1043930E+01  0.7957747E-01            NaN
         13   -1    0    0    0    0  0.00000000000E+00  0.00000000000E+00  0.74505805969E-08  0.10566000000E+00  0.10566000000E+00 0. -1.
     999900   -1    0    0    0    0 -0.00000000000E+00 -0.00000000000E+00 -0.74505805969E-08  0.93827000000E+00  0.93827000000E+00 0. -1.
     999902    2    1    2    0    0  0.90821756177E-02 -0.15784545258E-01 -0.14863188721E-01  0.10204235719E+01  0.10201527895E+01 0.  0.
     999903    2    3    3    0    0 -0.37183683243E-02 -0.90830884156E-01  0.92364555411E-01  0.13065191804E+00  0.16572169784E-01 0.  0.
         14    1    1    2    0    0 -0.90821756177E-02  0.15784545258E-01  0.14863188721E-01  0.23506428098E-01  0.00000000000E+00 0. -1.
     999901    1    3    3    0    0  0.12800543942E-01  0.75046338898E-01 -0.10722774413E+00  0.88977165386E+00  0.88000000000E+00 0. -1.
        -11    1    4    4    0    0 -0.50143177656E-02 -0.38726034735E-01  0.29224384064E-01  0.48776786424E-01  0.51100000000E-03 0.  1.
         11    1    4    4    0    0  0.12959494413E-02 -0.52104849421E-01  0.63140171347E-01  0.81875131615E-01  0.51100000000E-03 0. -1.
</event>
<event>
 8    1  0.1116619E+005  0.1043930E+01  0.7957747E-01            NaN
         13   -1    0    0    0    0  0.00000000000E+00  0.00000000000E+00  0.74505805969E-08  0.10566000000E+00  0.10566000000E+00 0.  1.
     999900   -1    0    0    0    0 -0.00000000000E+00 -0.00000000000E+00 -0.74505805969E-08  0.93827000000E+00  0.93827000000E+00 0. -1.
     999902    2    1    2    0    0 -0.10287175764E-01 -0.16803748938E-01  0.12005241348E-01  0.10208579870E+01  0.10205972329E+01 0.  0.
     999903    2    3    3    0    0  0.12708557199E+00  0.14444665718E-01 -0.19380144622E-02  0.12954314386E+00  0.20451876274E-01 0.  0.
         14    1    1    2    0    0  0.10287175764E-01  0.16803748938E-01 -0.12005241348E-01  0.23072012990E-01  0.00000000000E+00 0. -1.
     999901    1    3    3    0    0 -0.13737274776E+00 -0.31248414656E-01  0.13943255810E-01  0.89131484315E+00  0.88000000000E+00 0. -1.
        -11    1    4    4    0    0  0.18096799481E-01  0.93732984299E-02  0.77796741575E-03  0.20401451645E-01  0.51100000000E-03 0.  1.
         11    1    4    4    0    0  0.10898877251E+00  0.50713672879E-02 -0.27159818779E-02  0.10914169221E+00  0.51100000000E-03 0. -1.
</event>
<event>
 8    1  0.1116619E+005  0.1043930E+01  0.7957747E-01            NaN
         13   -1    0    0    0    0  0.00000000000E+00  0.00000000000E+00  0.74505805969E-08  0.10566000000E+00  0.10566000000E+00 0. -1.
     999900   -1    0    0    0    0 -0.00000000000E+00 -0.00000000000E+00 -0.74505805969E-08  0.93827000000E+00  0.93827000000E+00 0. -1.
     999902    2    1    2    0    0  0.11095933947E-01 -0.53509463110E-02  0.20507762920E-01  0.10200067745E+01  0.10197261884E+01 0.  0.
     999903    2    3    3    0    0  0.20494051369E-01  0.12486381920E+00 -0.20160268051E-01  0.12944622156E+00  0.18409464482E-01 0.  0.
         14    1    1    2    0    0 -0.11095933947E-01  0.53509463110E-02 -0.20507762920E-01  0.23923225463E-01  0.00000000000E+00 0.  1.
     999901    1    3    3    0    0 -0.93981174213E-02 -0.13021476551E+00  0.40668030971E-01  0.89056055297E+00  0.88000000000E+00 0.  1.
        -11    1    4    4    0    0 -0.16824124327E-02  0.21936313483E-01 -0.81731173074E-02  0.23475377065E-01  0.51100000000E-03 0.  1.
         11    1    4    4    0    0  0.22176463801E-01  0.10292750572E+00 -0.11987150744E-01  0.10597084450E+00  0.51100000000E-03 0. -1.
</event>
<event>
 8    1  0.1116619E+005  0.1043930E+01  0.7957747E-01            NaN
         13   -1    0    0    0    0  0.00000000000E+00  0.00000000000E+00  0.74505805969E-08  0.10566000000E+00  0.10566000000E+00 0.  1.
     999900   -1    0    0    0    0 -0.00000000000E+00 -0.00000000000E+00 -0.74505805969E-08  0.93827000000E+00  0.93827000000E+00 0. -1.
     999902    2    1    2    0    0 -0.14228612780E-01 -0.11140961997E-01  0.17370468185E-01  0.10188639349E+01  0.10185555509E+01 0.  0.
     999903    2    3    3    0    0  0.82854501246E-01  0.74437053971E-01 -0.55948215115E-01  0.12638180219E+00  0.20890518646E-01 0.  0.
         14    1    1    2    0    0  0.14228612780E-01  0.11140961997E-01 -0.17370468185E-01  0.25066065124E-01  0.00000000000E+00 0. -1.
     999901    1    3    3    0    0 -0.97083114025E-01 -0.85578015968E-01  0.73318683299E-01  0.89248213269E+00  0.88000000000E+00 0. -1.
        -11    1    4    4    0    0  0.72020472463E-01  0.70394111206E-01 -0.44506436085E-01  0.11010614570E+00  0.51100000000E-03 0.  1.
         11    1    4    4    0    0  0.10834028782E-01  0.40429427652E-02 -0.11441779029E-01  0.16275656491E-01  0.51100000000E-03 0. -1.
</event>
<event>
 8    1  0.1116619E+005  0.1043930E+01  0.7957747E-01            NaN
         13   -1    0    0    0    0  0.00000000000E+00  0.00000000000E+00  0.74505805969E-08  0.10566000000E+00  0.10566000000E+00 0.  1.
     999900   -1    0    0    0    0 -0.00000000000E+00 -0.00000000000E+00 -0.74505805969E-08  0.93827000000E+00  0.93827000000E+00 0.  1.
     999902    2    1    2    0    0  0.97926309445E-02 -0.14215495306E-01 -0.14576802711E-01  0.10213366580E+01  0.10210867298E+01 0.  0.
     999903    2    3    3    0    0 -0.21374949954E-01  0.61157899734E-01  0.10967527528E+00  0.12887313171E+00  0.19556095818E-01 0.  0.
         14    1    1    2    0    0 -0.97926309445E-02  0.14215495306E-01  0.14576802711E-01  0.22593342048E-01  0.00000000000E+00 0.  1.
     999901    1    3    3    0    0  0.31167580899E-01 -0.75373395040E-01 -0.12425207800E+00  0.89246352624E+00  0.88000000000E+00 0. -1.
        -11    1    4    4    0    0 -0.20735904543E-01  0.32296632392E-01  0.55431944036E-01  0.67424118397E-01  0.51100000000E-03 0. -1.
         11    1    4    4    0    0 -0.63904541086E-03  0.28861267342E-01  0.54243331249E-01  0.61449013317E-01  0.51100000000E-03 0.  1.
</event>
<event>
 8    1  0.1116619E+005  0.1043930E+01  0.7957747E-01            NaN
         13   -1    0    0    0    0  0.00000000000E+00  0.00000000000E+00  0.74505805969E-08  0.10566000000E+00  0.10566000000E+00 0.  1.
     999900   -1    0    0    0    0 -0.00000000000E+00 -0.00000000000E+00 -0.74505805969E-08  0.93827000000E+00  0.93827000000E+00 0. -1.
     999902    2    1    2    0    0  0.25794102217E-02  0.19757930344E-01 -0.93019766256E-02  0.10219400946E+01  0.10217034800E+01 0.  0.
     999903    2    3    3    0    0 -0.26095100566E-01  0.13408575647E-01  0.12618399598E+00  0.13108713784E+00  0.20017309748E-01 0.  0.
         14    1    1    2    0    0 -0.25794102217E-02 -0.19757930344E-01  0.93019766256E-02  0.21989905360E-01  0.00000000000E+00 0.  1.
     999901    1    3    3    0    0  0.28674510788E-01  0.63493546974E-02 -0.13548597261E+00  0.89085295680E+00  0.88000000000E+00 0. -1.
        -11    1    4    4    0    0 -0.17979145113E-01  0.57561314722E-02  0.40594314915E-01  0.44772114457E-01  0.51100000000E-03 0. -1.
         11    1    4    4    0    0 -0.81159554533E-02  0.76524441748E-02  0.85589681067E-01  0.86315023379E-01  0.51100000000E-03 0.  1.
</event>
<event>
 8    1  0.1116619E+005  0.1043930E+01  0.7957747E-01            NaN
         13   -1    0    0    0    0  0.00000000000E+00  0.00000000000E+00  0.74505805969E-08  0.10566000000E+00  0.10566000000E+00 0. -1.
     999900   -1    0    0    0    0 -0.00000000000E+00 -0.00000000000E+00 -0.74505805969E-08  0.93827000000E+00  0.93827000000E+00 0. -1.
     999902    2    1    2    0    0  0.12139860309E-01  0.77734101940E-02  0.16849140725E-01  0.10217557885E+01  0.10215151470E+01 0.  0.
     999903    2    3    3    0    0  0.54019273157E-02  0.21426628368E-01 -0.12657022014E+00  0.13001539845E+00  0.19892259432E-01 0.  0.
         14    1    1    2    0    0 -0.12139860309E-01 -0.77734101940E-02 -0.16849140725E-01  0.22174211543E-01  0.00000000000E+00 0.  1.
     999901    1    3    3    0    0  0.67379329935E-02 -0.13653218174E-01  0.14341936086E+00  0.89174039001E+00  0.88000000000E+00 0.  1.
        -11    1    4    4    0    0  0.12680895873E-01  0.10560278493E-01 -0.64440821479E-01  0.66522215807E-01  0.51100000000E-03 0. -1.
         11    1    4    4    0    0 -0.72789685578E-02  0.10866349875E-01 -0.62129398659E-01  0.63493182638E-01  0.51100000000E-03 0.  1.
</event>
<event>
 8    1  0.1116619E+005  0.1043930E+01  0.7957747E-01            NaN
         13   -1    0    0    0    0  0.00000000000E+00  0.00000000000E+00  0.74505805969E-08  0.10566000000E+00  0.10566000000E+00 0. -1.
     999900   -1    0    0    0    0 -0.00000000000E+00 -0.00000000000E+00 -0.74505805969E-08  0.93827000000E+00  0.93827000000E+00 0.  1.
     999902    2    1    2    0    0  0.75515820323E-02  0.17524678889E-01  0.95982696923E-02  0.10225695800E+01  0.10223464571E+01 0.  0.
     999903    2    3    3    0    0  0.11470250457E+00 -0.57854747347E-01  0.26754004108E-01  0.13270571551E+00  0.19778620978E-01 0.  0.
         14    1    1    2    0    0 -0.75515820323E-02 -0.17524678889E-01 -0.95982696923E-02  0.21360419997E-01  0.00000000000E+00 0.  1.
     999901    1    3    3    0    0 -0.10715092254E+00  0.75379426236E-01 -0.17155734416E-01  0.88986386449E+00  0.88000000000E+00 0.  1.
        -11    1    4    4    0    0  0.83497833543E-01 -0.51537339354E-01  0.21076829831E-01  0.10036174286E+00  0.51100000000E-03 0.  1.
         11    1    4    4    0    0  0.31204671031E-01 -0.63174079932E-02  0.56771742767E-02  0.32343972649E-01  0.51100000000E-03 0. -1.
</event>
<event>
 8    1  0.1116619E+005  0.1043930E+01  0.7957747E-01            NaN
         13   -1    0    0    0    0  0.00000000000E+00  0.00000000000E+00  0.74505805969E-08  0.10566000000E+00  0.10566000000E+00 0. -1.
     999900   -1    0    0    0    0 -0.00000000000E+00 -0.00000000000E+00 -0.74505805969E-08  0.93827000000E+00  0.93827000000E+00 0.  1.
     999902    2    1    2    0    0  0.20847558592E-02  0.18403009515E-01  0.15676224892E-01  0.10196656024E+01  0.10193768585E+01 0.  0.
     999903    2    3    3    0    0 -0.79918337367E-01 -0.98006654872E-01  0.52938046896E-02  0.12815928611E+00  0.20113010726E-01 0.  0.
         14    1    1    2    0    0 -0.20847558592E-02 -0.18403009515E-01 -0.15676224892E-01  0.24264397645E-01  0.00000000000E+00 0. -1.
     999901    1    3    3    0    0  0.82003093226E-01  0.11640966439E+00  0.10382420203E-01  0.89150631625E+00  0.88000000000E+00 0.  1.
        -11    1    4    4    0    0 -0.26277960187E-01 -0.36299341314E-01  0.11163099526E-01  0.46184946503E-01  0.51100000000E-03 0. -1.
         11    1    4    4    0    0 -0.53640377180E-01 -0.61707313558E-01 -0.58692948367E-02  0.81974339604E-01  0.51100000000E-03 0.  1.
</event>
<event>
 8    1  0.1116619E+005  0.1043930E+01  0.7957747E-01            NaN
         13   -1    0    0    0    0  0.00000000000E+00  0.00000000000E+00  0.74505805969E-08  0.10566000000E+00  0.10566000000E+00 0. -1.
     999900   -1    0    0    0    0 -0.00000000000E+00 -0.00000000000E+00 -0.74505805969E-08  0.93827000000E+00  0.93827000000E+00 0. -1.
     999902    2    1    2    0    0 -0.21992596682E-01  0.11034442031E-01 -0.86249854386E-02  0.10178565730E+01  0.10175225696E+01 0.  0.
     999903    2    3    3    0    0  0.48462670463E-02  0.53197864998E-01 -0.11670116072E+00  0.12983712589E+00  0.19621906215E-01 0.  0.
         14    1    1    2    0    0  0.21992596682E-01 -0.11034442031E-01  0.86249854386E-02  0.26073426962E-01  0.00000000000E+00 0. -1.
     999901    1    3    3    0    0 -0.26838863728E-01 -0.42163422967E-01  0.10807617528E+00  0.88801944714E+00  0.88000000000E+00 0.  1.
        -11    1    4    4    0    0 -0.69533048043E-02  0.26843916881E-01 -0.50593758333E-01  0.57696913474E-01  0.51100000000E-03 0.  1.
         11    1    4    4    0    0  0.11799571851E-01  0.26353948117E-01 -0.66107402383E-01  0.72140212420E-01  0.51100000000E-03 0. -1.
</event>
<event>
 8    1  0.1116619E+005  0.1043930E+01  0.7957747E-01            NaN
         13   -1    0    0    0    0  0.00000000000E+00  0.00000000000E+00  0.74505805969E-08  0.10566000000E+00  0.10566000000E+00 0.  1.
     999900   -1    0    0    0    0 -0.00000000000E+00 -0.00000000000E+00 -0.74505805969E-08  0.93827000000E+00  0.93827000000E+00 0. -1.
     999902    2    1    2    0    0  0.10068909901E-02  0.19731205318E-02  0.23114761939E-01  0.10207093356E+01  0.10204451718E+01 0.  0.
     999903    2    3    3    0    0  0.11996205440E+00 -0.28943789297E-01  0.42710920993E-01  0.13195166581E+00  0.18930977377E-01 0.  0.
         14    1    1    2    0    0 -0.10068909901E-02 -0.19731205318E-02 -0.23114761939E-01  0.23220664366E-01  0.00000000000E+00 0. -1.
     999901    1    3    3    0    0 -0.11895516341E+00  0.30916909828E-01 -0.19596159054E-01  0.88875766982E+00  0.88000000000E+00 0.  1.
        -11    1    4    4    0    0  0.40948107885E-01 -0.24521821020E-02  0.19611934907E-01  0.45471417926E-01  0.51100000000E-03 0.  1.
         11    1    4    4    0    0  0.79013946514E-01 -0.26491607194E-01  0.23098986086E-01  0.86480247888E-01  0.51100000000E-03 0. -1.
</event>
<event>
 8    1  0.1116619E+005  0.1043930E+01  0.7957747E-01            NaN
         13   -1    0    0    0    0  0.00000000000E+00  0.00000000000E+00  0.74505805969E-08  0.10566000000E+00  0.10566000000E+00 0.  1.
     999900   -1    0    0    0    0 -0.00000000000E+00 -0.00000000000E+00 -0.74505805969E-08  0.93827000000E+00  0.93827000000E+00 0.  1.
     999902    2    1    2    0    0 -0.98687315629E-02 -0.30023577351E-02  0.21598762891E-01  0.10199944078E+01  0.10197135281E+01 0.  0.
     999903    2    3    3    0    0 -0.23580666965E-01  0.11641208341E+00  0.52771070628E-01  0.13127648930E+00  0.18463740953E-01 0.  0.
         14    1    1    2    0    0  0.98687315629E-02  0.30023577351E-02 -0.21598762891E-01  0.23935592181E-01  0.00000000000E+00 0. -1.
     999901    1    3    3    0    0  0.13711935402E-01 -0.11941444114E+00 -0.31172307737E-01  0.88871791852E+00  0.88000000000E+00 0.  1.
        -11    1    4    4    0    0 -0.18457132435E-02  0.48141680991E-02  0.70101596833E-02  0.87170139181E-02  0.51100000000E-03 0. -1.
         11    1    4    4    0    0 -0.21734953722E-01  0.11159791531E+00  0.45760910945E-01  0.12255947538E+00  0.51100000000E-03 0.  1.
</event>
<event>
 8    1  0.1116619E+005  0.1043930E+01  0.7957747E-01            NaN
         13   -1    0    0    0    0  0.00000000000E+00  0.00000000000E+00  0.74505805969E-08  0.10566000000E+00  0.10566000000E+00 0. -1.
     999900   -1    0    0    0    0 -0.00000000000E+00 -0.00000000000E+00 -0.74505805969E-08  0.93827000000E+00  0.93827000000E+00 0. -1.
     999902    2    1    2    0    0 -0.53500061391E-02 -0.43072981624E-02  0.22524717584E-01  0.10203813634E+01  0.10201095963E+01 0.  0.
     999903    2    3    3    0    0 -0.60383115382E-01  0.11273269191E+00 -0.14448294590E-01  0.13016003923E+00  0.19444848853E-01 0.  0.
         14    1    1    2    0    0  0.53500061391E-02  0.43072981624E-02 -0.22524717584E-01  0.23548636593E-01  0.00000000000E+00 0.  1.
     999901    1    3    3    0    0  0.55033109243E-01 -0.11703999008E+00  0.36973012173E-01  0.89022132418E+00  0.88000000000E+00 0.  1.
        -11    1    4    4    0    0 -0.24744641908E-01  0.27816567083E-01 -0.29049149789E-02  0.37346463815E-01  0.51100000000E-03 0. -1.
         11    1    4    4    0    0 -0.35638473473E-01  0.84916124829E-01 -0.11543379611E-01  0.92813575415E-01  0.51100000000E-03 0.  1.
</event>
<event>
 8    1  0.1116619E+005  0.1043930E+01  0.7957747E-01            NaN
         13   -1    0    0    0    0  0.00000000000E+00  0.00000000000E+00  0.74505805969E-08  0.10566000000E+00  0.10566000000E+00 0. -1.
     999900   -1    0    0    0    0 -0.00000000000E+00 -0.00000000000E+00 -0.74505805969E-08  0.93827000000E+00  0.93827000000E+00 0.  1.
     999902    2    1    2    0    0 -0.21177590905E-01 -0.22433214824E-02  0.10665767516E-01  0.10201123292E+01  0.10198342427E+01 0.  0.
     999903    2    3    3    0    0  0.63841782870E-01 -0.58908994077E-01 -0.91871275961E-01  0.12828659637E+00  0.21704300009E-01 0.  0.
         14    1    1    2    0    0  0.21177590905E-01  0.22433214824E-02 -0.10665767516E-01  0.23817670845E-01  0.00000000000E+00 0.  1.
     999901    1    3    3    0    0 -0.85019373775E-01  0.56665672595E-01  0.10253704348E+00  0.89182573278E+00  0.88000000000E+00 0. -1.
        -11    1    4    4    0    0  0.31251386266E-01 -0.38814317050E-01 -0.63020605701E-01  0.80343376924E-01  0.51100000000E-03 0.  1.
         11    1    4    4    0    0  0.32590396604E-01 -0.20094677027E-01 -0.28850670260E-01  0.47943219448E-01  0.51100000000E-03 0. -1.
</event>
<event>
 8    1  0.1116619E+005  0.1043930E+01  0.7957747E-01            NaN
         13   -1    0    0    0    0  0.00000000000E+00  0.00000000000E+00  0.74505805969E-08  0.10566000000E+00  0.10566000000E+00 0. -1.
     999900   -1    0    0    0    0 -0.00000000000E+00 -0.00000000000E+00 -0.74505805969E-08  0.93827000000E+00  0.93827000000E+00 0.  1.
     999902    2    1    2    0    0  0.70725216366E-02  0.22856231983E-01  0.38392758212E-02  0.10196984515E+01  0.10194104983E+01 0.  0.
     999903    2    3    3    0    0 -0.70518031654E-01  0.32541159498E-01  0.10315989930E+00  0.13066601228E+00  0.19998052166E-01 0.  0.
         14    1    1    2    0    0 -0.70725216366E-02 -0.22856231983E-01 -0.38392758212E-02  0.24231548477E-01  0.00000000000E+00 0. -1.
     999901    1    3    3    0    0  0.77590553291E-01 -0.96849275148E-02 -0.99320623482E-01  0.88903243924E+00  0.88000000000E+00 0.  1.
        -11    1    4    4    0    0 -0.51439879715E-01  0.31735083772E-01  0.70829973576E-01  0.93114569456E-01  0.51100000000E-03 0.  1.
         11    1    4    4    0    0 -0.19078151939E-01  0.80607572596E-03  0.32329925727E-01  0.37551442822E-01  0.51100000000E-03 0. -1.
</event>
<event>
 8    1  0.1116619E+005  0.1043930E+01  0.7957747E-01            NaN
         13   -1    0    0    0    0  0.00000000000E+00  0.00000000000E+00  0.74505805969E-08  0.10566000000E+00  0.10566000000E+00 0.  1.
     999900   -1    0    0    0    0 -0.00000000000E+00 -0.00000000000E+00 -0.74505805969E-08  0.93827000000E+00  0.93827000000E+00 0.  1.
     999902    2    1    2    0    0 -0.29454415856E-01 -0.12125198369E-01  0.82188088694E-02  0.10110342272E+01  0.10104989246E+01 0.  0.
     999903    2    3    3    0    0  0.39018223033E-01  0.97351753169E-01  0.55870577224E-01  0.12033540256E+00  0.18955266686E-01 0.  0.
         14    1    1    2    0    0  0.29454415856E-01  0.12125198369E-01 -0.82188088694E-02  0.32895772800E-01  0.00000000000E+00 0. -1.
     999901    1    3    3    0    0 -0.68472638888E-01 -0.10947695154E+00 -0.47651768355E-01  0.89069882464E+00  0.88000000000E+00 0.  1.
        -11    1    4    4    0    0  0.29825526422E-01  0.49097498692E-01  0.29519757438E-01  0.64589500728E-01  0.51100000000E-03 0. -1.
         11    1    4    4    0    0  0.91926966109E-02  0.48254254478E-01  0.26350819787E-01  0.55745901828E-01  0.51100000000E-03 0.  1.
</event>
<event>
 8    1  0.1116619E+005  0.1043930E+01  0.7957747E-01            NaN
         13   -1    0    0    0    0  0.00000000000E+00  0.00000000000E+00  0.74505805969E-08  0.10566000000E+00  0.10566000000E+00 0. -1.
     999900   -1    0    0    0    0 -0.00000000000E+00 -0.00000000000E+00 -0.74505805969E-08  0.93827000000E+00  0.93827000000E+00 0. -1.
     999902    2    1    2    0    0 -0.18245362299E-02  0.19140908909E-01 -0.13888053413E-01  0.10202112025E+01  0.10199354472E+01 0.  0.
     999903    2    3    3    0    0 -0.11401279957E+00  0.13498762639E-01  0.53772021541E-01  0.13049443523E+00  0.30923005486E-01 0.  0.
         14    1    1    2    0    0  0.18245362299E-02 -0.19140908909E-01  0.13888053413E-01  0.23718797480E-01  0.00000000000E+00 0. -1.
     999901    1    3    3    0    0  0.11218826334E+00  0.56421462695E-02 -0.67660074954E-01  0.88971676729E+00  0.88000000000E+00 0.  1.
        -11    1    4    4    0    0 -0.89282480347E-01  0.20366049740E-01  0.50603511022E-01  0.10462845563E+00  0.51100000000E-03 0.  1.
         11    1    4    4    0    0 -0.24730319222E-01 -0.68672871013E-02  0.31685105188E-02  0.25865979604E-01  0.51100000000E-03 0. -1.
</event>
<event>
 8    1  0.1116619E+005  0.1043930E+01  0.7957747E-01            NaN
         13   -1    0    0    0    0  0.00000000000E+00  0.00000000000E+00  0.74505805969E-08  0.10566000000E+00  0.10566000000E+00 0. -1.
     999900   -1    0    0    0    0 -0.00000000000E+00 -0.00000000000E+00 -0.74505805969E-08  0.93827000000E+00  0.93827000000E+00 0.  1.
     999902    2    1    2    0    0 -0.31183103921E-02 -0.22915635295E-01 -0.11240895774E-02  0.10207758691E+01  0.10205132342E+01 0.  0.
     999903    2    3    3    0    0 -0.59872787095E-01 -0.88909182656E-01  0.76716635986E-01  0.13306229058E+00  0.18180691474E-01 0.  0.
         14    1    1    2    0    0  0.31183103921E-02  0.22915635295E-01  0.11240895774E-02  0.23154130907E-01  0.00000000000E+00 0.  1.
     999901    1    3    3    0    0  0.56754476703E-01  0.65993547361E-01 -0.77840725563E-01  0.88771357851E+00  0.88000000000E+00 0.  1.
        -11    1    4    4    0    0 -0.46043177107E-02 -0.85400919816E-02  0.13741437991E-02  0.98123547030E-02  0.51100000000E-03 0. -1.
         11    1    4    4    0    0 -0.55268469384E-01 -0.80369090674E-01  0.75342492187E-01  0.12324993588E+00  0.51100000000E-03 0.  1.
</event>
<event>
 8    1  0.1116619E+005  0.1043930E+01  0.7957747E-01            NaN
         13   -1    0    0    0    0  0.00000000000E+00  0.00000000000E+00  0.74505805969E-08  0.10566000000E+00  0.10566000000E+00 0.  1.
     999900   -1    0    0    0    0 -0.00000000000E+00 -0.00000000000E+00 -0.74505805969E-08  0.93827000000E+00  0.93827000000E+00 0.  1.
     999902    2    1    2    0    0  0.23295234579E-01 -0.27447713625E-01  0.25146081890E-02  0.10078416613E+01  0.10071953366E+01 0.  0.
     999903    2    3    3    0    0  0.11716587651E+00 -0.27306845170E-01 -0.13469241281E-01  0.12270483530E+00  0.20038705890E-01 0.  0.
         14    1    1    2    0    0 -0.23295234579E-01  0.27447713625E-01 -0.25146081890E-02  0.36088338721E-01  0.00000000000E+00 0. -1.
     999901    1    3    3    0    0 -0.93870641930E-01 -0.14086845436E-03  0.15983849470E-01  0.88513682598E+00  0.88000000000E+00 0. -1.
        -11    1    4    4    0    0  0.82027220083E-01 -0.14849734109E-01 -0.17574746968E-01  0.85194555516E-01  0.51100000000E-03 0.  1.
         11    1    4    4    0    0  0.35138656427E-01 -0.12457111061E-01  0.41055056867E-02  0.37510279783E-01  0.51100000000E-03 0. -1.
</event>
<event>
 8    1  0.1116619E+005  0.1043930E+01  0.7957747E-01            NaN
         13   -1    0    0    0    0  0.00000000000E+00  0.00000000000E+00  0.74505805969E-08  0.10566000000E+00  0.10566000000E+00 0. -1.
     999900   -1    0    0    0    0 -0.00000000000E+00 -0.00000000000E+00 -0.74505805969E-08  0.93827000000E+00  0.93827000000E+00 0.  1.
     999902    2    1    2    0    0 -0.20260492160E-01  0.92023799771E-02 -0.94026695220E-02  0.10197725677E+01  0.10194863944E+01 0.  0.
     999903    2    3    3    0    0  0.67368365978E-01  0.87714263897E-01  0.63494914167E-01  0.12895440985E+00  0.19114049005E-01 0.  0.
         14    1    1    2    0    0  0.20260492160E-01 -0.92023799771E-02  0.94026695220E-02  0.24157432272E-01  0.00000000000E+00 0. -1.
     999901    1    3    3    0    0 -0.87628858139E-01 -0.78511883920E-01 -0.72897583689E-01  0.89081815788E+00  0.88000000000E+00 0.  1.
        -11    1    4    4    0    0  0.39669527250E-01  0.53156452461E-01  0.27192357811E-01  0.71686576671E-01  0.51100000000E-03 0. -1.
         11    1    4    4    0    0  0.27698838728E-01  0.34557811436E-01  0.36302556356E-01  0.57267833180E-01  0.51100000000E-03 0.  1.
</event>
<event>
 8    1  0.1116619E+005  0.1043930E+01  0.7957747E-01            NaN
         13   -1    0    0    0    0  0.00000000000E+00  0.00000000000E+00  0.74505805969E-08  0.10566000000E+00  0.10566000000E+00 0.  1.
     999900   -1    0    0    0    0 -0.00000000000E+00 -0.00000000000E+00 -0.74505805969E-08  0.93827000000E+00  0.93827000000E+00 0.  1.
     999902    2    1    2    0    0  0.79775853955E-02  0.56012876691E-02 -0.21706555272E-01  0.10201352352E+01  0.10198576897E+01 0.  0.
     999903    2    3    3    0    0  0.46013704044E-02 -0.10831264865E+00  0.66614337553E-01  0.12840188722E+00  0.17227077702E-01 0.  0.
         14    1    1    2    0    0 -0.79775853955E-02 -0.56012876691E-02  0.21706555272E-01  0.23794764846E-01  0.00000000000E+00 0.  1.
     999901    1    3    3    0    0  0.33762149910E-02  0.11391393632E+00 -0.88320892825E-01  0.89173334794E+00  0.88000000000E+00 0. -1.
        -11    1    4    4    0    0  0.95794760319E-02 -0.90075817912E-01  0.58436517691E-01  0.10779845571E+00  0.51100000000E-03 0. -1.
         11    1    4    4    0    0 -0.49781056274E-02 -0.18236830737E-01  0.81778198625E-02  0.20603431502E-01  0.51100000000E-03 0.  1.
</event>
<event>
 8    1  0.1116619E+005  0.1043930E+01  0.7957747E-01            NaN
         13   -1    0    0    0    0  0.00000000000E+00  0.00000000000E+00  0.74505805969E-08  0.10566000000E+00  0.10566000000E+00 0. -1.
     999900   -1    0    0    0    0 -0.00000000000E+00 -0.00000000000E+00 -0.74505805969E-08  0.93827000000E+00  0.93827000000E+00 0.  1.
     999902    2    1    2    0    0 -0.20846462075E-01  0.58448818586E-02 -0.62420065324E-02  0.10213977948E+01  0.10211492325E+01 0.  0.
     999903    2    3    3    0    0  0.99050692503E-02 -0.59381751377E-01  0.11364287732E+00  0.13034641822E+00  0.21241054159E-01 0.  0.
         14    1    1    2    0    0  0.20846462075E-01 -0.58448818586E-02  0.62420065324E-02  0.22532205186E-01  0.00000000000E+00 0. -1.
     999901    1    3    3    0    0 -0.30751531325E-01  0.65226633236E-01 -0.11988488386E+00  0.89105137660E+00  0.88000000000E+00 0.  1.
        -11    1    4    4    0    0  0.37620979822E-04 -0.19070402835E-01  0.57121328232E-01  0.60222827396E-01  0.51100000000E-03 0. -1.
         11    1    4    4    0    0  0.98674482705E-02 -0.40311348542E-01  0.56521549091E-01  0.70123590819E-01  0.51100000000E-03 0.  1.
</event>
<event>
 8    1  0.1116619E+005  0.1043930E+01  0.7957747E-01            NaN
         13   -1    0    0    0    0  0.00000000000E+00  0.00000000000E+00  0.74505805969E-08  0.10566000000E+00  0.10566000000E+00 0. -1.
     999900   -1    0    0    0    0 -0.00000000000E+00 -0.00000000000E+00 -0.74505805969E-08  0.93827000000E+00  0.93827000000E+00 0.  1.
     999902    2    1    2    0    0 -0.26991817917E-02  0.11247374503E-01 -0.20521479045E-01  0.10203732575E+01  0.10201013011E+01 0.  0.
     999903    2    3    3    0    0 -0.74575593486E-01 -0.63297230784E-01  0.79529381329E-01  0.12867078951E+00  0.25752495224E-01 0.  0.
         14    1    1    2    0    0  0.26991817917E-02 -0.11247374503E-01  0.20521479045E-01  0.23556742511E-01  0.00000000000E+00 0. -1.
     999901    1    3    3    0    0  0.71876411694E-01  0.74544605287E-01 -0.10005086037E+00  0.89170246798E+00  0.88000000000E+00 0.  1.
        -11    1    4    4    0    0 -0.36810800479E-02 -0.89722163039E-02  0.17212174435E-01  0.19762871389E-01  0.51100000000E-03 0.  1.
         11    1    4    4    0    0 -0.70894513438E-01 -0.54325014480E-01  0.62317206894E-01  0.10890791812E+00  0.51100000000E-03 0. -1.
</event>
<event>
 8    1  0.1116619E+005  0.1043930E+01  0.7957747E-01            NaN
         13   -1    0    0    0    0  0.00000000000E+00  0.00000000000E+00  0.74505805969E-08  0.10566000000E+00  0.10566000000E+00 0. -1.
     999900   -1    0    0    0    0 -0.00000000000E+00 -0.00000000000E+00 -0.74505805969E-08  0.93827000000E+00  0.93827000000E+00 0.  1.
     999902    2    1    2    0    0 -0.21037848343E-01 -0.82432648217E-02 -0.70466796515E-02  0.10202614941E+01  0.10199869206E+01 0.  0.
     999903    2    3    3    0    0 -0.78162640687E-01  0.51260234671E-01 -0.91661646631E-01  0.13236307592E+00  0.19522201381E-01 0.  0.
         14    1    1    2    0    0  0.21037848343E-01  0.82432648217E-02  0.70466796515E-02  0.23668505908E-01  0.00000000000E+00 0.  1.
     999901    1    3    3    0    0  0.57124792344E-01 -0.59503499492E-01  0.84614966979E-01  0.88789841817E+00  0.88000000000E+00 0. -1.
        -11    1    4    4    0    0 -0.48827004063E-01  0.28599690676E-01 -0.67634601423E-01  0.88185707817E-01  0.51100000000E-03 0. -1.
         11    1    4    4    0    0 -0.29335636624E-01  0.22660543994E-01 -0.24027045208E-01  0.44177368105E-01  0.51100000000E-03 0.  1.
</event>
<event>
 8    1  0.1116619E+005  0.1043930E+01  0.7957747E-01            NaN
         13   -1    0    0    0    0  0.00000000000E+00  0.00000000000E+00  0.74505805969E-08  0.10566000000E+00  0.10566000000E+00 0. -1.
     999900   -1    0    0    0    0 -0.00000000000E+00 -0.00000000000E+00 -0.74505805969E-08  0.93827000000E+00  0.93827000000E+00 0.  1.
     999902    2    1    2    0    0 -0.55297919496E-02  0.19119723370E-01 -0.12709063554E-01  0.10203151166E+01  0.10200418004E+01 0.  0.
     999903    2    3    3    0    0  0.84193821360E-01 -0.36879172825E-01  0.87247469535E-01  0.12836359794E+00  0.20406356681E-01 0.  0.
         14    1    1    2    0    0  0.55297919496E-02 -0.19119723370E-01  0.12709063554E-01  0.23614883383E-01  0.00000000000E+00 0. -1.
     999901    1    3    3    0    0 -0.89723613309E-01  0.55998896195E-01 -0.99956533089E-01  0.89195151868E+00  0.88000000000E+00 0. -1.
        -11    1    4    4    0    0  0.56540112087E-01 -0.34759520388E-01  0.63281153403E-01  0.91704820099E-01  0.51100000000E-03 0.  1.
         11    1    4    4    0    0  0.27653709273E-01 -0.21196524367E-02  0.23966316131E-01  0.36658777843E-01  0.51100000000E-03 0. -1.
</event>
<event>
 8    1  0.1116619E+005  0.1043930E+01  0.7957747E-01            NaN
         13   -1    0    0    0    0  0.00000000000E+00  0.00000000000E+00  0.74505805969E-08  0.10566000000E+00  0.10566000000E+00 0.  1.
     999900   -1    0    0    0    0 -0.00000000000E+00 -0.00000000000E+00 -0.74505805969E-08  0.93827000000E+00  0.93827000000E+00 0. -1.
     999902    2    1    2    0    0  0.22489082342E-01  0.10758874886E-01  0.26758565932E-02  0.10188566591E+01  0.10185480938E+01 0.  0.
     999903    2    3    3    0    0 -0.28359171182E-01  0.30806886229E-01  0.12060296458E+00  0.12930943136E+00  0.20555951554E-01 0.  0.
         14    1    1    2    0    0 -0.22489082342E-01 -0.10758874886E-01 -0.26758565932E-02  0.25073340860E-01  0.00000000000E+00 0. -1.
     999901    1    3    3    0    0  0.50848253524E-01 -0.20048011343E-01 -0.11792710799E+00  0.88954722778E+00  0.88000000000E+00 0. -1.
        -11    1    4    4    0    0 -0.18292263374E-01  0.86992867087E-02  0.74369771720E-01  0.77080532920E-01  0.51100000000E-03 0. -1.
         11    1    4    4    0    0 -0.10066907807E-01  0.22107599521E-01  0.46233192863E-01  0.52228898444E-01  0.51100000000E-03 0.  1.
</event>
<event>
 8    1  0.1116619E+005  0.1043930E+01  0.7957747E-01            NaN
         13   -1    0    0    0    0  0.00000000000E+00  0.00000000000E+00  0.74505805969E-08  0.10566000000E+00  0.10566000000E+00 0. -1.
     999900   -1    0    0    0    0 -0.00000000000E+00 -0.00000000000E+00 -0.74505805969E-08  0.93827000000E+00  0.93827000000E+00 0.  1.
     999902    2    1    2    0    0 -0.14743819847E-01  0.64093822410E-02 -0.16677346674E-01  0.10207654949E+01  0.10205026219E+01 0.  0.
     999903    2    3    3    0    0 -0.10607915147E+00  0.76629430460E-01  0.21776141074E-02  0.13305579713E+00  0.23963454620E-01 0.  0.
         14    1    1    2    0    0  0.14743819847E-01 -0.64093822410E-02  0.16677346674E-01  0.23164505099E-01  0.00000000000E+00 0. -1.
     999901    1    3    3    0    0  0.91335331621E-01 -0.70220048219E-01 -0.18854960782E-01  0.88770969777E+00  0.88000000000E+00 0.  1.
        -11    1    4    4    0    0 -0.14401749907E-01  0.18894002465E-01  0.64681011546E-02  0.24627041704E-01  0.51100000000E-03 0. -1.
         11    1    4    4    0    0 -0.91677401561E-01  0.57735427995E-01 -0.42904870472E-02  0.10842875542E+00  0.51100000000E-03 0.  1.
</event>
<event>
 8    1  0.1116619E+005  0.1043930E+01  0.7957747E-01            NaN
         13   -1    0    0    0    0  0.00000000000E+00  0.00000000000E+00  0.74505805969E-08  0.10566000000E+00  0.10566000000E+00 0.  1.
     999900   -1    0    0    0    0 -0.00000000000E+00 -0.00000000000E+00 -0.74505805969E-08  0.93827000000E+00  0.93827000000E+00 0. -1.
     999902    2    1    2    0    0  0.53321207090E-02 -0.18208434175E-01  0.12095966294E-01  0.10214290892E+01  0.10211812245E+01 0.  0.
     999903    2    3    3    0    0  0.12145101232E+00 -0.11999590900E-01 -0.45485471963E-01  0.13191362067E+00  0.20926934394E-01 0.  0.
         14    1    1    2    0    0 -0.53321207090E-02  0.18208434175E-01 -0.12095966294E-01  0.22500910802E-01  0.00000000000E+00 0.  1.
     999901    1    3    3    0    0 -0.11611889161E+00 -0.62088432750E-02  0.57581438257E-01  0.88951546853E+00  0.88000000000E+00 0. -1.
        -11    1    4    4    0    0  0.59132723803E-01 -0.56779188316E-03 -0.31595521661E-01  0.67048784642E-01  0.51100000000E-03 0.  1.
         11    1    4    4    0    0  0.62318288515E-01 -0.11431799016E-01 -0.13889950302E-01  0.64864836025E-01  0.51100000000E-03 0. -1.
</event>
<event>
 8    1  0.1116619E+005  0.1043930E+01  0.7957747E-01            NaN
         13   -1    0    0    0    0  0.00000000000E+00  0.00000000000E+00  0.74505805969E-08  0.10566000000E+00  0.10566000000E+00 0.  1.
     999900   -1    0    0    0    0 -0.00000000000E+00 -0.00000000000E+00 -0.74505805969E-08  0.93827000000E+00  0.93827000000E+00 0.  1.
     999902    2    1    2    0    0 -0.20870962984E-01  0.94226387049E-03  0.10142072631E-01  0.10207061632E+01  0.10204419264E+01 0.  0.
     999903    2    3    3    0    0 -0.38624176767E-01  0.12391947501E+00 -0.95959370361E-02  0.13175838069E+00  0.20501842741E-01 0.  0.
         14    1    1    2    0    0  0.20870962984E-01 -0.94226387049E-03 -0.10142072631E-01  0.23223836770E-01  0.00000000000E+00 0.  1.
     999901    1    3    3    0    0  0.17753213783E-01 -0.12297721114E+00  0.19738009667E-01  0.88894778254E+00  0.88000000000E+00 0. -1.
        -11    1    4    4    0    0 -0.85559919019E-02  0.54376010019E-01 -0.10223416088E-01  0.55988702615E-01  0.51100000000E-03 0. -1.
         11    1    4    4    0    0 -0.30068184865E-01  0.69543464993E-01  0.62747905208E-03  0.75769678073E-01  0.51100000000E-03 0.  1.
</event>
<event>
 8    1  0.1116619E+005  0.1043930E+01  0.7957747E-01            NaN
         13   -1    0    0    0    0  0.00000000000E+00  0.00000000000E+00  0.74505805969E-08  0.10566000000E+00  0.10566000000E+00 0. -1.
     999900   -1    0    0    0    0 -0.00000000000E+00 -0.00000000000E+00 -0.74505805969E-08  0.93827000000E+00  0.93827000000E+00 0. -1.
     999902    2    1    2    0    0  0.14755699867E-01  0.85241075033E-02 -0.14119147699E-01  0.10217998979E+01  0.10215602233E+01 0.  0.
     999903    2    3    3    0    0 -0.14661374210E-01 -0.33622224360E-01  0.12293795832E+00  0.12970891159E+00  0.19111522329E-01 0.  0.
         14    1    1    2    0    0 -0.14755699867E-01 -0.85241075033E-02  0.14119147699E-01  0.22130102102E-01  0.00000000000E+00 0. -1.
     999901    1    3    3    0    0  0.29417074077E-01  0.42146331863E-01 -0.13705710602E+00  0.89209098631E+00  0.88000000000E+00 0. -1.
        -11    1    4    4    0    0 -0.26202534935E-02  0.22569840625E-02  0.94583498790E-02  0.10083710074E-01  0.51100000000E-03 0. -1.
         11    1    4    4    0    0 -0.12041120717E-01 -0.35879208422E-01  0.11347960844E+00  0.11962520152E+00  0.51100000000E-03 0.  1.
</event>
<event>
 8    1  0.1116619E+005  0.1043930E+01  0.7957747E-01            NaN
         13   -1    0    0    0    0  0.00000000000E+00  0.00000000000E+00  0.74505805969E-08  0.10566000000E+00  0.10566000000E+00 0. -1.
     999900   -1    0    0    0    0 -0.00000000000E+00 -0.00000000000E+00 -0.74505805969E-08  0.93827000000E+00  0.93827000000E+00 0. -1.
     999902    2    1    2    0    0 -0.13683027780E-01 -0.18243144511E-01  0.39933850673E-02  0.10207786567E+01  0.10205160858E+01 0.  0.
     999903    2    3    3    0    0 -0.88401282808E-01  0.21885695720E-01  0.93938906880E-01  0.13213736895E+00  0.18493122192E-01 0.  0.
         14    1    1    2    0    0  0.13683027780E-01  0.18243144511E-01 -0.39933850673E-02  0.23151343269E-01  0.00000000000E+00 0.  1.
     999901    1    3    3    0    0  0.74718255028E-01 -0.40128840231E-01 -0.89945521813E-01  0.88864128778E+00  0.88000000000E+00 0.  1.
        -11    1    4    4    0    0 -0.61038770921E-01  0.23487275720E-01  0.63201476732E-01  0.90950928848E-01  0.51100000000E-03 0.  1.
         11    1    4    4    0    0 -0.27362511887E-01 -0.16015800001E-02  0.30737430148E-01  0.41186440103E-01  0.51100000000E-03 0. -1.
</event>
<event>
 8    1  0.1116619E+005  0.1043930E+01  0.7957747E-01            NaN
         13   -1    0    0    0    0  0.00000000000E+00  0.00000000000E+00  0.74505805969E-08  0.10566000000E+00  0.10566000000E+00 0. -1.
     999900   -1    0    0    0    0 -0.00000000000E+00 -0.00000000000E+00 -0.74505805969E-08  0.93827000000E+00  0.93827000000E+00 0.  1.
     999902    2    1    2    0    0  0.23250521569E-01  0.10164610333E-02 -0.60808847695E-02  0.10198759545E+01  0.10195922545E+01 0.  0.
     999903    2    3    3    0    0  0.79969859373E-01 -0.72784124001E-01 -0.75322614052E-01  0.13226228474E+00  0.11274247777E-01 0.  0.
         14    1    1    2    0    0 -0.23250521569E-01 -0.10164610333E-02  0.60808847695E-02  0.24054045519E-01  0.00000000000E+00 0.  1.
     999901    1    3    3    0    0 -0.56719337804E-01  0.73800585034E-01  0.69241729283E-01  0.88761366974E+00  0.88000000000E+00 0. -1.
        -11    1    4    4    0    0  0.55347182136E-01 -0.44213531612E-01 -0.52512686534E-01  0.88181575831E-01  0.51100000000E-03 0.  1.
         11    1    4    4    0    0  0.24622677237E-01 -0.28570592388E-01 -0.22809927518E-01  0.44080708911E-01  0.51100000000E-03 0. -1.
</event>
<event>
 8    1  0.1116619E+005  0.1043930E+01  0.7957747E-01            NaN
         13   -1    0    0    0    0  0.00000000000E+00  0.00000000000E+00  0.74505805969E-08  0.10566000000E+00  0.10566000000E+00 0.  1.
     999900   -1    0    0    0    0 -0.00000000000E+00 -0.00000000000E+00 -0.74505805969E-08  0.93827000000E+00  0.93827000000E+00 0. -1.
     999902    2    1    2    0    0 -0.17482924440E-01  0.11065194888E-01  0.11706068441E-01  0.10201576795E+01  0.10198806635E+01 0.  0.
     999903    2    3    3    0    0  0.27779602456E-02  0.13005145858E+00  0.59524135932E-02  0.13190020614E+00  0.21003195188E-01 0.  0.
         14    1    1    2    0    0  0.17482924440E-01 -0.11065194888E-01 -0.11706068441E-01  0.23772320527E-01  0.00000000000E+00 0. -1.
     999901    1    3    3    0    0 -0.20260884686E-01 -0.11898626370E+00  0.57536548480E-02  0.88825747334E+00  0.88000000000E+00 0.  1.
        -11    1    4    4    0    0  0.11276867285E-01  0.79685360103E-01  0.61771308877E-04  0.80480987117E-01  0.51100000000E-03 0. -1.
         11    1    4    4    0    0 -0.84989070390E-02  0.50366098480E-01  0.58906422843E-02  0.51419219019E-01  0.51100000000E-03 0.  1.
</event>
<event>
 8    1  0.1116619E+005  0.1043930E+01  0.7957747E-01            NaN
         13   -1    0    0    0    0  0.00000000000E+00  0.00000000000E+00  0.74505805969E-08  0.10566000000E+00  0.10566000000E+00 0.  1.
     999900   -1    0    0    0    0 -0.00000000000E+00 -0.00000000000E+00 -0.74505805969E-08  0.93827000000E+00  0.93827000000E+00 0. -1.
     999902    2    1    2    0    0  0.13146068569E-01 -0.17946666447E-01  0.23002591358E-02  0.10215650017E+01  0.10213201553E+01 0.  0.
     999903    2    3    3    0    0 -0.12897075565E+00  0.34792726129E-02  0.42169270515E-02  0.12990366680E+00  0.14547131124E-01 0.  0.
         14    1    1    2    0    0 -0.13146068569E-01  0.17946666447E-01 -0.23002591358E-02  0.22364998267E-01  0.00000000000E+00 0.  1.
     999901    1    3    3    0    0  0.14211682422E+00 -0.21425939060E-01 -0.19166679157E-02  0.89166133493E+00  0.88000000000E+00 0. -1.
        -11    1    4    4    0    0 -0.58046039476E-01  0.43079223471E-02 -0.47805077391E-02  0.58403897722E-01  0.51100000000E-03 0.  1.
         11    1    4    4    0    0 -0.70924716176E-01 -0.82864973419E-03  0.89974347907E-02  0.71499769083E-01  0.51100000000E-03 0. -1.
</event>
<event>
 8    1  0.1116619E+005  0.1043930E+01  0.7957747E-01            NaN
         13   -1    0    0    0    0  0.00000000000E+00  0.00000000000E+00  0.74505805969E-08  0.10566000000E+00  0.10566000000E+00 0. -1.
     999900   -1    0    0    0    0 -0.00000000000E+00 -0.00000000000E+00 -0.74505805969E-08  0.93827000000E+00  0.93827000000E+00 0. -1.
     999902    2    1    2    0    0  0.16823992746E-01 -0.14019660722E-01  0.97636973009E-02  0.10199523562E+01  0.10196704769E+01 0.  0.
     999903    2    3    3    0    0 -0.89780929878E-01 -0.76573210169E-01  0.51970509580E-01  0.13031255767E+00  0.18877418638E-01 0.  0.
         14    1    1    2    0    0 -0.16823992746E-01  0.14019660722E-01 -0.97636973009E-02  0.23977643830E-01  0.00000000000E+00 0.  1.
     999901    1    3    3    0    0  0.10660492262E+00  0.62553549447E-01 -0.42206812279E-01  0.88963979850E+00  0.88000000000E+00 0.  1.
        -11    1    4    4    0    0 -0.79480363355E-01 -0.58528963596E-01  0.42277119361E-01  0.10737962414E+00  0.51100000000E-03 0.  1.
         11    1    4    4    0    0 -0.10300566523E-01 -0.18044246573E-01  0.96933902192E-02  0.22932933524E-01  0.51100000000E-03 0. -1.
</event>
<event>
 8    1  0.1116619E+005  0.1043930E+01  0.7957747E-01            NaN
         13   -1    0    0    0    0  0.00000000000E+00  0.00000000000E+00  0.74505805969E-08  0.10566000000E+00  0.10566000000E+00 0.  1.
     999900   -1    0    0    0    0 -0.00000000000E+00 -0.00000000000E+00 -0.74505805969E-08  0.93827000000E+00  0.93827000000E+00 0. -1.
     999902    2    1    2    0    0  0.24119515669E-01 -0.12865888072E-01 -0.23629452888E-01  0.10077964539E+01  0.10071484793E+01 0.  0.
     999903    2    3    3    0    0  0.10573263555E+00  0.52127800722E-01 -0.21965390197E-01  0.12163188111E+00  0.20374943089E-01 0.  0.
         14    1    1    2    0    0 -0.24119515669E-01  0.12865888072E-01  0.23629452888E-01  0.36133546128E-01  0.00000000000E+00 0.  1.
     999901    1    3    3    0    0 -0.81613119883E-01 -0.64993688795E-01 -0.16640626910E-02  0.88616457277E+00  0.88000000000E+00 0. -1.
        -11    1    4    4    0    0  0.59493529271E-01  0.40370152210E-01 -0.12123898393E-01  0.72914190991E-01  0.51100000000E-03 0.  1.
         11    1    4    4    0    0  0.46239106281E-01  0.11757648512E-01 -0.98414918044E-02  0.48717690115E-01  0.51100000000E-03 0. -1.
</event>
<event>
 8    1  0.1116619E+005  0.1043930E+01  0.7957747E-01            NaN
         13   -1    0    0    0    0  0.00000000000E+00  0.00000000000E+00  0.74505805969E-08  0.10566000000E+00  0.10566000000E+00 0.  1.
     999900   -1    0    0    0    0 -0.00000000000E+00 -0.00000000000E+00 -0.74505805969E-08  0.93827000000E+00  0.93827000000E+00 0.  1.
     999902    2    1    2    0    0  0.22579206353E-01  0.26201414455E-02 -0.69243676321E-02  0.10201680016E+01  0.10198912290E+01 0.  0.
     999903    2    3    3    0    0 -0.99263432474E-01 -0.68068048242E-01  0.35661328698E-01  0.12794830314E+00  0.24749741276E-01 0.  0.
         14    1    1    2    0    0 -0.22579206353E-01 -0.26201414455E-02  0.69243676321E-02  0.23761998397E-01  0.00000000000E+00 0. -1.
     999901    1    3    3    0    0  0.12184263883E+00  0.70688189687E-01 -0.42585696330E-01  0.89221969847E+00  0.88000000000E+00 0.  1.
        -11    1    4    4    0    0 -0.68504499049E-01 -0.57509988068E-01  0.19149868007E-01  0.91472638987E-01  0.51100000000E-03 0. -1.
         11    1    4    4    0    0 -0.30758933425E-01 -0.10558060174E-01  0.16511460691E-01  0.36475664150E-01  0.51100000000E-03 0.  1.
</event>
<event>
 8    1  0.1116619E+005  0.1043930E+01  0.7957747E-01            NaN
         13   -1    0    0    0    0  0.00000000000E+00  0.00000000000E+00  0.74505805969E-08  0.10566000000E+00  0.10566000000E+00 0. -1.
     999900   -1    0    0    0    0 -0.00000000000E+00 -0.00000000000E+00 -0.74505805969E-08  0.93827000000E+00  0.93827000000E+00 0. -1.
     999902    2    1    2    0    0  0.23192300136E-01 -0.48662943272E-02 -0.62250124251E-03  0.10202244919E+01  0.10199490491E+01 0.  0.
     999903    2    3    3    0    0  0.89605866913E-01  0.88196115320E-02  0.94963640299E-01  0.13245494055E+00  0.20474895933E-01 0.  0.
         14    1    1    2    0    0 -0.23192300136E-01  0.48662943272E-02  0.62250124251E-03  0.23705508092E-01  0.00000000000E+00 0.  1.
     999901    1    3    3    0    0 -0.66413566777E-01 -0.13685905859E-01 -0.95586141541E-01  0.88776955136E+00  0.88000000000E+00 0.  1.
        -11    1    4    4    0    0  0.31384850369E-01  0.12910692262E-01  0.33291129545E-01  0.47542141672E-01  0.51100000000E-03 0.  1.
         11    1    4    4    0    0  0.58221016544E-01 -0.40910807304E-02  0.61672510753E-01  0.84912798874E-01  0.51100000000E-03 0. -1.
</event>
<event>
 8    1  0.1116619E+005  0.1043930E+01  0.7957747E-01            NaN
         13   -1    0    0    0    0  0.00000000000E+00  0.00000000000E+00  0.74505805969E-08  0.10566000000E+00  0.10566000000E+00 0. -1.
     999900   -1    0    0    0    0 -0.00000000000E+00 -0.00000000000E+00 -0.74505805969E-08  0.93827000000E+00  0.93827000000E+00 0. -1.
     999902    2    1    2    0    0 -0.98516680040E-02 -0.13122192458E-01  0.17286562239E-01  0.10200957278E+01  0.10198172490E+01 0.  0.
     999903    2    3    3    0    0 -0.22002032735E-01 -0.43612090932E-01  0.12238775315E+00  0.13323411198E+00  0.19658650879E-01 0.  0.
         14    1    1    2    0    0  0.98516680040E-02  0.13122192458E-01 -0.17286562239E-01  0.23834272202E-01  0.00000000000E+00 0.  1.
     999901    1    3    3    0    0  0.12150364731E-01  0.30489898474E-01 -0.10510119091E+00  0.88686161581E+00  0.88000000000E+00 0. -1.
        -11    1    4    4    0    0 -0.25088332389E-02 -0.19735914484E-01  0.31493939366E-01  0.37254931252E-01  0.51100000000E-03 0. -1.
         11    1    4    4    0    0 -0.19493199496E-01 -0.23876176448E-01  0.90893813787E-01  0.95979180732E-01  0.51100000000E-03 0.  1.
</event>
<event>
 8    1  0.1116619E+005  0.1043930E+01  0.7957747E-01            NaN
         13   -1    0    0    0    0  0.00000000000E+00  0.00000000000E+00  0.74505805969E-08  0.10566000000E+00  0.10566000000E+00 0.  1.
     999900   -1    0    0    0    0 -0.00000000000E+00 -0.00000000000E+00 -0.74505805969E-08  0.93827000000E+00  0.93827000000E+00 0. -1.
     999902    2    1    2    0    0 -0.13615794280E-02 -0.20626766836E-01  0.11382627188E-01  0.10203316609E+01  0.10200587319E+01 0.  0.
     999903    2    3    3    0    0 -0.10129086098E+00 -0.23778791251E-01 -0.76000686422E-01  0.13037006614E+00  0.19874113274E-01 0.  0.
         14    1    1    2    0    0  0.13615794280E-02  0.20626766836E-01 -0.11382627188E-01  0.23598339144E-01  0.00000000000E+00 0. -1.
     999901    1    3    3    0    0  0.99929281548E-01  0.31520244153E-02  0.87383313611E-01  0.88996159471E+00  0.88000000000E+00 0. -1.
        -11    1    4    4    0    0 -0.58694303510E-01 -0.14786266868E-01 -0.55984034877E-01  0.82450762486E-01  0.51100000000E-03 0.  1.
         11    1    4    4    0    0 -0.42596557466E-01 -0.89925243834E-02 -0.20016651546E-01  0.47919303656E-01  0.51100000000E-03 0. -1.
</event>
<event>
 8    1  0.1116619E+005  0.1043930E+01  0.7957747E-01            NaN
         13   -1    0    0    0    0  0.00000000000E+00  0.00000000000E+00  0.74505805969E-08  0.10566000000E+00  0.10566000000E+00 0. -1.
     999900   -1    0    0    0    0 -0.00000000000E+00 -0.00000000000E+00 -0.74505805969E-08  0.93827000000E+00  0.93827000000E+00 0.  1.
     999902    2    1    2    0    0  0.64824951735E-03 -0.23576503166E-01  0.27083373578E-02  0.10201895952E+01  0.10199133313E+01 0.  0.
     999903    2    3    3    0    0 -0.30887657506E-01 -0.94349083721E-01  0.85946111239E-01  0.13287240355E+00  0.20311194026E-01 0.  0.
         14    1    1    2    0    0 -0.64824951735E-03  0.23576503166E-01 -0.27083373578E-02  0.23740404804E-01  0.00000000000E+00 0. -1.
     999901    1    3    3    0    0  0.31535907023E-01  0.70772580555E-01 -0.83237773882E-01  0.88731719165E+00  0.88000000000E+00 0.  1.
        -11    1    4    4    0    0 -0.71008876160E-02 -0.41517243906E-01  0.46695671879E-01  0.62887606408E-01  0.51100000000E-03 0.  1.
         11    1    4    4    0    0 -0.23786769890E-01 -0.52831839815E-01  0.39250439361E-01  0.69984797142E-01  0.51100000000E-03 0. -1.
</event>
<event>
 8    1  0.1116619E+005  0.1043930E+01  0.7957747E-01            NaN
         13   -1    0    0    0    0  0.00000000000E+00  0.00000000000E+00  0.74505805969E-08  0.10566000000E+00  0.10566000000E+00 0. -1.
     999900   -1    0    0    0    0 -0.00000000000E+00 -0.00000000000E+00 -0.74505805969E-08  0.93827000000E+00  0.93827000000E+00 0.  1.
     999902    2    1    2    0    0 -0.13414481937E-01  0.46022743803E-03 -0.19101298648E-01  0.10205843421E+01  0.10203172935E+01 0.  0.
     999903    2    3    3    0    0  0.36080290652E-01 -0.30773250534E-01  0.11740253347E+00  0.12813907267E+00  0.19684683352E-01 0.  0.
         14    1    1    2    0    0  0.13414481937E-01 -0.46022743803E-03  0.19101298648E-01  0.23345657947E-01  0.00000000000E+00 0. -1.
     999901    1    3    3    0    0 -0.49494772590E-01  0.31233477972E-01 -0.13650383211E+00  0.89244526938E+00  0.88000000000E+00 0.  1.
        -11    1    4    4    0    0  0.64991347184E-02 -0.17149363555E-01  0.34657461204E-01  0.39214030149E-01  0.51100000000E-03 0.  1.
         11    1    4    4    0    0  0.29581155934E-01 -0.13623886979E-01  0.82745072262E-01  0.88925042522E-01  0.51100000000E-03 0. -1.
</event>
<event>
 8    1  0.1116619E+005  0.1043930E+01  0.7957747E-01            NaN
         13   -1    0    0    0    0  0.00000000000E+00  0.00000000000E+00  0.74505805969E-08  0.10566000000E+00  0.10566000000E+00 0. -1.
     999900   -1    0    0    0    0 -0.00000000000E+00 -0.00000000000E+00 -0.74505805969E-08  0.93827000000E+00  0.93827000000E+00 0.  1.
     999902    2    1    2    0    0 -0.16910464436E-01  0.48240274026E-02 -0.15477298753E-01  0.10205039072E+01  0.10202349939E+01 0.  0.
     999903    2    3    3    0    0 -0.11293752094E+00 -0.58610965381E-01  0.28574296104E-01  0.13191753721E+00  0.19890131404E-01 0.  0.
         14    1    1    2    0    0  0.16910464436E-01 -0.48240274026E-02  0.15477298753E-01  0.23426092814E-01  0.00000000000E+00 0.  1.
     999901    1    3    3    0    0  0.96027056506E-01  0.63434992784E-01 -0.44051594857E-01  0.88858636997E+00  0.88000000000E+00 0.  1.
        -11    1    4    4    0    0 -0.18115162003E-01 -0.17542770750E-01  0.25164603835E-02  0.25347615151E-01  0.51100000000E-03 0. -1.
         11    1    4    4    0    0 -0.94822358940E-01 -0.41068194631E-01  0.26057835720E-01  0.10656992206E+00  0.51100000000E-03 0.  1.
</event>
<event>
 8    1  0.1116619E+005  0.1043930E+01  0.7957747E-01            NaN
         13   -1    0    0    0    0  0.00000000000E+00  0.00000000000E+00  0.74505805969E-08  0.10566000000E+00  0.10566000000E+00 0. -1.
     999900   -1    0    0    0    0 -0.00000000000E+00 -0.00000000000E+00 -0.74505805969E-08  0.93827000000E+00  0.93827000000E+00 0.  1.
     999902    2    1    2    0    0 -0.51234656795E-03 -0.10325305401E-01  0.20993830458E-01  0.10205288174E+01  0.10202604823E+01 0.  0.
     999903    2    3    3    0    0 -0.70217308754E-01 -0.64965378736E-01 -0.85064250966E-01  0.12974678119E+00  0.21150166755E-01 0.  0.
         14    1    1    2    0    0  0.51234656795E-03  0.10325305401E-01 -0.20993830458E-01  0.23401182618E-01  0.00000000000E+00 0.  1.
     999901    1    3    3    0    0  0.69704962186E-01  0.54640073335E-01  0.10605808142E+00  0.89078203619E+00  0.88000000000E+00 0. -1.
        -11    1    4    4    0    0 -0.54152614672E-02 -0.12660035410E-01 -0.18867836379E-01  0.23363602547E-01  0.51100000000E-03 0. -1.
         11    1    4    4    0    0 -0.64802047287E-01 -0.52305343326E-01 -0.66196414587E-01  0.10638317864E+00  0.51100000000E-03 0.  1.
</event>
<event>
 8    1  0.1116619E+005  0.1043930E+01  0.7957747E-01            NaN
         13   -1    0    0    0    0  0.00000000000E+00  0.00000000000E+00  0.74505805969E-08  0.10566000000E+00  0.10566000000E+00 0. -1.
     999900   -1    0    0    0    0 -0.00000000000E+00 -0.00000000000E+00 -0.74505805969E-08  0.93827000000E+00  0.93827000000E+00 0.  1.
     999902    2    1    2    0    0  0.96222842830E-02 -0.15949130450E-01  0.15763517020E-01  0.10195281233E+01  0.10192360584E+01 0.  0.
     999903    2    3    3    0    0 -0.10667679473E+00 -0.47961753068E-01  0.54303962566E-01  0.13046364324E+00  0.19788217836E-01 0.  0.
         14    1    1    2    0    0 -0.96222842830E-02  0.15949130450E-01 -0.15763517020E-01  0.24401876685E-01  0.00000000000E+00 0.  1.
     999901    1    3    3    0    0  0.11629907902E+00  0.32012622619E-01 -0.38540445547E-01  0.88906448007E+00  0.88000000000E+00 0. -1.
        -11    1    4    4    0    0 -0.42653989999E-01 -0.94253861285E-02  0.23814081808E-01  0.49755124157E-01  0.51100000000E-03 0.  1.
         11    1    4    4    0    0 -0.64022804735E-01 -0.38536366940E-01  0.30489880758E-01  0.80708519084E-01  0.51100000000E-03 0. -1.
</event>
<event>
 8    1  0.1116619E+005  0.1043930E+01  0.7957747E-01            NaN
         13   -1    0    0    0    0  0.00000000000E+00  0.00000000000E+00  0.74505805969E-08  0.10566000000E+00  0.10566000000E+00 0. -1.
     999900   -1    0    0    0    0 -0.00000000000E+00 -0.00000000000E+00 -0.74505805969E-08  0.93827000000E+00  0.93827000000E+00 0.  1.
     999902    2    1    2    0    0 -0.18756254794E-01 -0.13767124298E-02  0.14519560761E-01  0.10201705792E+01  0.10198938673E+01 0.  0.
     999903    2    3    3    0    0 -0.51310558404E-01 -0.11227282546E+00  0.42488278116E-01  0.13217284290E+00  0.20650566124E-01 0.  0.
         14    1    1    2    0    0  0.18756254794E-01  0.13767124298E-02 -0.14519560761E-01  0.23759420778E-01  0.00000000000E+00 0.  1.
     999901    1    3    3    0    0  0.32554303609E-01  0.11089611303E+00 -0.27968717355E-01  0.88799773633E+00  0.88000000000E+00 0.  1.
        -11    1    4    4    0    0 -0.13286385981E-01 -0.41522635486E-01  0.62168259999E-02  0.44040519487E-01  0.51100000000E-03 0. -1.
         11    1    4    4    0    0 -0.38024172422E-01 -0.70750189975E-01  0.36271452116E-01  0.88132323409E-01  0.51100000000E-03 0.  1.
</event>
<event>
 8    1  0.1116619E+005  0.1043930E+01  0.7957747E-01            NaN
         13   -1    0    0    0    0  0.00000000000E+00  0.00000000000E+00  0.74505805969E-08  0.10566000000E+00  0.10566000000E+00 0.  1.
     999900   -1    0    0    0    0 -0.00000000000E+00 -0.00000000000E+00 -0.74505805969E-08  0.93827000000E+00  0.93827000000E+00 0. -1.
     999902    2    1    2    0    0  0.20521702478E-01 -0.84273707465E-02 -0.20213938476E-01  0.10139172667E+01  0.10134729693E+01 0.  0.
     999903    2    3    3    0    0 -0.13278169917E-01  0.47014229137E-01  0.10990962228E+00  0.12198209899E+00  0.20318953373E-01 0.  0.
         14    1    1    2    0    0 -0.20521702478E-01  0.84273707465E-02  0.20213938476E-01  0.30012733281E-01  0.00000000000E+00 0.  1.
     999901    1    3    3    0    0  0.33799872395E-01 -0.55441599884E-01 -0.13012356076E+00  0.89193516773E+00  0.88000000000E+00 0. -1.
        -11    1    4    4    0    0  0.29060650314E-03  0.29401151386E-01  0.49092430045E-01  0.57226217450E-01  0.51100000000E-03 0. -1.
         11    1    4    4    0    0 -0.13568776420E-01  0.17613077751E-01  0.60817192235E-01  0.64755881538E-01  0.51100000000E-03 0.  1.
</event>
<event>
 8    1  0.1116619E+005  0.1043930E+01  0.7957747E-01            NaN
         13   -1    0    0    0    0  0.00000000000E+00  0.00000000000E+00  0.74505805969E-08  0.10566000000E+00  0.10566000000E+00 0. -1.
     999900   -1    0    0    0    0 -0.00000000000E+00 -0.00000000000E+00 -0.74505805969E-08  0.93827000000E+00  0.93827000000E+00 0.  1.
     999902    2    1    2    0    0 -0.12506724859E-01  0.19011916887E-01 -0.50781380022E-02  0.10206135115E+01  0.10203471376E+01 0.  0.
     999903    2    3    3    0    0 -0.83504721115E-01 -0.96519599361E-01 -0.15888656668E-01  0.13016131512E+00  0.20011172744E-01 0.  0.
         14    1    1    2    0    0  0.12506724859E-01 -0.19011916887E-01  0.50781380022E-02  0.23316488500E-01  0.00000000000E+00 0. -1.
     999901    1    3    3    0    0  0.70997996255E-01  0.11553151625E+00  0.10810518665E-01  0.89045219638E+00  0.88000000000E+00 0. -1.
        -11    1    4    4    0    0 -0.64304272766E-01 -0.69235484954E-01 -0.34631264747E-02  0.94556048134E-01  0.51100000000E-03 0.  1.
         11    1    4    4    0    0 -0.19200448349E-01 -0.27284114406E-01 -0.12425530193E-01  0.35605266988E-01  0.51100000000E-03 0. -1.
</event>
<event>
 8    1  0.1116619E+005  0.1043930E+01  0.7957747E-01            NaN
         13   -1    0    0    0    0  0.00000000000E+00  0.00000000000E+00  0.74505805969E-08  0.10566000000E+00  0.10566000000E+00 0.  1.
     999900   -1    0    0    0    0 -0.00000000000E+00 -0.00000000000E+00 -0.74505805969E-08  0.93827000000E+00  0.93827000000E+00 0.  1.
     999902    2    1    2    0    0 -0.82439271872E-02 -0.92488994484E-03  0.20494389200E-01  0.10218203246E+01  0.10215810972E+01 0.  0.
     999903    2    3    3    0    0  0.35860387507E-01 -0.11101821203E+00 -0.55558184415E-01  0.13061343276E+00  0.19030138415E-01 0.  0.
         14    1    1    2    0    0  0.82439271872E-02  0.92488994484E-03 -0.20494389200E-01  0.22109675383E-01  0.00000000000E+00 0. -1.
     999901    1    3    3    0    0 -0.44104314694E-01  0.11009332208E+00  0.76052573614E-01  0.89120689186E+00  0.88000000000E+00 0.  1.
        -11    1    4    4    0    0  0.81316913937E-02 -0.12512528766E-01 -0.12940463344E-01  0.19758656168E-01  0.51100000000E-03 0.  1.
         11    1    4    4    0    0  0.27728696113E-01 -0.98505683260E-01 -0.42617721071E-01  0.11085477659E+00  0.51100000000E-03 0. -1.
</event>
<event>
 8    1  0.1116619E+005  0.1043930E+01  0.7957747E-01            NaN
         13   -1    0    0    0    0  0.00000000000E+00  0.00000000000E+00  0.74505805969E-08  0.10566000000E+00  0.10566000000E+00 0. -1.
     999900   -1    0    0    0    0 -0.00000000000E+00 -0.00000000000E+00 -0.74505805969E-08  0.93827000000E+00  0.93827000000E+00 0. -1.
     999902    2    1    2    0    0 -0.67858890099E-03  0.23881846499E-01  0.28524450357E-02  0.10198688380E+01  0.10195849681E+01 0.  0.
     999903    2    3    3    0    0 -0.16553268286E-01 -0.99455027851E-01 -0.75580051415E-01  0.12767174847E+00  0.20552808346E-01 0.  0.
         14    1    1    2    0    0  0.67858890099E-03 -0.23881846499E-01 -0.28524450357E-02  0.24061162021E-01  0.00000000000E+00 0. -1.
     999901    1    3    3    0    0  0.15874679385E-01  0.12333687435E+00  0.78432496450E-01  0.89219708950E+00  0.88000000000E+00 0.  1.
        -11    1    4    4    0    0 -0.10433703707E-01 -0.26031025590E-01 -0.29815988416E-01  0.40935690449E-01  0.51100000000E-03 0. -1.
         11    1    4    4    0    0 -0.61195645794E-02 -0.73424002262E-01 -0.45764062999E-01  0.86736058026E-01  0.51100000000E-03 0.  1.
</event>
<event>
 8    1  0.1116619E+005  0.1043930E+01  0.7957747E-01            NaN
         13   -1    0    0    0    0  0.00000000000E+00  0.00000000000E+00  0.74505805969E-08  0.10566000000E+00  0.10566000000E+00 0.  1.
     999900   -1    0    0    0    0 -0.00000000000E+00 -0.00000000000E+00 -0.74505805969E-08  0.93827000000E+00  0.93827000000E+00 0.  1.
     999902    2    1    2    0    0 -0.74071380276E-02  0.18616909165E-01  0.14229823452E-01  0.10193547507E+01  0.10190584699E+01 0.  0.
     999903    2    3    3    0    0  0.67099484374E-01  0.97465003017E-01 -0.51051244030E-01  0.13029351750E+00  0.19193841948E-01 0.  0.
         14    1    1    2    0    0  0.74071380276E-02 -0.18616909165E-01 -0.14229823452E-01  0.24575249258E-01  0.00000000000E+00 0. -1.
     999901    1    3    3    0    0 -0.74506622402E-01 -0.78848093852E-01  0.65281067482E-01  0.88906123324E+00  0.88000000000E+00 0. -1.
        -11    1    4    4    0    0  0.61326860673E-01  0.87072049057E-01 -0.39167805251E-01  0.11347644538E+00  0.51100000000E-03 0.  1.
         11    1    4    4    0    0  0.57726237014E-02  0.10392953960E-01 -0.11883438779E-01  0.16817072118E-01  0.51100000000E-03 0. -1.
</event>
<event>
 8    1  0.1116619E+005  0.1043930E+01  0.7957747E-01            NaN
         13   -1    0    0    0    0  0.00000000000E+00  0.00000000000E+00  0.74505805969E-08  0.10566000000E+00  0.10566000000E+00 0. -1.
     999900   -1    0    0    0    0 -0.00000000000E+00 -0.00000000000E+00 -0.74505805969E-08  0.93827000000E+00  0.93827000000E+00 0. -1.
     999902    2    1    2    0    0  0.13975562284E-02 -0.16092914544E-01 -0.95787869888E-02  0.10251500047E+01  0.10249779724E+01 0.  0.
     999903    2    3    3    0    0 -0.96304082332E-02 -0.64707787779E-01  0.11611716456E+00  0.13482169780E+00  0.20343346084E-01 0.  0.
         14    1    1    2    0    0 -0.13975562284E-02  0.16092914544E-01  0.95787869888E-02  0.18779995264E-01  0.00000000000E+00 0. -1.
     999901    1    3    3    0    0  0.11027964462E-01  0.48614873235E-01 -0.12569595155E+00  0.89032830694E+00  0.88000000000E+00 0. -1.
        -11    1    4    4    0    0  0.87260995215E-03 -0.39885555824E-01  0.83220195027E-01  0.92290199874E-01  0.51100000000E-03 0.  1.
         11    1    4    4    0    0 -0.10503018185E-01 -0.24822231955E-01  0.32896969532E-01  0.42531497924E-01  0.51100000000E-03 0. -1.
</event>
<event>
 8    1  0.1116619E+005  0.1043930E+01  0.7957747E-01            NaN
         13   -1    0    0    0    0  0.00000000000E+00  0.00000000000E+00  0.74505805969E-08  0.10566000000E+00  0.10566000000E+00 0. -1.
     999900   -1    0    0    0    0 -0.00000000000E+00 -0.00000000000E+00 -0.74505805969E-08  0.93827000000E+00  0.93827000000E+00 0.  1.
     999902    2    1    2    0    0 -0.18886290440E-01  0.69845617736E-02  0.14712172784E-01  0.10189915939E+01  0.10186863818E+01 0.  0.
     999903    2    3    3    0    0  0.88857139374E-01 -0.46247403055E-01 -0.74285841136E-01  0.12637581139E+00  0.20446173319E-01 0.  0.
         14    1    1    2    0    0  0.18886290440E-01 -0.69845617736E-02 -0.14712172784E-01  0.24938406079E-01  0.00000000000E+00 0.  1.
     999901    1    3    3    0    0 -0.10774342981E+00  0.53231964828E-01  0.88998013919E-01  0.89261578253E+00  0.88000000000E+00 0. -1.
        -11    1    4    4    0    0  0.27165004897E-01 -0.21832140493E-01 -0.17292399096E-01  0.38908457140E-01  0.51100000000E-03 0.  1.
         11    1    4    4    0    0  0.61692134477E-01 -0.24415262561E-01 -0.56993442040E-01  0.87467354246E-01  0.51100000000E-03 0. -1.
</event>
<event>
 8    1  0.1116619E+005  0.1043930E+01  0.7957747E-01            NaN
         13   -1    0    0    0    0  0.00000000000E+00  0.00000000000E+00  0.74505805969E-08  0.10566000000E+00  0.10566000000E+00 0.  1.
     999900   -1    0    0    0    0 -0.00000000000E+00 -0.00000000000E+00 -0.74505805969E-08  0.93827000000E+00  0.93827000000E+00 0. -1.
     999902    2    1    2    0    0  0.21753308625E-01 -0.76563971943E-02 -0.52535479458E-02  0.10202777988E+01  0.10200036079E+01 0.  0.
     999903    2    3    3    0    0  0.89438210537E-01  0.55076609058E-01  0.76829805113E-01  0.13165282007E+00  0.19925353464E-01 0.  0.
         14    1    1    2    0    0 -0.21753308625E-01  0.76563971943E-02  0.52535479458E-02  0.23652201169E-01  0.00000000000E+00 0.  1.
     999901    1    3    3    0    0 -0.67684901912E-01 -0.62733006252E-01 -0.82083353058E-01  0.88862497876E+00  0.88000000000E+00 0.  1.
        -11    1    4    4    0    0  0.17642074664E-01  0.63475860805E-02  0.22426946779E-01  0.29236342287E-01  0.51100000000E-03 0.  1.
         11    1    4    4    0    0  0.71796135872E-01  0.48729022977E-01  0.54402858334E-01  0.10241647779E+00  0.51100000000E-03 0. -1.
</event>
<event>
 8    1  0.1116619E+005  0.1043930E+01  0.7957747E-01            NaN
         13   -1    0    0    0    0  0.00000000000E+00  0.00000000000E+00  0.74505805969E-08  0.10566000000E+00  0.10566000000E+00 0.  1.
     999900   -1    0    0    0    0 -0.00000000000E+00 -0.00000000000E+00 -0.74505805969E-08  0.93827000000E+00  0.93827000000E+00 0.  1.
     999902    2    1    2    0    0 -0.19692828864E-01 -0.46823448239E-02 -0.11003990704E-01  0.10208904758E+01  0.10206304640E+01 0.  0.
     999903    2    3    3    0    0  0.56229663458E-01  0.12713294304E-01 -0.11628620063E+00  0.13119885690E+00  0.19163942436E-01 0.  0.
         14    1    1    2    0    0  0.19692828864E-01  0.46823448239E-02  0.11003990704E-01  0.23039524152E-01  0.00000000000E+00 0.  1.
     999901    1    3    3    0    0 -0.75922492322E-01 -0.17395639128E-01  0.10528220993E+00  0.88969161895E+00  0.88000000000E+00 0. -1.
        -11    1    4    4    0    0  0.37685991769E-01  0.74726433526E-02 -0.56066102745E-01  0.67968694060E-01  0.51100000000E-03 0. -1.
         11    1    4    4    0    0  0.18543671688E-01  0.52406509519E-02 -0.60220097887E-01  0.63230162839E-01  0.51100000000E-03 0.  1.
</event>
<event>
 8    1  0.1116619E+005  0.1043930E+01  0.7957747E-01            NaN
         13   -1    0    0    0    0  0.00000000000E+00  0.00000000000E+00  0.74505805969E-08  0.10566000000E+00  0.10566000000E+00 0. -1.
     999900   -1    0    0    0    0 -0.00000000000E+00 -0.00000000000E+00 -0.74505805969E-08  0.93827000000E+00  0.93827000000E+00 0.  1.
     999902    2    1    2    0    0  0.94829605311E-04  0.92933104523E-02 -0.21373747207E-01  0.10206230980E+01  0.10203569456E+01 0.  0.
     999903    2    3    3    0    0 -0.74124531309E-01 -0.10443852381E+00  0.58272021537E-02  0.12979015332E+00  0.20240459880E-01 0.  0.
         14    1    1    2    0    0 -0.94829605311E-04 -0.92933104523E-02  0.21373747207E-01  0.23306902014E-01  0.00000000000E+00 0. -1.
     999901    1    3    3    0    0  0.74219360914E-01  0.11373183426E+00 -0.27200949360E-01  0.89083294467E+00  0.88000000000E+00 0.  1.
        -11    1    4    4    0    0 -0.38893075385E-01 -0.37762342663E-01  0.97814599977E-03  0.54220694636E-01  0.51100000000E-03 0.  1.
         11    1    4    4    0    0 -0.35231455924E-01 -0.66676181148E-01  0.48490561539E-02  0.75569458682E-01  0.51100000000E-03 0. -1.
</event>
<event>
 8    1  0.1116619E+005  0.1043930E+01  0.7957747E-01            NaN
         13   -1    0    0    0    0  0.00000000000E+00  0.00000000000E+00  0.74505805969E-08  0.10566000000E+00  0.10566000000E+00 0. -1.
     999900   -1    0    0    0    0 -0.00000000000E+00 -0.00000000000E+00 -0.74505805969E-08  0.93827000000E+00  0.93827000000E+00 0. -1.
     999902    2    1    2    0    0 -0.65040075561E-02  0.22994558823E-01  0.56665737428E-02  0.10193706452E+01  0.10190747521E+01 0.  0.
     999903    2    3    3    0    0 -0.10551227548E+00 -0.93904666133E-02  0.73805381156E-01  0.13061065282E+00  0.19770867564E-01 0.  0.
         14    1    1    2    0    0  0.65040075561E-02 -0.22994558823E-01 -0.56665737428E-02  0.24559354790E-01  0.00000000000E+00 0.  1.
     999901    1    3    3    0    0  0.99008267920E-01  0.32385025436E-01 -0.68138807413E-01  0.88875999239E+00  0.88000000000E+00 0. -1.
        -11    1    4    4    0    0 -0.71430626428E-01 -0.84820744276E-02  0.38749971960E-01  0.81707413534E-01  0.51100000000E-03 0.  1.
         11    1    4    4    0    0 -0.34081649049E-01 -0.90839218573E-03  0.35055409196E-01  0.48903239291E-01  0.51100000000E-03 0. -1.
</event>
<event>
 8    1  0.1116619E+005  0.1043930E+01  0.7957747E-01            NaN
         13   -1    0    0    0    0  0.00000000000E+00  0.00000000000E+00  0.74505805969E-08  0.10566000000E+00  0.10566000000E+00 0. -1.
     999900   -1    0    0    0    0 -0.00000000000E+00 -0.00000000000E+00 -0.74505805969E-08  0.93827000000E+00  0.93827000000E+00 0. -1.
     999902    2    1    2    0    0 -0.13325254117E-01  0.85053553626E-02  0.14376109281E-01  0.10225623613E+01  0.10223390860E+01 0.  0.
     999903    2    3    3    0    0  0.17696761009E-01  0.94253622623E-01 -0.88378980543E-01  0.13190320129E+00  0.19765869089E-01 0.  0.
         14    1    1    2    0    0  0.13325254117E-01 -0.85053553626E-02 -0.14376109281E-01  0.21367638737E-01  0.00000000000E+00 0.  1.
     999901    1    3    3    0    0 -0.31022015126E-01 -0.85748267261E-01  0.10275508982E+00  0.89065915997E+00  0.88000000000E+00 0.  1.
        -11    1    4    4    0    0 -0.18812601815E-02  0.83949429601E-02 -0.14888801185E-01  0.17203247627E-01  0.51100000000E-03 0. -1.
         11    1    4    4    0    0  0.19578021191E-01  0.85858679663E-01 -0.73490179357E-01  0.11469995366E+00  0.51100000000E-03 0.  1.
</event>
<event>
 8    1  0.1116619E+005  0.1043930E+01  0.7957747E-01            NaN
         13   -1    0    0    0    0  0.00000000000E+00  0.00000000000E+00  0.74505805969E-08  0.10566000000E+00  0.10566000000E+00 0. -1.
     999900   -1    0    0    0    0 -0.00000000000E+00 -0.00000000000E+00 -0.74505805969E-08  0.93827000000E+00  0.93827000000E+00 0. -1.
     999902    2    1    2    0    0  0.60517874019E-02 -0.14169872860E-01 -0.17777751682E-01  0.10204043144E+01  0.10201330830E+01 0.  0.
     999903    2    3    3    0    0 -0.12684189640E+00 -0.61641664268E-02  0.18353531060E-01  0.12965727281E+00  0.18635789743E-01 0.  0.
         14    1    1    2    0    0 -0.60517874019E-02  0.14169872860E-01  0.17777751682E-01  0.23525685591E-01  0.00000000000E+00 0. -1.
     999901    1    3    3    0    0  0.13289368380E+00 -0.80057064332E-02 -0.36131282742E-01  0.89074704160E+00  0.88000000000E+00 0.  1.
        -11    1    4    4    0    0 -0.45609373172E-01  0.55314179802E-02  0.21188448170E-02  0.45995240302E-01  0.51100000000E-03 0. -1.
         11    1    4    4    0    0 -0.81232523228E-01 -0.11695584407E-01  0.16234686243E-01  0.83662032506E-01  0.51100000000E-03 0.  1.
</event>
<event>
 8    1  0.1116619E+005  0.1043930E+01  0.7957747E-01            NaN
         13   -1    0    0    0    0  0.00000000000E+00  0.00000000000E+00  0.74505805969E-08  0.10566000000E+00  0.10566000000E+00 0. -1.
     999900   -1    0    0    0    0 -0.00000000000E+00 -0.00000000000E+00 -0.74505805969E-08  0.93827000000E+00  0.93827000000E+00 0.  1.
     999902    2    1    2    0    0 -0.13317431782E-01  0.13327329917E-01 -0.14958047647E-01  0.10198735060E+01  0.10195897476E+01 0.  0.
     999903    2    3    3    0    0 -0.77678421726E-01 -0.89706981175E-01  0.47166140540E-01  0.12935802553E+00  0.20677869351E-01 0.  0.
         14    1    1    2    0    0  0.13317431782E-01 -0.13327329917E-01  0.14958047647E-01  0.24056493955E-01  0.00000000000E+00 0.  1.
     999901    1    3    3    0    0  0.64360989944E-01  0.10303431109E+00 -0.62124188187E-01  0.89051548052E+00  0.88000000000E+00 0.  1.
        -11    1    4    4    0    0 -0.18276985654E-01 -0.35903184086E-01  0.16720889891E-01  0.43622655946E-01  0.51100000000E-03 0. -1.
         11    1    4    4    0    0 -0.59401436073E-01 -0.53803797089E-01  0.30445250649E-01  0.85735369579E-01  0.51100000000E-03 0.  1.
</event>
<event>
 8    1  0.1116619E+005  0.1043930E+01  0.7957747E-01            NaN
         13   -1    0    0    0    0  0.00000000000E+00  0.00000000000E+00  0.74505805969E-08  0.10566000000E+00  0.10566000000E+00 0. -1.
     999900   -1    0    0    0    0 -0.00000000000E+00 -0.00000000000E+00 -0.74505805969E-08  0.93827000000E+00  0.93827000000E+00 0.  1.
     999902    2    1    2    0    0  0.94492868968E-02  0.15714858204E-01 -0.15263502963E-01  0.10200716615E+01  0.10197926134E+01 0.  0.
     999903    2    3    3    0    0 -0.89223705091E-01  0.67827755380E-01  0.62011895548E-01  0.12966523714E+00  0.20152532932E-01 0.  0.
         14    1    1    2    0    0 -0.94492868968E-02 -0.15714858204E-01  0.15263502963E-01  0.23858338457E-01  0.00000000000E+00 0. -1.
     999901    1    3    3    0    0  0.98672991987E-01 -0.52112897176E-01 -0.77275398510E-01  0.89040642440E+00  0.88000000000E+00 0.  1.
        -11    1    4    4    0    0 -0.40239331105E-01  0.27628599993E-01  0.38144315092E-01  0.61949924941E-01  0.51100000000E-03 0. -1.
         11    1    4    4    0    0 -0.48984373986E-01  0.40199155387E-01  0.23867580455E-01  0.67715312201E-01  0.51100000000E-03 0.  1.
</event>
<event>
 8    1  0.1116619E+005  0.1043930E+01  0.7957747E-01            NaN
         13   -1    0    0    0    0  0.00000000000E+00  0.00000000000E+00  0.74505805969E-08  0.10566000000E+00  0.10566000000E+00 0. -1.
     999900   -1    0    0    0    0 -0.00000000000E+00 -0.00000000000E+00 -0.74505805969E-08  0.93827000000E+00  0.93827000000E+00 0. -1.
     999902    2    1    2    0    0  0.10342237223E-01 -0.18245235147E-01  0.85150945067E-02  0.10212946889E+01  0.10210438209E+01 0.  0.
     999903    2    3    3    0    0  0.16779974758E-01 -0.13099257120E+00 -0.11223499308E-01  0.13385848363E+00  0.18748478380E-01 0.  0.
         14    1    1    2    0    0 -0.10342237223E-01  0.18245235147E-01 -0.85150945067E-02  0.22635311149E-01  0.00000000000E+00 0.  1.
     999901    1    3    3    0    0 -0.64377375349E-02  0.11274733605E+00  0.19738593815E-01  0.88743620522E+00  0.88000000000E+00 0. -1.
        -11    1    4    4    0    0  0.15766461941E-01 -0.86507545457E-01 -0.14979279637E-01  0.89200766154E-01  0.51100000000E-03 0.  1.
         11    1    4    4    0    0  0.10135128170E-02 -0.44485025740E-01  0.37557803283E-02  0.44657717476E-01  0.51100000000E-03 0. -1.
</event>
<event>
 8    1  0.1116619E+005  0.1043930E+01  0.7957747E-01            NaN
         13   -1    0    0    0    0  0.00000000000E+00  0.00000000000E+00  0.74505805969E-08  0.10566000000E+00  0.10566000000E+00 0. -1.
     999900   -1    0    0    0    0 -0.00000000000E+00 -0.00000000000E+00 -0.74505805969E-08  0.93827000000E+00  0.93827000000E+00 0. -1.
     999902    2    1    2    0    0  0.20478029322E-02  0.22958629483E-01  0.72726303883E-02  0.10197601155E+01  0.10194736435E+01 0.  0.
     999903    2    3    3    0    0  0.60505293218E-01 -0.15767990302E-01  0.11252149115E+00  0.13071886113E+00  0.22733558041E-01 0.  0.
         14    1    1    2    0    0 -0.20478029322E-02 -0.22958629483E-01 -0.72726303883E-02  0.24169884513E-01  0.00000000000E+00 0.  1.
     999901    1    3    3    0    0 -0.58457490286E-01  0.38726619785E-01 -0.10524886076E+00  0.88904125435E+00  0.88000000000E+00 0. -1.
        -11    1    4    4    0    0  0.29505703738E-01 -0.84695144659E-02  0.33088530222E-01  0.45137912907E-01  0.51100000000E-03 0. -1.
         11    1    4    4    0    0  0.30999589480E-01 -0.72984758357E-02  0.79432960923E-01  0.85580948227E-01  0.51100000000E-03 0.  1.
</event>
<event>
 8    1  0.1116619E+005  0.1043930E+01  0.7957747E-01            NaN
         13   -1    0    0    0    0  0.00000000000E+00  0.00000000000E+00  0.74505805969E-08  0.10566000000E+00  0.10566000000E+00 0. -1.
     999900   -1    0    0    0    0 -0.00000000000E+00 -0.00000000000E+00 -0.74505805969E-08  0.93827000000E+00  0.93827000000E+00 0.  1.
     999902    2    1    2    0    0 -0.24139832776E-01  0.82603061934E-02 -0.13509607109E-01  0.10150600560E+01  0.10146494190E+01 0.  0.
     999903    2    3    3    0    0  0.28633060600E-01  0.11903115746E+00  0.22042468364E-01  0.12583617535E+00  0.18989576387E-01 0.  0.
         14    1    1    2    0    0  0.24139832776E-01 -0.82603061934E-02  0.13509607109E-01  0.28869944044E-01  0.00000000000E+00 0. -1.
     999901    1    3    3    0    0 -0.52772893377E-01 -0.11077085126E+00 -0.35552075473E-01  0.88922388060E+00  0.88000000000E+00 0. -1.
        -11    1    4    4    0    0  0.12392802545E-01  0.35148720715E-01  0.14744813109E-01  0.40083472373E-01  0.51100000000E-03 0. -1.
         11    1    4    4    0    0  0.16240258055E-01  0.83882436740E-01  0.72976552551E-02  0.85752702980E-01  0.51100000000E-03 0.  1.
</event>
<event>
 8    1  0.1116619E+005  0.1043930E+01  0.7957747E-01            NaN
         13   -1    0    0    0    0  0.00000000000E+00  0.00000000000E+00  0.74505805969E-08  0.10566000000E+00  0.10566000000E+00 0. -1.
     999900   -1    0    0    0    0 -0.00000000000E+00 -0.00000000000E+00 -0.74505805969E-08  0.93827000000E+00  0.93827000000E+00 0.  1.
     999902    2    1    2    0    0 -0.19156795923E-02 -0.51087112025E-02 -0.22570286826E-01  0.10207096080E+01  0.10204454504E+01 0.  0.
     999903    2    3    3    0    0 -0.69092599201E-01 -0.98934619176E-01  0.45783388121E-01  0.13054767640E+00  0.19614562218E-01 0.  0.
         14    1    1    2    0    0  0.19156795923E-02  0.51087112025E-02  0.22570286826E-01  0.23220392026E-01  0.00000000000E+00 0. -1.
     999901    1    3    3    0    0  0.67176919609E-01  0.93825907974E-01 -0.68353674947E-01  0.89016193157E+00  0.88000000000E+00 0.  1.
        -11    1    4    4    0    0 -0.41678630002E-01 -0.70356403073E-01  0.38050340421E-01  0.90195460969E-01  0.51100000000E-03 0.  1.
         11    1    4    4    0    0 -0.27413969199E-01 -0.28578216103E-01  0.77330477004E-02  0.40352215436E-01  0.51100000000E-03 0. -1.
</event>
<event>
 8    1  0.1116619E+005  0.1043930E+01  0.7957747E-01            NaN
         13   -1    0    0    0    0  0.00000000000E+00  0.00000000000E+00  0.74505805969E-08  0.10566000000E+00  0.10566000000E+00 0. -1.
     999900   -1    0    0    0    0 -0.00000000000E+00 -0.00000000000E+00 -0.74505805969E-08  0.93827000000E+00  0.93827000000E+00 0. -1.
     999902    2    1    2    0    0  0.21313255827E-01  0.23381602455E-02 -0.93113094389E-02  0.10205543214E+01  0.10202865777E+01 0.  0.
     999903    2    3    3    0    0  0.11426051089E+00  0.58693869124E-01 -0.31142650203E-01  0.13359785933E+00  0.19444503903E-01 0.  0.
         14    1    1    2    0    0 -0.21313255827E-01 -0.23381602455E-02  0.93113094389E-02  0.23375678616E-01  0.00000000000E+00 0. -1.
     999901    1    3    3    0    0 -0.92947255067E-01 -0.56355708878E-01  0.21831340764E-01  0.88695646206E+00  0.88000000000E+00 0. -1.
        -11    1    4    4    0    0  0.73670595978E-01  0.46470217391E-01 -0.15874998531E-01  0.88538774079E-01  0.51100000000E-03 0. -1.
         11    1    4    4    0    0  0.40589914917E-01  0.12223651733E-01 -0.15267651672E-01  0.45059085246E-01  0.51100000000E-03 0.  1.
</event>
<event>
 8    1  0.1116619E+005  0.1043930E+01  0.7957747E-01            NaN
         13   -1    0    0    0    0  0.00000000000E+00  0.00000000000E+00  0.74505805969E-08  0.10566000000E+00  0.10566000000E+00 0. -1.
     999900   -1    0    0    0    0 -0.00000000000E+00 -0.00000000000E+00 -0.74505805969E-08  0.93827000000E+00  0.93827000000E+00 0. -1.
     999902    2    1    2    0    0 -0.81108743861E-02  0.16364939969E-01  0.14734106777E-01  0.10204631842E+01  0.10201933242E+01 0.  0.
     999903    2    3    3    0    0  0.10529659515E+00 -0.69684532674E-02 -0.70810392753E-01  0.12876617127E+00  0.20752899808E-01 0.  0.
         14    1    1    2    0    0  0.81108743861E-02 -0.16364939969E-01 -0.14734106777E-01  0.23466815847E-01  0.00000000000E+00 0.  1.
     999901    1    3    3    0    0 -0.11340746954E+00  0.23333393237E-01  0.85544499529E-01  0.89169701288E+00  0.88000000000E+00 0.  1.
        -11    1    4    4    0    0  0.30486357395E-01 -0.70698809987E-02 -0.30863448963E-01  0.43956965403E-01  0.51100000000E-03 0.  1.
         11    1    4    4    0    0  0.74810237754E-01  0.10142773137E-03 -0.39946943790E-01  0.84809205866E-01  0.51100000000E-03 0. -1.
</event>
<event>
 8    1  0.1116619E+005  0.1043930E+01  0.7957747E-01            NaN
         13   -1    0    0    0    0  0.00000000000E+00  0.00000000000E+00  0.74505805969E-08  0.10566000000E+00  0.10566000000E+00 0. -1.
     999900   -1    0    0    0    0 -0.00000000000E+00 -0.00000000000E+00 -0.74505805969E-08  0.93827000000E+00  0.93827000000E+00 0.  1.
     999902    2    1    2    0    0  0.57068222796E-02  0.35540527313E-02  0.22742943913E-01  0.10202141696E+01  0.10199384841E+01 0.  0.
     999903    2    3    3    0    0  0.10616413583E+00  0.59911249279E-01  0.48092197729E-01  0.13234571649E+00  0.18502639363E-01 0.  0.
         14    1    1    2    0    0 -0.57068222796E-02 -0.35540527313E-02 -0.22742943913E-01  0.23715830350E-01  0.00000000000E+00 0.  1.
     999901    1    3    3    0    0 -0.10045731355E+00 -0.56357196548E-01 -0.25349253815E-01  0.88786845316E+00  0.88000000000E+00 0.  1.
        -11    1    4    4    0    0  0.58697256011E-01  0.34740704740E-01  0.36568329434E-01  0.77393722405E-01  0.51100000000E-03 0.  1.
         11    1    4    4    0    0  0.47466879822E-01  0.25170544539E-01  0.11523868295E-01  0.54951994084E-01  0.51100000000E-03 0. -1.
</event>
<event>
 8    1  0.1116619E+005  0.1043930E+01  0.7957747E-01            NaN
         13   -1    0    0    0    0  0.00000000000E+00  0.00000000000E+00  0.74505805969E-08  0.10566000000E+00  0.10566000000E+00 0.  1.
     999900   -1    0    0    0    0 -0.00000000000E+00 -0.00000000000E+00 -0.74505805969E-08  0.93827000000E+00  0.93827000000E+00 0.  1.
     999902    2    1    2    0    0  0.14596316997E-04 -0.18796404933E-01 -0.12436885597E-01  0.10213915623E+01  0.10211428609E+01 0.  0.
     999903    2    3    3    0    0 -0.11342216260E+00 -0.12794683520E-01  0.61320852946E-01  0.13102976900E+00  0.19500319588E-01 0.  0.
         14    1    1    2    0    0 -0.14596316997E-04  0.18796404933E-01  0.12436885597E-01  0.22538437719E-01  0.00000000000E+00 0.  1.
     999901    1    3    3    0    0  0.11343675892E+00 -0.60017214130E-02 -0.73757738543E-01  0.89036179328E+00  0.88000000000E+00 0.  1.
        -11    1    4    4    0    0 -0.56690983472E-01 -0.12168760773E-01  0.39888789396E-01  0.70379847870E-01  0.51100000000E-03 0. -1.
         11    1    4    4    0    0 -0.56731179127E-01 -0.62592274697E-03  0.21432063550E-01  0.60649921133E-01  0.51100000000E-03 0.  1.
</event>
<event>
 8    1  0.1116619E+005  0.1043930E+01  0.7957747E-01            NaN
         13   -1    0    0    0    0  0.00000000000E+00  0.00000000000E+00  0.74505805969E-08  0.10566000000E+00  0.10566000000E+00 0. -1.
     999900   -1    0    0    0    0 -0.00000000000E+00 -0.00000000000E+00 -0.74505805969E-08  0.93827000000E+00  0.93827000000E+00 0.  1.
     999902    2    1    2    0    0 -0.24709570297E-02 -0.19748348259E-01 -0.12763972302E-01  0.10202863565E+01  0.10200123663E+01 0.  0.
     999903    2    3    3    0    0  0.24517796294E-01  0.87959032056E-01  0.87204860045E-01  0.12769292163E+00  0.19049434753E-01 0.  0.
         14    1    1    2    0    0  0.24709570297E-02  0.19748348259E-01  0.12763972302E-01  0.23643643470E-01  0.00000000000E+00 0. -1.
     999901    1    3    3    0    0 -0.26988753324E-01 -0.10770738032E+00 -0.99968832347E-01  0.89259343490E+00  0.88000000000E+00 0.  1.
        -11    1    4    4    0    0  0.26617995809E-01  0.66837699304E-01  0.69782509939E-01  0.10022801786E+00  0.51100000000E-03 0. -1.
         11    1    4    4    0    0 -0.21001995148E-02  0.21121332753E-01  0.17422350106E-01  0.27464903777E-01  0.51100000000E-03 0.  1.
</event>
<event>
 8    1  0.1116619E+005  0.1043930E+01  0.7957747E-01            NaN
         13   -1    0    0    0    0  0.00000000000E+00  0.00000000000E+00  0.74505805969E-08  0.10566000000E+00  0.10566000000E+00 0.  1.
     999900   -1    0    0    0    0 -0.00000000000E+00 -0.00000000000E+00 -0.74505805969E-08  0.93827000000E+00  0.93827000000E+00 0. -1.
     999902    2    1    2    0    0 -0.94920393556E-02  0.14464160511E-01 -0.14877035300E-01  0.10211125302E+01  0.10208575622E+01 0.  0.
     999903    2    3    3    0    0  0.67596040024E-01 -0.38878733227E-01  0.10042449833E+00  0.12865385888E+00  0.19645737814E-01 0.  0.
         14    1    1    2    0    0  0.94920393556E-02 -0.14464160511E-01  0.14877035300E-01  0.22817469836E-01  0.00000000000E+00 0.  1.
     999901    1    3    3    0    0 -0.77088079380E-01  0.53342893738E-01 -0.11530153363E+00  0.89245867129E+00  0.88000000000E+00 0. -1.
        -11    1    4    4    0    0  0.43937526790E-01 -0.23596121088E-01  0.48436537828E-01  0.69524402252E-01  0.51100000000E-03 0. -1.
         11    1    4    4    0    0  0.23658513235E-01 -0.15282612139E-01  0.51987960506E-01  0.59129456626E-01  0.51100000000E-03 0.  1.
</event>
<event>
 8    1  0.1116619E+005  0.1043930E+01  0.7957747E-01            NaN
         13   -1    0    0    0    0  0.00000000000E+00  0.00000000000E+00  0.74505805969E-08  0.10566000000E+00  0.10566000000E+00 0.  1.
     999900   -1    0    0    0    0 -0.00000000000E+00 -0.00000000000E+00 -0.74505805969E-08  0.93827000000E+00  0.93827000000E+00 0.  1.
     999902    2    1    2    0    0 -0.23293341001E-01 -0.49137417038E-02 -0.17494989839E-01  0.10143868238E+01  0.10139565222E+01 0.  0.
     999903    2    3    3    0    0  0.12004145238E+00 -0.15044126316E-01  0.18731080214E-03  0.12255715873E+00  0.19594541198E-01 0.  0.
         14    1    1    2    0    0  0.23293341001E-01  0.49137417038E-02  0.17494989839E-01  0.29543176234E-01  0.00000000000E+00 0. -1.
     999901    1    3    3    0    0 -0.14333479338E+00  0.10130384612E-01 -0.17682300641E-01  0.89182966504E+00  0.88000000000E+00 0. -1.
        -11    1    4    4    0    0  0.82555792205E-01 -0.14683561674E-02  0.26147753130E-02  0.82611821596E-01  0.51100000000E-03 0. -1.
         11    1    4    4    0    0  0.37485660173E-01 -0.13575770149E-01 -0.24274645109E-02  0.39945337133E-01  0.51100000000E-03 0.  1.
</event>
<event>
 8    1  0.1116619E+005  0.1043930E+01  0.7957747E-01            NaN
         13   -1    0    0    0    0  0.00000000000E+00  0.00000000000E+00  0.74505805969E-08  0.10566000000E+00  0.10566000000E+00 0. -1.
     999900   -1    0    0    0    0 -0.00000000000E+00 -0.00000000000E+00 -0.74505805969E-08  0.93827000000E+00  0.93827000000E+00 0.  1.
     999902    2    1    2    0    0  0.28036600225E-02 -0.16722192505E-01  0.13789492651E-01  0.10220749699E+01  0.10218412802E+01 0.  0.
     999903    2    3    3    0    0  0.65883848021E-01  0.33543708063E-01 -0.10508958516E+00  0.13042593246E+00  0.22388415964E-01 0.  0.
         14    1    1    2    0    0 -0.28036600225E-02  0.16722192505E-01 -0.13789492651E-01  0.21855030068E-01  0.00000000000E+00 0.  1.
     999901    1    3    3    0    0 -0.63080187999E-01 -0.50265900567E-01  0.11887907781E+00  0.89164903747E+00  0.88000000000E+00 0. -1.
        -11    1    4    4    0    0  0.29283113286E-01  0.30631840228E-02 -0.44358039513E-01  0.53242657808E-01  0.51100000000E-03 0.  1.
         11    1    4    4    0    0  0.36600734735E-01  0.30480524040E-01 -0.60731545646E-01  0.77183274655E-01  0.51100000000E-03 0. -1.
</event>
<event>
 8    1  0.1116619E+005  0.1043930E+01  0.7957747E-01            NaN
         13   -1    0    0    0    0  0.00000000000E+00  0.00000000000E+00  0.74505805969E-08  0.10566000000E+00  0.10566000000E+00 0.  1.
     999900   -1    0    0    0    0 -0.00000000000E+00 -0.00000000000E+00 -0.74505805969E-08  0.93827000000E+00  0.93827000000E+00 0. -1.
     999902    2    1    2    0    0  0.20732862981E-01  0.12661454751E-01  0.38887307366E-02  0.10193274337E+01  0.10190304857E+01 0.  0.
     999903    2    3    3    0    0 -0.22596849273E-01  0.95391019271E-01  0.84244793938E-01  0.13074499983E+00  0.19672455902E-01 0.  0.
         14    1    1    2    0    0 -0.20732862981E-01 -0.12661454751E-01 -0.38887307366E-02  0.24602566340E-01  0.00000000000E+00 0. -1.
     999901    1    3    3    0    0  0.43329712254E-01 -0.82729564521E-01 -0.80356063202E-01  0.88858243383E+00  0.88000000000E+00 0.  1.
        -11    1    4    4    0    0  0.10094111661E-03  0.31368297743E-01  0.33930189668E-01  0.46211461612E-01  0.51100000000E-03 0. -1.
         11    1    4    4    0    0 -0.22697790390E-01  0.64022721529E-01  0.50314604270E-01  0.84533538222E-01  0.51100000000E-03 0.  1.
</event>
<event>
 8    1  0.1116619E+005  0.1043930E+01  0.7957747E-01            NaN
         13   -1    0    0    0    0  0.00000000000E+00  0.00000000000E+00  0.74505805969E-08  0.10566000000E+00  0.10566000000E+00 0. -1.
     999900   -1    0    0    0    0 -0.00000000000E+00 -0.00000000000E+00 -0.74505805969E-08  0.93827000000E+00  0.93827000000E+00 0. -1.
     999902    2    1    2    0    0  0.22771868924E-01  0.30464703206E-01 -0.35554486317E-02  0.10057292491E+01  0.10050034951E+01 0.  0.
     999903    2    3    3    0    0  0.63949139212E-01  0.98683572284E-02  0.97482906952E-01  0.11875206428E+00  0.20304155811E-01 0.  0.
         14    1    1    2    0    0 -0.22771868924E-01 -0.30464703206E-01  0.35554486317E-02  0.38200750917E-01  0.00000000000E+00 0. -1.
     999901    1    3    3    0    0 -0.41177270288E-01  0.20596345977E-01 -0.10103835558E+00  0.88697718480E+00  0.88000000000E+00 0. -1.
        -11    1    4    4    0    0  0.55249283167E-01  0.28380995698E-02  0.71080579020E-01  0.90073569567E-01  0.51100000000E-03 0. -1.
         11    1    4    4    0    0  0.86998560450E-02  0.70302576586E-02  0.26402327932E-01  0.28678494716E-01  0.51100000000E-03 0.  1.
</event>
<event>
 8    1  0.1116619E+005  0.1043930E+01  0.7957747E-01            NaN
         13   -1    0    0    0    0  0.00000000000E+00  0.00000000000E+00  0.74505805969E-08  0.10566000000E+00  0.10566000000E+00 0. -1.
     999900   -1    0    0    0    0 -0.00000000000E+00 -0.00000000000E+00 -0.74505805969E-08  0.93827000000E+00  0.93827000000E+00 0. -1.
     999902    2    1    2    0    0  0.64245915289E-02 -0.22802466025E-01  0.68675342537E-02  0.10192644195E+01  0.10189659298E+01 0.  0.
     999903    2    3    3    0    0 -0.94728856488E-01  0.24502610850E-02  0.86173876181E-01  0.12956828256E+00  0.19556146823E-01 0.  0.
         14    1    1    2    0    0 -0.64245915289E-02  0.22802466025E-01 -0.68675342537E-02  0.24665580468E-01  0.00000000000E+00 0.  1.
     999901    1    3    3    0    0  0.10115344802E+00 -0.25252727110E-01 -0.79306341928E-01  0.88969613697E+00  0.88000000000E+00 0.  1.
        -11    1    4    4    0    0 -0.34122762180E-01  0.93410821182E-02  0.26215876739E-01  0.44035803934E-01  0.51100000000E-03 0.  1.
         11    1    4    4    0    0 -0.60606094308E-01 -0.68908210332E-02  0.59957999443E-01  0.85532478626E-01  0.51100000000E-03 0. -1.
</event>
<event>
 8    1  0.1116619E+005  0.1043930E+01  0.7957747E-01            NaN
         13   -1    0    0    0    0  0.00000000000E+00  0.00000000000E+00  0.74505805969E-08  0.10566000000E+00  0.10566000000E+00 0. -1.
     999900   -1    0    0    0    0 -0.00000000000E+00 -0.00000000000E+00 -0.74505805969E-08  0.93827000000E+00  0.93827000000E+00 0. -1.
     999902    2    1    2    0    0  0.20383500180E-01  0.60301482782E-02  0.10434213929E-01  0.10202504183E+01  0.10199755848E+01 0.  0.
     999903    2    3    3    0    0 -0.27556821024E-01  0.62220184317E-01  0.11048301456E+00  0.13150672240E+00  0.21372688356E-01 0.  0.
         14    1    1    2    0    0 -0.20383500180E-01 -0.60301482782E-02 -0.10434213929E-01  0.23679581672E-01  0.00000000000E+00 0.  1.
     999901    1    3    3    0    0  0.47940321204E-01 -0.56190036039E-01 -0.10004880063E+00  0.88874369593E+00  0.88000000000E+00 0. -1.
        -11    1    4    4    0    0 -0.89941422198E-02  0.43393591535E-01  0.60985208108E-01  0.75388030280E-01  0.51100000000E-03 0. -1.
         11    1    4    4    0    0 -0.18562678804E-01  0.18826592783E-01  0.49497806454E-01  0.56118692118E-01  0.51100000000E-03 0.  1.
</event>
<event>
 8    1  0.1116619E+005  0.1043930E+01  0.7957747E-01            NaN
         13   -1    0    0    0    0  0.00000000000E+00  0.00000000000E+00  0.74505805969E-08  0.10566000000E+00  0.10566000000E+00 0.  1.
     999900   -1    0    0    0    0 -0.00000000000E+00 -0.00000000000E+00 -0.74505805969E-08  0.93827000000E+00  0.93827000000E+00 0.  1.
     999902    2    1    2    0    0 -0.75595472891E-02 -0.22127555156E-01  0.14738365245E-02  0.10205003682E+01  0.10202313727E+01 0.  0.
     999903    2    3    3    0    0 -0.12953638773E+00 -0.15816627095E-01 -0.69444856479E-02  0.13202468166E+00  0.18773631694E-01 0.  0.
         14    1    1    2    0    0  0.75595472891E-02  0.22127555156E-01 -0.14738365245E-02  0.23429631805E-01  0.00000000000E+00 0. -1.
     999901    1    3    3    0    0  0.12197684044E+00 -0.63109280619E-02  0.84183221724E-02  0.88847568654E+00  0.88000000000E+00 0. -1.
        -11    1    4    4    0    0 -0.24866736223E-01 -0.10600207638E-01 -0.18632388640E-02  0.27100770329E-01  0.51100000000E-03 0.  1.
         11    1    4    4    0    0 -0.10466965151E+00 -0.52164194566E-02 -0.50812467840E-02  0.10492391133E+00  0.51100000000E-03 0. -1.
</event>
<event>
 8    1  0.1116619E+005  0.1043930E+01  0.7957747E-01            NaN
         13   -1    0    0    0    0  0.00000000000E+00  0.00000000000E+00  0.74505805969E-08  0.10566000000E+00  0.10566000000E+00 0. -1.
     999900   -1    0    0    0    0 -0.00000000000E+00 -0.00000000000E+00 -0.74505805969E-08  0.93827000000E+00  0.93827000000E+00 0. -1.
     999902    2    1    2    0    0  0.10201436034E-01 -0.70129911218E-02  0.22385256822E-01  0.10183497134E+01  0.10180283825E+01 0.  0.
     999903    2    3    3    0    0 -0.82295927919E-01 -0.95062240242E-01  0.24680921528E-01  0.12912887314E+00  0.15989644097E-01 0.  0.
         14    1    1    2    0    0 -0.10201436034E-01  0.70129911218E-02 -0.22385256822E-01  0.25580286641E-01  0.00000000000E+00 0.  1.
     999901    1    3    3    0    0  0.92497363953E-01  0.88049249120E-01 -0.22956647057E-02  0.88922084022E+00  0.88000000000E+00 0.  1.
        -11    1    4    4    0    0 -0.73190888274E-01 -0.76741756587E-01  0.17763929066E-01  0.10752684143E+00  0.51100000000E-03 0.  1.
         11    1    4    4    0    0 -0.91050396448E-02 -0.18320483655E-01  0.69169924621E-02  0.21602031710E-01  0.51100000000E-03 0. -1.
</event>
<event>
 8    1  0.1116619E+005  0.1043930E+01  0.7957747E-01            NaN
         13   -1    0    0    0    0  0.00000000000E+00  0.00000000000E+00  0.74505805969E-08  0.10566000000E+00  0.10566000000E+00 0.  1.
     999900   -1    0    0    0    0 -0.00000000000E+00 -0.00000000000E+00 -0.74505805969E-08  0.93827000000E+00  0.93827000000E+00 0. -1.
     999902    2    1    2    0    0 -0.18477058660E-01 -0.14494954672E-01 -0.57946980941E-02  0.10197414917E+01  0.10194545728E+01 0.  0.
     999903    2    3    3    0    0  0.72989099407E-01 -0.88648612523E-01  0.56692201876E-01  0.12970248373E+00  0.20560724639E-01 0.  0.
         14    1    1    2    0    0  0.18477058660E-01  0.14494954672E-01  0.57946980941E-02  0.24188508298E-01  0.00000000000E+00 0. -1.
     999901    1    3    3    0    0 -0.91466158067E-01  0.74153657851E-01 -0.62486899970E-01  0.89003900797E+00  0.88000000000E+00 0. -1.
        -11    1    4    4    0    0  0.22918629330E-01 -0.14880585352E-01  0.10389111372E-01  0.29238504525E-01  0.51100000000E-03 0.  1.
         11    1    4    4    0    0  0.50070470077E-01 -0.73768027171E-01  0.46303090504E-01  0.10046397920E+00  0.51100000000E-03 0. -1.
</event>
<event>
 8    1  0.1116619E+005  0.1043930E+01  0.7957747E-01            NaN
         13   -1    0    0    0    0  0.00000000000E+00  0.00000000000E+00  0.74505805969E-08  0.10566000000E+00  0.10566000000E+00 0.  1.
     999900   -1    0    0    0    0 -0.00000000000E+00 -0.00000000000E+00 -0.74505805969E-08  0.93827000000E+00  0.93827000000E+00 0. -1.
     999902    2    1    2    0    0 -0.84233790495E-03 -0.18702913625E-01  0.10875346102E-01  0.10222786337E+01  0.10220493252E+01 0.  0.
     999903    2    3    3    0    0  0.10216703208E+00 -0.83414781921E-01  0.79069187810E-04  0.13384455294E+00  0.22764661506E-01 0.  0.
         14    1    1    2    0    0  0.84233790495E-03  0.18702913625E-01 -0.10875346102E-01  0.21651366332E-01  0.00000000000E+00 0. -1.
     999901    1    3    3    0    0 -0.10300936998E+00  0.64711868296E-01  0.10796276914E-01  0.88843408073E+00  0.88000000000E+00 0.  1.
        -11    1    4    4    0    0  0.22286328672E-01 -0.17830049696E-01 -0.94022298716E-02  0.30054187153E-01  0.51100000000E-03 0.  1.
         11    1    4    4    0    0  0.79880703405E-01 -0.65584732225E-01  0.94812990594E-02  0.10379036579E+00  0.51100000000E-03 0. -1.
</event>
<event>
 8    1  0.1116619E+005  0.1043930E+01  0.7957747E-01            NaN
         13   -1    0    0    0    0  0.00000000000E+00  0.00000000000E+00  0.74505805969E-08  0.10566000000E+00  0.10566000000E+00 0. -1.
     999900   -1    0    0    0    0 -0.00000000000E+00 -0.00000000000E+00 -0.74505805969E-08  0.93827000000E+00  0.93827000000E+00 0.  1.
     999902    2    1    2    0    0 -0.97268822332E-02  0.12735087612E-01 -0.16651914065E-01  0.10208198088E+01  0.10205581812E+01 0.  0.
     999903    2    3    3    0    0 -0.75427006892E-01 -0.57669176663E-01 -0.90552849108E-01  0.13248731757E+00  0.18387591728E-01 0.  0.
         14    1    1    2    0    0  0.97268822332E-02 -0.12735087612E-01  0.16651914065E-01  0.23110191182E-01  0.00000000000E+00 0. -1.
     999901    1    3    3    0    0  0.65700124658E-01  0.70404264275E-01  0.73900935043E-01  0.88833249125E+00  0.88000000000E+00 0. -1.
        -11    1    4    4    0    0 -0.50280947559E-01 -0.38268125857E-01 -0.47831729990E-01  0.79251237586E-01  0.51100000000E-03 0. -1.
         11    1    4    4    0    0 -0.25146059332E-01 -0.19401050806E-01 -0.42721119118E-01  0.53236079983E-01  0.51100000000E-03 0.  1.
</event>
<event>
 8    1  0.1116619E+005  0.1043930E+01  0.7957747E-01            NaN
         13   -1    0    0    0    0  0.00000000000E+00  0.00000000000E+00  0.74505805969E-08  0.10566000000E+00  0.10566000000E+00 0. -1.
     999900   -1    0    0    0    0 -0.00000000000E+00 -0.00000000000E+00 -0.74505805969E-08  0.93827000000E+00  0.93827000000E+00 0. -1.
     999902    2    1    2    0    0 -0.17648431650E-01 -0.18535487845E-02 -0.18210935334E-01  0.10185028305E+01  0.10181853833E+01 0.  0.
     999903    2    3    3    0    0  0.29776195389E-01 -0.12235860248E+00  0.15310797865E-01  0.12839369685E+00  0.19805843753E-01 0.  0.
         14    1    1    2    0    0  0.17648431650E-01  0.18535487845E-02  0.18210935334E-01  0.25427169495E-01  0.00000000000E+00 0. -1.
     999901    1    3    3    0    0 -0.47424627040E-01  0.12050505370E+00 -0.33521733198E-01  0.89010913365E+00  0.88000000000E+00 0.  1.
        -11    1    4    4    0    0  0.22089947656E-01 -0.10268095337E+00  0.57191662987E-02  0.10518704272E+00  0.51100000000E-03 0.  1.
         11    1    4    4    0    0  0.76862477334E-02 -0.19677649111E-01  0.95916315659E-02  0.23206654128E-01  0.51100000000E-03 0. -1.
</event>
<event>
 8    1  0.1116619E+005  0.1043930E+01  0.7957747E-01            NaN
         13   -1    0    0    0    0  0.00000000000E+00  0.00000000000E+00  0.74505805969E-08  0.10566000000E+00  0.10566000000E+00 0. -1.
     999900   -1    0    0    0    0 -0.00000000000E+00 -0.00000000000E+00 -0.74505805969E-08  0.93827000000E+00  0.93827000000E+00 0. -1.
     999902    2    1    2    0    0 -0.12346999833E-01 -0.69183218939E-02 -0.18744725532E-01  0.10204422092E+01  0.10201718610E+01 0.  0.
     999903    2    3    3    0    0 -0.70262937009E-01 -0.75862769138E-01 -0.82272899321E-01  0.13356937643E+00  0.19491236484E-01 0.  0.
         14    1    1    2    0    0  0.12346999833E-01  0.69183218939E-02  0.18744725532E-01  0.23487790828E-01  0.00000000000E+00 0. -1.
     999901    1    3    3    0    0  0.57915937175E-01  0.68944447244E-01  0.63528173789E-01  0.88687283274E+00  0.88000000000E+00 0.  1.
        -11    1    4    4    0    0 -0.14078901784E-01 -0.22333472142E-01 -0.30190082861E-01  0.40108623481E-01  0.51100000000E-03 0.  1.
         11    1    4    4    0    0 -0.56184035225E-01 -0.53529296996E-01 -0.52082816460E-01  0.93460752953E-01  0.51100000000E-03 0. -1.
</event>
<event>
 8    1  0.1116619E+005  0.1043930E+01  0.7957747E-01            NaN
         13   -1    0    0    0    0  0.00000000000E+00  0.00000000000E+00  0.74505805969E-08  0.10566000000E+00  0.10566000000E+00 0.  1.
     999900   -1    0    0    0    0 -0.00000000000E+00 -0.00000000000E+00 -0.74505805969E-08  0.93827000000E+00  0.93827000000E+00 0.  1.
     999902    2    1    2    0    0  0.16187793014E-01  0.11022896771E-02  0.16971324270E-01  0.10204505295E+01  0.10201803751E+01 0.  0.
     999903    2    3    3    0    0  0.92165798816E-01  0.39614369335E-01  0.86664629103E-01  0.13359485111E+00  0.16522517228E-01 0.  0.
         14    1    1    2    0    0 -0.16187793014E-01 -0.11022896771E-02 -0.16971324270E-01  0.23479470452E-01  0.00000000000E+00 0. -1.
     999901    1    3    3    0    0 -0.75978005802E-01 -0.38512079658E-01 -0.69693304833E-01  0.88685567844E+00  0.88000000000E+00 0.  1.
        -11    1    4    4    0    0  0.63743128731E-01  0.30480630412E-01  0.69715397302E-01  0.99261034816E-01  0.51100000000E-03 0.  1.
         11    1    4    4    0    0  0.28422670085E-01  0.91337389225E-02  0.16949231801E-01  0.34333816291E-01  0.51100000000E-03 0. -1.
</event>
<event>
 8    1  0.1116619E+005  0.1043930E+01  0.7957747E-01            NaN
         13   -1    0    0    0    0  0.00000000000E+00  0.00000000000E+00  0.74505805969E-08  0.10566000000E+00  0.10566000000E+00 0. -1.
     999900   -1    0    0    0    0 -0.00000000000E+00 -0.00000000000E+00 -0.74505805969E-08  0.93827000000E+00  0.93827000000E+00 0. -1.
     999902    2    1    2    0    0  0.30856489127E-02 -0.11833998962E-01  0.20199801976E-01  0.10203165132E+01  0.10200432296E+01 0.  0.
     999903    2    3    3    0    0 -0.63114340299E-01 -0.56759794382E-02 -0.10961645361E+00  0.12831168135E+00  0.20796249052E-01 0.  0.
         14    1    1    2    0    0 -0.30856489127E-02  0.11833998962E-01 -0.20199801976E-01  0.23613486835E-01  0.00000000000E+00 0.  1.
     999901    1    3    3    0    0  0.66199989212E-01 -0.61580195237E-02  0.12981625558E+00  0.89200483182E+00  0.88000000000E+00 0.  1.
        -11    1    4    4    0    0 -0.16588148498E-01  0.54633624065E-02 -0.41916814514E-01  0.45412503337E-01  0.51100000000E-03 0. -1.
         11    1    4    4    0    0 -0.46526191801E-01 -0.11139341845E-01 -0.67699639092E-01  0.82899178008E-01  0.51100000000E-03 0.  1.
</event>
<event>
 8    1  0.1116619E+005  0.1043930E+01  0.7957747E-01            NaN
         13   -1    0    0    0    0  0.00000000000E+00  0.00000000000E+00  0.74505805969E-08  0.10566000000E+00  0.10566000000E+00 0. -1.
     999900   -1    0    0    0    0 -0.00000000000E+00 -0.00000000000E+00 -0.74505805969E-08  0.93827000000E+00  0.93827000000E+00 0.  1.
     999902    2    1    2    0    0 -0.17499312146E-02  0.23459582096E-01 -0.13545478135E-03  0.10204048518E+01  0.10201336329E+01 0.  0.
     999903    2    3    3    0    0  0.50965772380E-01 -0.91539398954E-01  0.71589738364E-01  0.12846975638E+00  0.20060312829E-01 0.  0.
         14    1    1    2    0    0  0.17499312146E-02 -0.23459582096E-01  0.13545478135E-03  0.23525148232E-01  0.00000000000E+00 0. -1.
     999901    1    3    3    0    0 -0.52715703595E-01  0.11499898105E+00 -0.71725193145E-01  0.89193509539E+00  0.88000000000E+00 0.  1.
        -11    1    4    4    0    0  0.12168031033E-01 -0.19286899226E-01  0.26188452668E-01  0.34729549884E-01  0.51100000000E-03 0.  1.
         11    1    4    4    0    0  0.38797741347E-01 -0.72252499728E-01  0.45401285695E-01  0.93740206498E-01  0.51100000000E-03 0. -1.
</event>
<event>
 8    1  0.1116619E+005  0.1043930E+01  0.7957747E-01            NaN
         13   -1    0    0    0    0  0.00000000000E+00  0.00000000000E+00  0.74505805969E-08  0.10566000000E+00  0.10566000000E+00 0. -1.
     999900   -1    0    0    0    0 -0.00000000000E+00 -0.00000000000E+00 -0.74505805969E-08  0.93827000000E+00  0.93827000000E+00 0.  1.
     999902    2    1    2    0    0 -0.91919494179E-02 -0.75918509136E-03  0.21716522151E-01  0.10203360255E+01  0.10200631987E+01 0.  0.
     999903    2    3    3    0    0  0.24693698850E-01  0.11385035261E+00  0.57743945799E-01  0.13152695801E+00  0.19831688132E-01 0.  0.
         14    1    1    2    0    0  0.91919494179E-02  0.75918509136E-03 -0.21716522151E-01  0.23593974452E-01  0.00000000000E+00 0.  1.
     999901    1    3    3    0    0 -0.33885648268E-01 -0.11460953770E+00 -0.36027423648E-01  0.88880906754E+00  0.88000000000E+00 0.  1.
        -11    1    4    4    0    0  0.60643722848E-02  0.70126052958E-01  0.38669612256E-01  0.80312140724E-01  0.51100000000E-03 0. -1.
         11    1    4    4    0    0  0.18629326565E-01  0.43724299650E-01  0.19074333543E-01  0.51214817282E-01  0.51100000000E-03 0.  1.
</event>
<event>
 8    1  0.1116619E+005  0.1043930E+01  0.7957747E-01            NaN
         13   -1    0    0    0    0  0.00000000000E+00  0.00000000000E+00  0.74505805969E-08  0.10566000000E+00  0.10566000000E+00 0.  1.
     999900   -1    0    0    0    0 -0.00000000000E+00 -0.00000000000E+00 -0.74505805969E-08  0.93827000000E+00  0.93827000000E+00 0.  1.
     999902    2    1    2    0    0  0.14123706124E-01 -0.14299993032E-01  0.10848467820E-01  0.10210901635E+01  0.10208346898E+01 0.  0.
     999903    2    3    3    0    0 -0.36080635714E-01 -0.10998625994E+00  0.62428041273E-01  0.13298161724E+00  0.19699252239E-01 0.  0.
         14    1    1    2    0    0 -0.14123706124E-01  0.14299993032E-01 -0.10848467820E-01  0.22839836458E-01  0.00000000000E+00 0. -1.
     999901    1    3    3    0    0  0.50204341838E-01  0.95686266905E-01 -0.51579573453E-01  0.88810854630E+00  0.88000000000E+00 0.  1.
        -11    1    4    4    0    0 -0.22641382936E-01 -0.49829248998E-01  0.38213149132E-01  0.66753967407E-01  0.51100000000E-03 0.  1.
         11    1    4    4    0    0 -0.13439252778E-01 -0.60157010938E-01  0.24214892141E-01  0.66227649835E-01  0.51100000000E-03 0. -1.
</event>
<event>
 8    1  0.1116619E+005  0.1043930E+01  0.7957747E-01            NaN
         13   -1    0    0    0    0  0.00000000000E+00  0.00000000000E+00  0.74505805969E-08  0.10566000000E+00  0.10566000000E+00 0.  1.
     999900   -1    0    0    0    0 -0.00000000000E+00 -0.00000000000E+00 -0.74505805969E-08  0.93827000000E+00  0.93827000000E+00 0. -1.
     999902    2    1    2    0    0  0.71301654985E-02 -0.62576135158E-02  0.21040361638E-01  0.10208498396E+01  0.10205888992E+01 0.  0.
     999903    2    3    3    0    0  0.11957897663E-01  0.11821148482E+00 -0.47279942387E-01  0.12945569142E+00  0.20160273573E-01 0.  0.
         14    1    1    2    0    0 -0.71301654985E-02  0.62576135158E-02 -0.21040361638E-01  0.23080160415E-01  0.00000000000E+00 0. -1.
     999901    1    3    3    0    0 -0.48277321642E-02 -0.12446909833E+00  0.68320304024E-01  0.89139414816E+00  0.88000000000E+00 0.  1.
        -11    1    4    4    0    0 -0.22307593857E-02  0.72423106676E-01 -0.31209262828E-01  0.78894625136E-01  0.51100000000E-03 0. -1.
         11    1    4    4    0    0  0.14188657048E-01  0.45788378140E-01 -0.16070679559E-01  0.50561066286E-01  0.51100000000E-03 0.  1.
</event>
<event>
 8    1  0.1116619E+005  0.1043930E+01  0.7957747E-01            NaN
         13   -1    0    0    0    0  0.00000000000E+00  0.00000000000E+00  0.74505805969E-08  0.10566000000E+00  0.10566000000E+00 0. -1.
     999900   -1    0    0    0    0 -0.00000000000E+00 -0.00000000000E+00 -0.74505805969E-08  0.93827000000E+00  0.93827000000E+00 0.  1.
     999902    2    1    2    0    0  0.12990440461E-01 -0.17607594521E-01  0.36871816644E-03  0.10220458760E+01  0.10218115569E+01 0.  0.
     999903    2    3    3    0    0 -0.42771998205E-01  0.11913538574E-01  0.12107842966E+00  0.13156747579E+00  0.26050687612E-01 0.  0.
         14    1    1    2    0    0 -0.12990440461E-01  0.17607594521E-01 -0.36871816644E-03  0.21884123955E-01  0.00000000000E+00 0. -1.
     999901    1    3    3    0    0  0.55762438666E-01 -0.29521133095E-01 -0.12070971150E+00  0.89047840025E+00  0.88000000000E+00 0.  1.
        -11    1    4    4    0    0 -0.35804291149E-01  0.17110522217E-02  0.10691885086E+00  0.11276868694E+00  0.51100000000E-03 0.  1.
         11    1    4    4    0    0 -0.69677070561E-02  0.10202486352E-01  0.14159578803E-01  0.18798788851E-01  0.51100000000E-03 0. -1.
</event>
<event>
 8    1  0.1116619E+005  0.1043930E+01  0.7957747E-01            NaN
         13   -1    0    0    0    0  0.00000000000E+00  0.00000000000E+00  0.74505805969E-08  0.10566000000E+00  0.10566000000E+00 0. -1.
     999900   -1    0    0    0    0 -0.00000000000E+00 -0.00000000000E+00 -0.74505805969E-08  0.93827000000E+00  0.93827000000E+00 0. -1.
     999902    2    1    2    0    0 -0.17144897276E-01 -0.14897170112E-01  0.65445547191E-02  0.10202930718E+01  0.10200192390E+01 0.  0.
     999903    2    3    3    0    0  0.89222058634E-01  0.44807834886E-01 -0.77235704956E-01  0.12793790209E+00  0.20843100954E-01 0.  0.
         14    1    1    2    0    0  0.17144897276E-01  0.14897170112E-01 -0.65445547191E-02  0.23636928235E-01  0.00000000000E+00 0. -1.
     999901    1    3    3    0    0 -0.10636695591E+00 -0.59705004997E-01  0.83780259675E-01  0.89235516967E+00  0.88000000000E+00 0. -1.
        -11    1    4    4    0    0  0.11395188025E-01  0.11777402354E-01 -0.19892763849E-01  0.25778686757E-01  0.51100000000E-03 0. -1.
         11    1    4    4    0    0  0.77826870609E-01  0.33030432532E-01 -0.57342941107E-01  0.10215921533E+00  0.51100000000E-03 0.  1.
</event>
<event>
 8    1  0.1116619E+005  0.1043930E+01  0.7957747E-01            NaN
         13   -1    0    0    0    0  0.00000000000E+00  0.00000000000E+00  0.74505805969E-08  0.10566000000E+00  0.10566000000E+00 0. -1.
     999900   -1    0    0    0    0 -0.00000000000E+00 -0.00000000000E+00 -0.74505805969E-08  0.93827000000E+00  0.93827000000E+00 0.  1.
     999902    2    1    2    0    0  0.10795022490E-01 -0.62003244587E-02 -0.20028655054E-01  0.10203477279E+01  0.10200751748E+01 0.  0.
     999903    2    3    3    0    0  0.12708135963E+00  0.28178294188E-01 -0.77609610037E-02  0.13194753771E+00  0.20155196881E-01 0.  0.
         14    1    1    2    0    0 -0.10795022490E-01  0.62003244587E-02  0.20028655054E-01  0.23582272096E-01  0.00000000000E+00 0. -1.
     999901    1    3    3    0    0 -0.11628633714E+00 -0.34378618647E-01 -0.12267694050E-01  0.88840019020E+00  0.88000000000E+00 0.  1.
        -11    1    4    4    0    0  0.59567672652E-01  0.11732245788E-01 -0.13580443211E-01  0.62214490074E-01  0.51100000000E-03 0. -1.
         11    1    4    4    0    0  0.67513686982E-01  0.16446048400E-01  0.58194822078E-02  0.69733047632E-01  0.51100000000E-03 0.  1.
</event>
<event>
 8    1  0.1116619E+005  0.1043930E+01  0.7957747E-01            NaN
         13   -1    0    0    0    0  0.00000000000E+00  0.00000000000E+00  0.74505805969E-08  0.10566000000E+00  0.10566000000E+00 0. -1.
     999900   -1    0    0    0    0 -0.00000000000E+00 -0.00000000000E+00 -0.74505805969E-08  0.93827000000E+00  0.93827000000E+00 0.  1.
     999902    2    1    2    0    0  0.23174822763E-01  0.11328128992E-02  0.70232539968E-02  0.10196878513E+01  0.10193996431E+01 0.  0.
     999903    2    3    3    0    0 -0.28736967433E-01  0.10974785318E+00  0.60262944056E-01  0.12989769319E+00  0.19271317903E-01 0.  0.
         14    1    1    2    0    0 -0.23174822763E-01 -0.11328128992E-02 -0.70232539968E-02  0.24242148664E-01  0.00000000000E+00 0.  1.
     999901    1    3    3    0    0  0.51911790196E-01 -0.10861504029E+00 -0.53239690059E-01  0.88979015815E+00  0.88000000000E+00 0.  1.
        -11    1    4    4    0    0 -0.29102877957E-01  0.77720869092E-01  0.41801549407E-01  0.92925462881E-01  0.51100000000E-03 0.  1.
         11    1    4    4    0    0  0.36591052438E-03  0.32026984093E-01  0.18461394649E-01  0.36972230308E-01  0.51100000000E-03 0. -1.
</event>
<event>
 8    1  0.1246132E+005  0.1043930E+01  0.7957747E-01            NaN
         13   -1    0    0    0    0  0.00000000000E+00  0.00000000000E+00  0.74505805969E-08  0.10566000000E+00  0.10566000000E+00 0.  1.
     999900   -1    0    0    0    0 -0.00000000000E+00 -0.00000000000E+00 -0.74505805969E-08  0.93827000000E+00  0.93827000000E+00 0.  1.
     999902    2    1    2    0    0  0.31135529610E-02 -0.21474592173E-01  0.10638889675E-01  0.10197631157E+01  0.10194767157E+01 0.  0.
     999903    2    3    3    0    0 -0.63236300040E-01 -0.40179351806E-01 -0.10415882301E+00  0.12963352638E+00  0.18508938315E-01 0.  0.
         14    1    1    2    0    0 -0.31135529610E-02  0.21474592173E-01 -0.10638889675E-01  0.24166884254E-01  0.00000000000E+00 0. -1.
     999901    1    3    3    0    0  0.66349853001E-01  0.18704759632E-01  0.11479771268E+00  0.89012958936E+00  0.88000000000E+00 0. -1.
        -11    1    4    4    0    0 -0.31488897020E-01 -0.30587256172E-01 -0.55998922646E-01  0.71156667532E-01  0.51100000000E-03 0. -1.
         11    1    4    4    0    0 -0.31747403020E-01 -0.95920956338E-02 -0.48159900360E-01  0.58476858849E-01  0.51100000000E-03 0.  1.
</event>
<event>
 8    1  0.1116619E+005  0.1043930E+01  0.7957747E-01            NaN
         13   -1    0    0    0    0  0.00000000000E+00  0.00000000000E+00  0.74505805969E-08  0.10566000000E+00  0.10566000000E+00 0.  1.
     999900   -1    0    0    0    0 -0.00000000000E+00 -0.00000000000E+00 -0.74505805969E-08  0.93827000000E+00  0.93827000000E+00 0.  1.
     999902    2    1    2    0    0 -0.62681509102E-02 -0.20434804921E-01 -0.21176872998E-01  0.10138412825E+01  0.10133946987E+01 0.  0.
     999903    2    3    3    0    0 -0.70240792119E-01  0.66206859428E-01  0.72664228123E-01  0.12232267417E+00  0.19121439657E-01 0.  0.
         14    1    1    2    0    0  0.62681509102E-02  0.20434804921E-01  0.21176872998E-01  0.30088717453E-01  0.00000000000E+00 0.  1.
     999901    1    3    3    0    0  0.63972641208E-01 -0.86641664349E-01 -0.93841101120E-01  0.89151860838E+00  0.88000000000E+00 0.  1.
        -11    1    4    4    0    0 -0.24748921759E-01  0.33928959009E-01  0.38060326571E-01  0.56679211068E-01  0.51100000000E-03 0. -1.
         11    1    4    4    0    0 -0.45491870360E-01  0.32277900419E-01  0.34603901551E-01  0.65643463101E-01  0.51100000000E-03 0.  1.
</event>
<event>
 8    1  0.1116619E+005  0.1043930E+01  0.7957747E-01            NaN
         13   -1    0    0    0    0  0.00000000000E+00  0.00000000000E+00  0.74505805969E-08  0.10566000000E+00  0.10566000000E+00 0.  1.
     999900   -1    0    0    0    0 -0.00000000000E+00 -0.00000000000E+00 -0.74505805969E-08  0.93827000000E+00  0.93827000000E+00 0.  1.
     999902    2    1    2    0    0 -0.23420827954E-02 -0.22820534199E-01  0.46168145343E-02  0.10205296344E+01  0.10202613183E+01 0.  0.
     999903    2    3    3    0    0 -0.27162695558E-01  0.85006949167E-02 -0.12567254209E+00  0.13003965768E+00  0.17511450272E-01 0.  0.
         14    1    1    2    0    0  0.23420827954E-02  0.22820534199E-01 -0.46168145343E-02  0.23400365583E-01  0.00000000000E+00 0. -1.
     999901    1    3    3    0    0  0.24820612763E-01 -0.31321229116E-01  0.13028935663E+00  0.89048997673E+00  0.88000000000E+00 0. -1.
        -11    1    4    4    0    0 -0.16591731602E-01  0.12021117660E-01 -0.59431485429E-01  0.62866170622E-01  0.51100000000E-03 0. -1.
         11    1    4    4    0    0 -0.10570963956E-01 -0.35204227432E-02 -0.66241056664E-01  0.67173487063E-01  0.51100000000E-03 0.  1.
</event>
<event>
 8    1  0.1116619E+005  0.1043930E+01  0.7957747E-01            NaN
         13   -1    0    0    0    0  0.00000000000E+00  0.00000000000E+00  0.74505805969E-08  0.10566000000E+00  0.10566000000E+00 0.  1.
     999900   -1    0    0    0    0 -0.00000000000E+00 -0.00000000000E+00 -0.74505805969E-08  0.93827000000E+00  0.93827000000E+00 0.  1.
     999902    2    1    2    0    0 -0.98302734396E-02 -0.14335198799E-02  0.21516263757E-01  0.10202310789E+01  0.10199557910E+01 0.  0.
     999903    2    3    3    0    0  0.66083286294E-01 -0.10562860860E+00  0.34150815781E-01  0.13074857937E+00  0.20112411768E-01 0.  0.
         14    1    1    2    0    0  0.98302734396E-02  0.14335198799E-02 -0.21516263757E-01  0.23698921098E-01  0.00000000000E+00 0. -1.
     999901    1    3    3    0    0 -0.75913559733E-01  0.10419508872E+00 -0.12634552024E-01  0.88948249953E+00  0.88000000000E+00 0.  1.
        -11    1    4    4    0    0  0.45111463431E-01 -0.63715067489E-01  0.12291811559E-01  0.79031662708E-01  0.51100000000E-03 0. -1.
         11    1    4    4    0    0  0.20971822863E-01 -0.41913541111E-01  0.21859004222E-01  0.51716916664E-01  0.51100000000E-03 0.  1.
</event>
<event>
 8    1  0.1116619E+005  0.1043930E+01  0.7957747E-01            NaN
         13   -1    0    0    0    0  0.00000000000E+00  0.00000000000E+00  0.74505805969E-08  0.10566000000E+00  0.10566000000E+00 0.  1.
     999900   -1    0    0    0    0 -0.00000000000E+00 -0.00000000000E+00 -0.74505805969E-08  0.93827000000E+00  0.93827000000E+00 0.  1.
     999902    2    1    2    0    0 -0.86005131051E-02 -0.18759185009E-01  0.13442473374E-01  0.10193012376E+01  0.10190036492E+01 0.  0.
     999903    2    3    3    0    0  0.76179582366E-01  0.18833488620E-01  0.10182245399E+00  0.13002518670E+00  0.19511739447E-01 0.  0.
         14    1    1    2    0    0  0.86005131051E-02  0.18759185009E-01 -0.13442473374E-01  0.24628762419E-01  0.00000000000E+00 0. -1.
     999901    1    3    3    0    0 -0.84780095471E-01 -0.37592673628E-01 -0.88379980618E-01  0.88927605088E+00  0.88000000000E+00 0.  1.
        -11    1    4    4    0    0  0.38252318636E-01  0.10594439709E-01  0.35885611493E-01  0.53511870337E-01  0.51100000000E-03 0.  1.
         11    1    4    4    0    0  0.37927263730E-01  0.82390489104E-02  0.65936842499E-01  0.76513316362E-01  0.51100000000E-03 0. -1.
</event>
<event>
 8    1  0.1116619E+005  0.1043930E+01  0.7957747E-01            NaN
         13   -1    0    0    0    0  0.00000000000E+00  0.00000000000E+00  0.74505805969E-08  0.10566000000E+00  0.10566000000E+00 0.  1.
     999900   -1    0    0    0    0 -0.00000000000E+00 -0.00000000000E+00 -0.74505805969E-08  0.93827000000E+00  0.93827000000E+00 0. -1.
     999902    2    1    2    0    0  0.41108976453E-02 -0.18275935475E-01  0.14978154881E-01  0.10199455379E+01  0.10196634964E+01 0.  0.
     999903    2    3    3    0    0  0.11070141838E-01 -0.12529221861E+00 -0.35040011039E-01  0.13202508381E+00  0.19548204454E-01 0.  0.
         14    1    1    2    0    0 -0.41108976453E-02  0.18275935475E-01 -0.14978154881E-01  0.23984462066E-01  0.00000000000E+00 0. -1.
     999901    1    3    3    0    0 -0.69592441928E-02  0.10701628313E+00  0.50018165920E-01  0.88792045413E+00  0.88000000000E+00 0.  1.
        -11    1    4    4    0    0 -0.56500976382E-02 -0.35520358445E-01 -0.10285142960E-01  0.37412093688E-01  0.51100000000E-03 0.  1.
         11    1    4    4    0    0  0.16720239476E-01 -0.89771860160E-01 -0.24754868079E-01  0.94612990120E-01  0.51100000000E-03 0. -1.
</event>
<event>
 8    1  0.1116619E+005  0.1043930E+01  0.7957747E-01            NaN
         13   -1    0    0    0    0  0.00000000000E+00  0.00000000000E+00  0.74505805969E-08  0.10566000000E+00  0.10566000000E+00 0.  1.
     999900   -1    0    0    0    0 -0.00000000000E+00 -0.00000000000E+00 -0.74505805969E-08  0.93827000000E+00  0.93827000000E+00 0. -1.
     999902    2    1    2    0    0  0.67676176135E-02 -0.10408495412E-01 -0.20765610227E-01  0.10197360340E+01  0.10194489840E+01 0.  0.
     999903    2    3    3    0    0  0.34681384208E-01  0.11974563146E+00  0.24357054240E-01  0.12858210227E+00  0.19956860160E-01 0.  0.
         14    1    1    2    0    0 -0.67676176135E-02  0.10408495412E-01  0.20765610227E-01  0.24193966045E-01  0.00000000000E+00 0.  1.
     999901    1    3    3    0    0 -0.27913766594E-01 -0.13015412688E+00 -0.45122664467E-01  0.89115393168E+00  0.88000000000E+00 0. -1.
        -11    1    4    4    0    0  0.26608468217E-03  0.16832831523E-01 -0.18570415288E-02  0.16944755601E-01  0.51100000000E-03 0.  1.
         11    1    4    4    0    0  0.34415299525E-01  0.10291279994E+00  0.26214095769E-01  0.11163734667E+00  0.51100000000E-03 0. -1.
</event>
<event>
 8    1  0.1116619E+005  0.1043930E+01  0.7957747E-01            NaN
         13   -1    0    0    0    0  0.00000000000E+00  0.00000000000E+00  0.74505805969E-08  0.10566000000E+00  0.10566000000E+00 0. -1.
     999900   -1    0    0    0    0 -0.00000000000E+00 -0.00000000000E+00 -0.74505805969E-08  0.93827000000E+00  0.93827000000E+00 0. -1.
     999902    2    1    2    0    0  0.13785747152E-01  0.11411519415E-01  0.26268567099E-01  0.10121446698E+01  0.10116454544E+01 0.  0.
     999903    2    3    3    0    0 -0.65761104046E-01  0.94651068144E-01 -0.36252312367E-01  0.12244506633E+00  0.19880055590E-01 0.  0.
         14    1    1    2    0    0 -0.13785747152E-01 -0.11411519415E-01 -0.26268567099E-01  0.31785330222E-01  0.00000000000E+00 0.  1.
     999901    1    3    3    0    0  0.79546851198E-01 -0.83239548729E-01  0.62520879466E-01  0.88969960345E+00  0.88000000000E+00 0. -1.
        -11    1    4    4    0    0 -0.47425747564E-01  0.67209688800E-01 -0.35051699492E-01  0.89416030771E-01  0.51100000000E-03 0.  1.
         11    1    4    4    0    0 -0.18335356482E-01  0.27441379344E-01 -0.12006128754E-02  0.33029035558E-01  0.51100000000E-03 0. -1.
</event>
<event>
 8    1  0.1116619E+005  0.1043930E+01  0.7957747E-01            NaN
         13   -1    0    0    0    0  0.00000000000E+00  0.00000000000E+00  0.74505805969E-08  0.10566000000E+00  0.10566000000E+00 0.  1.
     999900   -1    0    0    0    0 -0.00000000000E+00 -0.00000000000E+00 -0.74505805969E-08  0.93827000000E+00  0.93827000000E+00 0. -1.
     999902    2    1    2    0    0 -0.98045140329E-03  0.17529034988E-01  0.17458926913E-01  0.10191703053E+01  0.10188695052E+01 0.  0.
     999903    2    3    3    0    0  0.12071114186E-02  0.47145209335E-01  0.12206823027E+00  0.13247700457E+00  0.20624645869E-01 0.  0.
         14    1    1    2    0    0  0.98045140329E-03 -0.17529034988E-01 -0.17458926913E-01  0.24759694698E-01  0.00000000000E+00 0. -1.
     999901    1    3    3    0    0 -0.21875628219E-02 -0.29616174347E-01 -0.10460930336E+00  0.88669330073E+00  0.88000000000E+00 0. -1.
        -11    1    4    4    0    0 -0.77810490422E-02  0.10956851928E-01  0.43041145123E-01  0.45093221474E-01  0.51100000000E-03 0.  1.
         11    1    4    4    0    0  0.89881604608E-02  0.36188357407E-01  0.79027085147E-01  0.87383783096E-01  0.51100000000E-03 0. -1.
</event>
<event>
 8    1  0.1116619E+005  0.1043930E+01  0.7957747E-01            NaN
         13   -1    0    0    0    0  0.00000000000E+00  0.00000000000E+00  0.74505805969E-08  0.10566000000E+00  0.10566000000E+00 0. -1.
     999900   -1    0    0    0    0 -0.00000000000E+00 -0.00000000000E+00 -0.74505805969E-08  0.93827000000E+00  0.93827000000E+00 0.  1.
     999902    2    1    2    0    0  0.28789480181E-02  0.14621828599E-01 -0.17751575130E-01  0.10207523247E+01  0.10204891492E+01 0.  0.
     999903    2    3    3    0    0 -0.76021410952E-01  0.55616951684E-02  0.10229582794E+00  0.12905802077E+00  0.19528157436E-01 0.  0.
         14    1    1    2    0    0 -0.28789480181E-02 -0.14621828599E-01  0.17751575130E-01  0.23177675312E-01  0.00000000000E+00 0. -1.
     999901    1    3    3    0    0  0.78900358970E-01  0.90601334307E-02 -0.12004740307E+00  0.89169430392E+00  0.88000000000E+00 0.  1.
        -11    1    4    4    0    0 -0.62250650551E-01  0.11826702341E-01  0.78953649473E-01  0.10123711902E+00  0.51100000000E-03 0. -1.
         11    1    4    4    0    0 -0.13770760401E-01 -0.62650071729E-02  0.23342178471E-01  0.27820901741E-01  0.51100000000E-03 0.  1.
</event>
<event>
 8    1  0.1116619E+005  0.1043930E+01  0.7957747E-01            NaN
         13   -1    0    0    0    0  0.00000000000E+00  0.00000000000E+00  0.74505805969E-08  0.10566000000E+00  0.10566000000E+00 0. -1.
     999900   -1    0    0    0    0 -0.00000000000E+00 -0.00000000000E+00 -0.74505805969E-08  0.93827000000E+00  0.93827000000E+00 0. -1.
     999902    2    1    2    0    0 -0.15734503184E-01  0.97091464157E-02 -0.14062645029E-01  0.10207007060E+01  0.10204363435E+01 0.  0.
     999903    2    3    3    0    0  0.19258953767E-01  0.36661089492E-01  0.12094163352E+00  0.12931016056E+00  0.19475526262E-01 0.  0.
         14    1    1    2    0    0  0.15734503184E-01 -0.97091464157E-02  0.14062645029E-01  0.23229294001E-01  0.00000000000E+00 0. -1.
     999901    1    3    3    0    0 -0.34993456952E-01 -0.26951943076E-01 -0.13500427855E+00  0.89139054544E+00  0.88000000000E+00 0. -1.
        -11    1    4    4    0    0  0.22634362882E-02  0.17300145363E-02  0.33522823578E-01  0.33647539520E-01  0.51100000000E-03 0. -1.
         11    1    4    4    0    0  0.16995517479E-01  0.34931074956E-01  0.87418809943E-01  0.95662621043E-01  0.51100000000E-03 0.  1.
</event>
<event>
 8    1  0.1116619E+005  0.1043930E+01  0.7957747E-01            NaN
         13   -1    0    0    0    0  0.00000000000E+00  0.00000000000E+00  0.74505805969E-08  0.10566000000E+00  0.10566000000E+00 0. -1.
     999900   -1    0    0    0    0 -0.00000000000E+00 -0.00000000000E+00 -0.74505805969E-08  0.93827000000E+00  0.93827000000E+00 0. -1.
     999902    2    1    2    0    0 -0.17230809621E-01  0.17921210632E-02 -0.16292960196E-01  0.10201482202E+01  0.10198709811E+01 0.  0.
     999903    2    3    3    0    0 -0.73292551255E-01  0.10560827451E+00 -0.23702996490E-01  0.13224303314E+00  0.20037017158E-01 0.  0.
         14    1    1    2    0    0  0.17230809621E-01 -0.17921210632E-02  0.16292960196E-01  0.23781779792E-01  0.00000000000E+00 0. -1.
     999901    1    3    3    0    0  0.56061741634E-01 -0.10381615344E+00  0.74100362933E-02  0.88790518707E+00  0.88000000000E+00 0. -1.
        -11    1    4    4    0    0 -0.47561330288E-01  0.57443921004E-01 -0.21382787968E-01  0.77584592165E-01  0.51100000000E-03 0. -1.
         11    1    4    4    0    0 -0.25731220968E-01  0.48164353503E-01 -0.23202085211E-02  0.54658440972E-01  0.51100000000E-03 0.  1.
</event>
<event>
 8    1  0.1116619E+005  0.1043930E+01  0.7957747E-01            NaN
         13   -1    0    0    0    0  0.00000000000E+00  0.00000000000E+00  0.74505805969E-08  0.10566000000E+00  0.10566000000E+00 0.  1.
     999900   -1    0    0    0    0 -0.00000000000E+00 -0.00000000000E+00 -0.74505805969E-08  0.93827000000E+00  0.93827000000E+00 0.  1.
     999902    2    1    2    0    0 -0.19325910536E-01  0.19857546042E-01  0.10216787577E-01  0.10143970404E+01  0.10139670408E+01 0.  0.
     999903    2    3    3    0    0 -0.75544656318E-02  0.11555119394E-01 -0.12196842817E+00  0.12440803574E+00  0.20260087613E-01 0.  0.
         14    1    1    2    0    0  0.19325910536E-01 -0.19857546042E-01 -0.10216787577E-01  0.29532959575E-01  0.00000000000E+00 0. -1.
     999901    1    3    3    0    0 -0.11771444904E-01  0.83024266479E-02  0.13218521575E+00  0.88998900469E+00  0.88000000000E+00 0. -1.
        -11    1    4    4    0    0 -0.14546640419E-01  0.84482913986E-02 -0.85994568846E-01  0.87625940035E-01  0.51100000000E-03 0.  1.
         11    1    4    4    0    0  0.69921747869E-02  0.31068279953E-02 -0.35973859326E-01  0.36782095702E-01  0.51100000000E-03 0. -1.
</event>
<event>
 8    1  0.1116619E+005  0.1043930E+01  0.7957747E-01            NaN
         13   -1    0    0    0    0  0.00000000000E+00  0.00000000000E+00  0.74505805969E-08  0.10566000000E+00  0.10566000000E+00 0. -1.
     999900   -1    0    0    0    0 -0.00000000000E+00 -0.00000000000E+00 -0.74505805969E-08  0.93827000000E+00  0.93827000000E+00 0. -1.
     999902    2    1    2    0    0 -0.20197052698E-01 -0.96606774446E-03  0.10516942821E-01  0.10211383280E+01  0.10208839428E+01 0.  0.
     999903    2    3    3    0    0  0.35656880853E-01 -0.10143182788E+00  0.73037148949E-01  0.13146321485E+00  0.19705909596E-01 0.  0.
         14    1    1    2    0    0  0.20197052698E-01  0.96606774446E-03 -0.10516942821E-01  0.22791671963E-01  0.00000000000E+00 0.  1.
     999901    1    3    3    0    0 -0.55853933551E-01  0.10046576013E+00 -0.62520206128E-01  0.88967511319E+00  0.88000000000E+00 0. -1.
        -11    1    4    4    0    0  0.17384606219E-01 -0.23701299887E-01  0.17760210503E-01  0.34346213006E-01  0.51100000000E-03 0.  1.
         11    1    4    4    0    0  0.18272274634E-01 -0.77730527991E-01  0.55276938446E-01  0.97117001843E-01  0.51100000000E-03 0. -1.
</event>
<event>
 8    1  0.1116619E+005  0.1043930E+01  0.7957747E-01            NaN
         13   -1    0    0    0    0  0.00000000000E+00  0.00000000000E+00  0.74505805969E-08  0.10566000000E+00  0.10566000000E+00 0.  1.
     999900   -1    0    0    0    0 -0.00000000000E+00 -0.00000000000E+00 -0.74505805969E-08  0.93827000000E+00  0.93827000000E+00 0. -1.
     999902    2    1    2    0    0 -0.23551276952E-01  0.63253178112E-02  0.44295064996E-02  0.10191450687E+01  0.10188436476E+01 0.  0.
     999903    2    3    3    0    0  0.32123724974E-01  0.11883235349E+00 -0.34057463046E-01  0.12940421557E+00  0.20796112055E-01 0.  0.
         14    1    1    2    0    0  0.23551276952E-01 -0.63253178112E-02 -0.44295064996E-02  0.24784931296E-01  0.00000000000E+00 0.  1.
     999901    1    3    3    0    0 -0.55675001926E-01 -0.11250703567E+00  0.38486969545E-01  0.88974085314E+00  0.88000000000E+00 0. -1.
        -11    1    4    4    0    0  0.33341519250E-01  0.93078937896E-01 -0.29823258076E-01  0.10327164872E+00  0.51100000000E-03 0.  1.
         11    1    4    4    0    0 -0.12177942763E-02  0.25753415589E-01 -0.42342049696E-02  0.26132566850E-01  0.51100000000E-03 0. -1.
</event>
<event>
 8    1  0.1116619E+005  0.1043930E+01  0.7957747E-01            NaN
         13   -1    0    0    0    0  0.00000000000E+00  0.00000000000E+00  0.74505805969E-08  0.10566000000E+00  0.10566000000E+00 0. -1.
     999900   -1    0    0    0    0 -0.00000000000E+00 -0.00000000000E+00 -0.74505805969E-08  0.93827000000E+00  0.93827000000E+00 0. -1.
     999902    2    1    2    0    0  0.19132754873E-01 -0.77033197966E-02 -0.11385463689E-01  0.10203708780E+01  0.10200988660E+01 0.  0.
     999903    2    3    3    0    0 -0.18483403748E-01 -0.11526568093E+00  0.55061048449E-01  0.13053955923E+00  0.19520349717E-01 0.  0.
         14    1    1    2    0    0 -0.19132754873E-01  0.77033197966E-02  0.11385463689E-01  0.23559121977E-01  0.00000000000E+00 0. -1.
     999901    1    3    3    0    0  0.37616158621E-01  0.10756236114E+00 -0.66446512138E-01  0.88983131879E+00  0.88000000000E+00 0. -1.
        -11    1    4    4    0    0 -0.17243054800E-01 -0.65784084100E-01  0.24088257304E-01  0.72148277322E-01  0.51100000000E-03 0. -1.
         11    1    4    4    0    0 -0.12403489481E-02 -0.49481596835E-01  0.30972791146E-01  0.58391281911E-01  0.51100000000E-03 0.  1.
</event>
<event>
 8    1  0.1116619E+005  0.1043930E+01  0.7957747E-01            NaN
         13   -1    0    0    0    0  0.00000000000E+00  0.00000000000E+00  0.74505805969E-08  0.10566000000E+00  0.10566000000E+00 0.  1.
     999900   -1    0    0    0    0 -0.00000000000E+00 -0.00000000000E+00 -0.74505805969E-08  0.93827000000E+00  0.93827000000E+00 0. -1.
     999902    2    1    2    0    0 -0.21004872729E-02 -0.20305851944E-01  0.97433539498E-02  0.10213098184E+01  0.10210592894E+01 0.  0.
     999903    2    3    3    0    0  0.82470384410E-01 -0.69928427560E-01 -0.72796484868E-01  0.13202501736E+00  0.20974453839E-01 0.  0.
         14    1    1    2    0    0  0.21004872729E-02  0.20305851944E-01 -0.97433539498E-02  0.22620181612E-01  0.00000000000E+00 0.  1.
     999901    1    3    3    0    0 -0.84570871683E-01  0.49622575616E-01  0.82539838818E-01  0.88928480103E+00  0.88000000000E+00 0.  1.
        -11    1    4    4    0    0  0.22662179951E-01 -0.18126861145E-01 -0.90082102688E-02  0.30390236398E-01  0.51100000000E-03 0.  1.
         11    1    4    4    0    0  0.59808204460E-01 -0.51801566415E-01 -0.63788274600E-01  0.10163478096E+00  0.51100000000E-03 0. -1.
</event>
<event>
 8    1  0.1116619E+005  0.1043930E+01  0.7957747E-01            NaN
         13   -1    0    0    0    0  0.00000000000E+00  0.00000000000E+00  0.74505805969E-08  0.10566000000E+00  0.10566000000E+00 0. -1.
     999900   -1    0    0    0    0 -0.00000000000E+00 -0.00000000000E+00 -0.74505805969E-08  0.93827000000E+00  0.93827000000E+00 0.  1.
     999902    2    1    2    0    0 -0.14596449412E-02 -0.23521190923E-01  0.17443855408E-02  0.10202990909E+01  0.10200253992E+01 0.  0.
     999903    2    3    3    0    0 -0.10140026227E+00  0.75228603184E-01  0.17461231366E-01  0.12901537168E+00  0.19967864269E-01 0.  0.
         14    1    1    2    0    0  0.14596449412E-02  0.23521190923E-01 -0.17443855408E-02  0.23630909139E-01  0.00000000000E+00 0.  1.
     999901    1    3    3    0    0  0.99940617332E-01 -0.98749794108E-01 -0.15716845825E-01  0.89128371918E+00  0.88000000000E+00 0. -1.
        -11    1    4    4    0    0 -0.20408063977E-01  0.25827824019E-01  0.31589095951E-02  0.33072728942E-01  0.51100000000E-03 0.  1.
         11    1    4    4    0    0 -0.80992198297E-01  0.49400779165E-01  0.14302321771E-01  0.95942642741E-01  0.51100000000E-03 0. -1.
</event>
<event>
 8    1  0.1116619E+005  0.1043930E+01  0.7957747E-01            NaN
         13   -1    0    0    0    0  0.00000000000E+00  0.00000000000E+00  0.74505805969E-08  0.10566000000E+00  0.10566000000E+00 0.  1.
     999900   -1    0    0    0    0 -0.00000000000E+00 -0.00000000000E+00 -0.74505805969E-08  0.93827000000E+00  0.93827000000E+00 0.  1.
     999902    2    1    2    0    0  0.13752737944E-01 -0.20018820043E-01 -0.30224252888E-02  0.10194549921E+01  0.10191611526E+01 0.  0.
     999903    2    3    3    0    0 -0.11730004404E+00  0.32714023516E-01  0.30572971056E-01  0.12755576287E+00  0.22500187001E-01 0.  0.
         14    1    1    2    0    0 -0.13752737944E-01  0.20018820043E-01  0.30224252888E-02  0.24475007896E-01  0.00000000000E+00 0.  1.
     999901    1    3    3    0    0  0.13105278199E+00 -0.52732843558E-01 -0.33595396345E-01  0.89189922924E+00  0.88000000000E+00 0.  1.
        -11    1    4    4    0    0 -0.39751561373E-01  0.45303578950E-02  0.13963866539E-02  0.40036505729E-01  0.51100000000E-03 0.  1.
         11    1    4    4    0    0 -0.77548482668E-01  0.28183665621E-01  0.29176584402E-01  0.87519257140E-01  0.51100000000E-03 0. -1.
</event>
<event>
 8    1  0.1116619E+005  0.1043930E+01  0.7957747E-01            NaN
         13   -1    0    0    0    0  0.00000000000E+00  0.00000000000E+00  0.74505805969E-08  0.10566000000E+00  0.10566000000E+00 0.  1.
     999900   -1    0    0    0    0 -0.00000000000E+00 -0.00000000000E+00 -0.74505805969E-08  0.93827000000E+00  0.93827000000E+00 0.  1.
     999902    2    1    2    0    0  0.13567841596E-01 -0.19348260844E-02 -0.19375172384E-01  0.10201975921E+01  0.10199215165E+01 0.  0.
     999903    2    3    3    0    0  0.10489788727E+00 -0.77026931479E-01  0.90241763679E-02  0.13183588398E+00  0.19040735757E-01 0.  0.
         14    1    1    2    0    0 -0.13567841596E-01  0.19348260844E-02  0.19375172384E-01  0.23732407852E-01  0.00000000000E+00 0.  1.
     999901    1    3    3    0    0 -0.91330045673E-01  0.75092105395E-01 -0.28399348752E-01  0.88836170817E+00  0.88000000000E+00 0. -1.
        -11    1    4    4    0    0  0.53745930533E-01 -0.29072662984E-01 -0.25260559639E-03  0.61107853115E-01  0.51100000000E-03 0. -1.
         11    1    4    4    0    0  0.51151956737E-01 -0.47954268495E-01  0.92767819643E-02  0.70728030861E-01  0.51100000000E-03 0.  1.
</event>
<event>
 8    1  0.1116619E+005  0.1043930E+01  0.7957747E-01            NaN
         13   -1    0    0    0    0  0.00000000000E+00  0.00000000000E+00  0.74505805969E-08  0.10566000000E+00  0.10566000000E+00 0. -1.
     999900   -1    0    0    0    0 -0.00000000000E+00 -0.00000000000E+00 -0.74505805969E-08  0.93827000000E+00  0.93827000000E+00 0. -1.
     999902    2    1    2    0    0 -0.81939436530E-02 -0.38129920379E-02 -0.16975035263E-01  0.10246989979E+01  0.10245185234E+01 0.  0.
     999903    2    3    3    0    0 -0.74946385317E-01 -0.96636590170E-01  0.52561058403E-01  0.13458250147E+00  0.19854309587E-01 0.  0.
         14    1    1    2    0    0  0.81939436530E-02  0.38129920379E-02  0.16975035263E-01  0.19231002133E-01  0.00000000000E+00 0. -1.
     999901    1    3    3    0    0  0.66752441664E-01  0.92823598132E-01 -0.69536093666E-01  0.89011649640E+00  0.88000000000E+00 0. -1.
        -11    1    4    4    0    0 -0.19494020577E-01 -0.36320285627E-01  0.24610421883E-01  0.48011602478E-01  0.51100000000E-03 0.  1.
         11    1    4    4    0    0 -0.55452364741E-01 -0.60316304543E-01  0.27950636520E-01  0.86570898990E-01  0.51100000000E-03 0. -1.
</event>
<event>
 8    1  0.1116619E+005  0.1043930E+01  0.7957747E-01            NaN
         13   -1    0    0    0    0  0.00000000000E+00  0.00000000000E+00  0.74505805969E-08  0.10566000000E+00  0.10566000000E+00 0.  1.
     999900   -1    0    0    0    0 -0.00000000000E+00 -0.00000000000E+00 -0.74505805969E-08  0.93827000000E+00  0.93827000000E+00 0. -1.
     999902    2    1    2    0    0 -0.15365842789E-01 -0.13482994117E-01  0.11660809972E-01  0.10203954564E+01  0.10201240183E+01 0.  0.
     999903    2    3    3    0    0  0.12136435507E+00  0.34713477377E-01 -0.10752384251E-01  0.12825174701E+00  0.19964084005E-01 0.  0.
         14    1    1    2    0    0  0.15365842789E-01  0.13482994117E-01 -0.11660809972E-01  0.23534543636E-01  0.00000000000E+00 0. -1.
     999901    1    3    3    0    0 -0.13673019786E+00 -0.48196471494E-01  0.22413194223E-01  0.89214370936E+00  0.88000000000E+00 0.  1.
        -11    1    4    4    0    0  0.84996566357E-01  0.15425332187E-01 -0.10982946209E-01  0.87081820112E-01  0.51100000000E-03 0.  1.
         11    1    4    4    0    0  0.36367788712E-01  0.19288145190E-01  0.23056195758E-03  0.41169926894E-01  0.51100000000E-03 0. -1.
</event>
<event>
 8    1  0.1116619E+005  0.1043930E+01  0.7957747E-01            NaN
         13   -1    0    0    0    0  0.00000000000E+00  0.00000000000E+00  0.74505805969E-08  0.10566000000E+00  0.10566000000E+00 0.  1.
     999900   -1    0    0    0    0 -0.00000000000E+00 -0.00000000000E+00 -0.74505805969E-08  0.93827000000E+00  0.93827000000E+00 0.  1.
     999902    2    1    2    0    0 -0.18468754404E-01 -0.44385119439E-02 -0.93693766714E-02  0.10227502810E+01  0.10225309564E+01 0.  0.
     999903    2    3    3    0    0 -0.68348711445E-01 -0.95558750710E-01 -0.65742745071E-01  0.13484889870E+00  0.76873765890E-02 0.  0.
         14    1    1    2    0    0  0.18468754404E-01  0.44385119439E-02  0.93693766714E-02  0.21179718995E-01  0.00000000000E+00 0.  1.
     999901    1    3    3    0    0  0.49879957041E-01  0.91120238766E-01  0.56373368399E-01  0.88790138230E+00  0.88000000000E+00 0. -1.
        -11    1    4    4    0    0 -0.38543236320E-01 -0.50522256193E-01 -0.39256540004E-01  0.74695491771E-01  0.51100000000E-03 0. -1.
         11    1    4    4    0    0 -0.29805475125E-01 -0.45036494517E-01 -0.26486205067E-01  0.60153406933E-01  0.51100000000E-03 0.  1.
</event>
<event>
 8    1  0.1116619E+005  0.1043930E+01  0.7957747E-01            NaN
         13   -1    0    0    0    0  0.00000000000E+00  0.00000000000E+00  0.74505805969E-08  0.10566000000E+00  0.10566000000E+00 0. -1.
     999900   -1    0    0    0    0 -0.00000000000E+00 -0.00000000000E+00 -0.74505805969E-08  0.93827000000E+00  0.93827000000E+00 0.  1.
     999902    2    1    2    0    0 -0.12231517503E-01 -0.14758870380E-01  0.14520122630E-01  0.10198827915E+01  0.10195992547E+01 0.  0.
     999903    2    3    3    0    0 -0.12650927645E+00  0.15787299293E-01 -0.27531200463E-01  0.13097290381E+00  0.11920515277E-01 0.  0.
         14    1    1    2    0    0  0.12231517503E-01  0.14758870380E-01 -0.14520122630E-01  0.24047208497E-01  0.00000000000E+00 0.  1.
     999901    1    3    3    0    0  0.11427775895E+00 -0.30546169673E-01  0.42051323093E-01  0.88890988770E+00  0.88000000000E+00 0.  1.
        -11    1    4    4    0    0 -0.10253630092E+00  0.13684053540E-01 -0.17595387663E-01  0.10493238354E+00  0.51100000000E-03 0.  1.
         11    1    4    4    0    0 -0.23972975535E-01  0.21032457533E-02 -0.99358127996E-02  0.26040520266E-01  0.51100000000E-03 0. -1.
</event>
<event>
 7    1  0.1543729E+005  0.1043930E+01  0.7957747E-01            NaN
         13   -1    0    0    0    0  0.00000000000E+00  0.00000000000E+00  0.74505805969E-08  0.10566000000E+00  0.10566000000E+00 0.  1.
     999900   -1    0    0    0    0 -0.00000000000E+00 -0.00000000000E+00 -0.74505805969E-08  0.93827000000E+00  0.93827000000E+00 0. -1.
     999902    2    1    2    0    0 -0.89714632344E-02 -0.66970505534E-03 -0.24342743198E-01  0.10179780289E+01  0.10176471700E+01 0.  0.
         14    1    1    2    0    0  0.89714632344E-02  0.66970505534E-03  0.24342743198E-01  0.25951971097E-01  0.00000000000E+00 0.  1.
     999901    1    3    3    0    0  0.49980397266E-01  0.94838453570E-01 -0.74791656174E-01  0.88965508160E+00  0.88000000000E+00 0. -1.
        -11    1    3    3    0    0 -0.48255874530E-01 -0.45393151100E-01  0.22618447205E-01  0.70007305822E-01  0.51100000000E-03 0. -1.
         11    1    3    3    0    0 -0.10695985971E-01 -0.50115007526E-01  0.27830465771E-01  0.58315641480E-01  0.51100000000E-03 0.  1.
</event>
<event>
 8    1  0.1116619E+005  0.1043930E+01  0.7957747E-01            NaN
         13   -1    0    0    0    0  0.00000000000E+00  0.00000000000E+00  0.74505805969E-08  0.10566000000E+00  0.10566000000E+00 0. -1.
     999900   -1    0    0    0    0 -0.00000000000E+00 -0.00000000000E+00 -0.74505805969E-08  0.93827000000E+00  0.93827000000E+00 0. -1.
     999902    2    1    2    0    0  0.56634520324E-02  0.21983446893E-01  0.99599463508E-02  0.10191399383E+01  0.10188383909E+01 0.  0.
     999903    2    3    3    0    0  0.84162349218E-01 -0.93133911117E-02 -0.95169728304E-01  0.12886255604E+00  0.19448415966E-01 0.  0.
         14    1    1    2    0    0 -0.56634520324E-02 -0.21983446893E-01 -0.99599463508E-02  0.24790061669E-01  0.00000000000E+00 0.  1.
     999901    1    3    3    0    0 -0.78498897186E-01  0.31296838005E-01  0.10512967465E+00  0.89027738229E+00  0.88000000000E+00 0. -1.
        -11    1    4    4    0    0  0.10188188040E-04  0.12023535836E-02 -0.46121036590E-02  0.47935768587E-02  0.51100000000E-03 0. -1.
         11    1    4    4    0    0  0.84152161030E-01 -0.10515744695E-01 -0.90557624645E-01  0.12406897918E+00  0.51100000000E-03 0.  1.
</event>
<event>
 8    1  0.1116619E+005  0.1043930E+01  0.7957747E-01            NaN
         13   -1    0    0    0    0  0.00000000000E+00  0.00000000000E+00  0.74505805969E-08  0.10566000000E+00  0.10566000000E+00 0.  1.
     999900   -1    0    0    0    0 -0.00000000000E+00 -0.00000000000E+00 -0.74505805969E-08  0.93827000000E+00  0.93827000000E+00 0. -1.
     999902    2    1    2    0    0  0.10036146238E-01 -0.18890491570E-01  0.29064431864E-03  0.10225370251E+01  0.10223132143E+01 0.  0.
     999903    2    3    3    0    0  0.42842670154E-01  0.44904992808E-01  0.11486885537E+00  0.13221444402E+00  0.20829126441E-01 0.  0.
         14    1    1    2    0    0 -0.10036146238E-01  0.18890491570E-01 -0.29064431864E-03  0.21392974950E-01  0.00000000000E+00 0. -1.
     999901    1    3    3    0    0 -0.32806523916E-01 -0.63795484378E-01 -0.11457821106E+00  0.89032258103E+00  0.88000000000E+00 0. -1.
        -11    1    4    4    0    0  0.15059560548E-01  0.24532291578E-01  0.35627863402E-01  0.45806434761E-01  0.51100000000E-03 0.  1.
         11    1    4    4    0    0  0.27783109606E-01  0.20372701230E-01  0.79240991972E-01  0.86408009261E-01  0.51100000000E-03 0. -1.
</event>
<event>
 8    1  0.1116619E+005  0.1043930E+01  0.7957747E-01            NaN
         13   -1    0    0    0    0  0.00000000000E+00  0.00000000000E+00  0.74505805969E-08  0.10566000000E+00  0.10566000000E+00 0.  1.
     999900   -1    0    0    0    0 -0.00000000000E+00 -0.00000000000E+00 -0.74505805969E-08  0.93827000000E+00  0.93827000000E+00 0. -1.
     999902    2    1    2    0    0 -0.59301450829E-02 -0.22819477697E-01  0.46545809640E-02  0.10198975156E+01  0.10196143300E+01 0.  0.
     999903    2    3    3    0    0  0.65146880599E-01 -0.62260457305E-01  0.93472920016E-01  0.13169920901E+00  0.22068400084E-01 0.  0.
         14    1    1    2    0    0  0.59301450829E-02  0.22819477697E-01 -0.46545809640E-02  0.24032484412E-01  0.00000000000E+00 0. -1.
     999901    1    3    3    0    0 -0.71077025682E-01  0.39440979609E-01 -0.88818339053E-01  0.88819830658E+00  0.88000000000E+00 0.  1.
        -11    1    4    4    0    0  0.15128496344E-01 -0.18637613387E-01  0.39175987873E-01  0.45948353411E-01  0.51100000000E-03 0. -1.
         11    1    4    4    0    0  0.50018384255E-01 -0.43622843919E-01  0.54296932143E-01  0.85750855601E-01  0.51100000000E-03 0.  1.
</event>
<event>
 8    1  0.1116619E+005  0.1043930E+01  0.7957747E-01            NaN
         13   -1    0    0    0    0  0.00000000000E+00  0.00000000000E+00  0.74505805969E-08  0.10566000000E+00  0.10566000000E+00 0.  1.
     999900   -1    0    0    0    0 -0.00000000000E+00 -0.00000000000E+00 -0.74505805969E-08  0.93827000000E+00  0.93827000000E+00 0.  1.
     999902    2    1    2    0    0  0.98761707916E-02  0.78965926161E-02  0.20309732750E-01  0.10200055320E+01  0.10197249164E+01 0.  0.
     999903    2    3    3    0    0 -0.57890446799E-03  0.49424210754E-01  0.12186641236E+00  0.13313033738E+00  0.20716576196E-01 0.  0.
         14    1    1    2    0    0 -0.98761707916E-02 -0.78965926161E-02 -0.20309732750E-01  0.23924467995E-01  0.00000000000E+00 0. -1.
     999901    1    3    3    0    0  0.10455075260E-01 -0.41527618138E-01 -0.10155667961E+00  0.88687519463E+00  0.88000000000E+00 0.  1.
        -11    1    4    4    0    0 -0.52354442688E-02  0.23520430660E-01  0.36028141569E-01  0.43346379791E-01  0.51100000000E-03 0.  1.
         11    1    4    4    0    0  0.46565398008E-02  0.25903780094E-01  0.85838270796E-01  0.89783957589E-01  0.51100000000E-03 0. -1.
</event>
<event>
 8    1  0.1116619E+005  0.1043930E+01  0.7957747E-01            NaN
         13   -1    0    0    0    0  0.00000000000E+00  0.00000000000E+00  0.74505805969E-08  0.10566000000E+00  0.10566000000E+00 0.  1.
     999900   -1    0    0    0    0 -0.00000000000E+00 -0.00000000000E+00 -0.74505805969E-08  0.93827000000E+00  0.93827000000E+00 0. -1.
     999902    2    1    2    0    0 -0.18736639825E-01 -0.90376924726E-02 -0.11653716475E-01  0.10200856995E+01  0.10198069836E+01 0.  0.
     999903    2    3    3    0    0  0.14857528964E-01  0.52867711765E-01 -0.11730941349E+00  0.13097154850E+00  0.19398631623E-01 0.  0.
         14    1    1    2    0    0  0.18736639825E-01  0.90376924726E-02  0.11653716475E-01  0.23844300468E-01  0.00000000000E+00 0.  1.
     999901    1    3    3    0    0 -0.33594168789E-01 -0.61905404238E-01  0.10565569702E+00  0.88911415103E+00  0.88000000000E+00 0.  1.
        -11    1    4    4    0    0  0.13291162467E-01  0.29917390245E-01 -0.86716730319E-01  0.92691734675E-01  0.51100000000E-03 0. -1.
         11    1    4    4    0    0  0.15663664972E-02  0.22950321520E-01 -0.30592683173E-01  0.38279813826E-01  0.51100000000E-03 0.  1.
</event>
<event>
 8    1  0.1116619E+005  0.1043930E+01  0.7957747E-01            NaN
         13   -1    0    0    0    0  0.00000000000E+00  0.00000000000E+00  0.74505805969E-08  0.10566000000E+00  0.10566000000E+00 0. -1.
     999900   -1    0    0    0    0 -0.00000000000E+00 -0.00000000000E+00 -0.74505805969E-08  0.93827000000E+00  0.93827000000E+00 0.  1.
     999902    2    1    2    0    0 -0.11812102962E-01 -0.18618481194E-01 -0.97975610590E-02  0.10198018873E+01  0.10195164165E+01 0.  0.
     999903    2    3    3    0    0 -0.54836822626E-01 -0.28475776755E-01 -0.11538179782E+00  0.13239199115E+00  0.19918159480E-01 0.  0.
         14    1    1    2    0    0  0.11812102962E-01  0.18618481194E-01  0.97975610590E-02  0.24128112671E-01  0.00000000000E+00 0.  1.
     999901    1    3    3    0    0  0.43024719664E-01  0.98572955615E-02  0.10558423676E+00  0.88740989618E+00  0.88000000000E+00 0. -1.
        -11    1    4    4    0    0 -0.38644073638E-01 -0.23416527957E-01 -0.98897002530E-01  0.10873167174E+00  0.51100000000E-03 0. -1.
         11    1    4    4    0    0 -0.16192748988E-01 -0.50592487984E-02 -0.16484795286E-01  0.23660319414E-01  0.51100000000E-03 0.  1.
</event>
<event>
 8    1  0.1116619E+005  0.1043930E+01  0.7957747E-01            NaN
         13   -1    0    0    0    0  0.00000000000E+00  0.00000000000E+00  0.74505805969E-08  0.10566000000E+00  0.10566000000E+00 0. -1.
     999900   -1    0    0    0    0 -0.00000000000E+00 -0.00000000000E+00 -0.74505805969E-08  0.93827000000E+00  0.93827000000E+00 0. -1.
     999902    2    1    2    0    0  0.16873263592E-01 -0.14076147234E-01  0.90246430069E-02  0.10201752294E+01  0.10198986271E+01 0.  0.
     999903    2    3    3    0    0 -0.32239630821E-01  0.18409677700E-01 -0.12147827746E+00  0.12860447086E+00  0.20095472205E-01 0.  0.
         14    1    1    2    0    0 -0.16873263592E-01  0.14076147234E-01 -0.90246430069E-02  0.23754770608E-01  0.00000000000E+00 0.  1.
     999901    1    3    3    0    0  0.49112894413E-01 -0.32485824934E-01  0.13050292046E+00  0.89157075853E+00  0.88000000000E+00 0.  1.
        -11    1    4    4    0    0 -0.21642160083E-01  0.44194990989E-02 -0.88803824961E-01  0.91511176990E-01  0.51100000000E-03 0.  1.
         11    1    4    4    0    0 -0.10597470738E-01  0.13990178601E-01 -0.32674452495E-01  0.37093293871E-01  0.51100000000E-03 0. -1.
</event>
<event>
 8    1  0.1116619E+005  0.1043930E+01  0.7957747E-01            NaN
         13   -1    0    0    0    0  0.00000000000E+00  0.00000000000E+00  0.74505805969E-08  0.10566000000E+00  0.10566000000E+00 0.  1.
     999900   -1    0    0    0    0 -0.00000000000E+00 -0.00000000000E+00 -0.74505805969E-08  0.93827000000E+00  0.93827000000E+00 0.  1.
     999902    2    1    2    0    0  0.35752009122E-01 -0.11832886888E-01  0.20974632766E-02  0.10062123288E+01  0.10055051606E+01 0.  0.
     999903    2    3    3    0    0  0.84897899782E-01  0.39734838365E-01  0.72997392917E-01  0.12049152128E+00  0.20076766681E-01 0.  0.
         14    1    1    2    0    0 -0.35752009122E-01  0.11832886888E-01 -0.20974632766E-02  0.37717671197E-01  0.00000000000E+00 0. -1.
     999901    1    3    3    0    0 -0.49145890660E-01 -0.51567725253E-01 -0.70899929640E-01  0.88572080752E+00  0.88000000000E+00 0. -1.
        -11    1    4    4    0    0  0.72158292607E-02  0.89603438932E-02  0.14384268826E-01  0.18426184230E-01  0.51100000000E-03 0.  1.
         11    1    4    4    0    0  0.77682070521E-01  0.30774494472E-01  0.58613124091E-01  0.10206533705E+00  0.51100000000E-03 0. -1.
</event>
<event>
 8    1  0.1116619E+005  0.1043930E+01  0.7957747E-01            NaN
         13   -1    0    0    0    0  0.00000000000E+00  0.00000000000E+00  0.74505805969E-08  0.10566000000E+00  0.10566000000E+00 0.  1.
     999900   -1    0    0    0    0 -0.00000000000E+00 -0.00000000000E+00 -0.74505805969E-08  0.93827000000E+00  0.93827000000E+00 0.  1.
     999902    2    1    2    0    0 -0.16988768880E-02  0.43632223465E-02 -0.23827888998E-01  0.10196464215E+01  0.10193572154E+01 0.  0.
     999903    2    3    3    0    0  0.63981535293E-01  0.10988722517E+00  0.18155143926E-01  0.12992072961E+00  0.19517879382E-01 0.  0.
         14    1    1    2    0    0  0.16988768880E-02 -0.43632223465E-02  0.23827888998E-01  0.24283578526E-01  0.00000000000E+00 0.  1.
     999901    1    3    3    0    0 -0.65680412181E-01 -0.10552400283E+00 -0.41983032924E-01  0.88972569187E+00  0.88000000000E+00 0.  1.
        -11    1    4    4    0    0  0.14881726560E-01  0.42673479599E-01  0.99427096384E-02  0.46277534965E-01  0.51100000000E-03 0.  1.
         11    1    4    4    0    0  0.49099808734E-01  0.67213745575E-01  0.82124342875E-02  0.83643194641E-01  0.51100000000E-03 0. -1.
</event>
<event>
 8    1  0.1116619E+005  0.1043930E+01  0.7957747E-01            NaN
         13   -1    0    0    0    0  0.00000000000E+00  0.00000000000E+00  0.74505805969E-08  0.10566000000E+00  0.10566000000E+00 0.  1.
     999900   -1    0    0    0    0 -0.00000000000E+00 -0.00000000000E+00 -0.74505805969E-08  0.93827000000E+00  0.93827000000E+00 0. -1.
     999902    2    1    2    0    0  0.11911058214E-01  0.27383752885E-03 -0.21620318669E-01  0.10192442455E+01  0.10189452613E+01 0.  0.
     999903    2    3    3    0    0  0.64601243056E-03  0.10469986330E+00 -0.76466982563E-01  0.13130288898E+00  0.20755012091E-01 0.  0.
         14    1    1    2    0    0 -0.11911058214E-01 -0.27383752885E-03  0.21620318669E-01  0.24685754477E-01  0.00000000000E+00 0.  1.
     999901    1    3    3    0    0  0.11265045784E-01 -0.10442602577E+00  0.54846663894E-01  0.88794135654E+00  0.88000000000E+00 0.  1.
        -11    1    4    4    0    0 -0.17610653637E-02  0.48540196236E-01 -0.48009535355E-01  0.68296622228E-01  0.51100000000E-03 0.  1.
         11    1    4    4    0    0  0.24070777943E-02  0.56159667059E-01 -0.28457447208E-01  0.63006266754E-01  0.51100000000E-03 0. -1.
</event>
<event>
 8    1  0.1116619E+005  0.1043930E+01  0.7957747E-01            NaN
         13   -1    0    0    0    0  0.00000000000E+00  0.00000000000E+00  0.74505805969E-08  0.10566000000E+00  0.10566000000E+00 0.  1.
     999900   -1    0    0    0    0 -0.00000000000E+00 -0.00000000000E+00 -0.74505805969E-08  0.93827000000E+00  0.93827000000E+00 0.  1.
     999902    2    1    2    0    0 -0.64207858015E-02 -0.25675220186E-02  0.22616499275E-01  0.10202799535E+01  0.10200058131E+01 0.  0.
     999903    2    3    3    0    0 -0.27062671356E-01  0.47284897944E-01 -0.11417783677E+00  0.12807815930E+00  0.19979657774E-01 0.  0.
         14    1    1    2    0    0  0.64207858015E-02  0.25675220186E-02 -0.22616499275E-01  0.23650046492E-01  0.00000000000E+00 0. -1.
     999901    1    3    3    0    0  0.20641885554E-01 -0.49852419963E-01  0.13679433605E+00  0.89220179421E+00  0.88000000000E+00 0. -1.
        -11    1    4    4    0    0 -0.18011539500E-01  0.29100226133E-01 -0.48733940000E-01  0.59552470520E-01  0.51100000000E-03 0. -1.
         11    1    4    4    0    0 -0.90511318560E-02  0.18184671811E-01 -0.65443896773E-01  0.68525688779E-01  0.51100000000E-03 0.  1.
</event>
<event>
 8    1  0.1116619E+005  0.1043930E+01  0.7957747E-01            NaN
         13   -1    0    0    0    0  0.00000000000E+00  0.00000000000E+00  0.74505805969E-08  0.10566000000E+00  0.10566000000E+00 0.  1.
     999900   -1    0    0    0    0 -0.00000000000E+00 -0.00000000000E+00 -0.74505805969E-08  0.93827000000E+00  0.93827000000E+00 0.  1.
     999902    2    1    2    0    0 -0.21181041499E-01 -0.21177986933E-01 -0.10631703776E-01  0.10121467218E+01  0.10116475718E+01 0.  0.
     999903    2    3    3    0    0 -0.11393239122E+00 -0.51553768766E-01 -0.34739701670E-02  0.12672211508E+00  0.20200127152E-01 0.  0.
         14    1    1    2    0    0  0.21181041499E-01  0.21177986933E-01  0.10631703776E-01  0.31783278224E-01  0.00000000000E+00 0.  1.
     999901    1    3    3    0    0  0.92751349724E-01  0.30375781833E-01 -0.71577336091E-02  0.88542460670E+00  0.88000000000E+00 0.  1.
        -11    1    4    4    0    0 -0.22437529128E-01 -0.52394126239E-02  0.57633278636E-02  0.23756498628E-01  0.51100000000E-03 0. -1.
         11    1    4    4    0    0 -0.91494862095E-01 -0.46314356142E-01 -0.92372980306E-02  0.10296561645E+00  0.51100000000E-03 0.  1.
</event>
<event>
 8    1  0.1116619E+005  0.1043930E+01  0.7957747E-01            NaN
         13   -1    0    0    0    0  0.00000000000E+00  0.00000000000E+00  0.74505805969E-08  0.10566000000E+00  0.10566000000E+00 0. -1.
     999900   -1    0    0    0    0 -0.00000000000E+00 -0.00000000000E+00 -0.74505805969E-08  0.93827000000E+00  0.93827000000E+00 0. -1.
     999902    2    1    2    0    0  0.37409268371E-02 -0.21862602749E-01 -0.92146614733E-02  0.10199117170E+01  0.10196288700E+01 0.  0.
     999903    2    3    3    0    0  0.10979034677E+00  0.27314705255E-01  0.61125182876E-01  0.12939917873E+00  0.14416868871E-01 0.  0.
         14    1    1    2    0    0 -0.37409268371E-02  0.21862602749E-01  0.92146614733E-02  0.24018283007E-01  0.00000000000E+00 0.  1.
     999901    1    3    3    0    0 -0.10604941994E+00 -0.49177308004E-01 -0.70339844349E-01  0.89051253826E+00  0.88000000000E+00 0. -1.
        -11    1    4    4    0    0  0.73897204492E-01  0.24463915621E-01  0.45308495561E-01  0.90068867486E-01  0.51100000000E-03 0.  1.
         11    1    4    4    0    0  0.35893142281E-01  0.28507896347E-02  0.15816687315E-01  0.39330311249E-01  0.51100000000E-03 0. -1.
</event>
<event>
 8    1  0.1116619E+005  0.1043930E+01  0.7957747E-01            NaN
         13   -1    0    0    0    0  0.00000000000E+00  0.00000000000E+00  0.74505805969E-08  0.10566000000E+00  0.10566000000E+00 0.  1.
     999900   -1    0    0    0    0 -0.00000000000E+00 -0.00000000000E+00 -0.74505805969E-08  0.93827000000E+00  0.93827000000E+00 0.  1.
     999902    2    1    2    0    0 -0.25270799053E-02 -0.70443441920E-02  0.23591360413E-01  0.10191800262E+01  0.10188794652E+01 0.  0.
     999903    2    3    3    0    0 -0.37476063919E-01  0.12164729844E+00  0.11578270483E-01  0.12905234731E+00  0.17830631352E-01 0.  0.
         14    1    1    2    0    0  0.25270799053E-02  0.70443441920E-02 -0.23591360413E-01  0.24749973819E-01  0.00000000000E+00 0. -1.
     999901    1    3    3    0    0  0.34948984014E-01 -0.12869164263E+00  0.12013089929E-01  0.89012767887E+00  0.88000000000E+00 0.  1.
        -11    1    4    4    0    0 -0.16213278657E-01  0.27170904654E-01  0.13614224144E-02  0.31674012321E-01  0.51100000000E-03 0. -1.
         11    1    4    4    0    0 -0.21262785262E-01  0.94476393783E-01  0.10216848069E-01  0.97378334987E-01  0.51100000000E-03 0.  1.
</event>
<event>
 8    1  0.1116619E+005  0.1043930E+01  0.7957747E-01            NaN
         13   -1    0    0    0    0  0.00000000000E+00  0.00000000000E+00  0.74505805969E-08  0.10566000000E+00  0.10566000000E+00 0. -1.
     999900   -1    0    0    0    0 -0.00000000000E+00 -0.00000000000E+00 -0.74505805969E-08  0.93827000000E+00  0.93827000000E+00 0.  1.
     999902    2    1    2    0    0 -0.18795613521E-01 -0.13514112164E-01 -0.62545234498E-02  0.10199503132E+01  0.10196683853E+01 0.  0.
     999903    2    3    3    0    0 -0.40196887439E-01 -0.12343020045E+00  0.63537089377E-02  0.13276457813E+00  0.27115667922E-01 0.  0.
         14    1    1    2    0    0  0.18795613521E-01  0.13514112164E-01  0.62545234498E-02  0.23979686795E-01  0.00000000000E+00 0.  1.
     999901    1    3    3    0    0  0.21401273918E-01  0.10991608829E+00 -0.12608232387E-01  0.88718573507E+00  0.88000000000E+00 0.  1.
        -11    1    4    4    0    0 -0.31391810059E-01 -0.82611219167E-01 -0.76789139719E-02  0.88708996792E-01  0.51100000000E-03 0. -1.
         11    1    4    4    0    0 -0.88050773801E-02 -0.40818981283E-01  0.14032622910E-01  0.44055581342E-01  0.51100000000E-03 0.  1.
</event>
<event>
 8    1  0.1116619E+005  0.1043930E+01  0.7957747E-01            NaN
         13   -1    0    0    0    0  0.00000000000E+00  0.00000000000E+00  0.74505805969E-08  0.10566000000E+00  0.10566000000E+00 0. -1.
     999900   -1    0    0    0    0 -0.00000000000E+00 -0.00000000000E+00 -0.74505805969E-08  0.93827000000E+00  0.93827000000E+00 0.  1.
     999902    2    1    2    0    0  0.53518477909E-02  0.22322140649E-01  0.82164187266E-02  0.10195490694E+01  0.10192575117E+01 0.  0.
     999903    2    3    3    0    0  0.72051978068E-01 -0.86154662657E-01 -0.57817572269E-01  0.12793445976E+00  0.20254404234E-01 0.  0.
         14    1    1    2    0    0 -0.53518477909E-02 -0.22322140649E-01 -0.82164187266E-02  0.24380930553E-01  0.00000000000E+00 0.  1.
     999901    1    3    3    0    0 -0.66700130277E-01  0.10847680331E+00  0.66033990996E-01  0.89161460968E+00  0.88000000000E+00 0.  1.
        -11    1    4    4    0    0  0.30715624742E-01 -0.22577231717E-01 -0.22611386223E-01  0.44325127222E-01  0.51100000000E-03 0. -1.
         11    1    4    4    0    0  0.41336353326E-01 -0.63577430940E-01 -0.35206186046E-01  0.83609332542E-01  0.51100000000E-03 0.  1.
</event>
<event>
 8    1  0.1116619E+005  0.1043930E+01  0.7957747E-01            NaN
         13   -1    0    0    0    0  0.00000000000E+00  0.00000000000E+00  0.74505805969E-08  0.10566000000E+00  0.10566000000E+00 0. -1.
     999900   -1    0    0    0    0 -0.00000000000E+00 -0.00000000000E+00 -0.74505805969E-08  0.93827000000E+00  0.93827000000E+00 0. -1.
     999902    2    1    2    0    0  0.54244947785E-04  0.25769721974E-01 -0.48744539924E-02  0.10177032615E+01  0.10173652670E+01 0.  0.
     999903    2    3    3    0    0 -0.74425492982E-01 -0.28778856754E-01 -0.98051942886E-01  0.12798149413E+00  0.19942485688E-01 0.  0.
         14    1    1    2    0    0 -0.54244947785E-04 -0.25769721974E-01  0.48744539924E-02  0.26226738547E-01  0.00000000000E+00 0.  1.
     999901    1    3    3    0    0  0.74479737930E-01  0.54548578728E-01  0.93177488893E-01  0.88972176732E+00  0.88000000000E+00 0. -1.
        -11    1    4    4    0    0 -0.67848691389E-01 -0.31846752573E-01 -0.90199541041E-01  0.11727693250E+00  0.51100000000E-03 0. -1.
         11    1    4    4    0    0 -0.65768015930E-02  0.30678958188E-02 -0.78524018445E-02  0.10704561629E-01  0.51100000000E-03 0.  1.
</event>
<event>
 8    1  0.1116619E+005  0.1043930E+01  0.7957747E-01            NaN
         13   -1    0    0    0    0  0.00000000000E+00  0.00000000000E+00  0.74505805969E-08  0.10566000000E+00  0.10566000000E+00 0.  1.
     999900   -1    0    0    0    0 -0.00000000000E+00 -0.00000000000E+00 -0.74505805969E-08  0.93827000000E+00  0.93827000000E+00 0.  1.
     999902    2    1    2    0    0 -0.10969612133E-02  0.21227895089E-01  0.12545219440E-01  0.10192478327E+01  0.10189489364E+01 0.  0.
     999903    2    3    3    0    0  0.10960511544E+00  0.10255761697E-01 -0.64478667161E-01  0.12890631583E+00  0.18462875252E-01 0.  0.
         14    1    1    2    0    0  0.10969612133E-02 -0.21227895089E-01 -0.12545219440E-01  0.24682167340E-01  0.00000000000E+00 0. -1.
     999901    1    3    3    0    0 -0.11070207666E+00  0.10972133392E-01  0.77023886601E-01  0.89034151683E+00  0.88000000000E+00 0. -1.
        -11    1    4    4    0    0  0.76479814358E-01  0.33932993583E-02 -0.53265943738E-01  0.93264132270E-01  0.51100000000E-03 0.  1.
         11    1    4    4    0    0  0.33125301084E-01  0.68624623389E-02 -0.11212723423E-01  0.35642183558E-01  0.51100000000E-03 0. -1.
</event>
<event>
 8    1  0.1116619E+005  0.1043930E+01  0.7957747E-01            NaN
         13   -1    0    0    0    0  0.00000000000E+00  0.00000000000E+00  0.74505805969E-08  0.10566000000E+00  0.10566000000E+00 0. -1.
     999900   -1    0    0    0    0 -0.00000000000E+00 -0.00000000000E+00 -0.74505805969E-08  0.93827000000E+00  0.93827000000E+00 0.  1.
     999902    2    1    2    0    0  0.11990110748E-01  0.15756641821E-01 -0.13090346407E-01  0.10201941266E+01  0.10199179694E+01 0.  0.
     999903    2    3    3    0    0  0.10950881015E+00  0.72456496188E-01  0.16682801617E-02  0.13287085559E+00  0.20242474299E-01 0.  0.
         14    1    1    2    0    0 -0.11990110748E-01 -0.15756641821E-01  0.13090346407E-01  0.23735873405E-01  0.00000000000E+00 0. -1.
     999901    1    3    3    0    0 -0.97518699398E-01 -0.56699854366E-01 -0.14758626569E-01  0.88732327101E+00  0.88000000000E+00 0. -1.
        -11    1    4    4    0    0  0.73074957433E-01  0.58143677108E-01  0.54257308856E-02  0.93543232081E-01  0.51100000000E-03 0.  1.
         11    1    4    4    0    0  0.36433852714E-01  0.14312819080E-01 -0.37574507239E-02  0.39327623504E-01  0.51100000000E-03 0. -1.
</event>
<event>
 8    1  0.1116619E+005  0.1043930E+01  0.7957747E-01            NaN
         13   -1    0    0    0    0  0.00000000000E+00  0.00000000000E+00  0.74505805969E-08  0.10566000000E+00  0.10566000000E+00 0.  1.
     999900   -1    0    0    0    0 -0.00000000000E+00 -0.00000000000E+00 -0.74505805969E-08  0.93827000000E+00  0.93827000000E+00 0.  1.
     999902    2    1    2    0    0  0.20059099631E-01  0.12998838666E-01 -0.54532880906E-02  0.10194131561E+01  0.10191182989E+01 0.  0.
     999903    2    3    3    0    0  0.44921409576E-01 -0.10170622858E+00  0.60754195009E-01  0.12915543063E+00  0.25059191545E-01 0.  0.
         14    1    1    2    0    0 -0.20059099631E-01 -0.12998838666E-01  0.54532880906E-02  0.24516843918E-01  0.00000000000E+00 0.  1.
     999901    1    3    3    0    0 -0.24862309945E-01  0.11470506724E+00 -0.66207483100E-01  0.89025772545E+00  0.88000000000E+00 0.  1.
        -11    1    4    4    0    0  0.27892976746E-01 -0.35815922779E-01  0.18338557291E-01  0.48962866345E-01  0.51100000000E-03 0.  1.
         11    1    4    4    0    0  0.17028432830E-01 -0.65890305797E-01  0.42415637719E-01  0.80192564286E-01  0.51100000000E-03 0. -1.
</event>
<event>
 8    1  0.1116619E+005  0.1043930E+01  0.7957747E-01            NaN
         13   -1    0    0    0    0  0.00000000000E+00  0.00000000000E+00  0.74505805969E-08  0.10566000000E+00  0.10566000000E+00 0. -1.
     999900   -1    0    0    0    0 -0.00000000000E+00 -0.00000000000E+00 -0.74505805969E-08  0.93827000000E+00  0.93827000000E+00 0. -1.
     999902    2    1    2    0    0 -0.11911703295E-01 -0.43455872364E-02 -0.19419121061E-01  0.10207378663E+01  0.10204743586E+01 0.  0.
     999903    2    3    3    0    0 -0.47313717016E-01 -0.55696931710E-01 -0.10985955425E+00  0.13390657730E+00  0.22827916333E-01 0.  0.
         14    1    1    2    0    0  0.11911703295E-01  0.43455872364E-02  0.19419121061E-01  0.23192133723E-01  0.00000000000E+00 0. -1.
     999901    1    3    3    0    0  0.35402013721E-01  0.51351344473E-01  0.90440433190E-01  0.88683128898E+00  0.88000000000E+00 0.  1.
        -11    1    4    4    0    0 -0.95975349755E-02 -0.86013914378E-03 -0.18606337086E-01  0.20959709390E-01  0.51100000000E-03 0.  1.
         11    1    4    4    0    0 -0.37716182040E-01 -0.54836792566E-01 -0.91253217165E-01  0.11294686791E+00  0.51100000000E-03 0. -1.
</event>
<event>
 8    1  0.1116619E+005  0.1043930E+01  0.7957747E-01            NaN
         13   -1    0    0    0    0  0.00000000000E+00  0.00000000000E+00  0.74505805969E-08  0.10566000000E+00  0.10566000000E+00 0. -1.
     999900   -1    0    0    0    0 -0.00000000000E+00 -0.00000000000E+00 -0.74505805969E-08  0.93827000000E+00  0.93827000000E+00 0.  1.
     999902    2    1    2    0    0  0.60871843319E-02  0.20023048623E-01  0.13477144482E-01  0.10190380392E+01  0.10187339769E+01 0.  0.
     999903    2    3    3    0    0 -0.37078775212E-01 -0.10925804359E+00 -0.47082076690E-01  0.12648870155E+00  0.21691334979E-01 0.  0.
         14    1    1    2    0    0 -0.60871843319E-02 -0.20023048623E-01 -0.13477144482E-01  0.24891960803E-01  0.00000000000E+00 0.  1.
     999901    1    3    3    0    0  0.43165959544E-01  0.12928109221E+00  0.60559221172E-01  0.89254933765E+00  0.88000000000E+00 0. -1.
        -11    1    4    4    0    0 -0.11368834318E-01 -0.64043005704E-01 -0.21384831122E-01  0.68471374285E-01  0.51100000000E-03 0.  1.
         11    1    4    4    0    0 -0.25709940895E-01 -0.45215037888E-01 -0.25697245568E-01  0.58017327264E-01  0.51100000000E-03 0. -1.
</event>
<event>
 8    1  0.1116619E+005  0.1043930E+01  0.7957747E-01            NaN
         13   -1    0    0    0    0  0.00000000000E+00  0.00000000000E+00  0.74505805969E-08  0.10566000000E+00  0.10566000000E+00 0.  1.
     999900   -1    0    0    0    0 -0.00000000000E+00 -0.00000000000E+00 -0.74505805969E-08  0.93827000000E+00  0.93827000000E+00 0. -1.
     999902    2    1    2    0    0 -0.99212707225E-02  0.18657358148E-01 -0.11429453663E-01  0.10199058239E+01  0.10196228364E+01 0.  0.
     999903    2    3    3    0    0  0.10720319201E+00  0.30806956677E-01 -0.66016878529E-01  0.13038598744E+00  0.14166316186E-01 0.  0.
         14    1    1    2    0    0  0.99212707225E-02 -0.18657358148E-01  0.11429453663E-01  0.24024176091E-01  0.00000000000E+00 0.  1.
     999901    1    3    3    0    0 -0.11712446273E+00 -0.12149598529E-01  0.54587424866E-01  0.88951983647E+00  0.88000000000E+00 0.  1.
        -11    1    4    4    0    0  0.44493806690E-01  0.75250969687E-02 -0.32136461066E-01  0.55401617026E-01  0.51100000000E-03 0. -1.
         11    1    4    4    0    0  0.62709385317E-01  0.23281859709E-01 -0.33880417462E-01  0.74984370416E-01  0.51100000000E-03 0.  1.
</event>
<event>
 8    1  0.1116619E+005  0.1043930E+01  0.7957747E-01            NaN
         13   -1    0    0    0    0  0.00000000000E+00  0.00000000000E+00  0.74505805969E-08  0.10566000000E+00  0.10566000000E+00 0.  1.
     999900   -1    0    0    0    0 -0.00000000000E+00 -0.00000000000E+00 -0.74505805969E-08  0.93827000000E+00  0.93827000000E+00 0. -1.
     999902    2    1    2    0    0 -0.11826070302E-01  0.84265092508E-02 -0.16156426036E-01  0.10222069224E+01  0.10219760761E+01 0.  0.
     999903    2    3    3    0    0 -0.86484066670E-01  0.95435476289E-01  0.28612653256E-01  0.13364142274E+00  0.21305445885E-01 0.  0.
         14    1    1    2    0    0  0.11826070302E-01 -0.84265092508E-02  0.16156426036E-01  0.21723077572E-01  0.00000000000E+00 0.  1.
     999901    1    3    3    0    0  0.74657996368E-01 -0.87008967039E-01 -0.44769079292E-01  0.88856549968E+00  0.88000000000E+00 0. -1.
        -11    1    4    4    0    0 -0.43390159416E-01  0.55202931612E-01  0.25141551338E-01  0.74581688888E-01  0.51100000000E-03 0. -1.
         11    1    4    4    0    0 -0.43093907254E-01  0.40232544677E-01  0.34711019178E-02  0.59059733856E-01  0.51100000000E-03 0.  1.
</event>
<event>
 8    1  0.1116619E+005  0.1043930E+01  0.7957747E-01            NaN
         13   -1    0    0    0    0  0.00000000000E+00  0.00000000000E+00  0.74505805969E-08  0.10566000000E+00  0.10566000000E+00 0. -1.
     999900   -1    0    0    0    0 -0.00000000000E+00 -0.00000000000E+00 -0.74505805969E-08  0.93827000000E+00  0.93827000000E+00 0. -1.
     999902    2    1    2    0    0  0.17605100390E-01  0.16311542300E-01  0.31493578366E-02  0.10197241241E+01  0.10194367881E+01 0.  0.
     999903    2    3    3    0    0 -0.68083159071E-01 -0.92850921980E-01  0.50397332165E-01  0.12759672712E+00  0.22009621083E-01 0.  0.
         14    1    1    2    0    0 -0.17605100390E-01 -0.16311542300E-01 -0.31493578366E-02  0.24205875872E-01  0.00000000000E+00 0.  1.
     999901    1    3    3    0    0  0.85688259461E-01  0.10916246428E+00 -0.47247974329E-01  0.89212739701E+00  0.88000000000E+00 0. -1.
        -11    1    4    4    0    0 -0.65365621817E-01 -0.76626593806E-01  0.44515779255E-01  0.11011909515E+00  0.51100000000E-03 0. -1.
         11    1    4    4    0    0 -0.27175372532E-02 -0.16224328174E-01  0.58815529105E-02  0.17477631964E-01  0.51100000000E-03 0.  1.
</event>
<event>
 8    1  0.1116619E+005  0.1043930E+01  0.7957747E-01            NaN
         13   -1    0    0    0    0  0.00000000000E+00  0.00000000000E+00  0.74505805969E-08  0.10566000000E+00  0.10566000000E+00 0.  1.
     999900   -1    0    0    0    0 -0.00000000000E+00 -0.00000000000E+00 -0.74505805969E-08  0.93827000000E+00  0.93827000000E+00 0.  1.
     999902    2    1    2    0    0  0.21653622109E-01 -0.59550766860E-02 -0.95835378677E-02  0.10195130697E+01  0.10192206399E+01 0.  0.
     999903    2    3    3    0    0 -0.10777332582E+00  0.11986389048E-01  0.62731396077E-01  0.12693103942E+00  0.20432753979E-01 0.  0.
         14    1    1    2    0    0 -0.21653622109E-01  0.59550766860E-02  0.95835378677E-02  0.24416930332E-01  0.00000000000E+00 0.  1.
     999901    1    3    3    0    0  0.12942694793E+00 -0.17941465734E-01 -0.72314933945E-01  0.89258203024E+00  0.88000000000E+00 0. -1.
        -11    1    4    4    0    0 -0.84137109505E-01  0.16232432207E-01  0.43152342557E-01  0.95942330806E-01  0.51100000000E-03 0.  1.
         11    1    4    4    0    0 -0.23636216314E-01 -0.42460431594E-02  0.19579053520E-01  0.30988708619E-01  0.51100000000E-03 0. -1.
</event>
<event>
 8    1  0.1116619E+005  0.1043930E+01  0.7957747E-01            NaN
         13   -1    0    0    0    0  0.00000000000E+00  0.00000000000E+00  0.74505805969E-08  0.10566000000E+00  0.10566000000E+00 0.  1.
     999900   -1    0    0    0    0 -0.00000000000E+00 -0.00000000000E+00 -0.74505805969E-08  0.93827000000E+00  0.93827000000E+00 0. -1.
     999902    2    1    2    0    0  0.12542405968E-01 -0.17512938289E-02 -0.19946248454E-01  0.10203030703E+01  0.10200294719E+01 0.  0.
     999903    2    3    3    0    0 -0.81343689902E-01  0.17718541523E-01 -0.99790849120E-01  0.13150116118E+00  0.20089779045E-01 0.  0.
         14    1    1    2    0    0 -0.12542405968E-01  0.17512938289E-02  0.19946248454E-01  0.23626929655E-01  0.00000000000E+00 0.  1.
     999901    1    3    3    0    0  0.93886095869E-01 -0.19469835352E-01  0.79844600666E-01  0.88880190917E+00  0.88000000000E+00 0.  1.
        -11    1    4    4    0    0 -0.40706215883E-01  0.13779936424E-01 -0.37599632986E-01  0.57104082000E-01  0.51100000000E-03 0. -1.
         11    1    4    4    0    0 -0.40637474018E-01  0.39386050990E-02 -0.62191216134E-01  0.74397079176E-01  0.51100000000E-03 0.  1.
</event>
<event>
 8    1  0.1116619E+005  0.1043930E+01  0.7957747E-01            NaN
         13   -1    0    0    0    0  0.00000000000E+00  0.00000000000E+00  0.74505805969E-08  0.10566000000E+00  0.10566000000E+00 0.  1.
     999900   -1    0    0    0    0 -0.00000000000E+00 -0.00000000000E+00 -0.74505805969E-08  0.93827000000E+00  0.93827000000E+00 0. -1.
     999902    2    1    2    0    0  0.10382630736E-01  0.57647435416E-02  0.19171504693E-01  0.10213783286E+01  0.10211293318E+01 0.  0.
     999903    2    3    3    0    0  0.33829170543E-01  0.10980966082E+00  0.65341980333E-01  0.13373718613E+00  0.20334359385E-01 0.  0.
         14    1    1    2    0    0 -0.10382630736E-01 -0.57647435416E-02 -0.19171504693E-01  0.22551671364E-01  0.00000000000E+00 0. -1.
     999901    1    3    3    0    0 -0.23446539807E-01 -0.10404491728E+00 -0.46170475640E-01  0.88764114250E+00  0.88000000000E+00 0. -1.
        -11    1    4    4    0    0  0.13013895127E-01  0.66028750298E-01  0.29687571189E-01  0.73557938637E-01  0.51100000000E-03 0. -1.
         11    1    4    4    0    0  0.20815275416E-01  0.43780910525E-01  0.35654409144E-01  0.60179247498E-01  0.51100000000E-03 0.  1.
</event>
<event>
 8    1  0.1116619E+005  0.1043930E+01  0.7957747E-01            NaN
         13   -1    0    0    0    0  0.00000000000E+00  0.00000000000E+00  0.74505805969E-08  0.10566000000E+00  0.10566000000E+00 0.  1.
     999900   -1    0    0    0    0 -0.00000000000E+00 -0.00000000000E+00 -0.74505805969E-08  0.93827000000E+00  0.93827000000E+00 0.  1.
     999902    2    1    2    0    0  0.27411517143E-02 -0.13572711635E-01  0.19036296904E-01  0.10203903948E+01  0.10201188385E+01 0.  0.
     999903    2    3    3    0    0 -0.11314259930E+00  0.24535249279E-02  0.64494218900E-01  0.13148527798E+00  0.17933390461E-01 0.  0.
         14    1    1    2    0    0 -0.27411517143E-02  0.13572711635E-01 -0.19036296904E-01  0.23539605215E-01  0.00000000000E+00 0. -1.
     999901    1    3    3    0    0  0.11588375101E+00 -0.16026236563E-01 -0.45457921996E-01  0.88890511680E+00  0.88000000000E+00 0. -1.
        -11    1    4    4    0    0 -0.90614850557E-01  0.40960706285E-02  0.43325992724E-01  0.10052478153E+00  0.51100000000E-03 0.  1.
         11    1    4    4    0    0 -0.22527748743E-01 -0.16425457007E-02  0.21168226176E-01  0.30960496447E-01  0.51100000000E-03 0. -1.
</event>
<event>
 8    1  0.1116619E+005  0.1043930E+01  0.7957747E-01            NaN
         13   -1    0    0    0    0  0.00000000000E+00  0.00000000000E+00  0.74505805969E-08  0.10566000000E+00  0.10566000000E+00 0. -1.
     999900   -1    0    0    0    0 -0.00000000000E+00 -0.00000000000E+00 -0.74505805969E-08  0.93827000000E+00  0.93827000000E+00 0. -1.
     999902    2    1    2    0    0 -0.11190794073E-01  0.25339128291E-02 -0.21203461698E-01  0.10198210520E+01  0.10195360399E+01 0.  0.
     999903    2    3    3    0    0  0.34241198659E-01  0.37604363800E-01  0.11515991638E+00  0.12747079935E+00  0.20011258938E-01 0.  0.
         14    1    1    2    0    0  0.11190794073E-01 -0.25339128291E-02  0.21203461698E-01  0.24108948011E-01  0.00000000000E+00 0. -1.
     999901    1    3    3    0    0 -0.45431992731E-01 -0.35070450971E-01 -0.13636337808E+00  0.89235025263E+00  0.88000000000E+00 0. -1.
        -11    1    4    4    0    0  0.13270744799E-01  0.15182954626E-01  0.70098382912E-01  0.72942985862E-01  0.51100000000E-03 0.  1.
         11    1    4    4    0    0  0.20970453859E-01  0.22421409174E-01  0.45061533472E-01  0.54527813492E-01  0.51100000000E-03 0. -1.
</event>
<event>
 8    1  0.1116619E+005  0.1043930E+01  0.7957747E-01            NaN
         13   -1    0    0    0    0  0.00000000000E+00  0.00000000000E+00  0.74505805969E-08  0.10566000000E+00  0.10566000000E+00 0. -1.
     999900   -1    0    0    0    0 -0.00000000000E+00 -0.00000000000E+00 -0.74505805969E-08  0.93827000000E+00  0.93827000000E+00 0.  1.
     999902    2    1    2    0    0 -0.50669694394E-02 -0.15285982388E-01 -0.17734688872E-01  0.10199747370E+01  0.10196933899E+01 0.  0.
     999903    2    3    3    0    0 -0.94134303580E-01  0.36029337467E-01  0.77694261357E-01  0.12886703496E+00  0.20271511596E-01 0.  0.
         14    1    1    2    0    0  0.50669694394E-02  0.15285982388E-01  0.17734688872E-01  0.23955263018E-01  0.00000000000E+00 0. -1.
     999901    1    3    3    0    0  0.89067334141E-01 -0.51315319856E-01 -0.95428950230E-01  0.89110770202E+00  0.88000000000E+00 0. -1.
        -11    1    4    4    0    0 -0.47380373754E-01  0.19163455675E-01  0.51997826782E-01  0.72912090641E-01  0.51100000000E-03 0.  1.
         11    1    4    4    0    0 -0.46753929826E-01  0.16865881792E-01  0.25696434575E-01  0.55954944318E-01  0.51100000000E-03 0. -1.
</event>
<event>
 8    1  0.1116619E+005  0.1043930E+01  0.7957747E-01            NaN
         13   -1    0    0    0    0  0.00000000000E+00  0.00000000000E+00  0.74505805969E-08  0.10566000000E+00  0.10566000000E+00 0.  1.
     999900   -1    0    0    0    0 -0.00000000000E+00 -0.00000000000E+00 -0.74505805969E-08  0.93827000000E+00  0.93827000000E+00 0. -1.
     999902    2    1    2    0    0  0.15323924153E-01  0.15742411097E-01  0.74745248029E-02  0.10207240809E+01  0.10204602563E+01 0.  0.
     999903    2    3    3    0    0 -0.94101763170E-01  0.36896037813E-01 -0.78575758550E-01  0.12953043855E+00  0.19685660784E-01 0.  0.
         14    1    1    2    0    0 -0.15323924153E-01 -0.15742411097E-01 -0.74745248029E-02  0.23205919065E-01  0.00000000000E+00 0.  1.
     999901    1    3    3    0    0  0.10942568732E+00 -0.21153626715E-01  0.86050283352E-01  0.89119364239E+00  0.88000000000E+00 0. -1.
        -11    1    4    4    0    0 -0.58030696285E-01  0.21148498426E-01 -0.35762533511E-01  0.71372548092E-01  0.51100000000E-03 0.  1.
         11    1    4    4    0    0 -0.36071066884E-01  0.15747539387E-01 -0.42813225039E-01  0.58157890455E-01  0.51100000000E-03 0. -1.
</event>
<event>
 8    1  0.1116619E+005  0.1043930E+01  0.7957747E-01            NaN
         13   -1    0    0    0    0  0.00000000000E+00  0.00000000000E+00  0.74505805969E-08  0.10566000000E+00  0.10566000000E+00 0. -1.
     999900   -1    0    0    0    0 -0.00000000000E+00 -0.00000000000E+00 -0.74505805969E-08  0.93827000000E+00  0.93827000000E+00 0.  1.
     999902    2    1    2    0    0  0.57561151889E-02 -0.57387751944E-02 -0.22567051510E-01  0.10199437911E+01  0.10196617080E+01 0.  0.
     999903    2    3    3    0    0  0.46108349373E-01  0.11593275700E+00  0.27499185634E-01  0.12924805595E+00  0.19556858854E-01 0.  0.
         14    1    1    2    0    0 -0.57561151889E-02  0.57387751944E-02  0.22567051510E-01  0.23986208884E-01  0.00000000000E+00 0. -1.
     999901    1    3    3    0    0 -0.40352234184E-01 -0.12167153219E+00 -0.50066237144E-01  0.89069573517E+00  0.88000000000E+00 0. -1.
        -11    1    4    4    0    0  0.28946612033E-01  0.72710393930E-01  0.26837111823E-01  0.82735720373E-01  0.51100000000E-03 0.  1.
         11    1    4    4    0    0  0.17161737340E-01  0.43222363068E-01  0.66207381071E-03  0.46512335572E-01  0.51100000000E-03 0. -1.
</event>
<event>
 8    1  0.1116619E+005  0.1043930E+01  0.7957747E-01            NaN
         13   -1    0    0    0    0  0.00000000000E+00  0.00000000000E+00  0.74505805969E-08  0.10566000000E+00  0.10566000000E+00 0. -1.
     999900   -1    0    0    0    0 -0.00000000000E+00 -0.00000000000E+00 -0.74505805969E-08  0.93827000000E+00  0.93827000000E+00 0. -1.
     999902    2    1    2    0    0  0.10994697760E-01 -0.85934619597E-02  0.19270886779E-01  0.10201371850E+01  0.10198596856E+01 0.  0.
     999903    2    3    3    0    0 -0.98962275003E-01  0.31578381220E-01  0.76893836186E-01  0.13051663831E+00  0.18199032858E-01 0.  0.
         14    1    1    2    0    0 -0.10994697760E-01  0.85934619597E-02 -0.19270886779E-01  0.23792814977E-01  0.00000000000E+00 0.  1.
     999901    1    3    3    0    0  0.10995697276E+00 -0.40171843180E-01 -0.57622949407E-01  0.88962054672E+00  0.88000000000E+00 0. -1.
        -11    1    4    4    0    0 -0.61209678789E-01  0.11568085924E-01  0.39736150736E-01  0.73889567502E-01  0.51100000000E-03 0. -1.
         11    1    4    4    0    0 -0.37752596214E-01  0.20010295296E-01  0.37157685450E-01  0.56627070804E-01  0.51100000000E-03 0.  1.
</event>
<event>
 8    1  0.1116619E+005  0.1043930E+01  0.7957747E-01            NaN
         13   -1    0    0    0    0  0.00000000000E+00  0.00000000000E+00  0.74505805969E-08  0.10566000000E+00  0.10566000000E+00 0. -1.
     999900   -1    0    0    0    0 -0.00000000000E+00 -0.00000000000E+00 -0.74505805969E-08  0.93827000000E+00  0.93827000000E+00 0.  1.
     999902    2    1    2    0    0  0.12486025852E-01 -0.35626533719E-02  0.20327299611E-01  0.10198096258E+01  0.10195243403E+01 0.  0.
     999903    2    3    3    0    0  0.56321176831E-01 -0.64845391970E-01 -0.95651051231E-01  0.12900769926E+00  0.10810321374E-01 0.  0.
         14    1    1    2    0    0 -0.12486025852E-01  0.35626533719E-02 -0.20327299611E-01  0.24120374170E-01  0.00000000000E+00 0.  1.
     999901    1    3    3    0    0 -0.43835150979E-01  0.61282738598E-01  0.11597835084E+00  0.89080192657E+00  0.88000000000E+00 0. -1.
        -11    1    4    4    0    0  0.27874558778E-01 -0.29103853320E-01 -0.52324057630E-01  0.66046146239E-01  0.51100000000E-03 0. -1.
         11    1    4    4    0    0  0.28446618053E-01 -0.35741538650E-01 -0.43326993601E-01  0.62961553024E-01  0.51100000000E-03 0.  1.
</event>
<event>
 8    1  0.1116619E+005  0.1043930E+01  0.7957747E-01            NaN
         13   -1    0    0    0    0  0.00000000000E+00  0.00000000000E+00  0.74505805969E-08  0.10566000000E+00  0.10566000000E+00 0. -1.
     999900   -1    0    0    0    0 -0.00000000000E+00 -0.00000000000E+00 -0.74505805969E-08  0.93827000000E+00  0.93827000000E+00 0.  1.
     999902    2    1    2    0    0 -0.17220168416E-01 -0.83634906324E-02  0.43296049827E-02  0.10243027828E+01  0.10241147217E+01 0.  0.
     999903    2    3    3    0    0  0.64139784231E-01  0.10030979626E+00 -0.53802185666E-01  0.13199754900E+00  0.18780591397E-01 0.  0.
         14    1    1    2    0    0  0.17220168416E-01  0.83634906324E-02 -0.43296049827E-02  0.19627217203E-01  0.00000000000E+00 0.  1.
     999901    1    3    3    0    0 -0.81359952647E-01 -0.10867328689E+00  0.58131790649E-01  0.89230523380E+00  0.88000000000E+00 0. -1.
        -11    1    4    4    0    0  0.21382948514E-01  0.42141219841E-01 -0.30019373534E-01  0.55986934236E-01  0.51100000000E-03 0. -1.
         11    1    4    4    0    0  0.42756835717E-01  0.58168576415E-01 -0.23782812132E-01  0.76010614763E-01  0.51100000000E-03 0.  1.
</event>
<event>
 8    1  0.1116619E+005  0.1043930E+01  0.7957747E-01            NaN
         13   -1    0    0    0    0  0.00000000000E+00  0.00000000000E+00  0.74505805969E-08  0.10566000000E+00  0.10566000000E+00 0. -1.
     999900   -1    0    0    0    0 -0.00000000000E+00 -0.00000000000E+00 -0.74505805969E-08  0.93827000000E+00  0.93827000000E+00 0. -1.
     999902    2    1    2    0    0 -0.21968390023E-01  0.80427739167E-02 -0.31149451000E-02  0.10203291683E+01  0.10200561810E+01 0.  0.
     999903    2    3    3    0    0 -0.12937046424E+00 -0.24370160276E-01 -0.25594778468E-03  0.13320235794E+00  0.20302239318E-01 0.  0.
         14    1    1    2    0    0  0.21968390023E-01 -0.80427739167E-02  0.31149451000E-02  0.23600831669E-01  0.00000000000E+00 0. -1.
     999901    1    3    3    0    0  0.10740207422E+00  0.32412934193E-01 -0.28589973153E-02  0.88712681039E+00  0.88000000000E+00 0.  1.
        -11    1    4    4    0    0 -0.32735577811E-01 -0.94362921837E-02 -0.83625805490E-02  0.35083550835E-01  0.51100000000E-03 0.  1.
         11    1    4    4    0    0 -0.96634886431E-01 -0.14933868092E-01  0.81066327643E-02  0.98118807104E-01  0.51100000000E-03 0. -1.
</event>
<event>
 8    1  0.1116619E+005  0.1043930E+01  0.7957747E-01            NaN
         13   -1    0    0    0    0  0.00000000000E+00  0.00000000000E+00  0.74505805969E-08  0.10566000000E+00  0.10566000000E+00 0. -1.
     999900   -1    0    0    0    0 -0.00000000000E+00 -0.00000000000E+00 -0.74505805969E-08  0.93827000000E+00  0.93827000000E+00 0. -1.
     999902    2    1    2    0    0 -0.23791619837E-01 -0.32982947674E-02  0.58877424494E-03  0.10199036274E+01  0.10196205876E+01 0.  0.
     999903    2    3    3    0    0 -0.25516557678E-01  0.93430163563E-01  0.85073455840E-01  0.13057970925E+00  0.20815316459E-01 0.  0.
         14    1    1    2    0    0  0.23791619837E-01  0.32982947674E-02 -0.58877424494E-03  0.24026372551E-01  0.00000000000E+00 0. -1.
     999901    1    3    3    0    0  0.17249378404E-02 -0.96728458330E-01 -0.84484681595E-01  0.88932391820E+00  0.88000000000E+00 0. -1.
        -11    1    4    4    0    0 -0.20134314154E-01  0.48542080851E-01  0.56147037643E-01  0.76905625132E-01  0.51100000000E-03 0. -1.
         11    1    4    4    0    0 -0.53822435236E-02  0.44888082712E-01  0.28926418197E-01  0.53674084115E-01  0.51100000000E-03 0.  1.
</event>
<event>
 8    1  0.1116619E+005  0.1043930E+01  0.7957747E-01            NaN
         13   -1    0    0    0    0  0.00000000000E+00  0.00000000000E+00  0.74505805969E-08  0.10566000000E+00  0.10566000000E+00 0. -1.
     999900   -1    0    0    0    0 -0.00000000000E+00 -0.00000000000E+00 -0.74505805969E-08  0.93827000000E+00  0.93827000000E+00 0. -1.
     999902    2    1    2    0    0  0.13384051615E-02  0.26930697429E-02 -0.20394613575E-01  0.10233148547E+01  0.10231071829E+01 0.  0.
     999903    2    3    3    0    0 -0.10721204896E+00  0.63210957578E-01 -0.46032082088E-01  0.13421255708E+00  0.20099982503E-01 0.  0.
         14    1    1    2    0    0 -0.13384051615E-02 -0.26930697429E-02  0.20394613575E-01  0.20615145304E-01  0.00000000000E+00 0. -1.
     999901    1    3    3    0    0  0.10855045412E+00 -0.60517887835E-01  0.25637468512E-01  0.88910229762E+00  0.88000000000E+00 0.  1.
        -11    1    4    4    0    0 -0.81146728519E-01  0.37467036837E-01 -0.30882819690E-01  0.94565215971E-01  0.51100000000E-03 0. -1.
         11    1    4    4    0    0 -0.26065320438E-01  0.25743920741E-01 -0.15149262398E-01  0.39647341107E-01  0.51100000000E-03 0.  1.
</event>
<event>
 8    1  0.1116619E+005  0.1043930E+01  0.7957747E-01            NaN
         13   -1    0    0    0    0  0.00000000000E+00  0.00000000000E+00  0.74505805969E-08  0.10566000000E+00  0.10566000000E+00 0.  1.
     999900   -1    0    0    0    0 -0.00000000000E+00 -0.00000000000E+00 -0.74505805969E-08  0.93827000000E+00  0.93827000000E+00 0.  1.
     999902    2    1    2    0    0  0.28910079435E-02 -0.23381091254E-01 -0.24685453417E-02  0.10202418791E+01  0.10199668450E+01 0.  0.
     999903    2    3    3    0    0  0.36552370317E-01 -0.12640412688E+00 -0.10845747988E-01  0.13355308889E+00  0.20117610010E-01 0.  0.
         14    1    1    2    0    0 -0.28910079435E-02  0.23381091254E-01  0.24685453417E-02  0.23688120890E-01  0.00000000000E+00 0.  1.
     999901    1    3    3    0    0 -0.33661362373E-01  0.10302303563E+00  0.83772026460E-02  0.88668879023E+00  0.88000000000E+00 0. -1.
        -11    1    4    4    0    0  0.30387449905E-01 -0.70077499261E-01 -0.82522270329E-02  0.76828467292E-01  0.51100000000E-03 0.  1.
         11    1    4    4    0    0  0.61649204115E-02 -0.56326627622E-01 -0.25935209547E-02  0.56724621593E-01  0.51100000000E-03 0. -1.
</event>
<event>
 8    1  0.1116619E+005  0.1043930E+01  0.7957747E-01            NaN
         13   -1    0    0    0    0  0.00000000000E+00  0.00000000000E+00  0.74505805969E-08  0.10566000000E+00  0.10566000000E+00 0.  1.
     999900   -1    0    0    0    0 -0.00000000000E+00 -0.00000000000E+00 -0.74505805969E-08  0.93827000000E+00  0.93827000000E+00 0. -1.
     999902    2    1    2    0    0 -0.70371214221E-02  0.22800387174E-01 -0.64827480306E-04  0.10200682537E+01  0.10197891249E+01 0.  0.
     999903    2    3    3    0    0  0.11709682858E+00  0.53903034764E-01 -0.65098101687E-02  0.13078868573E+00  0.21121038501E-01 0.  0.
         14    1    1    2    0    0  0.70371214221E-02 -0.22800387174E-01  0.64827480306E-04  0.23861746286E-01  0.00000000000E+00 0.  1.
     999901    1    3    3    0    0 -0.12413395000E+00 -0.31102647589E-01  0.64449826884E-02  0.88927956798E+00  0.88000000000E+00 0.  1.
        -11    1    4    4    0    0  0.41177535841E-01  0.29296031239E-01 -0.66918682526E-02  0.50979300956E-01  0.51100000000E-03 0.  1.
         11    1    4    4    0    0  0.75919292736E-01  0.24607003525E-01  0.18205808386E-03  0.79809384775E-01  0.51100000000E-03 0. -1.
</event>
<event>
 8    1  0.1116619E+005  0.1043930E+01  0.7957747E-01            NaN
         13   -1    0    0    0    0  0.00000000000E+00  0.00000000000E+00  0.74505805969E-08  0.10566000000E+00  0.10566000000E+00 0.  1.
     999900   -1    0    0    0    0 -0.00000000000E+00 -0.00000000000E+00 -0.74505805969E-08  0.93827000000E+00  0.93827000000E+00 0.  1.
     999902    2    1    2    0    0  0.81238785180E-02 -0.19691427042E-01  0.10596815596E-01  0.10201383586E+01  0.10198608868E+01 0.  0.
     999903    2    3    3    0    0  0.74507044888E-01  0.10326069943E+00  0.78759664747E-02  0.12911010245E+00  0.19832194077E-01 0.  0.
         14    1    1    2    0    0 -0.81238785180E-02  0.19691427042E-01 -0.10596815596E-01  0.23791641429E-01  0.00000000000E+00 0.  1.
     999901    1    3    3    0    0 -0.66383166370E-01 -0.12295212648E+00  0.27208491214E-02  0.89102825612E+00  0.88000000000E+00 0.  1.
        -11    1    4    4    0    0  0.38239928786E-02  0.14094067203E-01  0.44436533525E-02  0.15273271685E-01  0.51100000000E-03 0. -1.
         11    1    4    4    0    0  0.70683052009E-01  0.89166632231E-01  0.34323131222E-02  0.11383683077E+00  0.51100000000E-03 0.  1.
</event>
<event>
 8    1  0.1116619E+005  0.1043930E+01  0.7957747E-01            NaN
         13   -1    0    0    0    0  0.00000000000E+00  0.00000000000E+00  0.74505805969E-08  0.10566000000E+00  0.10566000000E+00 0.  1.
     999900   -1    0    0    0    0 -0.00000000000E+00 -0.00000000000E+00 -0.74505805969E-08  0.93827000000E+00  0.93827000000E+00 0. -1.
     999902    2    1    2    0    0 -0.15326592432E-01 -0.18205868816E-01 -0.65871514558E-02  0.10192369107E+01  0.10189377466E+01 0.  0.
     999903    2    3    3    0    0 -0.99695914527E-01 -0.13282451862E-01  0.81297228541E-01  0.13083042333E+00  0.19790437098E-01 0.  0.
         14    1    1    2    0    0  0.15326592432E-01  0.18205868816E-01  0.65871514558E-02  0.24693089300E-01  0.00000000000E+00 0.  1.
     999901    1    3    3    0    0  0.84369322095E-01 -0.49234169532E-02 -0.87884379997E-01  0.88840648737E+00  0.88000000000E+00 0. -1.
        -11    1    4    4    0    0 -0.41474411187E-01 -0.48143412234E-02  0.46405038062E-01  0.62425902822E-01  0.51100000000E-03 0. -1.
         11    1    4    4    0    0 -0.58221503340E-01 -0.84681106389E-02  0.34892190479E-01  0.68404520512E-01  0.51100000000E-03 0.  1.
</event>
<event>
 8    1  0.1116619E+005  0.1043930E+01  0.7957747E-01            NaN
         13   -1    0    0    0    0  0.00000000000E+00  0.00000000000E+00  0.74505805969E-08  0.10566000000E+00  0.10566000000E+00 0. -1.
     999900   -1    0    0    0    0 -0.00000000000E+00 -0.00000000000E+00 -0.74505805969E-08  0.93827000000E+00  0.93827000000E+00 0. -1.
     999902    2    1    2    0    0 -0.10269618934E-01 -0.45965268963E-02 -0.20574975844E-01  0.10204795679E+01  0.10202100891E+01 0.  0.
     999903    2    3    3    0    0 -0.27137580199E-01  0.72941922359E-02 -0.12862142686E+00  0.13363124219E+00  0.22895063686E-01 0.  0.
         14    1    1    2    0    0  0.10269618934E-01  0.45965268963E-02  0.20574975844E-01  0.23450432054E-01  0.00000000000E+00 0. -1.
     999901    1    3    3    0    0  0.16867961265E-01 -0.11890719132E-01  0.10804645102E+00  0.88684832576E+00  0.88000000000E+00 0.  1.
        -11    1    4    4    0    0 -0.27989519882E-01  0.19164280471E-02 -0.81532987808E-01  0.86226301913E-01  0.51100000000E-03 0.  1.
         11    1    4    4    0    0  0.85193968324E-03  0.53777641888E-02 -0.47088439056E-01  0.47404940277E-01  0.51100000000E-03 0. -1.
</event>
<event>
 8    1  0.1116619E+005  0.1043930E+01  0.7957747E-01            NaN
         13   -1    0    0    0    0  0.00000000000E+00  0.00000000000E+00  0.74505805969E-08  0.10566000000E+00  0.10566000000E+00 0.  1.
     999900   -1    0    0    0    0 -0.00000000000E+00 -0.00000000000E+00 -0.74505805969E-08  0.93827000000E+00  0.93827000000E+00 0.  1.
     999902    2    1    2    0    0 -0.19374853489E-01  0.11919474717E-01 -0.10926274689E-01  0.10186942653E+01  0.10183816396E+01 0.  0.
     999903    2    3    3    0    0 -0.11777352646E+00  0.34480723494E-01 -0.45048852343E-01  0.13226566749E+00  0.20131663378E-01 0.  0.
         14    1    1    2    0    0  0.19374853489E-01 -0.11919474717E-01  0.10926274689E-01  0.25235734660E-01  0.00000000000E+00 0.  1.
     999901    1    3    3    0    0  0.98398672971E-01 -0.22561248777E-01  0.34122577655E-01  0.88642859785E+00  0.88000000000E+00 0. -1.
        -11    1    4    4    0    0 -0.49266974249E-01  0.24514505236E-01 -0.22543691775E-01  0.59469949373E-01  0.51100000000E-03 0.  1.
         11    1    4    4    0    0 -0.68506552212E-01  0.99662182578E-02 -0.22505160568E-01  0.72795718113E-01  0.51100000000E-03 0. -1.
</event>
<event>
 8    1  0.1116619E+005  0.1043930E+01  0.7957747E-01            NaN
         13   -1    0    0    0    0  0.00000000000E+00  0.00000000000E+00  0.74505805969E-08  0.10566000000E+00  0.10566000000E+00 0. -1.
     999900   -1    0    0    0    0 -0.00000000000E+00 -0.00000000000E+00 -0.74505805969E-08  0.93827000000E+00  0.93827000000E+00 0. -1.
     999902    2    1    2    0    0  0.11591907617E-01 -0.30916125846E-02  0.16855528578E-01  0.10232408909E+01  0.10230317110E+01 0.  0.
     999903    2    3    3    0    0  0.64589190854E-01  0.65392385359E-01 -0.92848244885E-01  0.13221132469E+00  0.20275851623E-01 0.  0.
         14    1    1    2    0    0 -0.11591907617E-01  0.30916125846E-02 -0.16855528578E-01  0.20689109072E-01  0.00000000000E+00 0.  1.
     999901    1    3    3    0    0 -0.52997283237E-01 -0.68483997943E-01  0.10970377346E+00  0.89102956624E+00  0.88000000000E+00 0.  1.
        -11    1    4    4    0    0  0.96577372224E-02  0.15368210903E-02 -0.11576765842E-01  0.15162992306E-01  0.51100000000E-03 0. -1.
         11    1    4    4    0    0  0.54931453631E-01  0.63855564268E-01 -0.81271479043E-01  0.11704833238E+00  0.51100000000E-03 0.  1.
</event>
<event>
 8    1  0.1116619E+005  0.1043930E+01  0.7957747E-01            NaN
         13   -1    0    0    0    0  0.00000000000E+00  0.00000000000E+00  0.74505805969E-08  0.10566000000E+00  0.10566000000E+00 0. -1.
     999900   -1    0    0    0    0 -0.00000000000E+00 -0.00000000000E+00 -0.74505805969E-08  0.93827000000E+00  0.93827000000E+00 0.  1.
     999902    2    1    2    0    0 -0.33051815149E-02  0.84475448230E-02  0.23114660021E-01  0.10190991171E+01  0.10187965635E+01 0.  0.
     999903    2    3    3    0    0 -0.69240856334E-01  0.95383370947E-01  0.55350300927E-01  0.13177477525E+00  0.20215141337E-01 0.  0.
         14    1    1    2    0    0  0.33051815149E-02 -0.84475448230E-02 -0.23114660021E-01  0.24830882914E-01  0.00000000000E+00 0.  1.
     999901    1    3    3    0    0  0.65935674819E-01 -0.86935826124E-01 -0.32235640905E-01  0.88732434184E+00  0.88000000000E+00 0. -1.
        -11    1    4    4    0    0 -0.54602552289E-01  0.86671365297E-01  0.49360277413E-01  0.11371043218E+00  0.51100000000E-03 0.  1.
         11    1    4    4    0    0 -0.14638304045E-01  0.87120056504E-02  0.59900235140E-02  0.18064343068E-01  0.51100000000E-03 0. -1.
</event>
<event>
 8    1  0.1116619E+005  0.1043930E+01  0.7957747E-01            NaN
         13   -1    0    0    0    0  0.00000000000E+00  0.00000000000E+00  0.74505805969E-08  0.10566000000E+00  0.10566000000E+00 0.  1.
     999900   -1    0    0    0    0 -0.00000000000E+00 -0.00000000000E+00 -0.74505805969E-08  0.93827000000E+00  0.93827000000E+00 0. -1.
     999902    2    1    2    0    0 -0.67179291440E-03  0.54461556665E-02 -0.24312820718E-01  0.10190056110E+01  0.10187007461E+01 0.  0.
     999903    2    3    3    0    0  0.10155899826E+00  0.56550144896E-01  0.50977750186E-01  0.12842634867E+00  0.19556252246E-01 0.  0.
         14    1    1    2    0    0  0.67179291440E-03 -0.54461556665E-02  0.24312820718E-01  0.24924389030E-01  0.00000000000E+00 0.  1.
     999901    1    3    3    0    0 -0.10223079118E+00 -0.51103989229E-01 -0.75290570904E-01  0.89057926230E+00  0.88000000000E+00 0. -1.
        -11    1    4    4    0    0  0.54306654856E-01  0.34624933225E-01  0.37842224449E-01  0.74702033672E-01  0.51100000000E-03 0.  1.
         11    1    4    4    0    0  0.47252343406E-01  0.21925211670E-01  0.13135525737E-01  0.53724314993E-01  0.51100000000E-03 0. -1.
</event>
<event>
 8    1  0.1116619E+005  0.1043930E+01  0.7957747E-01            NaN
         13   -1    0    0    0    0  0.00000000000E+00  0.00000000000E+00  0.74505805969E-08  0.10566000000E+00  0.10566000000E+00 0. -1.
     999900   -1    0    0    0    0 -0.00000000000E+00 -0.00000000000E+00 -0.74505805969E-08  0.93827000000E+00  0.93827000000E+00 0.  1.
     999902    2    1    2    0    0 -0.70709386097E-02  0.12862856269E-01  0.22513796345E-01  0.10170539462E+01  0.10166987790E+01 0.  0.
     999903    2    3    3    0    0 -0.79410889403E-01  0.55577806652E-01 -0.79774679522E-01  0.12715475650E+00  0.20232416036E-01 0.  0.
         14    1    1    2    0    0  0.70709386097E-02 -0.12862856269E-01 -0.22513796345E-01  0.26876053841E-01  0.00000000000E+00 0.  1.
     999901    1    3    3    0    0  0.72339950793E-01 -0.42714950383E-01  0.10228847587E+00  0.88989918966E+00  0.88000000000E+00 0. -1.
        -11    1    4    4    0    0 -0.74134885594E-01  0.56168377421E-01 -0.71531608844E-01  0.11733669532E+00  0.51100000000E-03 0. -1.
         11    1    4    4    0    0 -0.52760038083E-02 -0.59057076850E-03 -0.82430706781E-02  0.98180611743E-02  0.51100000000E-03 0.  1.
</event>
<event>
 8    1  0.1116619E+005  0.1043930E+01  0.7957747E-01            NaN
         13   -1    0    0    0    0  0.00000000000E+00  0.00000000000E+00  0.74505805969E-08  0.10566000000E+00  0.10566000000E+00 0. -1.
     999900   -1    0    0    0    0 -0.00000000000E+00 -0.00000000000E+00 -0.74505805969E-08  0.93827000000E+00  0.93827000000E+00 0. -1.
     999902    2    1    2    0    0  0.15457224066E-01 -0.11767783741E-01  0.11481820224E-01  0.10213636821E+01  0.10211143581E+01 0.  0.
     999903    2    3    3    0    0  0.83853821517E-01  0.68239413553E-01 -0.71307702909E-01  0.13123259547E+00  0.21192561776E-01 0.  0.
         14    1    1    2    0    0 -0.15457224066E-01  0.11767783741E-01 -0.11481820224E-01  0.22566317946E-01  0.00000000000E+00 0.  1.
     999901    1    3    3    0    0 -0.68396597451E-01 -0.80007197294E-01  0.82789523133E-01  0.89013108658E+00  0.88000000000E+00 0.  1.
        -11    1    4    4    0    0  0.73492395979E-01  0.49098117062E-01 -0.57968262758E-01  0.10569928086E+00  0.51100000000E-03 0. -1.
         11    1    4    4    0    0  0.10361425539E-01  0.19141296491E-01 -0.13339440150E-01  0.25533314612E-01  0.51100000000E-03 0.  1.
</event>
<event>
 8    1  0.1116619E+005  0.1043930E+01  0.7957747E-01            NaN
         13   -1    0    0    0    0  0.00000000000E+00  0.00000000000E+00  0.74505805969E-08  0.10566000000E+00  0.10566000000E+00 0.  1.
     999900   -1    0    0    0    0 -0.00000000000E+00 -0.00000000000E+00 -0.74505805969E-08  0.93827000000E+00  0.93827000000E+00 0.  1.
     999902    2    1    2    0    0  0.54496420437E-02  0.22383109792E-01  0.34858067494E-02  0.10206307929E+01  0.10203648183E+01 0.  0.
     999903    2    3    3    0    0  0.89187886986E-01  0.64158441376E-01 -0.71332039519E-01  0.13251200462E+00  0.20009665688E-01 0.  0.
         14    1    1    2    0    0 -0.54496420437E-02 -0.22383109792E-01 -0.34858067494E-02  0.23299207091E-01  0.00000000000E+00 0.  1.
     999901    1    3    3    0    0 -0.83738244943E-01 -0.41775331584E-01  0.74817846269E-01  0.88811878829E+00  0.88000000000E+00 0.  1.
        -11    1    4    4    0    0  0.43177132975E-01  0.24957225931E-01 -0.42563826267E-01  0.65567281212E-01  0.51100000000E-03 0. -1.
         11    1    4    4    0    0  0.46010754011E-01  0.39201215446E-01 -0.28768213252E-01  0.66944723406E-01  0.51100000000E-03 0.  1.
</event>
<event>
 8    1  0.1116619E+005  0.1043930E+01  0.7957747E-01            NaN
         13   -1    0    0    0    0  0.00000000000E+00  0.00000000000E+00  0.74505805969E-08  0.10566000000E+00  0.10566000000E+00 0.  1.
     999900   -1    0    0    0    0 -0.00000000000E+00 -0.00000000000E+00 -0.74505805969E-08  0.93827000000E+00  0.93827000000E+00 0. -1.
     999902    2    1    2    0    0  0.81377029977E-03 -0.18682150123E-01  0.16883473706E-01  0.10187360198E+01  0.10184244407E+01 0.  0.
     999903    2    3    3    0    0 -0.15788300413E-01  0.73204918851E-01  0.10383143361E+00  0.12953479962E+00  0.19750117256E-01 0.  0.
         14    1    1    2    0    0 -0.81377029977E-03  0.18682150123E-01 -0.16883473706E-01  0.25193980227E-01  0.00000000000E+00 0. -1.
     999901    1    3    3    0    0  0.16602070713E-01 -0.91887068974E-01 -0.86947959906E-01  0.88920122016E+00  0.88000000000E+00 0. -1.
        -11    1    4    4    0    0 -0.17663376889E-01  0.73211013058E-01  0.10243438254E+00  0.12714130392E+00  0.51100000000E-03 0.  1.
         11    1    4    4    0    0  0.18750764761E-02 -0.60942067895E-05  0.13970510734E-02  0.23934956929E-02  0.51100000000E-03 0. -1.
</event>
<event>
 8    1  0.1443624E+005  0.1043930E+01  0.7957747E-01            NaN
         13   -1    0    0    0    0  0.00000000000E+00  0.00000000000E+00  0.74505805969E-08  0.10566000000E+00  0.10566000000E+00 0. -1.
     999900   -1    0    0    0    0 -0.00000000000E+00 -0.00000000000E+00 -0.74505805969E-08  0.93827000000E+00  0.93827000000E+00 0.  1.
     999902    2    1    2    0    0  0.62117679896E-02 -0.16453231747E-01  0.14822599733E-01  0.10209299052E+01  0.10206707927E+01 0.  0.
     999903    2    3    3    0    0  0.10146518513E+00 -0.98826511418E-02  0.83172511123E-01  0.13313032402E+00  0.20326484747E-01 0.  0.
         14    1    1    2    0    0 -0.62117679896E-02  0.16453231747E-01 -0.14822599733E-01  0.23000094768E-01  0.00000000000E+00 0.  1.
     999901    1    3    3    0    0 -0.95253417136E-01 -0.65705806055E-02 -0.68349911390E-01  0.88779958121E+00  0.88000000000E+00 0.  1.
        -11    1    4    4    0    0  0.58666127075E-01  0.43081738154E-02  0.45430359882E-01  0.74326667810E-01  0.51100000000E-03 0. -1.
         11    1    4    4    0    0  0.42799058050E-01 -0.14190824957E-01  0.37742151241E-01  0.58803656215E-01  0.51100000000E-03 0.  1.
</event>
<event>
 8    1  0.1116619E+005  0.1043930E+01  0.7957747E-01            NaN
         13   -1    0    0    0    0  0.00000000000E+00  0.00000000000E+00  0.74505805969E-08  0.10566000000E+00  0.10566000000E+00 0. -1.
     999900   -1    0    0    0    0 -0.00000000000E+00 -0.00000000000E+00 -0.74505805969E-08  0.93827000000E+00  0.93827000000E+00 0.  1.
     999902    2    1    2    0    0  0.13097177678E-01 -0.23603496566E-01 -0.42979826762E-03  0.10169328550E+01  0.10165744369E+01 0.  0.
     999903    2    3    3    0    0  0.10421754463E+00  0.69969832425E-01 -0.59333132866E-02  0.12727607966E+00  0.20172312435E-01 0.  0.
         14    1    1    2    0    0 -0.13097177678E-01  0.23603496566E-01  0.42979826762E-03  0.26997145031E-01  0.00000000000E+00 0.  1.
     999901    1    3    3    0    0 -0.91120366954E-01 -0.93573328990E-01  0.55035150190E-02  0.88965677531E+00  0.88000000000E+00 0.  1.
        -11    1    4    4    0    0  0.44298715811E-01  0.32888440136E-01  0.70488408235E-02  0.55623493193E-01  0.51100000000E-03 0. -1.
         11    1    4    4    0    0  0.59918828821E-01  0.37081392289E-01 -0.12982154110E-01  0.71652586469E-01  0.51100000000E-03 0.  1.
</event>
<event>
 8    1  0.1116619E+005  0.1043930E+01  0.7957747E-01            NaN
         13   -1    0    0    0    0  0.00000000000E+00  0.00000000000E+00  0.74505805969E-08  0.10566000000E+00  0.10566000000E+00 0.  1.
     999900   -1    0    0    0    0 -0.00000000000E+00 -0.00000000000E+00 -0.74505805969E-08  0.93827000000E+00  0.93827000000E+00 0.  1.
     999902    2    1    2    0    0  0.39735817987E-03  0.23904492615E-01  0.24025847727E-02  0.10199017859E+01  0.10196187021E+01 0.  0.
     999903    2    3    3    0    0  0.83907504629E-01 -0.44678230533E-01 -0.84926667182E-01  0.12900115576E+00  0.19802670863E-01 0.  0.
         14    1    1    2    0    0 -0.39735817987E-03 -0.23904492615E-01 -0.24025847727E-02  0.24028214130E-01  0.00000000000E+00 0. -1.
     999901    1    3    3    0    0 -0.83510146449E-01  0.68582723148E-01  0.87329251955E-01  0.89090063010E+00  0.88000000000E+00 0. -1.
        -11    1    4    4    0    0  0.42197229322E-01 -0.17624552993E-01 -0.52582526197E-01  0.69687977534E-01  0.51100000000E-03 0.  1.
         11    1    4    4    0    0  0.41710275307E-01 -0.27053677541E-01 -0.32344140985E-01  0.59313178230E-01  0.51100000000E-03 0. -1.
</event>
<event>
 8    1  0.1116619E+005  0.1043930E+01  0.7957747E-01            NaN
         13   -1    0    0    0    0  0.00000000000E+00  0.00000000000E+00  0.74505805969E-08  0.10566000000E+00  0.10566000000E+00 0. -1.
     999900   -1    0    0    0    0 -0.00000000000E+00 -0.00000000000E+00 -0.74505805969E-08  0.93827000000E+00  0.93827000000E+00 0.  1.
     999902    2    1    2    0    0 -0.17691016298E-01  0.64238749115E-02 -0.14107110670E-01  0.10204087586E+01  0.10201376308E+01 0.  0.
     999903    2    3    3    0    0 -0.82344439794E-01 -0.96575078702E-01  0.26211931025E-01  0.13113125704E+00  0.20024701100E-01 0.  0.
         14    1    1    2    0    0  0.17691016298E-01 -0.64238749115E-02  0.14107110670E-01  0.23521241421E-01  0.00000000000E+00 0. -1.
     999901    1    3    3    0    0  0.64653423496E-01  0.10299895361E+00 -0.40319041695E-01  0.88927750154E+00  0.88000000000E+00 0.  1.
        -11    1    4    4    0    0 -0.13180475049E-01 -0.23825326214E-01  0.11958583022E-01  0.29742896978E-01  0.51100000000E-03 0. -1.
         11    1    4    4    0    0 -0.69163964745E-01 -0.72749752488E-01  0.14253348003E-01  0.10138836006E+00  0.51100000000E-03 0.  1.
</event>
<event>
 8    1  0.1116619E+005  0.1043930E+01  0.7957747E-01            NaN
         13   -1    0    0    0    0  0.00000000000E+00  0.00000000000E+00  0.74505805969E-08  0.10566000000E+00  0.10566000000E+00 0.  1.
     999900   -1    0    0    0    0 -0.00000000000E+00 -0.00000000000E+00 -0.74505805969E-08  0.93827000000E+00  0.93827000000E+00 0.  1.
     999902    2    1    2    0    0 -0.22687914722E-01  0.47538588655E-02 -0.10910544171E-01  0.10183100737E+01  0.10179877335E+01 0.  0.
     999903    2    3    3    0    0  0.79348217243E-02 -0.12878379364E-01 -0.12745565990E+00  0.12992310183E+00  0.20155721250E-01 0.  0.
         14    1    1    2    0    0  0.22687914722E-01 -0.47538588655E-02  0.10910544171E-01  0.25619926282E-01  0.00000000000E+00 0.  1.
     999901    1    3    3    0    0 -0.30622736447E-01  0.17632238230E-01  0.11654511573E+00  0.88838697188E+00  0.88000000000E+00 0. -1.
        -11    1    4    4    0    0  0.98610306973E-02 -0.16838832681E-01 -0.11615525109E+00  0.11778408080E+00  0.51100000000E-03 0.  1.
         11    1    4    4    0    0 -0.19262089731E-02  0.39604533173E-02 -0.11300408809E-01  0.12139021037E-01  0.51100000000E-03 0. -1.
</event>
<event>
 8    1  0.1116619E+005  0.1043930E+01  0.7957747E-01            NaN
         13   -1    0    0    0    0  0.00000000000E+00  0.00000000000E+00  0.74505805969E-08  0.10566000000E+00  0.10566000000E+00 0.  1.
     999900   -1    0    0    0    0 -0.00000000000E+00 -0.00000000000E+00 -0.74505805969E-08  0.93827000000E+00  0.93827000000E+00 0. -1.
     999902    2    1    2    0    0  0.13021712674E-02 -0.23586529043E-01 -0.12577980769E-02  0.10202740904E+01  0.10199998125E+01 0.  0.
     999903    2    3    3    0    0 -0.85272024639E-01  0.95157115086E-02 -0.95879159615E-01  0.13036170608E+00  0.20964117275E-01 0.  0.
         14    1    1    2    0    0 -0.13021712674E-02  0.23586529043E-01  0.12577980769E-02  0.23655909585E-01  0.00000000000E+00 0. -1.
     999901    1    3    3    0    0  0.86574195906E-01 -0.33102240551E-01  0.94621361538E-01  0.88991238433E+00  0.88000000000E+00 0.  1.
        -11    1    4    4    0    0 -0.62246783757E-01  0.14103735215E-01 -0.78350853263E-01  0.10105787828E+00  0.51100000000E-03 0.  1.
         11    1    4    4    0    0 -0.23025240882E-01 -0.45880237067E-02 -0.17528306352E-01  0.29303827801E-01  0.51100000000E-03 0. -1.
</event>
<event>
 8    1  0.1116619E+005  0.1043930E+01  0.7957747E-01            NaN
         13   -1    0    0    0    0  0.00000000000E+00  0.00000000000E+00  0.74505805969E-08  0.10566000000E+00  0.10566000000E+00 0. -1.
     999900   -1    0    0    0    0 -0.00000000000E+00 -0.00000000000E+00 -0.74505805969E-08  0.93827000000E+00  0.93827000000E+00 0. -1.
     999902    2    1    2    0    0 -0.17511864111E-01  0.42225427680E-02  0.15758324673E-01  0.10199963407E+01  0.10197155069E+01 0.  0.
     999903    2    3    3    0    0 -0.37672243270E-01 -0.12184718083E+00  0.19734511098E-01  0.13077430645E+00  0.21131372665E-01 0.  0.
         14    1    1    2    0    0  0.17511864111E-01 -0.42225427680E-02 -0.15758324673E-01  0.23933659323E-01  0.00000000000E+00 0.  1.
     999901    1    3    3    0    0  0.20160379159E-01  0.12606972360E+00 -0.39761864250E-02  0.88922203423E+00  0.88000000000E+00 0. -1.
        -11    1    4    4    0    0 -0.19941444042E-01 -0.91764332571E-01  0.19183683541E-01  0.95846902704E-01  0.51100000000E-03 0.  1.
         11    1    4    4    0    0 -0.17730799228E-01 -0.30082848257E-01  0.55082755668E-03  0.34927403747E-01  0.51100000000E-03 0. -1.
</event>
<event>
 8    1  0.1116619E+005  0.1043930E+01  0.7957747E-01            NaN
         13   -1    0    0    0    0  0.00000000000E+00  0.00000000000E+00  0.74505805969E-08  0.10566000000E+00  0.10566000000E+00 0.  1.
     999900   -1    0    0    0    0 -0.00000000000E+00 -0.00000000000E+00 -0.74505805969E-08  0.93827000000E+00  0.93827000000E+00 0.  1.
     999902    2    1    2    0    0 -0.80785289597E-02  0.11830419811E-01 -0.19524039333E-01  0.10197141049E+01  0.10194265281E+01 0.  0.
     999903    2    3    3    0    0 -0.83874379292E-01  0.10008380530E+00 -0.79392749722E-02  0.13198223225E+00  0.17452734976E-01 0.  0.
         14    1    1    2    0    0  0.80785289597E-02 -0.11830419811E-01  0.19524039333E-01  0.24215895089E-01  0.00000000000E+00 0.  1.
     999901    1    3    3    0    0  0.75795850332E-01 -0.88253385484E-01 -0.11584764361E-01  0.88773187266E+00  0.88000000000E+00 0.  1.
        -11    1    4    4    0    0 -0.23768428733E-01  0.31053310443E-01 -0.10216826508E-01  0.40421417081E-01  0.51100000000E-03 0.  1.
         11    1    4    4    0    0 -0.60105950559E-01  0.69030494852E-01  0.22775515363E-02  0.91560815167E-01  0.51100000000E-03 0. -1.
</event>
<event>
 8    1  0.1116619E+005  0.1043930E+01  0.7957747E-01            NaN
         13   -1    0    0    0    0  0.00000000000E+00  0.00000000000E+00  0.74505805969E-08  0.10566000000E+00  0.10566000000E+00 0. -1.
     999900   -1    0    0    0    0 -0.00000000000E+00 -0.00000000000E+00 -0.74505805969E-08  0.93827000000E+00  0.93827000000E+00 0. -1.
     999902    2    1    2    0    0  0.20080159757E-01  0.56446725878E-02  0.12021263030E-01  0.10198554095E+01  0.10195712189E+01 0.  0.
     999903    2    3    3    0    0  0.20903455203E-01 -0.11360884730E+00 -0.54240291379E-01  0.12934281921E+00  0.21062550813E-01 0.  0.
         14    1    1    2    0    0 -0.20080159757E-01 -0.56446725878E-02 -0.12021263030E-01  0.24074590533E-01  0.00000000000E+00 0. -1.
     999901    1    3    3    0    0 -0.82329544567E-03  0.11925351989E+00  0.66261554409E-01  0.89051259026E+00  0.88000000000E+00 0.  1.
        -11    1    4    4    0    0  0.20859169369E-01 -0.55542543952E-01 -0.26236576808E-01  0.64874480491E-01  0.51100000000E-03 0. -1.
         11    1    4    4    0    0  0.44285834290E-04 -0.58066303349E-01 -0.28003714571E-01  0.64468338714E-01  0.51100000000E-03 0.  1.
</event>
<event>
 8    1  0.1116619E+005  0.1043930E+01  0.7957747E-01            NaN
         13   -1    0    0    0    0  0.00000000000E+00  0.00000000000E+00  0.74505805969E-08  0.10566000000E+00  0.10566000000E+00 0.  1.
     999900   -1    0    0    0    0 -0.00000000000E+00 -0.00000000000E+00 -0.74505805969E-08  0.93827000000E+00  0.93827000000E+00 0.  1.
     999902    2    1    2    0    0  0.22737197208E-01 -0.20284047588E-02 -0.57007333359E-02  0.10204014445E+01  0.10201301461E+01 0.  0.
     999903    2    3    3    0    0  0.86809145651E-01 -0.22613835745E-01  0.95000563778E-01  0.13210547706E+00  0.19481699524E-01 0.  0.
         14    1    1    2    0    0 -0.22737197208E-01  0.20284047588E-02  0.57007333359E-02  0.23528555487E-01  0.00000000000E+00 0. -1.
     999901    1    3    3    0    0 -0.64071948442E-01  0.20585430986E-01 -0.10070129711E+00  0.88829596745E+00  0.88000000000E+00 0.  1.
        -11    1    4    4    0    0  0.77720292284E-01 -0.20616431259E-01  0.74637379069E-01  0.10971089529E+00  0.51100000000E-03 0.  1.
         11    1    4    4    0    0  0.90888533664E-02 -0.19974044855E-02  0.20363184709E-01  0.22394581771E-01  0.51100000000E-03 0. -1.
</event>
<event>
 8    1  0.1116619E+005  0.1043930E+01  0.7957747E-01            NaN
         13   -1    0    0    0    0  0.00000000000E+00  0.00000000000E+00  0.74505805969E-08  0.10566000000E+00  0.10566000000E+00 0.  1.
     999900   -1    0    0    0    0 -0.00000000000E+00 -0.00000000000E+00 -0.74505805969E-08  0.93827000000E+00  0.93827000000E+00 0.  1.
     999902    2    1    2    0    0  0.19374156715E-01 -0.71331816285E-02 -0.11993080968E-01  0.10200537729E+01  0.10197743012E+01 0.  0.
     999903    2    3    3    0    0 -0.27106827834E-01  0.44146191303E-01  0.11547811861E+00  0.12817992380E+00  0.20278823088E-01 0.  0.
         14    1    1    2    0    0 -0.19374156715E-01  0.71331816285E-02  0.11993080968E-01  0.23876227082E-01  0.00000000000E+00 0.  1.
     999901    1    3    3    0    0  0.46480984549E-01 -0.51279372931E-01 -0.12747119958E+00  0.89187384912E+00  0.88000000000E+00 0.  1.
        -11    1    4    4    0    0 -0.21800041577E-01  0.24132697870E-01  0.51293680017E-01  0.60736575882E-01  0.51100000000E-03 0. -1.
         11    1    4    4    0    0 -0.53067862567E-02  0.20013493433E-01  0.64184438597E-01  0.67443347921E-01  0.51100000000E-03 0.  1.
</event>
<event>
 8    1  0.1116619E+005  0.1043930E+01  0.7957747E-01            NaN
         13   -1    0    0    0    0  0.00000000000E+00  0.00000000000E+00  0.74505805969E-08  0.10566000000E+00  0.10566000000E+00 0. -1.
     999900   -1    0    0    0    0 -0.00000000000E+00 -0.00000000000E+00 -0.74505805969E-08  0.93827000000E+00  0.93827000000E+00 0.  1.
     999902    2    1    2    0    0 -0.52738604103E-02 -0.19616849065E-01 -0.12950972745E-01  0.10198392950E+01  0.10195547193E+01 0.  0.
     999903    2    3    3    0    0 -0.54322029474E-01  0.11240258555E+00 -0.23476363758E-01  0.12857859363E+00  0.19902034039E-01 0.  0.
         14    1    1    2    0    0  0.52738604103E-02  0.19616849065E-01  0.12950972745E-01  0.24090704969E-01  0.00000000000E+00 0. -1.
     999901    1    3    3    0    0  0.49048169064E-01 -0.13201943462E+00  0.10525391013E-01  0.89126070140E+00  0.88000000000E+00 0. -1.
        -11    1    4    4    0    0 -0.29343013307E-01  0.65770182253E-01 -0.23229801557E-01  0.75674395306E-01  0.51100000000E-03 0.  1.
         11    1    4    4    0    0 -0.24979016167E-01  0.46632403302E-01 -0.24656220122E-03  0.52904198324E-01  0.51100000000E-03 0. -1.
</event>
<event>
 8    1  0.1116619E+005  0.1043930E+01  0.7957747E-01            NaN
         13   -1    0    0    0    0  0.00000000000E+00  0.00000000000E+00  0.74505805969E-08  0.10566000000E+00  0.10566000000E+00 0. -1.
     999900   -1    0    0    0    0 -0.00000000000E+00 -0.00000000000E+00 -0.74505805969E-08  0.93827000000E+00  0.93827000000E+00 0. -1.
     999902    2    1    2    0    0  0.23656296489E-01  0.94143241395E-02 -0.38679997315E-02  0.10181771111E+01  0.10178513734E+01 0.  0.
     999903    2    3    3    0    0 -0.22257449269E-01 -0.93034766079E-01  0.81118219028E-01  0.12698322342E+00  0.19842172875E-01 0.  0.
         14    1    1    2    0    0 -0.23656296489E-01 -0.94143241395E-02  0.38679997315E-02  0.25752888857E-01  0.00000000000E+00 0. -1.
     999901    1    3    3    0    0  0.45913745758E-01  0.10244909022E+00 -0.84986218760E-01  0.89119388772E+00  0.88000000000E+00 0. -1.
        -11    1    4    4    0    0 -0.63647504322E-02 -0.26672669440E-01  0.12269949816E-01  0.30045867147E-01  0.51100000000E-03 0. -1.
         11    1    4    4    0    0 -0.15892698837E-01 -0.66362096639E-01  0.68848269213E-01  0.96937356273E-01  0.51100000000E-03 0.  1.
</event>
<event>
 8    1  0.1116619E+005  0.1043930E+01  0.7957747E-01            NaN
         13   -1    0    0    0    0  0.00000000000E+00  0.00000000000E+00  0.74505805969E-08  0.10566000000E+00  0.10566000000E+00 0.  1.
     999900   -1    0    0    0    0 -0.00000000000E+00 -0.00000000000E+00 -0.74505805969E-08  0.93827000000E+00  0.93827000000E+00 0.  1.
     999902    2    1    2    0    0  0.62970964941E-03  0.79701256814E-02 -0.22415141631E-01  0.10201317225E+01  0.10198540941E+01 0.  0.
     999903    2    3    3    0    0  0.44054036397E-01  0.90646391870E-01 -0.85149740655E-01  0.13296958002E+00  0.16519818211E-01 0.  0.
         14    1    1    2    0    0 -0.62970964941E-03 -0.79701256814E-02  0.22415141631E-01  0.23798277500E-01  0.00000000000E+00 0.  1.
     999901    1    3    3    0    0 -0.43424326748E-01 -0.82676266189E-01  0.62734599024E-01  0.88716214249E+00  0.88000000000E+00 0. -1.
        -11    1    4    4    0    0  0.10915436826E-01  0.39302522433E-01 -0.38442189239E-01  0.56052636559E-01  0.51100000000E-03 0.  1.
         11    1    4    4    0    0  0.33138599572E-01  0.51343869438E-01 -0.46707551416E-01  0.76916943456E-01  0.51100000000E-03 0. -1.
</event>
<event>
 8    1  0.1116619E+005  0.1043930E+01  0.7957747E-01            NaN
         13   -1    0    0    0    0  0.00000000000E+00  0.00000000000E+00  0.74505805969E-08  0.10566000000E+00  0.10566000000E+00 0.  1.
     999900   -1    0    0    0    0 -0.00000000000E+00 -0.00000000000E+00 -0.74505805969E-08  0.93827000000E+00  0.93827000000E+00 0. -1.
     999902    2    1    2    0    0 -0.19792911167E-01 -0.12461298789E-01  0.10683037012E-02  0.10205166582E+01  0.10202480410E+01 0.  0.
     999903    2    3    3    0    0 -0.58387113795E-01 -0.44978975648E-02 -0.11647778720E+00  0.13182660443E+00  0.19542072214E-01 0.  0.
         14    1    1    2    0    0  0.19792911167E-01  0.12461298789E-01 -0.10683037012E-02  0.23413341769E-01  0.00000000000E+00 0.  1.
     999901    1    3    3    0    0  0.38594202628E-01 -0.79634012245E-02  0.11754609090E+00  0.88869005380E+00  0.88000000000E+00 0.  1.
        -11    1    4    4    0    0 -0.35677350053E-01  0.68626033172E-02 -0.69056672049E-01  0.78032388831E-01  0.51100000000E-03 0.  1.
         11    1    4    4    0    0 -0.22709763743E-01 -0.11360500882E-01 -0.47421115146E-01  0.53794215602E-01  0.51100000000E-03 0. -1.
</event>
<event>
 8    1  0.1116619E+005  0.1043930E+01  0.7957747E-01            NaN
         13   -1    0    0    0    0  0.00000000000E+00  0.00000000000E+00  0.74505805969E-08  0.10566000000E+00  0.10566000000E+00 0.  1.
     999900   -1    0    0    0    0 -0.00000000000E+00 -0.00000000000E+00 -0.74505805969E-08  0.93827000000E+00  0.93827000000E+00 0. -1.
     999902    2    1    2    0    0 -0.10672007763E-01 -0.17038861274E-01 -0.12953457031E-01  0.10200133407E+01  0.10197329104E+01 0.  0.
     999903    2    3    3    0    0 -0.12345534306E+00 -0.38818407210E-01 -0.20483931923E-01  0.13251622104E+00  0.19820870437E-01 0.  0.
         14    1    1    2    0    0  0.10672007763E-01  0.17038861274E-01  0.12953457031E-01  0.23916659303E-01  0.00000000000E+00 0.  1.
     999901    1    3    3    0    0  0.11278333529E+00  0.21779545936E-01  0.75304748928E-02  0.88749711965E+00  0.88000000000E+00 0.  1.
        -11    1    4    4    0    0 -0.46208285423E-01 -0.24689171543E-01 -0.83229923527E-02  0.53049921357E-01  0.51100000000E-03 0. -1.
         11    1    4    4    0    0 -0.77247057634E-01 -0.14129235666E-01 -0.12160939571E-01  0.79466299686E-01  0.51100000000E-03 0.  1.
</event>
<event>
 8    1  0.1116619E+005  0.1043930E+01  0.7957747E-01            NaN
         13   -1    0    0    0    0  0.00000000000E+00  0.00000000000E+00  0.74505805969E-08  0.10566000000E+00  0.10566000000E+00 0. -1.
     999900   -1    0    0    0    0 -0.00000000000E+00 -0.00000000000E+00 -0.74505805969E-08  0.93827000000E+00  0.93827000000E+00 0.  1.
     999902    2    1    2    0    0 -0.51114884417E-02  0.14255540179E-01  0.20712290280E-01  0.10182717322E+01  0.10179484141E+01 0.  0.
     999903    2    3    3    0    0 -0.41521048332E-01 -0.50393448961E-01 -0.10601883163E+00  0.12610250768E+00  0.19958773277E-01 0.  0.
         14    1    1    2    0    0  0.51114884417E-02 -0.14255540179E-01 -0.20712290280E-01  0.25658267840E-01  0.00000000000E+00 0.  1.
     999901    1    3    3    0    0  0.36409559890E-01  0.64648989141E-01  0.12673112191E+00  0.89216922448E+00  0.88000000000E+00 0. -1.
        -11    1    4    4    0    0 -0.15069524770E-01 -0.10341804686E-01 -0.16996320687E-01  0.24963564226E-01  0.51100000000E-03 0.  1.
         11    1    4    4    0    0 -0.26451523562E-01 -0.40051644276E-01 -0.89022510941E-01  0.10113894346E+00  0.51100000000E-03 0. -1.
</event>
<event>
 7    1  0.1116619E+005  0.1043930E+01  0.7957747E-01            NaN
         13   -1    0    0    0    0  0.00000000000E+00  0.00000000000E+00  0.74505805969E-08  0.10566000000E+00  0.10566000000E+00 0.  1.
     999900   -1    0    0    0    0 -0.00000000000E+00 -0.00000000000E+00 -0.74505805969E-08  0.93827000000E+00  0.93827000000E+00 0. -1.
     999903    2    1    2    0    0 -0.88016058920E-01  0.29997615260E-01 -0.59730097395E-01  0.11242206466E+00  0.20599818918E-01 0.  0.
         14    1    1    2    0    0 -0.86582053706E-02  0.33928327935E-01  0.25376310789E-01  0.43244110651E-01  0.00000000000E+00 0.  1.
     999901    1    1    2    0    0  0.96674264291E-01 -0.63925943195E-01  0.34353786605E-01  0.88826382468E+00  0.88000000000E+00 0. -1.
        -11    1    3    3    0    0 -0.54072813556E-01  0.77507910699E-02 -0.32946654737E-01  0.63794099315E-01  0.51100000000E-03 0.  1.
         11    1    3    3    0    0 -0.33943245364E-01  0.22246824190E-01 -0.26783442657E-01  0.48627965349E-01  0.51100000000E-03 0. -1.
</event>
<event>
 7    1  0.1116619E+005  0.1043930E+01  0.7957747E-01            NaN
         13   -1    0    0    0    0  0.00000000000E+00  0.00000000000E+00  0.74505805969E-08  0.10566000000E+00  0.10566000000E+00 0. -1.
     999900   -1    0    0    0    0 -0.00000000000E+00 -0.00000000000E+00 -0.74505805969E-08  0.93827000000E+00  0.93827000000E+00 0. -1.
     999903    2    1    2    0    0 -0.11055640221E+00  0.20493845190E-01  0.31405981822E-01  0.11863178656E+00  0.21081966885E-01 0.  0.
         14    1    1    2    0    0  0.22158780340E-01 -0.31146364890E-01 -0.13771537861E-01  0.40629580936E-01  0.00000000000E+00 0.  1.
     999901    1    1    2    0    0  0.88397621867E-01  0.10652519699E-01 -0.17634443961E-01  0.88466863251E+00  0.88000000000E+00 0. -1.
        -11    1    3    3    0    0 -0.86594932640E-01  0.71517726906E-02  0.21993957717E-01  0.89631609986E-01  0.51100000000E-03 0. -1.
         11    1    3    3    0    0 -0.23961469567E-01  0.13342072500E-01  0.94120241045E-02  0.29000176571E-01  0.51100000000E-03 0.  1.
</event>
<event>
 8    1  0.1116619E+005  0.1043930E+01  0.7957747E-01            NaN
         13   -1    0    0    0    0  0.00000000000E+00  0.00000000000E+00  0.74505805969E-08  0.10566000000E+00  0.10566000000E+00 0. -1.
     999900   -1    0    0    0    0 -0.00000000000E+00 -0.00000000000E+00 -0.74505805969E-08  0.93827000000E+00  0.93827000000E+00 0. -1.
     999902    2    1    2    0    0  0.15514471436E-01 -0.15263407556E-01 -0.79025324141E-02  0.10207757250E+01  0.10205130867E+01 0.  0.
     999903    2    3    3    0    0  0.38606044495E-01 -0.10885140093E+00  0.62382973777E-01  0.13272618488E+00  0.19635441955E-01 0.  0.
         14    1    1    2    0    0 -0.15514471436E-01  0.15263407556E-01  0.79025324141E-02  0.23154275042E-01  0.00000000000E+00 0. -1.
     999901    1    3    3    0    0 -0.23091573059E-01  0.93587993371E-01 -0.70285506191E-01  0.88804954008E+00  0.88000000000E+00 0.  1.
        -11    1    4    4    0    0  0.20525641247E-01 -0.80643346049E-01  0.39251872955E-01  0.92008814045E-01  0.51100000000E-03 0. -1.
         11    1    4    4    0    0  0.18080403248E-01 -0.28208054878E-01  0.23131100822E-01  0.40717370836E-01  0.51100000000E-03 0.  1.
</event>
<event>
 8    1  0.1116619E+005  0.1043930E+01  0.7957747E-01            NaN
         13   -1    0    0    0    0  0.00000000000E+00  0.00000000000E+00  0.74505805969E-08  0.10566000000E+00  0.10566000000E+00 0. -1.
     999900   -1    0    0    0    0 -0.00000000000E+00 -0.00000000000E+00 -0.74505805969E-08  0.93827000000E+00  0.93827000000E+00 0. -1.
     999902    2    1    2    0    0  0.20169577319E-01 -0.71633342071E-02 -0.93510523438E-02  0.10205726160E+01  0.10203052961E+01 0.  0.
     999903    2    3    3    0    0 -0.62548878421E-01  0.55074422467E-01  0.95542431049E-01  0.12831787430E+00  0.19788040129E-01 0.  0.
         14    1    1    2    0    0 -0.20169577319E-01  0.71633342071E-02  0.93510523438E-02  0.23357383974E-01  0.00000000000E+00 0. -1.
     999901    1    3    3    0    0  0.82718455739E-01 -0.62237756674E-01 -0.10489348339E+00  0.89225474173E+00  0.88000000000E+00 0. -1.
        -11    1    4    4    0    0 -0.91948750239E-02  0.13526148983E-01  0.96438477243E-02  0.18993876723E-01  0.51100000000E-03 0. -1.
         11    1    4    4    0    0 -0.53354003397E-01  0.41548273484E-01  0.85898583325E-01  0.10932399758E+00  0.51100000000E-03 0.  1.
</event>
<event>
 8    1  0.1116619E+005  0.1043930E+01  0.7957747E-01            NaN
         13   -1    0    0    0    0  0.00000000000E+00  0.00000000000E+00  0.74505805969E-08  0.10566000000E+00  0.10566000000E+00 0. -1.
     999900   -1    0    0    0    0 -0.00000000000E+00 -0.00000000000E+00 -0.74505805969E-08  0.93827000000E+00  0.93827000000E+00 0.  1.
     999902    2    1    2    0    0 -0.14247301928E-01  0.41297800229E-02 -0.16617857913E-01  0.10216545899E+01  0.10214117226E+01 0.  0.
     999903    2    3    3    0    0 -0.12043337018E+00 -0.38496138608E-01 -0.39520941629E-01  0.13395137297E+00  0.19872497394E-01 0.  0.
         14    1    1    2    0    0  0.14247301928E-01 -0.41297800229E-02  0.16617857913E-01  0.22275410140E-01  0.00000000000E+00 0. -1.
     999901    1    3    3    0    0  0.10618606825E+00  0.42625918631E-01  0.22903083716E-01  0.88770321689E+00  0.88000000000E+00 0.  1.
        -11    1    4    4    0    0 -0.56123941055E-02 -0.73031034881E-03 -0.65303000824E-02  0.86566887992E-02  0.51100000000E-03 0. -1.
         11    1    4    4    0    0 -0.11482097608E+00 -0.37765828259E-01 -0.32990641547E-01  0.12529468417E+00  0.51100000000E-03 0.  1.
</event>
<event>
 8    1  0.1116619E+005  0.1043930E+01  0.7957747E-01            NaN
         13   -1    0    0    0    0  0.00000000000E+00  0.00000000000E+00  0.74505805969E-08  0.10566000000E+00  0.10566000000E+00 0. -1.
     999900   -1    0    0    0    0 -0.00000000000E+00 -0.00000000000E+00 -0.74505805969E-08  0.93827000000E+00  0.93827000000E+00 0. -1.
     999902    2    1    2    0    0 -0.23729245627E-01  0.29817882571E-02  0.11491378838E-01  0.10173966258E+01  0.10170505760E+01 0.  0.
     999903    2    3    3    0    0 -0.78027560410E-01 -0.10202011714E-01  0.10262235864E+00  0.13092780228E+00  0.20453842937E-01 0.  0.
         14    1    1    2    0    0  0.23729245627E-01 -0.29817882571E-02 -0.11491378838E-01  0.26533374208E-01  0.00000000000E+00 0.  1.
     999901    1    3    3    0    0  0.54298314783E-01  0.13183799971E-01 -0.91130979806E-01  0.88646882351E+00  0.88000000000E+00 0. -1.
        -11    1    4    4    0    0 -0.38988567141E-01 -0.12740787763E-01  0.41470296111E-01  0.58330803364E-01  0.51100000000E-03 0.  1.
         11    1    4    4    0    0 -0.39038993269E-01  0.25387760488E-02  0.61152062533E-01  0.72596998921E-01  0.51100000000E-03 0. -1.
</event>
<event>
 8    1  0.1116619E+005  0.1043930E+01  0.7957747E-01            NaN
         13   -1    0    0    0    0  0.00000000000E+00  0.00000000000E+00  0.74505805969E-08  0.10566000000E+00  0.10566000000E+00 0. -1.
     999900   -1    0    0    0    0 -0.00000000000E+00 -0.00000000000E+00 -0.74505805969E-08  0.93827000000E+00  0.93827000000E+00 0. -1.
     999902    2    1    2    0    0 -0.80023448782E-02  0.18397608384E-01 -0.12777811686E-01  0.10201438278E+01  0.10198664851E+01 0.  0.
     999903    2    3    3    0    0  0.52126330132E-01  0.55484475891E-01 -0.10628473023E+00  0.13237446746E+00  0.20757514184E-01 0.  0.
         14    1    1    2    0    0  0.80023448782E-02 -0.18397608384E-01  0.12777811686E-01  0.23786172229E-01  0.00000000000E+00 0. -1.
     999901    1    3    3    0    0 -0.60128675010E-01 -0.37086867507E-01  0.93506918549E-01  0.88776936032E+00  0.88000000000E+00 0.  1.
        -11    1    4    4    0    0  0.12589884034E-01  0.22989406599E-01 -0.24415451502E-01  0.35824480300E-01  0.51100000000E-03 0. -1.
         11    1    4    4    0    0  0.39536446098E-01  0.32495069292E-01 -0.81869278733E-01  0.96549987155E-01  0.51100000000E-03 0.  1.
</event>
<event>
 8    1  0.1116619E+005  0.1043930E+01  0.7957747E-01            NaN
         13   -1    0    0    0    0  0.00000000000E+00  0.00000000000E+00  0.74505805969E-08  0.10566000000E+00  0.10566000000E+00 0.  1.
     999900   -1    0    0    0    0 -0.00000000000E+00 -0.00000000000E+00 -0.74505805969E-08  0.93827000000E+00  0.93827000000E+00 0.  1.
     999902    2    1    2    0    0  0.17155476941E-01  0.65180581468E-02  0.12932116263E-01  0.10214792739E+01  0.10212325259E+01 0.  0.
     999903    2    3    3    0    0  0.15923647571E-01  0.35687406226E-01  0.12620197328E+00  0.13373920565E+00  0.20786619590E-01 0.  0.
         14    1    1    2    0    0 -0.17155476941E-01 -0.65180581468E-02 -0.12932116263E-01  0.22450726093E-01  0.00000000000E+00 0. -1.
     999901    1    3    3    0    0  0.12318293697E-02 -0.29169348079E-01 -0.11326985702E+00  0.88774006825E+00  0.88000000000E+00 0.  1.
        -11    1    4    4    0    0  0.19157446856E-01  0.25738736106E-01  0.76716421264E-01  0.83157445361E-01  0.51100000000E-03 0.  1.
         11    1    4    4    0    0 -0.32337992850E-02  0.99486701194E-02  0.49485552017E-01  0.50581760294E-01  0.51100000000E-03 0. -1.
</event>
<event>
 8    1  0.1116619E+005  0.1043930E+01  0.7957747E-01            NaN
         13   -1    0    0    0    0  0.00000000000E+00  0.00000000000E+00  0.74505805969E-08  0.10566000000E+00  0.10566000000E+00 0.  1.
     999900   -1    0    0    0    0 -0.00000000000E+00 -0.00000000000E+00 -0.74505805969E-08  0.93827000000E+00  0.93827000000E+00 0.  1.
     999902    2    1    2    0    0  0.14038540685E-02 -0.25155659771E-02  0.24485547904E-01  0.10192755697E+01  0.10189773530E+01 0.  0.
     999903    2    3    3    0    0  0.20514032314E-01 -0.20751008004E-01 -0.12182402389E+00  0.12680471802E+00  0.19670126058E-01 0.  0.
         14    1    1    2    0    0 -0.14038540685E-02  0.25155659771E-02 -0.24485547904E-01  0.24654430324E-01  0.00000000000E+00 0. -1.
     999901    1    3    3    0    0 -0.19110178246E-01  0.18235442027E-01  0.14630957180E+00  0.89247085166E+00  0.88000000000E+00 0. -1.
        -11    1    4    4    0    0  0.10197179450E-02  0.12285385022E-02 -0.36955313742E-01  0.36993316509E-01  0.51100000000E-03 0.  1.
         11    1    4    4    0    0  0.19494314369E-01 -0.21979546507E-01 -0.84868710152E-01  0.89811401510E-01  0.51100000000E-03 0. -1.
</event>
<event>
 8    1  0.1116619E+005  0.1043930E+01  0.7957747E-01            NaN
         13   -1    0    0    0    0  0.00000000000E+00  0.00000000000E+00  0.74505805969E-08  0.10566000000E+00  0.10566000000E+00 0. -1.
     999900   -1    0    0    0    0 -0.00000000000E+00 -0.00000000000E+00 -0.74505805969E-08  0.93827000000E+00  0.93827000000E+00 0. -1.
     999902    2    1    2    0    0  0.19335578099E-03  0.12386198192E-01  0.19677394076E-01  0.10206780080E+01  0.10204131227E+01 0.  0.
     999903    2    3    3    0    0  0.59263496115E-02  0.13090542211E+00  0.17868167931E-02  0.13253401836E+00  0.19766692992E-01 0.  0.
         14    1    1    2    0    0 -0.19335578099E-03 -0.12386198192E-01 -0.19677394076E-01  0.23251991952E-01  0.00000000000E+00 0.  1.
     999901    1    3    3    0    0 -0.57329938305E-02 -0.11851922392E+00  0.17890577283E-01  0.88814398968E+00  0.88000000000E+00 0. -1.
        -11    1    4    4    0    0  0.50428853242E-02  0.50910014351E-01  0.99377534047E-02  0.52117946212E-01  0.51100000000E-03 0.  1.
         11    1    4    4    0    0  0.88346428733E-03  0.79995407760E-01 -0.81509366116E-02  0.80416072153E-01  0.51100000000E-03 0. -1.
</event>
<event>
 8    1  0.1116619E+005  0.1043930E+01  0.7957747E-01            NaN
         13   -1    0    0    0    0  0.00000000000E+00  0.00000000000E+00  0.74505805969E-08  0.10566000000E+00  0.10566000000E+00 0. -1.
     999900   -1    0    0    0    0 -0.00000000000E+00 -0.00000000000E+00 -0.74505805969E-08  0.93827000000E+00  0.93827000000E+00 0.  1.
     999902    2    1    2    0    0 -0.11914849149E-01  0.68162994890E-02  0.19346782627E-01  0.10202082048E+01  0.10199323789E+01 0.  0.
     999903    2    3    3    0    0  0.28508439297E-02 -0.76074660305E-01 -0.10080668215E+00  0.12806147248E+00  0.21030271424E-01 0.  0.
         14    1    1    2    0    0  0.11914849149E-01 -0.68162994890E-02 -0.19346782627E-01  0.23721795189E-01  0.00000000000E+00 0.  1.
     999901    1    3    3    0    0 -0.14765693079E-01  0.82890959794E-01  0.12015346478E+00  0.89214673233E+00  0.88000000000E+00 0. -1.
        -11    1    4    4    0    0 -0.70847570171E-02 -0.45638301752E-01 -0.50577956329E-01  0.68494081177E-01  0.51100000000E-03 0.  1.
         11    1    4    4    0    0  0.99356009468E-02 -0.30436358552E-01 -0.50228725823E-01  0.59567391305E-01  0.51100000000E-03 0. -1.
</event>
<event>
 8    1  0.1116619E+005  0.1043930E+01  0.7957747E-01            NaN
         13   -1    0    0    0    0  0.00000000000E+00  0.00000000000E+00  0.74505805969E-08  0.10566000000E+00  0.10566000000E+00 0.  1.
     999900   -1    0    0    0    0 -0.00000000000E+00 -0.00000000000E+00 -0.74505805969E-08  0.93827000000E+00  0.93827000000E+00 0.  1.
     999902    2    1    2    0    0 -0.10131401071E-01 -0.17741751950E-01 -0.28162665477E-02  0.10233060720E+01  0.10230982214E+01 0.  0.
     999903    2    3    3    0    0  0.95436151842E-01  0.14603582988E-01 -0.88069983184E-01  0.13231845976E+00  0.20749196146E-01 0.  0.
         14    1    1    2    0    0  0.10131401071E-01  0.17741751950E-01  0.28162665477E-02  0.20623928025E-01  0.00000000000E+00 0.  1.
     999901    1    3    3    0    0 -0.10556755291E+00 -0.32345334939E-01  0.85253716636E-01  0.89098761221E+00  0.88000000000E+00 0. -1.
        -11    1    4    4    0    0  0.42214441645E-01 -0.18272171134E-02 -0.46370716340E-01  0.62736769606E-01  0.51100000000E-03 0.  1.
         11    1    4    4    0    0  0.53221710197E-01  0.16430800102E-01 -0.41699266844E-01  0.69581690153E-01  0.51100000000E-03 0. -1.
</event>
<event>
 8    1  0.1116619E+005  0.1043930E+01  0.7957747E-01            NaN
         13   -1    0    0    0    0  0.00000000000E+00  0.00000000000E+00  0.74505805969E-08  0.10566000000E+00  0.10566000000E+00 0. -1.
     999900   -1    0    0    0    0 -0.00000000000E+00 -0.00000000000E+00 -0.74505805969E-08  0.93827000000E+00  0.93827000000E+00 0.  1.
     999902    2    1    2    0    0  0.60461294548E-02 -0.94317332025E-02  0.10029259877E-01  0.10288934004E+01  0.10287835196E+01 0.  0.
     999903    2    3    3    0    0  0.12524492491E+00 -0.11000478593E-01 -0.54382329244E-01  0.13852287835E+00  0.20587577506E-01 0.  0.
         14    1    1    2    0    0 -0.60461294548E-02  0.94317332025E-02 -0.10029259877E-01  0.15036599558E-01  0.00000000000E+00 0.  1.
     999901    1    3    3    0    0 -0.11919879545E+00  0.15687453909E-02  0.64411589121E-01  0.89037052209E+00  0.88000000000E+00 0.  1.
        -11    1    4    4    0    0  0.90377087126E-01 -0.74649792122E-02 -0.28870142640E-01  0.95170846634E-01  0.51100000000E-03 0. -1.
         11    1    4    4    0    0  0.34867837783E-01 -0.35354993811E-02 -0.25512186604E-01  0.43352031715E-01  0.51100000000E-03 0.  1.
</event>
<event>
 8    1  0.1116619E+005  0.1043930E+01  0.7957747E-01            NaN
         13   -1    0    0    0    0  0.00000000000E+00  0.00000000000E+00  0.74505805969E-08  0.10566000000E+00  0.10566000000E+00 0.  1.
     999900   -1    0    0    0    0 -0.00000000000E+00 -0.00000000000E+00 -0.74505805969E-08  0.93827000000E+00  0.93827000000E+00 0.  1.
     999902    2    1    2    0    0  0.14814065151E-01  0.45179707103E-02 -0.17454786719E-01  0.10205946585E+01  0.10203278486E+01 0.  0.
     999903    2    3    3    0    0 -0.75276315279E-01 -0.16224977989E-01 -0.10451049808E+00  0.13147979330E+00  0.20849898877E-01 0.  0.
         14    1    1    2    0    0 -0.14814065151E-01 -0.45179707103E-02  0.17454786719E-01  0.23335341545E-01  0.00000000000E+00 0. -1.
     999901    1    3    3    0    0  0.90090380430E-01  0.20742948700E-01  0.87055711361E-01  0.88911486516E+00  0.88000000000E+00 0. -1.
        -11    1    4    4    0    0 -0.32905383406E-01  0.33877156260E-02 -0.42913611361E-01  0.54185607271E-01  0.51100000000E-03 0.  1.
         11    1    4    4    0    0 -0.42370931873E-01 -0.19612693615E-01 -0.61596886719E-01  0.77294186024E-01  0.51100000000E-03 0. -1.
</event>
<event>
 8    1  0.1116619E+005  0.1043930E+01  0.7957747E-01            NaN
         13   -1    0    0    0    0  0.00000000000E+00  0.00000000000E+00  0.74505805969E-08  0.10566000000E+00  0.10566000000E+00 0.  1.
     999900   -1    0    0    0    0 -0.00000000000E+00 -0.00000000000E+00 -0.74505805969E-08  0.93827000000E+00  0.93827000000E+00 0.  1.
     999902    2    1    2    0    0  0.12859320306E-01  0.11789034456E-02  0.20533083035E-01  0.10196738785E+01  0.10193853339E+01 0.  0.
     999903    2    3    3    0    0 -0.10143958548E+00  0.75406937822E-01 -0.13445219122E-01  0.12853496341E+00  0.19085783369E-01 0.  0.
         14    1    1    2    0    0 -0.12859320306E-01 -0.11789034456E-02 -0.20533083035E-01  0.24256121516E-01  0.00000000000E+00 0. -1.
     999901    1    3    3    0    0  0.11429890578E+00 -0.74228034376E-01  0.33978302157E-01  0.89113891508E+00  0.88000000000E+00 0. -1.
        -11    1    4    4    0    0 -0.97072911508E-01  0.67216287643E-01 -0.15283573025E-01  0.11905892742E+00  0.51100000000E-03 0. -1.
         11    1    4    4    0    0 -0.43666739699E-02  0.81906501790E-02  0.18383539028E-02  0.94760359849E-02  0.51100000000E-03 0.  1.
</event>
<event>
 8    1  0.1116619E+005  0.1043930E+01  0.7957747E-01            NaN
         13   -1    0    0    0    0  0.00000000000E+00  0.00000000000E+00  0.74505805969E-08  0.10566000000E+00  0.10566000000E+00 0. -1.
     999900   -1    0    0    0    0 -0.00000000000E+00 -0.00000000000E+00 -0.74505805969E-08  0.93827000000E+00  0.93827000000E+00 0.  1.
     999902    2    1    2    0    0  0.20837023099E-01 -0.16676963890E-02  0.11404384171E-01  0.10201177611E+01  0.10198398030E+01 0.  0.
     999903    2    3    3    0    0 -0.24977718833E-01  0.65968460588E-01 -0.10574338058E+00  0.12860374602E+00  0.19532965034E-01 0.  0.
         14    1    1    2    0    0 -0.20837023099E-01  0.16676963890E-02 -0.11404384171E-01  0.23812238895E-01  0.00000000000E+00 0. -1.
     999901    1    3    3    0    0  0.45814741932E-01 -0.67636156977E-01  0.11714776475E+00  0.89151401509E+00  0.88000000000E+00 0. -1.
        -11    1    4    4    0    0 -0.25103601142E-01  0.41091212045E-01 -0.65680043284E-01  0.81442051205E-01  0.51100000000E-03 0.  1.
         11    1    4    4    0    0  0.12588230868E-03  0.24877248544E-01 -0.40063337296E-01  0.47161694814E-01  0.51100000000E-03 0. -1.
</event>
<event>
 8    1  0.1116619E+005  0.1043930E+01  0.7957747E-01            NaN
         13   -1    0    0    0    0  0.00000000000E+00  0.00000000000E+00  0.74505805969E-08  0.10566000000E+00  0.10566000000E+00 0.  1.
     999900   -1    0    0    0    0 -0.00000000000E+00 -0.00000000000E+00 -0.74505805969E-08  0.93827000000E+00  0.93827000000E+00 0. -1.
     999902    2    1    2    0    0 -0.67729563171E-02  0.17508786390E-01  0.12173160695E-01  0.10215555418E+01  0.10213104859E+01 0.  0.
     999903    2    3    3    0    0  0.12824757264E+00  0.98681756971E-02 -0.13944533567E-01  0.13084175157E+00  0.19501106555E-01 0.  0.
         14    1    1    2    0    0  0.67729563171E-02 -0.17508786390E-01 -0.12173160695E-01  0.22374458193E-01  0.00000000000E+00 0. -1.
     999901    1    3    3    0    0 -0.13502052896E+00  0.76406106928E-02  0.26117694262E-01  0.89071379024E+00  0.88000000000E+00 0.  1.
        -11    1    4    4    0    0  0.47463718322E-01  0.53638739401E-02  0.40963589795E-02  0.47943894069E-01  0.51100000000E-03 0.  1.
         11    1    4    4    0    0  0.80783854318E-01  0.45043017570E-02 -0.18040892546E-01  0.82897857497E-01  0.51100000000E-03 0. -1.
</event>
<event>
 8    1  0.1116619E+005  0.1043930E+01  0.7957747E-01            NaN
         13   -1    0    0    0    0  0.00000000000E+00  0.00000000000E+00  0.74505805969E-08  0.10566000000E+00  0.10566000000E+00 0. -1.
     999900   -1    0    0    0    0 -0.00000000000E+00 -0.00000000000E+00 -0.74505805969E-08  0.93827000000E+00  0.93827000000E+00 0.  1.
     999902    2    1    2    0    0  0.11121307179E-01 -0.15791935155E-01  0.13872490363E-01  0.10201494475E+01  0.10198722373E+01 0.  0.
     999903    2    3    3    0    0  0.18158683513E-01  0.12559970417E+00 -0.62650009692E-02  0.12860772726E+00  0.19891550950E-01 0.  0.
         14    1    1    2    0    0 -0.11121307179E-01  0.15791935155E-01 -0.13872490363E-01  0.23780552520E-01  0.00000000000E+00 0. -1.
     999901    1    3    3    0    0 -0.70373763346E-02 -0.14139163932E+00  0.20137491332E-01  0.89154172022E+00  0.88000000000E+00 0.  1.
        -11    1    4    4    0    0  0.11024204602E-01  0.10502946218E+00 -0.11432543960E-01  0.10622469202E+00  0.51100000000E-03 0.  1.
         11    1    4    4    0    0  0.71344789114E-02  0.20570241994E-01  0.51675429909E-02  0.22383035241E-01  0.51100000000E-03 0. -1.
</event>
<event>
 8    1  0.1116619E+005  0.1043930E+01  0.7957747E-01            NaN
         13   -1    0    0    0    0  0.00000000000E+00  0.00000000000E+00  0.74505805969E-08  0.10566000000E+00  0.10566000000E+00 0. -1.
     999900   -1    0    0    0    0 -0.00000000000E+00 -0.00000000000E+00 -0.74505805969E-08  0.93827000000E+00  0.93827000000E+00 0.  1.
     999902    2    1    2    0    0 -0.20544349334E-01  0.21498785984E-02 -0.11967496215E-01  0.10200571444E+01  0.10197777526E+01 0.  0.
     999903    2    3    3    0    0 -0.12824971538E+00 -0.17581656870E-01 -0.23885000289E-01  0.13319086010E+00  0.20302901814E-01 0.  0.
         14    1    1    2    0    0  0.20544349334E-01 -0.21498785984E-02  0.11967496215E-01  0.23872855572E-01  0.00000000000E+00 0. -1.
     999901    1    3    3    0    0  0.10770536605E+00  0.19731535468E-01  0.11917504075E-01  0.88686628432E+00  0.88000000000E+00 0. -1.
        -11    1    4    4    0    0 -0.85646654127E-01 -0.20787885809E-01 -0.19259650038E-01  0.90214637394E-01  0.51100000000E-03 0.  1.
         11    1    4    4    0    0 -0.42603061256E-01  0.32062289393E-02 -0.46253502518E-02  0.42976222709E-01  0.51100000000E-03 0. -1.
</event>
<event>
 8    1  0.1116619E+005  0.1043930E+01  0.7957747E-01            NaN
         13   -1    0    0    0    0  0.00000000000E+00  0.00000000000E+00  0.74505805969E-08  0.10566000000E+00  0.10566000000E+00 0. -1.
     999900   -1    0    0    0    0 -0.00000000000E+00 -0.00000000000E+00 -0.74505805969E-08  0.93827000000E+00  0.93827000000E+00 0. -1.
     999902    2    1    2    0    0 -0.14460627052E-01  0.11381234012E-01 -0.16418009586E-01  0.10192684254E+01  0.10189700338E+01 0.  0.
     999903    2    3    3    0    0  0.10133538822E+00 -0.57163070727E-01  0.46564511571E-01  0.12681459645E+00  0.19421909612E-01 0.  0.
         14    1    1    2    0    0  0.14460627052E-01 -0.11381234012E-01  0.16418009586E-01  0.24661574588E-01  0.00000000000E+00 0. -1.
     999901    1    3    3    0    0 -0.11579601527E+00  0.68544304739E-01 -0.62982521157E-01  0.89245382897E+00  0.88000000000E+00 0. -1.
        -11    1    4    4    0    0  0.82889511943E-01 -0.48984208649E-01  0.45786967514E-01  0.10661534318E+00  0.51100000000E-03 0. -1.
         11    1    4    4    0    0  0.18445876278E-01 -0.81788620781E-02  0.77754405648E-03  0.20199253262E-01  0.51100000000E-03 0.  1.
</event>
<event>
 8    1  0.1116619E+005  0.1043930E+01  0.7957747E-01            NaN
         13   -1    0    0    0    0  0.00000000000E+00  0.00000000000E+00  0.74505805969E-08  0.10566000000E+00  0.10566000000E+00 0.  1.
     999900   -1    0    0    0    0 -0.00000000000E+00 -0.00000000000E+00 -0.74505805969E-08  0.93827000000E+00  0.93827000000E+00 0. -1.
     999902    2    1    2    0    0  0.13742570191E-01 -0.15545389976E-01 -0.14690111693E-01  0.10185072392E+01  0.10181899035E+01 0.  0.
     999903    2    3    3    0    0  0.63991303170E-01 -0.97368561284E-01 -0.59124815351E-01  0.13216960071E+00  0.19938303655E-01 0.  0.
         14    1    1    2    0    0 -0.13742570191E-01  0.15545389976E-01  0.14690111693E-01  0.25422760796E-01  0.00000000000E+00 0.  1.
     999901    1    3    3    0    0 -0.50248732979E-01  0.81823171308E-01  0.44434703659E-01  0.88633763850E+00  0.88000000000E+00 0. -1.
        -11    1    4    4    0    0  0.34688718859E-01 -0.38058973378E-01 -0.19571276323E-01  0.55091638645E-01  0.51100000000E-03 0.  1.
         11    1    4    4    0    0  0.29302584311E-01 -0.59309587906E-01 -0.39553539028E-01  0.77077962061E-01  0.51100000000E-03 0. -1.
</event>
<event>
 8    1  0.1116619E+005  0.1043930E+01  0.7957747E-01            NaN
         13   -1    0    0    0    0  0.00000000000E+00  0.00000000000E+00  0.74505805969E-08  0.10566000000E+00  0.10566000000E+00 0.  1.
     999900   -1    0    0    0    0 -0.00000000000E+00 -0.00000000000E+00 -0.74505805969E-08  0.93827000000E+00  0.93827000000E+00 0. -1.
     999902    2    1    2    0    0  0.21594952946E-01 -0.10634540409E-01 -0.21849340921E-03  0.10198575431E+01  0.10195734034E+01 0.  0.
     999903    2    3    3    0    0  0.93971101605E-01 -0.18938193597E-01 -0.88710822917E-01  0.13242408083E+00  0.21847287419E-01 0.  0.
         14    1    1    2    0    0 -0.21594952946E-01  0.10634540409E-01  0.21849340921E-03  0.24072456913E-01  0.00000000000E+00 0. -1.
     999901    1    3    3    0    0 -0.72376148659E-01  0.83036531877E-02  0.88492329508E-01  0.88743346226E+00  0.88000000000E+00 0.  1.
        -11    1    4    4    0    0  0.33828582215E-01 -0.14737053031E-01 -0.24225856224E-01  0.44144160854E-01  0.51100000000E-03 0. -1.
         11    1    4    4    0    0  0.60142519390E-01 -0.42011405659E-02 -0.64484966693E-01  0.88279919976E-01  0.51100000000E-03 0.  1.
</event>
<event>
 8    1  0.1116619E+005  0.1043930E+01  0.7957747E-01            NaN
         13   -1    0    0    0    0  0.00000000000E+00  0.00000000000E+00  0.74505805969E-08  0.10566000000E+00  0.10566000000E+00 0. -1.
     999900   -1    0    0    0    0 -0.00000000000E+00 -0.00000000000E+00 -0.74505805969E-08  0.93827000000E+00  0.93827000000E+00 0.  1.
     999902    2    1    2    0    0  0.13839016050E-01  0.61149548598E-02  0.18511341850E-01  0.10200222436E+01  0.10197420246E+01 0.  0.
     999903    2    3    3    0    0  0.29140698333E-01  0.12056340973E+00  0.41582705683E-01  0.13217942074E+00  0.18909304349E-01 0.  0.
         14    1    1    2    0    0 -0.13839016050E-01 -0.61149548598E-02 -0.18511341850E-01  0.23907756383E-01  0.00000000000E+00 0.  1.
     999901    1    3    3    0    0 -0.15301682283E-01 -0.11444845487E+00 -0.23071363833E-01  0.88784282288E+00  0.88000000000E+00 0.  1.
        -11    1    4    4    0    0 -0.83150211667E-06  0.25573574526E-01  0.13519026919E-01  0.28931521297E-01  0.51100000000E-03 0. -1.
         11    1    4    4    0    0  0.29141529836E-01  0.94989835203E-01  0.28063678764E-01  0.10324789945E+00  0.51100000000E-03 0.  1.
</event>
<event>
 8    1  0.1116619E+005  0.1043930E+01  0.7957747E-01            NaN
         13   -1    0    0    0    0  0.00000000000E+00  0.00000000000E+00  0.74505805969E-08  0.10566000000E+00  0.10566000000E+00 0.  1.
     999900   -1    0    0    0    0 -0.00000000000E+00 -0.00000000000E+00 -0.74505805969E-08  0.93827000000E+00  0.93827000000E+00 0.  1.
     999902    2    1    2    0    0  0.15623776573E-01  0.17909295512E-01 -0.12799837280E-02  0.10201290837E+01  0.10198513930E+01 0.  0.
     999903    2    3    3    0    0 -0.12472803202E+00  0.12572598970E-01  0.21262113933E-01  0.12870592002E+00  0.19949539926E-01 0.  0.
         14    1    1    2    0    0 -0.15623776573E-01 -0.17909295512E-01  0.12799837280E-02  0.23800916337E-01  0.00000000000E+00 0.  1.
     999901    1    3    3    0    0  0.14035180860E+00  0.53366965418E-02 -0.22542097661E-01  0.89142316364E+00  0.88000000000E+00 0.  1.
        -11    1    4    4    0    0 -0.55972173306E-01  0.15615851958E-01  0.95548161958E-02  0.58892229118E-01  0.51100000000E-03 0. -1.
         11    1    4    4    0    0 -0.68755858717E-01 -0.30432529877E-02  0.11707297737E-01  0.69813690906E-01  0.51100000000E-03 0.  1.
</event>
<event>
 8    1  0.1116619E+005  0.1043930E+01  0.7957747E-01            NaN
         13   -1    0    0    0    0  0.00000000000E+00  0.00000000000E+00  0.74505805969E-08  0.10566000000E+00  0.10566000000E+00 0. -1.
     999900   -1    0    0    0    0 -0.00000000000E+00 -0.00000000000E+00 -0.74505805969E-08  0.93827000000E+00  0.93827000000E+00 0.  1.
     999902    2    1    2    0    0  0.11568210673E-01 -0.14223831217E-01  0.15211681238E-01  0.10201069834E+01  0.10198287707E+01 0.  0.
     999903    2    3    3    0    0  0.12041483262E+00  0.23823568185E-01  0.46178214560E-01  0.13204498227E+00  0.15367352631E-01 0.  0.
         14    1    1    2    0    0 -0.11568210673E-01  0.14223831217E-01 -0.15211681238E-01  0.23823016575E-01  0.00000000000E+00 0.  1.
     999901    1    3    3    0    0 -0.10884662195E+00 -0.38047399402E-01 -0.30966533322E-01  0.88806200116E+00  0.88000000000E+00 0. -1.
        -11    1    4    4    0    0  0.36227697263E-01  0.46563119567E-03  0.16016623458E-01  0.39616362899E-01  0.51100000000E-03 0. -1.
         11    1    4    4    0    0  0.84187135356E-01  0.23357936989E-01  0.30161591102E-01  0.92428619370E-01  0.51100000000E-03 0.  1.
</event>
<event>
 8    1  0.1116619E+005  0.1043930E+01  0.7957747E-01            NaN
         13   -1    0    0    0    0  0.00000000000E+00  0.00000000000E+00  0.74505805969E-08  0.10566000000E+00  0.10566000000E+00 0. -1.
     999900   -1    0    0    0    0 -0.00000000000E+00 -0.00000000000E+00 -0.74505805969E-08  0.93827000000E+00  0.93827000000E+00 0.  1.
     999902    2    1    2    0    0 -0.47443130248E-02 -0.17358929424E-01  0.15730495386E-01  0.10200283385E+01  0.10197482640E+01 0.  0.
     999903    2    3    3    0    0  0.52064714985E-01  0.58049516966E-01  0.10298591973E+00  0.13068745419E+00  0.19814894739E-01 0.  0.
         14    1    1    2    0    0  0.47443130248E-02  0.17358929424E-01 -0.15730495386E-01  0.23901661488E-01  0.00000000000E+00 0. -1.
     999901    1    3    3    0    0 -0.56809028009E-01 -0.75408446390E-01 -0.87255424344E-01  0.88934088432E+00  0.88000000000E+00 0.  1.
        -11    1    4    4    0    0  0.41650533326E-01  0.47526246463E-01  0.94291090734E-01  0.11351027241E+00  0.51100000000E-03 0.  1.
         11    1    4    4    0    0  0.10414181659E-01  0.10523270503E-01  0.86948289952E-02  0.17177181782E-01  0.51100000000E-03 0. -1.
</event>
<event>
 8    1  0.1116619E+005  0.1043930E+01  0.7957747E-01            NaN
         13   -1    0    0    0    0  0.00000000000E+00  0.00000000000E+00  0.74505805969E-08  0.10566000000E+00  0.10566000000E+00 0. -1.
     999900   -1    0    0    0    0 -0.00000000000E+00 -0.00000000000E+00 -0.74505805969E-08  0.93827000000E+00  0.93827000000E+00 0. -1.
     999902    2    1    2    0    0 -0.13411548690E-01  0.76893512610E-02  0.19034606536E-01  0.10194083360E+01  0.10191133614E+01 0.  0.
     999903    2    3    3    0    0  0.12745157127E-01  0.18151422828E-02 -0.12509277666E+00  0.12728088869E+00  0.19659300163E-01 0.  0.
         14    1    1    2    0    0  0.13411548690E-01 -0.76893512610E-02 -0.19034606536E-01  0.24521664035E-01  0.00000000000E+00 0.  1.
     999901    1    3    3    0    0 -0.26156705817E-01  0.58742089782E-02  0.14412738319E+00  0.89212744727E+00  0.88000000000E+00 0.  1.
        -11    1    4    4    0    0  0.57199566538E-02  0.99288388644E-02 -0.85116403468E-01  0.85885755545E-01  0.51100000000E-03 0. -1.
         11    1    4    4    0    0  0.70252004735E-02 -0.81136965816E-02 -0.39976373189E-01  0.41395133147E-01  0.51100000000E-03 0.  1.
</event>
<event>
 8    1  0.1116619E+005  0.1043930E+01  0.7957747E-01            NaN
         13   -1    0    0    0    0  0.00000000000E+00  0.00000000000E+00  0.74505805969E-08  0.10566000000E+00  0.10566000000E+00 0.  1.
     999900   -1    0    0    0    0 -0.00000000000E+00 -0.00000000000E+00 -0.74505805969E-08  0.93827000000E+00  0.93827000000E+00 0.  1.
     999902    2    1    2    0    0 -0.79317097938E-02 -0.21697851521E-01  0.49912196558E-02  0.10202948344E+01  0.10200210429E+01 0.  0.
     999903    2    3    3    0    0 -0.28028687547E-01 -0.12774746590E+00  0.20504906662E-01  0.13356427568E+00  0.17718413353E-01 0.  0.
         14    1    1    2    0    0  0.79317097938E-02  0.21697851521E-01 -0.49912196558E-02  0.23635165634E-01  0.00000000000E+00 0.  1.
     999901    1    3    3    0    0  0.20096977753E-01  0.10604961438E+00 -0.15513687006E-01  0.88673055869E+00  0.88000000000E+00 0.  1.
        -11    1    4    4    0    0 -0.92436203636E-02 -0.16409607393E-01  0.20909552408E-03  0.18842095800E-01  0.51100000000E-03 0.  1.
         11    1    4    4    0    0 -0.18785067184E-01 -0.11133785850E+00  0.20295811138E-01  0.11472217988E+00  0.51100000000E-03 0. -1.
</event>
<event>
 8    1  0.1116619E+005  0.1043930E+01  0.7957747E-01            NaN
         13   -1    0    0    0    0  0.00000000000E+00  0.00000000000E+00  0.74505805969E-08  0.10566000000E+00  0.10566000000E+00 0.  1.
     999900   -1    0    0    0    0 -0.00000000000E+00 -0.00000000000E+00 -0.74505805969E-08  0.93827000000E+00  0.93827000000E+00 0. -1.
     999902    2    1    2    0    0  0.14394038190E-01  0.32844990859E-02 -0.15115398140E-01  0.10228006003E+01  0.10225823275E+01 0.  0.
     999903    2    3    3    0    0  0.25164154710E-01 -0.44854903714E-01  0.11925452260E+00  0.13123530652E+00  0.18864449315E-01 0.  0.
         14    1    1    2    0    0 -0.14394038190E-01 -0.32844990859E-02  0.15115398140E-01  0.21129399674E-01  0.00000000000E+00 0.  1.
     999901    1    3    3    0    0 -0.10770116520E-01  0.48139402800E-01 -0.13436992074E+00  0.89156529380E+00  0.88000000000E+00 0. -1.
        -11    1    4    4    0    0  0.18939045198E-01 -0.32511413121E-01  0.63697318886E-01  0.73981679964E-01  0.51100000000E-03 0. -1.
         11    1    4    4    0    0  0.62251095125E-02 -0.12343490593E-01  0.55557203717E-01  0.57253626560E-01  0.51100000000E-03 0.  1.
</event>
<event>
 8    1  0.1116619E+005  0.1043930E+01  0.7957747E-01            NaN
         13   -1    0    0    0    0  0.00000000000E+00  0.00000000000E+00  0.74505805969E-08  0.10566000000E+00  0.10566000000E+00 0. -1.
     999900   -1    0    0    0    0 -0.00000000000E+00 -0.00000000000E+00 -0.74505805969E-08  0.93827000000E+00  0.93827000000E+00 0. -1.
     999902    2    1    2    0    0 -0.14728881916E-02  0.22626901454E-01 -0.65994993585E-02  0.10203143387E+01  0.10200410042E+01 0.  0.
     999903    2    3    3    0    0  0.37487443644E-01  0.10771754297E+00  0.64516805340E-01  0.13249912504E+00  0.19627085159E-01 0.  0.
         14    1    1    2    0    0  0.14728881916E-02 -0.22626901454E-01  0.65994993585E-02  0.23615661346E-01  0.00000000000E+00 0. -1.
     999901    1    3    3    0    0 -0.38960331835E-01 -0.85090641511E-01 -0.71116304698E-01  0.88781521361E+00  0.88000000000E+00 0. -1.
        -11    1    4    4    0    0  0.11007396398E-01  0.36203409216E-01  0.11259851345E-01  0.39482844219E-01  0.51100000000E-03 0. -1.
         11    1    4    4    0    0  0.26480047246E-01  0.71514133750E-01  0.53256953995E-01  0.93016280822E-01  0.51100000000E-03 0.  1.
</event>
<event>
 8    1  0.1116619E+005  0.1043930E+01  0.7957747E-01            NaN
         13   -1    0    0    0    0  0.00000000000E+00  0.00000000000E+00  0.74505805969E-08  0.10566000000E+00  0.10566000000E+00 0.  1.
     999900   -1    0    0    0    0 -0.00000000000E+00 -0.00000000000E+00 -0.74505805969E-08  0.93827000000E+00  0.93827000000E+00 0.  1.
     999902    2    1    2    0    0  0.19288282757E-01 -0.71322152787E-02  0.13124909671E-01  0.10195339019E+01  0.10192419770E+01 0.  0.
     999903    2    3    3    0    0  0.14090854773E-03 -0.55453580379E-02 -0.12662658764E+00  0.12829901649E+00  0.19889044273E-01 0.  0.
         14    1    1    2    0    0 -0.19288282757E-01  0.71322152787E-02 -0.13124909671E-01  0.24396098056E-01  0.00000000000E+00 0. -1.
     999901    1    3    3    0    0  0.19147374210E-01 -0.15868572408E-02  0.13975149731E+00  0.89123488546E+00  0.88000000000E+00 0. -1.
        -11    1    4    4    0    0 -0.56546900414E-02 -0.19028450631E-02 -0.11180323143E+00  0.11196347627E+00  0.51100000000E-03 0.  1.
         11    1    4    4    0    0  0.57955985891E-02 -0.36425129748E-02 -0.14823356209E-01  0.16335540213E-01  0.51100000000E-03 0. -1.
</event>
<event>
 8    1  0.1116619E+005  0.1043930E+01  0.7957747E-01            NaN
         13   -1    0    0    0    0  0.00000000000E+00  0.00000000000E+00  0.74505805969E-08  0.10566000000E+00  0.10566000000E+00 0.  1.
     999900   -1    0    0    0    0 -0.00000000000E+00 -0.00000000000E+00 -0.74505805969E-08  0.93827000000E+00  0.93827000000E+00 0. -1.
     999902    2    1    2    0    0  0.16178707799E-01  0.10281873460E-01 -0.13569926129E-01  0.10204436124E+01  0.10201732969E+01 0.  0.
     999903    2    3    3    0    0  0.84306262131E-02  0.12125048342E+00  0.46319333867E-01  0.13142123436E+00  0.18796408238E-01 0.  0.
         14    1    1    2    0    0 -0.16178707799E-01 -0.10281873460E-01  0.13569926129E-01  0.23486387612E-01  0.00000000000E+00 0.  1.
     999901    1    3    3    0    0  0.77480815862E-02 -0.11096860996E+00 -0.59889259996E-01  0.88902237802E+00  0.88000000000E+00 0. -1.
        -11    1    4    4    0    0 -0.22814113715E-02  0.48598835342E-01  0.26273419588E-01  0.55295617660E-01  0.51100000000E-03 0.  1.
         11    1    4    4    0    0  0.10712037585E-01  0.72651648082E-01  0.20045914279E-01  0.76125616704E-01  0.51100000000E-03 0. -1.
</event>
<event>
 8    1  0.1116619E+005  0.1043930E+01  0.7957747E-01            NaN
         13   -1    0    0    0    0  0.00000000000E+00  0.00000000000E+00  0.74505805969E-08  0.10566000000E+00  0.10566000000E+00 0.  1.
     999900   -1    0    0    0    0 -0.00000000000E+00 -0.00000000000E+00 -0.74505805969E-08  0.93827000000E+00  0.93827000000E+00 0. -1.
     999902    2    1    2    0    0  0.16765321201E-01 -0.12909808668E-01 -0.83974340078E-02  0.10211647622E+01  0.10209109733E+01 0.  0.
     999903    2    3    3    0    0 -0.98464208771E-01  0.81157490956E-01 -0.20767879665E-02  0.12865904680E+00  0.16343149249E-01 0.  0.
         14    1    1    2    0    0 -0.16765321201E-01  0.12909808668E-01  0.83974340078E-02  0.22765237814E-01  0.00000000000E+00 0. -1.
     999901    1    3    3    0    0  0.11522952997E+00 -0.94067299623E-01 -0.63206460414E-02  0.89250571539E+00  0.88000000000E+00 0.  1.
        -11    1    4    4    0    0 -0.73405040013E-01  0.69144986861E-01 -0.12322054523E-02  0.10085191401E+00  0.51100000000E-03 0.  1.
         11    1    4    4    0    0 -0.25059168758E-01  0.12012504095E-01 -0.84458251419E-03  0.27807132791E-01  0.51100000000E-03 0. -1.
</event>
<event>
 8    1  0.1116619E+005  0.1043930E+01  0.7957747E-01            NaN
         13   -1    0    0    0    0  0.00000000000E+00  0.00000000000E+00  0.74505805969E-08  0.10566000000E+00  0.10566000000E+00 0. -1.
     999900   -1    0    0    0    0 -0.00000000000E+00 -0.00000000000E+00 -0.74505805969E-08  0.93827000000E+00  0.93827000000E+00 0. -1.
     999902    2    1    2    0    0 -0.10696151950E-01 -0.15678432199E-01 -0.11468836181E-01  0.10217544480E+01  0.10215137772E+01 0.  0.
     999903    2    3    3    0    0 -0.27821905241E-01 -0.26010517635E-01  0.12397219789E+00  0.13116794624E+00  0.19629539832E-01 0.  0.
         14    1    1    2    0    0  0.10696151950E-01  0.15678432199E-01  0.11468836181E-01  0.22175551991E-01  0.00000000000E+00 0. -1.
     999901    1    3    3    0    0  0.17125753291E-01  0.10332085436E-01 -0.13544103407E+00  0.89058650176E+00  0.88000000000E+00 0. -1.
        -11    1    4    4    0    0 -0.28228186495E-01 -0.20517984498E-01  0.11788599390E+00  0.12294383628E+00  0.51100000000E-03 0. -1.
         11    1    4    4    0    0  0.40628125462E-03 -0.54925331371E-02  0.60862039900E-02  0.82241099657E-02  0.51100000000E-03 0.  1.
</event>
<event>
 8    1  0.1116619E+005  0.1043930E+01  0.7957747E-01            NaN
         13   -1    0    0    0    0  0.00000000000E+00  0.00000000000E+00  0.74505805969E-08  0.10566000000E+00  0.10566000000E+00 0. -1.
     999900   -1    0    0    0    0 -0.00000000000E+00 -0.00000000000E+00 -0.74505805969E-08  0.93827000000E+00  0.93827000000E+00 0. -1.
     999902    2    1    2    0    0  0.31144788542E-02  0.12731723457E-01  0.59606551530E-02  0.10295311747E+01  0.10294304802E+01 0.  0.
     999903    2    3    3    0    0  0.11292509304E-01  0.20885969473E-02  0.13763511750E+00  0.13963324775E+00  0.20545931602E-01 0.  0.
         14    1    1    2    0    0 -0.31144788542E-02 -0.12731723457E-01 -0.59606551530E-02  0.14398825319E-01  0.00000000000E+00 0. -1.
     999901    1    3    3    0    0 -0.81780304499E-02  0.10643126509E-01 -0.13167446234E+00  0.88989792693E+00  0.88000000000E+00 0. -1.
        -11    1    4    4    0    0  0.16991102445E-01 -0.37527755083E-03  0.10987227148E+00  0.11118010414E+00  0.51100000000E-03 0.  1.
         11    1    4    4    0    0 -0.56985931413E-02  0.24638744981E-02  0.27762846018E-01  0.28453143611E-01  0.51100000000E-03 0. -1.
</event>
<event>
 8    1  0.1116619E+005  0.1043930E+01  0.7957747E-01            NaN
         13   -1    0    0    0    0  0.00000000000E+00  0.00000000000E+00  0.74505805969E-08  0.10566000000E+00  0.10566000000E+00 0.  1.
     999900   -1    0    0    0    0 -0.00000000000E+00 -0.00000000000E+00 -0.74505805969E-08  0.93827000000E+00  0.93827000000E+00 0. -1.
     999902    2    1    2    0    0  0.85216932093E-02 -0.20934098418E-01 -0.74976735026E-02  0.10201167508E+01  0.10198387688E+01 0.  0.
     999903    2    3    3    0    0 -0.87639471987E-01  0.58737383570E-01 -0.71461959974E-01  0.12900174994E+00  0.20096827737E-01 0.  0.
         14    1    1    2    0    0 -0.85216932093E-02  0.20934098418E-01  0.74976735026E-02  0.23813249246E-01  0.00000000000E+00 0.  1.
     999901    1    3    3    0    0  0.96161165197E-01 -0.79671481987E-01  0.63964286471E-01  0.89111500082E+00  0.88000000000E+00 0.  1.
        -11    1    4    4    0    0 -0.18182705421E-01  0.22678489831E-01 -0.21395322779E-01  0.36096338253E-01  0.51100000000E-03 0. -1.
         11    1    4    4    0    0 -0.69456766566E-01  0.36058893738E-01 -0.50066637194E-01  0.92905411685E-01  0.51100000000E-03 0.  1.
</event>
<event>
 8    1  0.1116619E+005  0.1043930E+01  0.7957747E-01            NaN
         13   -1    0    0    0    0  0.00000000000E+00  0.00000000000E+00  0.74505805969E-08  0.10566000000E+00  0.10566000000E+00 0. -1.
     999900   -1    0    0    0    0 -0.00000000000E+00 -0.00000000000E+00 -0.74505805969E-08  0.93827000000E+00  0.93827000000E+00 0.  1.
     999902    2    1    2    0    0 -0.24717188776E-01  0.31145582910E-02  0.14358964716E-01  0.10151755262E+01  0.10147682146E+01 0.  0.
     999903    2    3    3    0    0 -0.57992746839E-01  0.39353125333E-01 -0.10276965037E+00  0.12605258254E+00  0.20391796606E-01 0.  0.
         14    1    1    2    0    0  0.24717188776E-01 -0.31145582910E-02 -0.14358964716E-01  0.28754473775E-01  0.00000000000E+00 0. -1.
     999901    1    3    3    0    0  0.33275558063E-01 -0.36238567042E-01  0.11712861509E+00  0.88912294368E+00  0.88000000000E+00 0. -1.
        -11    1    4    4    0    0 -0.20822824153E-01  0.16191094715E-01 -0.56414635518E-01  0.62278517769E-01  0.51100000000E-03 0. -1.
         11    1    4    4    0    0 -0.37169922686E-01  0.23162030617E-01 -0.46355014856E-01  0.63774064776E-01  0.51100000000E-03 0.  1.
</event>
<event>
 8    1  0.1116619E+005  0.1043930E+01  0.7957747E-01            NaN
         13   -1    0    0    0    0  0.00000000000E+00  0.00000000000E+00  0.74505805969E-08  0.10566000000E+00  0.10566000000E+00 0. -1.
     999900   -1    0    0    0    0 -0.00000000000E+00 -0.00000000000E+00 -0.74505805969E-08  0.93827000000E+00  0.93827000000E+00 0. -1.
     999902    2    1    2    0    0  0.52341824024E-02  0.86018532157E-02 -0.21822543016E-01  0.10198964416E+01  0.10196132305E+01 0.  0.
     999903    2    3    3    0    0  0.10246817645E-01 -0.18059736584E-01 -0.12966173961E+00  0.13289855031E+00  0.20462321427E-01 0.  0.
         14    1    1    2    0    0 -0.52341824024E-02 -0.86018532157E-02  0.21822543016E-01  0.24033558369E-01  0.00000000000E+00 0. -1.
     999901    1    3    3    0    0 -0.50126352428E-02  0.26661589800E-01  0.10783919660E+00  0.88699789132E+00  0.88000000000E+00 0.  1.
        -11    1    4    4    0    0  0.13822438381E-01 -0.41996260419E-02 -0.75730176145E-01  0.77097453665E-01  0.51100000000E-03 0. -1.
         11    1    4    4    0    0 -0.35756207354E-02 -0.13860110542E-01 -0.53931563468E-01  0.55801096647E-01  0.51100000000E-03 0.  1.
</event>
<event>
 8    1  0.1116619E+005  0.1043930E+01  0.7957747E-01            NaN
         13   -1    0    0    0    0  0.00000000000E+00  0.00000000000E+00  0.74505805969E-08  0.10566000000E+00  0.10566000000E+00 0.  1.
     999900   -1    0    0    0    0 -0.00000000000E+00 -0.00000000000E+00 -0.74505805969E-08  0.93827000000E+00  0.93827000000E+00 0. -1.
     999902    2    1    2    0    0 -0.11992349980E-01  0.19253761088E-01  0.70567298322E-02  0.10201745541E+01  0.10198979359E+01 0.  0.
     999903    2    3    3    0    0 -0.96931987821E-02  0.73319415665E-02 -0.12758838101E+00  0.12985061207E+00  0.20848765368E-01 0.  0.
         14    1    1    2    0    0  0.11992349980E-01 -0.19253761088E-01 -0.70567298322E-02  0.23755445903E-01  0.00000000000E+00 0.  1.
     999901    1    3    3    0    0 -0.22991511982E-02  0.11921819522E-01  0.13464511084E+00  0.89032394203E+00  0.88000000000E+00 0.  1.
        -11    1    4    4    0    0  0.76675288004E-03  0.11880941598E-01 -0.48511678693E-01  0.49953866456E-01  0.51100000000E-03 0.  1.
         11    1    4    4    0    0 -0.10459951662E-01 -0.45490000314E-02 -0.79076702312E-01  0.79896745613E-01  0.51100000000E-03 0. -1.
</event>
<event>
 8    1  0.1116619E+005  0.1043930E+01  0.7957747E-01            NaN
         13   -1    0    0    0    0  0.00000000000E+00  0.00000000000E+00  0.74505805969E-08  0.10566000000E+00  0.10566000000E+00 0. -1.
     999900   -1    0    0    0    0 -0.00000000000E+00 -0.00000000000E+00 -0.74505805969E-08  0.93827000000E+00  0.93827000000E+00 0.  1.
     999902    2    1    2    0    0  0.13802183926E-01 -0.97474130682E-02  0.22237152927E-01  0.10160014606E+01  0.10156175287E+01 0.  0.
     999903    2    3    3    0    0  0.60876390273E-01  0.89317248949E-01 -0.60289400138E-01  0.12536100558E+00  0.19926467272E-01 0.  0.
         14    1    1    2    0    0 -0.13802183926E-01  0.97474130682E-02 -0.22237152927E-01  0.27928539399E-01  0.00000000000E+00 0.  1.
     999901    1    3    3    0    0 -0.47074206347E-01 -0.99064662017E-01  0.82526553065E-01  0.89064045502E+00  0.88000000000E+00 0. -1.
        -11    1    4    4    0    0  0.30213224863E-01  0.28133149737E-01 -0.19182759301E-01  0.45525294575E-01  0.51100000000E-03 0. -1.
         11    1    4    4    0    0  0.30663165409E-01  0.61184099213E-01 -0.41106640837E-01  0.79835711003E-01  0.51100000000E-03 0.  1.
</event>
<event>
 8    1  0.1116619E+005  0.1043930E+01  0.7957747E-01            NaN
         13   -1    0    0    0    0  0.00000000000E+00  0.00000000000E+00  0.74505805969E-08  0.10566000000E+00  0.10566000000E+00 0.  1.
     999900   -1    0    0    0    0 -0.00000000000E+00 -0.00000000000E+00 -0.74505805969E-08  0.93827000000E+00  0.93827000000E+00 0.  1.
     999902    2    1    2    0    0 -0.12720761752E-01  0.18437102361E-01  0.13373383060E-01  0.10178418437E+01  0.10175074579E+01 0.  0.
     999903    2    3    3    0    0  0.29310281252E-01 -0.85692906186E-01 -0.82463164702E-01  0.12554463364E+00  0.27548407299E-01 0.  0.
         14    1    1    2    0    0  0.12720761752E-01 -0.18437102361E-01 -0.13373383060E-01  0.26088156268E-01  0.00000000000E+00 0. -1.
     999901    1    3    3    0    0 -0.42031043004E-01  0.10413000855E+00  0.95836547762E-01  0.89229721009E+00  0.88000000000E+00 0. -1.
        -11    1    4    4    0    0  0.31952415334E-01 -0.63587831665E-01 -0.53617927780E-01  0.89103942011E-01  0.51100000000E-03 0.  1.
         11    1    4    4    0    0 -0.26421340816E-02 -0.22105074521E-01 -0.28845236922E-01  0.36440691626E-01  0.51100000000E-03 0. -1.
</event>
<event>
 8    1  0.1116619E+005  0.1043930E+01  0.7957747E-01            NaN
         13   -1    0    0    0    0  0.00000000000E+00  0.00000000000E+00  0.74505805969E-08  0.10566000000E+00  0.10566000000E+00 0. -1.
     999900   -1    0    0    0    0 -0.00000000000E+00 -0.00000000000E+00 -0.74505805969E-08  0.93827000000E+00  0.93827000000E+00 0.  1.
     999902    2    1    2    0    0 -0.22550259619E-01  0.58054606397E-03 -0.32938903569E-02  0.10211330494E+01  0.10208785450E+01 0.  0.
     999903    2    3    3    0    0 -0.96713150660E-01  0.14770526849E-02 -0.90133551228E-01  0.13375372531E+00  0.20258005402E-01 0.  0.
         14    1    1    2    0    0  0.22550259619E-01 -0.58054606397E-03  0.32938903569E-02  0.22796950592E-01  0.00000000000E+00 0.  1.
     999901    1    3    3    0    0  0.74162891041E-01 -0.89650662097E-03  0.86839660871E-01  0.88737932410E+00  0.88000000000E+00 0. -1.
        -11    1    4    4    0    0 -0.71564124489E-01  0.77870573977E-02 -0.73850364495E-01  0.10313195254E+00  0.51100000000E-03 0.  1.
         11    1    4    4    0    0 -0.25149026171E-01 -0.63100047127E-02 -0.16283186733E-01  0.30621772777E-01  0.51100000000E-03 0. -1.
</event>
<event>
 8    1  0.1116619E+005  0.1043930E+01  0.7957747E-01            NaN
         13   -1    0    0    0    0  0.00000000000E+00  0.00000000000E+00  0.74505805969E-08  0.10566000000E+00  0.10566000000E+00 0.  1.
     999900   -1    0    0    0    0 -0.00000000000E+00 -0.00000000000E+00 -0.74505805969E-08  0.93827000000E+00  0.93827000000E+00 0. -1.
     999902    2    1    2    0    0 -0.21480724346E-01  0.30445747112E-02 -0.11377815264E-01  0.10194321300E+01  0.10191377346E+01 0.  0.
     999903    2    3    3    0    0  0.47087554270E-01 -0.46418075856E-01  0.10710522805E+00  0.12747563209E+00  0.20165102769E-01 0.  0.
         14    1    1    2    0    0  0.21480724346E-01 -0.30445747112E-02  0.11377815264E-01  0.24497869984E-01  0.00000000000E+00 0. -1.
     999901    1    3    3    0    0 -0.68568278615E-01  0.49462650567E-01 -0.11848304331E+00  0.89195649792E+00  0.88000000000E+00 0. -1.
        -11    1    4    4    0    0  0.46379932982E-01 -0.37029777141E-01  0.96444012411E-01  0.11324315092E+00  0.51100000000E-03 0.  1.
         11    1    4    4    0    0  0.70762128763E-03 -0.93882987154E-02  0.10661215634E-01  0.14232481177E-01  0.51100000000E-03 0. -1.
</event>
<event>
 8    1  0.1116619E+005  0.1043930E+01  0.7957747E-01            NaN
         13   -1    0    0    0    0  0.00000000000E+00  0.00000000000E+00  0.74505805969E-08  0.10566000000E+00  0.10566000000E+00 0.  1.
     999900   -1    0    0    0    0 -0.00000000000E+00 -0.00000000000E+00 -0.74505805969E-08  0.93827000000E+00  0.93827000000E+00 0.  1.
     999902    2    1    2    0    0 -0.22336048209E-01 -0.23034347715E-03 -0.81590326426E-02  0.10201492952E+01  0.10198720815E+01 0.  0.
     999903    2    3    3    0    0  0.53284225090E-01 -0.10945334698E+00  0.37303364978E-01  0.12901803672E+00  0.20853511699E-01 0.  0.
         14    1    1    2    0    0  0.22336048209E-01  0.23034347715E-03  0.81590326426E-02  0.23780704812E-01  0.00000000000E+00 0.  1.
     999901    1    3    3    0    0 -0.75620273299E-01  0.10922300351E+00 -0.45462397621E-01  0.89113125847E+00  0.88000000000E+00 0.  1.
        -11    1    4    4    0    0  0.72584746678E-02 -0.35749686340E-01  0.13739044432E-01  0.38983945296E-01  0.51100000000E-03 0. -1.
         11    1    4    4    0    0  0.46025750422E-01 -0.73703660642E-01  0.23564320546E-01  0.90034091420E-01  0.51100000000E-03 0.  1.
</event>
<event>
 8    1  0.1116619E+005  0.1043930E+01  0.7957747E-01            NaN
         13   -1    0    0    0    0  0.00000000000E+00  0.00000000000E+00  0.74505805969E-08  0.10566000000E+00  0.10566000000E+00 0.  1.
     999900   -1    0    0    0    0 -0.00000000000E+00 -0.00000000000E+00 -0.74505805969E-08  0.93827000000E+00  0.93827000000E+00 0. -1.
     999902    2    1    2    0    0 -0.24639133852E-02 -0.15486196569E-01 -0.18471182498E-01  0.10197003129E+01  0.10194124045E+01 0.  0.
     999903    2    3    3    0    0  0.81507550884E-01  0.94396576576E-01 -0.25995199632E-01  0.12886809444E+00  0.19417539479E-01 0.  0.
         14    1    1    2    0    0  0.24639133852E-02  0.15486196569E-01  0.18471182498E-01  0.24229687085E-01  0.00000000000E+00 0.  1.
     999901    1    3    3    0    0 -0.83971464269E-01 -0.10988277314E+00  0.75240171336E-02  0.89083221848E+00  0.88000000000E+00 0. -1.
        -11    1    4    4    0    0  0.42696252739E-01  0.56977829012E-01 -0.63428506642E-02  0.71483815458E-01  0.51100000000E-03 0. -1.
         11    1    4    4    0    0  0.38811298145E-01  0.37418747564E-01 -0.19652348968E-01  0.57384278979E-01  0.51100000000E-03 0.  1.
</event>
<event>
 8    1  0.1116619E+005  0.1043930E+01  0.7957747E-01            NaN
         13   -1    0    0    0    0  0.00000000000E+00  0.00000000000E+00  0.74505805969E-08  0.10566000000E+00  0.10566000000E+00 0.  1.
     999900   -1    0    0    0    0 -0.00000000000E+00 -0.00000000000E+00 -0.74505805969E-08  0.93827000000E+00  0.93827000000E+00 0.  1.
     999902    2    1    2    0    0 -0.96462324774E-02  0.22156484437E-01 -0.83847672268E-02  0.10183514167E+01  0.10180301292E+01 0.  0.
     999903    2    3    3    0    0 -0.80075285469E-01  0.19113148740E-01 -0.99415568669E-01  0.13085148979E+00  0.21477739399E-01 0.  0.
         14    1    1    2    0    0  0.96462324774E-02 -0.22156484437E-01  0.83847672268E-02  0.25578583328E-01  0.00000000000E+00 0.  1.
     999901    1    3    3    0    0  0.70429052992E-01  0.30433356971E-02  0.91030801442E-01  0.88749992688E+00  0.88000000000E+00 0. -1.
        -11    1    4    4    0    0 -0.27921385917E-01 -0.34096191808E-02 -0.36450346584E-01  0.46044741085E-01  0.51100000000E-03 0. -1.
         11    1    4    4    0    0 -0.52153899552E-01  0.22522767921E-01 -0.62965222085E-01  0.84806748708E-01  0.51100000000E-03 0.  1.
</event>
<event>
 8    1  0.1116619E+005  0.1043930E+01  0.7957747E-01            NaN
         13   -1    0    0    0    0  0.00000000000E+00  0.00000000000E+00  0.74505805969E-08  0.10566000000E+00  0.10566000000E+00 0.  1.
     999900   -1    0    0    0    0 -0.00000000000E+00 -0.00000000000E+00 -0.74505805969E-08  0.93827000000E+00  0.93827000000E+00 0. -1.
     999902    2    1    2    0    0 -0.24274842358E-01 -0.14483140491E-01 -0.15896749514E-01  0.10114995209E+01  0.10109794977E+01 0.  0.
     999903    2    3    3    0    0 -0.72415437050E-01  0.80890779390E-01 -0.56797407422E-01  0.12409512307E+00  0.19655542916E-01 0.  0.
         14    1    1    2    0    0  0.24274842358E-01  0.14483140491E-01  0.15896749514E-01  0.32430479107E-01  0.00000000000E+00 0.  1.
     999901    1    3    3    0    0  0.48140594692E-01 -0.95373919881E-01  0.40900657908E-01  0.88740439782E+00  0.88000000000E+00 0.  1.
        -11    1    4    4    0    0 -0.38124685142E-01  0.55606421597E-01 -0.30284493286E-01  0.73911957048E-01  0.51100000000E-03 0.  1.
         11    1    4    4    0    0 -0.34290751908E-01  0.25284357793E-01 -0.26512914136E-01  0.50183166026E-01  0.51100000000E-03 0. -1.
</event>
<event>
 8    1  0.1116619E+005  0.1043930E+01  0.7957747E-01            NaN
         13   -1    0    0    0    0  0.00000000000E+00  0.00000000000E+00  0.74505805969E-08  0.10566000000E+00  0.10566000000E+00 0.  1.
     999900   -1    0    0    0    0 -0.00000000000E+00 -0.00000000000E+00 -0.74505805969E-08  0.93827000000E+00  0.93827000000E+00 0.  1.
     999902    2    1    2    0    0 -0.18617748376E-01 -0.53001895164E-02 -0.14128318976E-01  0.10199649847E+01  0.10196834057E+01 0.  0.
     999903    2    3    3    0    0  0.18046277514E-01  0.16134860567E-02  0.12515470672E+00  0.12822970389E+00  0.21234049921E-01 0.  0.
         14    1    1    2    0    0  0.18617748376E-01  0.53001895164E-02  0.14128318976E-01  0.23965015347E-01  0.00000000000E+00 0.  1.
     999901    1    3    3    0    0 -0.36664025890E-01 -0.69136755731E-02 -0.13928302570E+00  0.89173528076E+00  0.88000000000E+00 0.  1.
        -11    1    4    4    0    0  0.15914030232E-01  0.91460367770E-02  0.10515831159E+00  0.10674941670E+00  0.51100000000E-03 0. -1.
         11    1    4    4    0    0  0.21322472820E-02 -0.75325507203E-02  0.19996395131E-01  0.21480287197E-01  0.51100000000E-03 0.  1.
</event>
<event>
 8    1  0.1116619E+005  0.1043930E+01  0.7957747E-01            NaN
         13   -1    0    0    0    0  0.00000000000E+00  0.00000000000E+00  0.74505805969E-08  0.10566000000E+00  0.10566000000E+00 0.  1.
     999900   -1    0    0    0    0 -0.00000000000E+00 -0.00000000000E+00 -0.74505805969E-08  0.93827000000E+00  0.93827000000E+00 0.  1.
     999902    2    1    2    0    0  0.74104884816E-02  0.12705395980E-01  0.16290009396E-01  0.10219821793E+01  0.10217464793E+01 0.  0.
     999903    2    3    3    0    0  0.10069363096E+00 -0.79138124516E-01 -0.99968470087E-02  0.13191028574E+00  0.29972261591E-01 0.  0.
         14    1    1    2    0    0 -0.74104884816E-02 -0.12705395980E-01 -0.16290009396E-01  0.21947820682E-01  0.00000000000E+00 0.  1.
     999901    1    3    3    0    0 -0.93283142478E-01  0.91843520496E-01  0.26286856405E-01  0.89007189358E+00  0.88000000000E+00 0.  1.
        -11    1    4    4    0    0  0.78677070438E-01 -0.55716956871E-01 -0.19551717267E-01  0.98371700527E-01  0.51100000000E-03 0.  1.
         11    1    4    4    0    0  0.22016560522E-01 -0.23421167645E-01  0.95548702580E-02  0.33538585208E-01  0.51100000000E-03 0. -1.
</event>
<event>
 8    1  0.1116619E+005  0.1043930E+01  0.7957747E-01            NaN
         13   -1    0    0    0    0  0.00000000000E+00  0.00000000000E+00  0.74505805969E-08  0.10566000000E+00  0.10566000000E+00 0. -1.
     999900   -1    0    0    0    0 -0.00000000000E+00 -0.00000000000E+00 -0.74505805969E-08  0.93827000000E+00  0.93827000000E+00 0. -1.
     999902    2    1    2    0    0 -0.10070466565E-01 -0.15582597489E-01  0.13351559739E-01  0.10210718332E+01  0.10208159446E+01 0.  0.
     999903    2    3    3    0    0  0.11627712103E+00 -0.26385455481E-01 -0.47298224760E-01  0.12991594843E+00  0.20602680726E-01 0.  0.
         14    1    1    2    0    0  0.10070466565E-01  0.15582597489E-01 -0.13351559739E-01  0.22858166786E-01  0.00000000000E+00 0.  1.
     999901    1    3    3    0    0 -0.12634758760E+00  0.10802857991E-01  0.60649784498E-01  0.89115588479E+00  0.88000000000E+00 0. -1.
        -11    1    4    4    0    0  0.42924593115E-01 -0.77688244146E-02 -0.27920501866E-01  0.51794699268E-01  0.51100000000E-03 0.  1.
         11    1    4    4    0    0  0.73352527919E-01 -0.18616631066E-01 -0.19377722894E-01  0.78121249157E-01  0.51100000000E-03 0. -1.
</event>
<event>
 8    1  0.1116619E+005  0.1043930E+01  0.7957747E-01            NaN
         13   -1    0    0    0    0  0.00000000000E+00  0.00000000000E+00  0.74505805969E-08  0.10566000000E+00  0.10566000000E+00 0.  1.
     999900   -1    0    0    0    0 -0.00000000000E+00 -0.00000000000E+00 -0.74505805969E-08  0.93827000000E+00  0.93827000000E+00 0.  1.
     999902    2    1    2    0    0 -0.11437378317E-01 -0.99753584967E-02  0.17971838543E-01  0.10204074920E+01  0.10201363347E+01 0.  0.
     999903    2    3    3    0    0 -0.10736498906E+00 -0.74848967183E-01 -0.93663645930E-02  0.13239957037E+00  0.17672257485E-01 0.  0.
         14    1    1    2    0    0  0.11437378317E-01  0.99753584967E-02 -0.17971838543E-01  0.23522507955E-01  0.00000000000E+00 0.  1.
     999901    1    3    3    0    0  0.95927610741E-01  0.64873608687E-01  0.27338203136E-01  0.88800792167E+00  0.88000000000E+00 0. -1.
        -11    1    4    4    0    0 -0.73478306287E-01 -0.45636096001E-01  0.85928902739E-03  0.86502683494E-01  0.51100000000E-03 0.  1.
         11    1    4    4    0    0 -0.33886682771E-01 -0.29212871182E-01 -0.10225653620E-01  0.45896886876E-01  0.51100000000E-03 0. -1.
</event>
<event>
 8    1  0.1116619E+005  0.1043930E+01  0.7957747E-01            NaN
         13   -1    0    0    0    0  0.00000000000E+00  0.00000000000E+00  0.74505805969E-08  0.10566000000E+00  0.10566000000E+00 0. -1.
     999900   -1    0    0    0    0 -0.00000000000E+00 -0.00000000000E+00 -0.74505805969E-08  0.93827000000E+00  0.93827000000E+00 0.  1.
     999902    2    1    2    0    0  0.16923388239E-01  0.88212277894E-02  0.14265126296E-01  0.10201033561E+01  0.10198250577E+01 0.  0.
     999903    2    3    3    0    0  0.87996908520E-01 -0.21505690158E-01  0.95257004239E-01  0.13301212547E+00  0.20307093549E-01 0.  0.
         14    1    1    2    0    0 -0.16923388239E-01 -0.88212277894E-02 -0.14265126296E-01  0.23826643856E-01  0.00000000000E+00 0.  1.
     999901    1    3    3    0    0 -0.71073520281E-01  0.30326917947E-01 -0.80991877943E-01  0.88709123067E+00  0.88000000000E+00 0.  1.
        -11    1    4    4    0    0  0.70920946487E-02 -0.73318198965E-02  0.15202924086E-01  0.18315114285E-01  0.51100000000E-03 0.  1.
         11    1    4    4    0    0  0.80904813871E-01 -0.14173870261E-01  0.80054080154E-01  0.11469701119E+00  0.51100000000E-03 0. -1.
</event>
<event>
 8    1  0.1116619E+005  0.1043930E+01  0.7957747E-01            NaN
         13   -1    0    0    0    0  0.00000000000E+00  0.00000000000E+00  0.74505805969E-08  0.10566000000E+00  0.10566000000E+00 0. -1.
     999900   -1    0    0    0    0 -0.00000000000E+00 -0.00000000000E+00 -0.74505805969E-08  0.93827000000E+00  0.93827000000E+00 0.  1.
     999902    2    1    2    0    0 -0.15712541369E-01 -0.29639628253E-02 -0.17476130656E-01  0.10202427846E+01  0.10199677717E+01 0.  0.
     999903    2    3    3    0    0  0.41298523961E-01 -0.10646230527E+00  0.57245867571E-01  0.12920656450E+00  0.19428238005E-01 0.  0.
         14    1    1    2    0    0  0.15712541369E-01  0.29639628253E-02  0.17476130656E-01  0.23687215425E-01  0.00000000000E+00 0. -1.
     999901    1    3    3    0    0 -0.57011065330E-01  0.10349834245E+00 -0.74721998226E-01  0.89103622007E+00  0.88000000000E+00 0.  1.
        -11    1    4    4    0    0  0.95704372003E-02 -0.25216247687E-01  0.47112842798E-02  0.27384479842E-01  0.51100000000E-03 0.  1.
         11    1    4    4    0    0  0.31728086761E-01 -0.81246057584E-01  0.52534583291E-01  0.10182208466E+00  0.51100000000E-03 0. -1.
</event>
<event>
 8    1  0.1116619E+005  0.1043930E+01  0.7957747E-01            NaN
         13   -1    0    0    0    0  0.00000000000E+00  0.00000000000E+00  0.74505805969E-08  0.10566000000E+00  0.10566000000E+00 0.  1.
     999900   -1    0    0    0    0 -0.00000000000E+00 -0.00000000000E+00 -0.74505805969E-08  0.93827000000E+00  0.93827000000E+00 0.  1.
     999902    2    1    2    0    0  0.91741712791E-03  0.22228096114E-01  0.45794087774E-02  0.10212165481E+01  0.10209639256E+01 0.  0.
     999903    2    3    3    0    0  0.11149447501E+00 -0.34222230171E-01 -0.54966132447E-01  0.13050919072E+00  0.20228547933E-01 0.  0.
         14    1    1    2    0    0 -0.91741712791E-03 -0.22228096114E-01 -0.45794087774E-02  0.22713451868E-01  0.00000000000E+00 0. -1.
     999901    1    3    3    0    0 -0.11057705788E+00  0.56450326284E-01  0.59545541224E-01  0.89070735741E+00  0.88000000000E+00 0. -1.
        -11    1    4    4    0    0  0.34347326448E-01 -0.14109637616E-01 -0.27401910207E-01  0.46151343553E-01  0.51100000000E-03 0. -1.
         11    1    4    4    0    0  0.77147148558E-01 -0.20112592554E-01 -0.27564222240E-01  0.84357847167E-01  0.51100000000E-03 0.  1.
</event>
<event>
 8    1  0.1116619E+005  0.1043930E+01  0.7957747E-01            NaN
         13   -1    0    0    0    0  0.00000000000E+00  0.00000000000E+00  0.74505805969E-08  0.10566000000E+00  0.10566000000E+00 0.  1.
     999900   -1    0    0    0    0 -0.00000000000E+00 -0.00000000000E+00 -0.74505805969E-08  0.93827000000E+00  0.93827000000E+00 0.  1.
     999902    2    1    2    0    0 -0.23784811792E-01  0.60416421436E-02  0.31264654861E-02  0.10191914977E+01  0.10188912186E+01 0.  0.
     999903    2    3    3    0    0 -0.10627806218E+00  0.35898041256E-01  0.67330744208E-01  0.13250173774E+00  0.20966294897E-01 0.  0.
         14    1    1    2    0    0  0.23784811792E-01 -0.60416421436E-02 -0.31264654861E-02  0.24738502343E-01  0.00000000000E+00 0. -1.
     999901    1    3    3    0    0  0.82493250393E-01 -0.29856399113E-01 -0.64204278722E-01  0.88668975991E+00  0.88000000000E+00 0.  1.
        -11    1    4    4    0    0 -0.69002097534E-01  0.15841507118E-01  0.50415344930E-01  0.86914963828E-01  0.51100000000E-03 0. -1.
         11    1    4    4    0    0 -0.37275964651E-01  0.20056534138E-01  0.16915399278E-01  0.45586773915E-01  0.51100000000E-03 0.  1.
</event>
<event>
 8    1  0.1116619E+005  0.1043930E+01  0.7957747E-01            NaN
         13   -1    0    0    0    0  0.00000000000E+00  0.00000000000E+00  0.74505805969E-08  0.10566000000E+00  0.10566000000E+00 0.  1.
     999900   -1    0    0    0    0 -0.00000000000E+00 -0.00000000000E+00 -0.74505805969E-08  0.93827000000E+00  0.93827000000E+00 0. -1.
     999902    2    1    2    0    0  0.25484109514E-01 -0.32819547734E-02  0.17876384210E-02  0.10181733171E+01  0.10178474821E+01 0.  0.
     999903    2    3    3    0    0 -0.42853907350E-01  0.57522323349E-01  0.10359683608E+00  0.12759352978E+00  0.20063133804E-01 0.  0.
         14    1    1    2    0    0 -0.25484109514E-01  0.32819547734E-02 -0.17876384210E-02  0.25756682938E-01  0.00000000000E+00 0.  1.
     999901    1    3    3    0    0  0.68338016864E-01 -0.60804278122E-01 -0.10180919766E+00  0.89057978728E+00  0.88000000000E+00 0. -1.
        -11    1    4    4    0    0 -0.23010447883E-01  0.24604010829E-01  0.64474229219E-01  0.72746308600E-01  0.51100000000E-03 0.  1.
         11    1    4    4    0    0 -0.19843459467E-01  0.32918312520E-01  0.39122606858E-01  0.54847221180E-01  0.51100000000E-03 0. -1.
</event>
<event>
 8    1  0.1116619E+005  0.1043930E+01  0.7957747E-01            NaN
         13   -1    0    0    0    0  0.00000000000E+00  0.00000000000E+00  0.74505805969E-08  0.10566000000E+00  0.10566000000E+00 0.  1.
     999900   -1    0    0    0    0 -0.00000000000E+00 -0.00000000000E+00 -0.74505805969E-08  0.93827000000E+00  0.93827000000E+00 0.  1.
     999902    2    1    2    0    0  0.18007143904E-01  0.76582094457E-02  0.13202197396E-01  0.10203248434E+01  0.10200517549E+01 0.  0.
     999903    2    3    3    0    0 -0.82548674956E-01  0.23441388252E-01  0.96303629170E-01  0.13056845570E+00  0.20247227262E-01 0.  0.
         14    1    1    2    0    0 -0.18007143904E-01 -0.76582094457E-02 -0.13202197396E-01  0.23605156631E-01  0.00000000000E+00 0. -1.
     999901    1    3    3    0    0  0.10055581886E+00 -0.15783178807E-01 -0.83101431774E-01  0.88975638767E+00  0.88000000000E+00 0. -1.
        -11    1    4    4    0    0 -0.45232613044E-01  0.20339789866E-01  0.64988225105E-01  0.81752228458E-01  0.51100000000E-03 0.  1.
         11    1    4    4    0    0 -0.37316061911E-01  0.31015983866E-02  0.31315404065E-01  0.48816227239E-01  0.51100000000E-03 0. -1.
</event>
<event>
 8    1  0.1116619E+005  0.1043930E+01  0.7957747E-01            NaN
         13   -1    0    0    0    0  0.00000000000E+00  0.00000000000E+00  0.74505805969E-08  0.10566000000E+00  0.10566000000E+00 0. -1.
     999900   -1    0    0    0    0 -0.00000000000E+00 -0.00000000000E+00 -0.74505805969E-08  0.93827000000E+00  0.93827000000E+00 0.  1.
     999902    2    1    2    0    0  0.87386147261E-03 -0.29353469432E-01  0.72998080251E-02  0.10136698447E+01  0.10132180797E+01 0.  0.
     999903    2    3    3    0    0  0.28470779688E-01 -0.92978047801E-01 -0.78742290954E-01  0.12675783121E+00  0.20290311004E-01 0.  0.
         14    1    1    2    0    0 -0.87386147261E-03  0.29353469432E-01 -0.72998080251E-02  0.30260155300E-01  0.00000000000E+00 0.  1.
     999901    1    3    3    0    0 -0.27596918216E-01  0.63624578369E-01  0.86042098979E-01  0.88691201349E+00  0.88000000000E+00 0. -1.
        -11    1    4    4    0    0 -0.42963881640E-03 -0.29340696911E-01 -0.25794520860E-01  0.39072746411E-01  0.51100000000E-03 0.  1.
         11    1    4    4    0    0  0.28900418505E-01 -0.63637350890E-01 -0.52947770094E-01  0.87685084804E-01  0.51100000000E-03 0. -1.
</event>
<event>
 8    1  0.1116619E+005  0.1043930E+01  0.7957747E-01            NaN
         13   -1    0    0    0    0  0.00000000000E+00  0.00000000000E+00  0.74505805969E-08  0.10566000000E+00  0.10566000000E+00 0. -1.
     999900   -1    0    0    0    0 -0.00000000000E+00 -0.00000000000E+00 -0.74505805969E-08  0.93827000000E+00  0.93827000000E+00 0. -1.
     999902    2    1    2    0    0 -0.12693915071E-01  0.19877754520E-01  0.20610407591E-02  0.10202549394E+01  0.10199802120E+01 0.  0.
     999903    2    3    3    0    0 -0.75170516191E-01  0.63100753385E-01  0.87217362193E-01  0.13288627173E+00  0.20483685297E-01 0.  0.
         14    1    1    2    0    0  0.12693915071E-01 -0.19877754520E-01 -0.20610407591E-02  0.23675060582E-01  0.00000000000E+00 0.  1.
     999901    1    3    3    0    0  0.62476601121E-01 -0.43222998866E-01 -0.85156321434E-01  0.88736866769E+00  0.88000000000E+00 0.  1.
        -11    1    4    4    0    0 -0.48735909774E-01  0.46274048189E-01  0.47523776109E-01  0.82311887683E-01  0.51100000000E-03 0. -1.
         11    1    4    4    0    0 -0.26434606418E-01  0.16826705196E-01  0.39693586085E-01  0.50574384044E-01  0.51100000000E-03 0.  1.
</event>
<event>
 8    1  0.1116619E+005  0.1043930E+01  0.7957747E-01            NaN
         13   -1    0    0    0    0  0.00000000000E+00  0.00000000000E+00  0.74505805969E-08  0.10566000000E+00  0.10566000000E+00 0.  1.
     999900   -1    0    0    0    0 -0.00000000000E+00 -0.00000000000E+00 -0.74505805969E-08  0.93827000000E+00  0.93827000000E+00 0.  1.
     999902    2    1    2    0    0  0.22265175450E-01  0.77902105843E-02 -0.45324081497E-02  0.10199098388E+01  0.10196269471E+01 0.  0.
     999903    2    3    3    0    0  0.97200513431E-01 -0.45352024529E-01  0.73496635621E-01  0.13169368625E+00  0.20897981043E-01 0.  0.
         14    1    1    2    0    0 -0.22265175450E-01 -0.77902105843E-02  0.45324081497E-02  0.24020161166E-01  0.00000000000E+00 0. -1.
     999901    1    3    3    0    0 -0.74935337981E-01  0.53142235113E-01 -0.78029043771E-01  0.88821615258E+00  0.88000000000E+00 0.  1.
        -11    1    4    4    0    0  0.25304988564E-01 -0.38367873971E-02  0.23679058430E-01  0.34871511479E-01  0.51100000000E-03 0. -1.
         11    1    4    4    0    0  0.71895524867E-01 -0.41515237132E-01  0.49817577192E-01  0.96822174776E-01  0.51100000000E-03 0.  1.
</event>
<event>
 8    1  0.1116619E+005  0.1043930E+01  0.7957747E-01            NaN
         13   -1    0    0    0    0  0.00000000000E+00  0.00000000000E+00  0.74505805969E-08  0.10566000000E+00  0.10566000000E+00 0.  1.
     999900   -1    0    0    0    0 -0.00000000000E+00 -0.00000000000E+00 -0.74505805969E-08  0.93827000000E+00  0.93827000000E+00 0. -1.
     999902    2    1    2    0    0 -0.31167855972E-02  0.22299918724E-01  0.59590277043E-02  0.10206381401E+01  0.10203723351E+01 0.  0.
     999903    2    3    3    0    0 -0.33654782913E-01  0.73655314491E-01  0.10385602364E+00  0.13319587842E+00  0.19932852692E-01 0.  0.
         14    1    1    2    0    0  0.31167855972E-02 -0.22299918724E-01 -0.59590277043E-02  0.23291859924E-01  0.00000000000E+00 0. -1.
     999901    1    3    3    0    0  0.30537997316E-01 -0.51355395767E-01 -0.97896995937E-01  0.88744226165E+00  0.88000000000E+00 0. -1.
        -11    1    4    4    0    0 -0.26981668808E-01  0.36849039050E-01  0.62792071097E-01  0.77646425830E-01  0.51100000000E-03 0.  1.
         11    1    4    4    0    0 -0.66731141045E-02  0.36806275442E-01  0.41063952545E-01  0.55549452592E-01  0.51100000000E-03 0. -1.
</event>
<event>
 8    1  0.1116619E+005  0.1043930E+01  0.7957747E-01            NaN
         13   -1    0    0    0    0  0.00000000000E+00  0.00000000000E+00  0.74505805969E-08  0.10566000000E+00  0.10566000000E+00 0. -1.
     999900   -1    0    0    0    0 -0.00000000000E+00 -0.00000000000E+00 -0.74505805969E-08  0.93827000000E+00  0.93827000000E+00 0.  1.
     999902    2    1    2    0    0 -0.18679944998E-02  0.22982607837E-01 -0.22363025563E-02  0.10207634138E+01  0.10205004930E+01 0.  0.
     999903    2    3    3    0    0  0.47270167476E-01 -0.88668810994E-01 -0.78561231585E-01  0.12907619675E+00  0.19803299770E-01 0.  0.
         14    1    1    2    0    0  0.18679944998E-02 -0.22982607837E-01  0.22363025563E-02  0.23166586188E-01  0.00000000000E+00 0.  1.
     999901    1    3    3    0    0 -0.49138161976E-01  0.11165141883E+00  0.76324929029E-01  0.89168721707E+00  0.88000000000E+00 0. -1.
        -11    1    4    4    0    0  0.12180114194E-01 -0.16306713114E-01 -0.25905800608E-01  0.32948986335E-01  0.51100000000E-03 0. -1.
         11    1    4    4    0    0  0.35090053282E-01 -0.72362097880E-01 -0.52655430977E-01  0.96127210410E-01  0.51100000000E-03 0.  1.
</event>
<event>
 8    1  0.1116619E+005  0.1043930E+01  0.7957747E-01            NaN
         13   -1    0    0    0    0  0.00000000000E+00  0.00000000000E+00  0.74505805969E-08  0.10566000000E+00  0.10566000000E+00 0.  1.
     999900   -1    0    0    0    0 -0.00000000000E+00 -0.00000000000E+00 -0.74505805969E-08  0.93827000000E+00  0.93827000000E+00 0. -1.
     999902    2    1    2    0    0 -0.19699884450E-01 -0.51501682772E-02 -0.14019097823E-01  0.10192086573E+01  0.10189087998E+01 0.  0.
     999903    2    3    3    0    0  0.27242291886E-01  0.47734018117E-02 -0.12611325218E+00  0.13080157460E+00  0.20965965538E-01 0.  0.
         14    1    1    2    0    0  0.19699884450E-01  0.51501682772E-02  0.14019097823E-01  0.24721342690E-01  0.00000000000E+00 0.  1.
     999901    1    3    3    0    0 -0.46942176335E-01 -0.99235700889E-02  0.11209415436E+00  0.88840708271E+00  0.88000000000E+00 0.  1.
        -11    1    4    4    0    0  0.25207898284E-01  0.88870512898E-02 -0.77735149583E-01  0.82203603438E-01  0.51100000000E-03 0. -1.
         11    1    4    4    0    0  0.20343936015E-02 -0.41136494781E-02 -0.48378102598E-01  0.48597971165E-01  0.51100000000E-03 0.  1.
</event>
<event>
 8    1  0.1116619E+005  0.1043930E+01  0.7957747E-01            NaN
         13   -1    0    0    0    0  0.00000000000E+00  0.00000000000E+00  0.74505805969E-08  0.10566000000E+00  0.10566000000E+00 0. -1.
     999900   -1    0    0    0    0 -0.00000000000E+00 -0.00000000000E+00 -0.74505805969E-08  0.93827000000E+00  0.93827000000E+00 0. -1.
     999902    2    1    2    0    0  0.13405066363E-01 -0.14732717354E-01  0.25418036256E-01  0.10116371938E+01  0.10111216478E+01 0.  0.
     999903    2    3    3    0    0  0.26411181467E-01 -0.62881166090E-01 -0.98643070977E-01  0.12153686773E+00  0.19727220057E-01 0.  0.
         14    1    1    2    0    0 -0.13405066363E-01  0.14732717354E-01 -0.25418036256E-01  0.32292806195E-01  0.00000000000E+00 0.  1.
     999901    1    3    3    0    0 -0.13006115104E-01  0.48148448737E-01  0.12406110723E+00  0.89010032607E+00  0.88000000000E+00 0.  1.
        -11    1    4    4    0    0  0.87549110739E-02 -0.30632051785E-01 -0.61545765529E-01  0.69304497978E-01  0.51100000000E-03 0. -1.
         11    1    4    4    0    0  0.17656270393E-01 -0.32249114306E-01 -0.37097305448E-01  0.52232369754E-01  0.51100000000E-03 0.  1.
</event>
<event>
 8    1  0.1116619E+005  0.1043930E+01  0.7957747E-01            NaN
         13   -1    0    0    0    0  0.00000000000E+00  0.00000000000E+00  0.74505805969E-08  0.10566000000E+00  0.10566000000E+00 0.  1.
     999900   -1    0    0    0    0 -0.00000000000E+00 -0.00000000000E+00 -0.74505805969E-08  0.93827000000E+00  0.93827000000E+00 0. -1.
     999902    2    1    2    0    0 -0.11263012033E-01 -0.18267724264E-01  0.11031535876E-01  0.10197999363E+01  0.10195144188E+01 0.  0.
     999903    2    3    3    0    0  0.11260526806E+00 -0.36325107842E-01  0.50100076201E-01  0.13008325626E+00  0.20302119811E-01 0.  0.
         14    1    1    2    0    0  0.11263012033E-01  0.18267724264E-01 -0.11031535876E-01  0.24130063689E-01  0.00000000000E+00 0. -1.
     999901    1    3    3    0    0 -0.12386828010E+00  0.18057383578E-01 -0.39068540325E-01  0.88971668005E+00  0.88000000000E+00 0. -1.
        -11    1    4    4    0    0  0.24098292914E-01 -0.14686623821E-02  0.16287438093E-01  0.29127760834E-01  0.51100000000E-03 0.  1.
         11    1    4    4    0    0  0.88506975149E-01 -0.34856445460E-01  0.33812638108E-01  0.10095549543E+00  0.51100000000E-03 0. -1.
</event>
<event>
 8    1  0.1116619E+005  0.1043930E+01  0.7957747E-01            NaN
         13   -1    0    0    0    0  0.00000000000E+00  0.00000000000E+00  0.74505805969E-08  0.10566000000E+00  0.10566000000E+00 0.  1.
     999900   -1    0    0    0    0 -0.00000000000E+00 -0.00000000000E+00 -0.74505805969E-08  0.93827000000E+00  0.93827000000E+00 0.  1.
     999902    2    1    2    0    0 -0.21683134268E-01 -0.42503942877E-04  0.89906194403E-02  0.10204567949E+01  0.10201867863E+01 0.  0.
     999903    2    3    3    0    0  0.23632618534E-01  0.12392894580E+00 -0.24225040207E-01  0.12999302933E+00  0.19860786353E-01 0.  0.
         14    1    1    2    0    0  0.21683134268E-01  0.42503942877E-04 -0.89906194403E-02  0.23473205069E-01  0.00000000000E+00 0.  1.
     999901    1    3    3    0    0 -0.45315752803E-01 -0.12397144975E+00  0.33215659648E-01  0.89046376560E+00  0.88000000000E+00 0. -1.
        -11    1    4    4    0    0  0.17462487633E-01  0.48563005720E-01 -0.15409529055E-01  0.53861105685E-01  0.51100000000E-03 0. -1.
         11    1    4    4    0    0  0.61701309011E-02  0.75365940083E-01 -0.88155111519E-02  0.76131923644E-01  0.51100000000E-03 0.  1.
</event>
<event>
 8    1  0.1116619E+005  0.1043930E+01  0.7957747E-01            NaN
         13   -1    0    0    0    0  0.00000000000E+00  0.00000000000E+00  0.74505805969E-08  0.10566000000E+00  0.10566000000E+00 0.  1.
     999900   -1    0    0    0    0 -0.00000000000E+00 -0.00000000000E+00 -0.74505805969E-08  0.93827000000E+00  0.93827000000E+00 0.  1.
     999902    2    1    2    0    0 -0.13496856134E-01  0.16305022951E-01  0.13508825827E-01  0.10188200961E+01  0.10185106190E+01 0.  0.
     999903    2    3    3    0    0 -0.90513572249E-01  0.43535922271E-02 -0.89987926040E-01  0.12933373369E+00  0.20438378372E-01 0.  0.
         14    1    1    2    0    0  0.13496856134E-01 -0.16305022951E-01 -0.13508825827E-01  0.25109903906E-01  0.00000000000E+00 0.  1.
     999901    1    3    3    0    0  0.77016716115E-01  0.11951430724E-01  0.10349675187E+00  0.88948636241E+00  0.88000000000E+00 0. -1.
        -11    1    4    4    0    0 -0.23293394816E-02  0.29433110269E-02 -0.82792146304E-02  0.91046920935E-02  0.51100000000E-03 0.  1.
         11    1    4    4    0    0 -0.88184232767E-01  0.14102812002E-02 -0.81708711410E-01  0.12022904160E+00  0.51100000000E-03 0. -1.
</event>
<event>
 8    1  0.1116619E+005  0.1043930E+01  0.7957747E-01            NaN
         13   -1    0    0    0    0  0.00000000000E+00  0.00000000000E+00  0.74505805969E-08  0.10566000000E+00  0.10566000000E+00 0. -1.
     999900   -1    0    0    0    0 -0.00000000000E+00 -0.00000000000E+00 -0.74505805969E-08  0.93827000000E+00  0.93827000000E+00 0.  1.
     999902    2    1    2    0    0 -0.59501459278E-02 -0.16970657940E-01 -0.21162617301E-01  0.10161583627E+01  0.10157787920E+01 0.  0.
     999903    2    3    3    0    0 -0.12371262700E+00 -0.25240017384E-01 -0.10098379934E-01  0.12820633606E+00  0.19824600195E-01 0.  0.
         14    1    1    2    0    0  0.59501459278E-02  0.16970657940E-01  0.21162617301E-01  0.27771637303E-01  0.00000000000E+00 0.  1.
     999901    1    3    3    0    0  0.11776248107E+00  0.82693594448E-02 -0.11064237367E-01  0.88795202663E+00  0.88000000000E+00 0. -1.
        -11    1    4    4    0    0 -0.32144763029E-01 -0.10032607353E-01 -0.10841370473E-01  0.35379873307E-01  0.51100000000E-03 0. -1.
         11    1    4    4    0    0 -0.91567863970E-01 -0.15207410032E-01  0.74299053916E-03  0.92826462756E-01  0.51100000000E-03 0.  1.
</event>
<event>
 8    1  0.1116619E+005  0.1043930E+01  0.7957747E-01            NaN
         13   -1    0    0    0    0  0.00000000000E+00  0.00000000000E+00  0.74505805969E-08  0.10566000000E+00  0.10566000000E+00 0.  1.
     999900   -1    0    0    0    0 -0.00000000000E+00 -0.00000000000E+00 -0.74505805969E-08  0.93827000000E+00  0.93827000000E+00 0.  1.
     999902    2    1    2    0    0 -0.48277207771E-03  0.14153888788E-01  0.19672818650E-01  0.10196898385E+01  0.10194016781E+01 0.  0.
     999903    2    3    3    0    0 -0.22130851681E-01  0.78095761824E-01  0.10363141526E+00  0.13311990417E+00  0.19817064556E-01 0.  0.
         14    1    1    2    0    0  0.48277207771E-03 -0.14153888788E-01 -0.19672818650E-01  0.24240161516E-01  0.00000000000E+00 0. -1.
     999901    1    3    3    0    0  0.21648079603E-01 -0.63941873037E-01 -0.83958596610E-01  0.88656993431E+00  0.88000000000E+00 0.  1.
        -11    1    4    4    0    0 -0.13991520781E-01  0.27039625198E-01  0.27112966729E-01  0.40771044510E-01  0.51100000000E-03 0.  1.
         11    1    4    4    0    0 -0.81393308994E-02  0.51056136626E-01  0.76518448531E-01  0.92348859664E-01  0.51100000000E-03 0. -1.
</event>
<event>
 8    1  0.1116619E+005  0.1043930E+01  0.7957747E-01            NaN
         13   -1    0    0    0    0  0.00000000000E+00  0.00000000000E+00  0.74505805969E-08  0.10566000000E+00  0.10566000000E+00 0. -1.
     999900   -1    0    0    0    0 -0.00000000000E+00 -0.00000000000E+00 -0.74505805969E-08  0.93827000000E+00  0.93827000000E+00 0. -1.
     999902    2    1    2    0    0 -0.20738624735E-01  0.79967452085E-02 -0.84476923906E-02  0.10201518168E+01  0.10198746626E+01 0.  0.
     999903    2    3    3    0    0 -0.85373817874E-01 -0.71159105640E-01  0.66553689853E-01  0.13106882615E+00  0.19933300313E-01 0.  0.
         14    1    1    2    0    0  0.20738624735E-01 -0.79967452085E-02  0.84476923906E-02  0.23778183206E-01  0.00000000000E+00 0. -1.
     999901    1    3    3    0    0  0.64635193138E-01  0.79155850848E-01 -0.75001382244E-01  0.88908299064E+00  0.88000000000E+00 0. -1.
        -11    1    4    4    0    0 -0.66223472849E-01 -0.45175828936E-01  0.41945090280E-01  0.90476823529E-01  0.51100000000E-03 0. -1.
         11    1    4    4    0    0 -0.19150345025E-01 -0.25983276704E-01  0.24608599573E-01  0.40592002621E-01  0.51100000000E-03 0.  1.
</event>
<event>
 8    1  0.1117012E+005  0.1043930E+01  0.7957747E-01            NaN
         13   -1    0    0    0    0  0.00000000000E+00  0.00000000000E+00  0.74505805969E-08  0.10566000000E+00  0.10566000000E+00 0.  1.
     999900   -1    0    0    0    0 -0.00000000000E+00 -0.00000000000E+00 -0.74505805969E-08  0.93827000000E+00  0.93827000000E+00 0.  1.
     999902    2    1    2    0    0  0.17498774881E-01 -0.19362087036E-03  0.16381216485E-01  0.10199594167E+01  0.10196777054E+01 0.  0.
     999903    2    3    3    0    0  0.52097751984E-01  0.26617507057E-01  0.11726100375E+00  0.13311520416E+00  0.23384762872E-01 0.  0.
         14    1    1    2    0    0 -0.17498774881E-01  0.19362087036E-03 -0.16381216485E-01  0.23970583324E-01  0.00000000000E+00 0. -1.
     999901    1    3    3    0    0 -0.34598977103E-01 -0.26811127928E-01 -0.10087978726E+00  0.88684421252E+00  0.88000000000E+00 0.  1.
        -11    1    4    4    0    0  0.33376531450E-01  0.57935207889E-02  0.76425694342E-01  0.83598478523E-01  0.51100000000E-03 0.  1.
         11    1    4    4    0    0  0.18721220534E-01  0.20823986268E-01  0.40835309406E-01  0.49516725636E-01  0.51100000000E-03 0. -1.
</event>
<event>
 8    1  0.1116619E+005  0.1043930E+01  0.7957747E-01            NaN
         13   -1    0    0    0    0  0.00000000000E+00  0.00000000000E+00  0.74505805969E-08  0.10566000000E+00  0.10566000000E+00 0.  1.
     999900   -1    0    0    0    0 -0.00000000000E+00 -0.00000000000E+00 -0.74505805969E-08  0.93827000000E+00  0.93827000000E+00 0. -1.
     999902    2    1    2    0    0 -0.14270419944E-03 -0.14860543716E-01  0.18010450917E-01  0.10205797866E+01  0.10203126326E+01 0.  0.
     999903    2    3    3    0    0 -0.10000006081E+00 -0.84004653732E-01  0.19783474117E-05  0.13205477023E+00  0.19536333489E-01 0.  0.
         14    1    1    2    0    0  0.14270419944E-03  0.14860543716E-01 -0.18010450917E-01  0.23350213409E-01  0.00000000000E+00 0. -1.
     999901    1    3    3    0    0  0.99857356607E-01  0.69144110016E-01  0.18008472569E-01  0.88852501636E+00  0.88000000000E+00 0.  1.
        -11    1    4    4    0    0 -0.54744557249E-01 -0.35801718606E-01  0.58594382081E-02  0.65675899237E-01  0.51100000000E-03 0. -1.
         11    1    4    4    0    0 -0.45255503558E-01 -0.48202935126E-01 -0.58574598607E-02  0.66378870991E-01  0.51100000000E-03 0.  1.
</event>
<event>
 8    1  0.1116619E+005  0.1043930E+01  0.7957747E-01            NaN
         13   -1    0    0    0    0  0.00000000000E+00  0.00000000000E+00  0.74505805969E-08  0.10566000000E+00  0.10566000000E+00 0.  1.
     999900   -1    0    0    0    0 -0.00000000000E+00 -0.00000000000E+00 -0.74505805969E-08  0.93827000000E+00  0.93827000000E+00 0. -1.
     999902    2    1    2    0    0 -0.10533200552E-01 -0.15184018146E-01  0.15021154219E-01  0.10201153450E+01  0.10198373298E+01 0.  0.
     999903    2    3    3    0    0  0.11051221222E+00 -0.42006957763E-01 -0.48398198531E-01  0.12916446171E+00  0.19066698698E-01 0.  0.
         14    1    1    2    0    0  0.10533200552E-01  0.15184018146E-01 -0.15021154219E-01  0.23814655047E-01  0.00000000000E+00 0. -1.
     999901    1    3    3    0    0 -0.12104541277E+00  0.26822939617E-01  0.63419352750E-01  0.89095088324E+00  0.88000000000E+00 0. -1.
        -11    1    4    4    0    0  0.36935715467E-01 -0.23388705268E-01 -0.14743392545E-01  0.46140084048E-01  0.51100000000E-03 0.  1.
         11    1    4    4    0    0  0.73576496749E-01 -0.18618252495E-01 -0.33654805986E-01  0.83024377666E-01  0.51100000000E-03 0. -1.
</event>
<event>
 8    1  0.1116619E+005  0.1043930E+01  0.7957747E-01            NaN
         13   -1    0    0    0    0  0.00000000000E+00  0.00000000000E+00  0.74505805969E-08  0.10566000000E+00  0.10566000000E+00 0. -1.
     999900   -1    0    0    0    0 -0.00000000000E+00 -0.00000000000E+00 -0.74505805969E-08  0.93827000000E+00  0.93827000000E+00 0. -1.
     999902    2    1    2    0    0 -0.16218295603E-01 -0.12982392332E-01  0.11423355759E-01  0.10202220123E+01  0.10199465112E+01 0.  0.
     999903    2    3    3    0    0 -0.10985244607E+00  0.44515468280E-01 -0.52397688038E-01  0.13109520261E+00  0.19779980079E-01 0.  0.
         14    1    1    2    0    0  0.16218295603E-01  0.12982392332E-01 -0.11423355759E-01  0.23707987678E-01  0.00000000000E+00 0.  1.
     999901    1    3    3    0    0  0.93634150472E-01 -0.57497860613E-01  0.63821043798E-01  0.88912680971E+00  0.88000000000E+00 0.  1.
        -11    1    4    4    0    0 -0.50646436573E-01  0.16072368111E-01 -0.13769134625E-01  0.54892920705E-01  0.51100000000E-03 0. -1.
         11    1    4    4    0    0 -0.59206009502E-01  0.28443100170E-01 -0.38628553413E-01  0.76202281909E-01  0.51100000000E-03 0.  1.
</event>
<event>
 8    1  0.1116619E+005  0.1043930E+01  0.7957747E-01            NaN
         13   -1    0    0    0    0  0.00000000000E+00  0.00000000000E+00  0.74505805969E-08  0.10566000000E+00  0.10566000000E+00 0. -1.
     999900   -1    0    0    0    0 -0.00000000000E+00 -0.00000000000E+00 -0.74505805969E-08  0.93827000000E+00  0.93827000000E+00 0. -1.
     999902    2    1    2    0    0 -0.18661069620E-01  0.14115114532E-01  0.10440161356E-02  0.10205086007E+01  0.10202397964E+01 0.  0.
     999903    2    3    3    0    0  0.43854235423E-01 -0.82761259750E-01  0.86147999914E-01  0.12891683123E+00  0.20626473380E-01 0.  0.
         14    1    1    2    0    0  0.18661069620E-01 -0.14115114532E-01 -0.10440161356E-02  0.23421399346E-01  0.00000000000E+00 0.  1.
     999901    1    3    3    0    0 -0.62515305043E-01  0.96876374282E-01 -0.85103983778E-01  0.89159176943E+00  0.88000000000E+00 0. -1.
        -11    1    4    4    0    0  0.24488682705E-01 -0.64965057087E-01  0.58964025232E-01  0.91088811692E-01  0.51100000000E-03 0. -1.
         11    1    4    4    0    0  0.19365552718E-01 -0.17796202663E-01  0.27183974682E-01  0.37828019533E-01  0.51100000000E-03 0.  1.
</event>
<event>
 8    1  0.1166425E+005  0.1043930E+01  0.7957747E-01            NaN
         13   -1    0    0    0    0  0.00000000000E+00  0.00000000000E+00  0.74505805969E-08  0.10566000000E+00  0.10566000000E+00 0. -1.
     999900   -1    0    0    0    0 -0.00000000000E+00 -0.00000000000E+00 -0.74505805969E-08  0.93827000000E+00  0.93827000000E+00 0.  1.
     999902    2    1    2    0    0  0.69551395618E-02 -0.22334889323E-01  0.41429362436E-02  0.10201732080E+01  0.10198965580E+01 0.  0.
     999903    2    3    3    0    0  0.65093338999E-01  0.39461498484E-01 -0.10315222395E+00  0.12960535811E+00  0.19047700678E-01 0.  0.
         14    1    1    2    0    0 -0.69551395618E-02  0.22334889323E-01 -0.41429362436E-02  0.23756792042E-01  0.00000000000E+00 0.  1.
     999901    1    3    3    0    0 -0.58138199437E-01 -0.61796387807E-01  0.10729516019E+00  0.89056784985E+00  0.88000000000E+00 0. -1.
        -11    1    4    4    0    0  0.24499944735E-01  0.25572843052E-01 -0.42779249572E-01  0.55538661388E-01  0.51100000000E-03 0. -1.
         11    1    4    4    0    0  0.40593394264E-01  0.13888655432E-01 -0.60372974376E-01  0.74066696724E-01  0.51100000000E-03 0.  1.
</event>
<event>
 8    1  0.1116619E+005  0.1043930E+01  0.7957747E-01            NaN
         13   -1    0    0    0    0  0.00000000000E+00  0.00000000000E+00  0.74505805969E-08  0.10566000000E+00  0.10566000000E+00 0.  1.
     999900   -1    0    0    0    0 -0.00000000000E+00 -0.00000000000E+00 -0.74505805969E-08  0.93827000000E+00  0.93827000000E+00 0. -1.
     999902    2    1    2    0    0 -0.21196887639E-01  0.67025920016E-02  0.85504977372E-02  0.10201110202E+01  0.10198329029E+01 0.  0.
     999903    2    3    3    0    0 -0.98821913328E-01 -0.82879897658E-01  0.20825192194E-01  0.13207873750E+00  0.19397326635E-01 0.  0.
         14    1    1    2    0    0  0.21196887639E-01 -0.67025920016E-02 -0.85504977372E-02  0.23818979757E-01  0.00000000000E+00 0. -1.
     999901    1    3    3    0    0  0.77625025689E-01  0.89582489659E-01 -0.12274694457E-01  0.88803228274E+00  0.88000000000E+00 0. -1.
        -11    1    4    4    0    0 -0.86310790307E-01 -0.67494045232E-01  0.11535361702E-01  0.11017406390E+00  0.51100000000E-03 0.  1.
         11    1    4    4    0    0 -0.12511123021E-01 -0.15385852425E-01  0.92898304926E-02  0.21904673603E-01  0.51100000000E-03 0. -1.
</event>
<event>
 8    1  0.1116619E+005  0.1043930E+01  0.7957747E-01            NaN
         13   -1    0    0    0    0  0.00000000000E+00  0.00000000000E+00  0.74505805969E-08  0.10566000000E+00  0.10566000000E+00 0. -1.
     999900   -1    0    0    0    0 -0.00000000000E+00 -0.00000000000E+00 -0.74505805969E-08  0.93827000000E+00  0.93827000000E+00 0.  1.
     999902    2    1    2    0    0 -0.14290029011E-01 -0.16145001223E-01 -0.10721359731E-01  0.10198506821E+01  0.10195663786E+01 0.  0.
     999903    2    3    3    0    0  0.48935492696E-01  0.92775709842E-01 -0.71946438457E-01  0.12877846389E+00  0.20139214795E-01 0.  0.
         14    1    1    2    0    0  0.14290029011E-01  0.16145001223E-01  0.10721359731E-01  0.24079317850E-01  0.00000000000E+00 0.  1.
     999901    1    3    3    0    0 -0.63225521708E-01 -0.10892071107E+00  0.61225078725E-01  0.89107221826E+00  0.88000000000E+00 0. -1.
        -11    1    4    4    0    0  0.98543121813E-02  0.22119323304E-01 -0.27359603495E-01  0.36540128029E-01  0.51100000000E-03 0.  1.
         11    1    4    4    0    0  0.39081180515E-01  0.70656386538E-01 -0.44586834962E-01  0.92238335859E-01  0.51100000000E-03 0. -1.
</event>
<event>
 8    1  0.1116619E+005  0.1043930E+01  0.7957747E-01            NaN
         13   -1    0    0    0    0  0.00000000000E+00  0.00000000000E+00  0.74505805969E-08  0.10566000000E+00  0.10566000000E+00 0.  1.
     999900   -1    0    0    0    0 -0.00000000000E+00 -0.00000000000E+00 -0.74505805969E-08  0.93827000000E+00  0.93827000000E+00 0.  1.
     999902    2    1    2    0    0  0.93881994344E-02  0.19001240396E-01  0.11845738694E-01  0.10196502358E+01  0.10193611217E+01 0.  0.
     999903    2    3    3    0    0 -0.44545716146E-01 -0.25832816413E-01  0.11810272011E+00  0.13048798625E+00  0.20668982218E-01 0.  0.
         14    1    1    2    0    0 -0.93881994344E-02 -0.19001240396E-01 -0.11845738694E-01  0.24279764217E-01  0.00000000000E+00 0. -1.
     999901    1    3    3    0    0  0.53933915581E-01  0.44834056809E-01 -0.10625698142E+00  0.88916224954E+00  0.88000000000E+00 0.  1.
        -11    1    4    4    0    0 -0.42287764468E-01 -0.15818064143E-01  0.93839858499E-01  0.10413763172E+00  0.51100000000E-03 0. -1.
         11    1    4    4    0    0 -0.22579516786E-02 -0.10014752269E-01  0.24262861614E-01  0.26350354523E-01  0.51100000000E-03 0.  1.
</event>
<event>
 8    1  0.1116619E+005  0.1043930E+01  0.7957747E-01            NaN
         13   -1    0    0    0    0  0.00000000000E+00  0.00000000000E+00  0.74505805969E-08  0.10566000000E+00  0.10566000000E+00 0. -1.
     999900   -1    0    0    0    0 -0.00000000000E+00 -0.00000000000E+00 -0.74505805969E-08  0.93827000000E+00  0.93827000000E+00 0. -1.
     999902    2    1    2    0    0  0.43478598660E-02  0.99897771136E-02 -0.21018443689E-01  0.10202556572E+01  0.10199809467E+01 0.  0.
     999903    2    3    3    0    0 -0.52528317951E-01 -0.43966218542E-01 -0.11115814705E+00  0.13218397361E+00  0.20596520671E-01 0.  0.
         14    1    1    2    0    0 -0.43478598660E-02 -0.99897771136E-02  0.21018443689E-01  0.23674342806E-01  0.00000000000E+00 0. -1.
     999901    1    3    3    0    0  0.56876177818E-01  0.53955995655E-01  0.90139703358E-01  0.88807168359E+00  0.88000000000E+00 0.  1.
        -11    1    4    4    0    0 -0.71839630423E-02 -0.15824611977E-01 -0.36298936475E-01  0.40248000937E-01  0.51100000000E-03 0.  1.
         11    1    4    4    0    0 -0.45344354909E-01 -0.28141606565E-01 -0.74859210572E-01  0.91935972669E-01  0.51100000000E-03 0. -1.
</event>
<event>
 8    1  0.1116619E+005  0.1043930E+01  0.7957747E-01            NaN
         13   -1    0    0    0    0  0.00000000000E+00  0.00000000000E+00  0.74505805969E-08  0.10566000000E+00  0.10566000000E+00 0.  1.
     999900   -1    0    0    0    0 -0.00000000000E+00 -0.00000000000E+00 -0.74505805969E-08  0.93827000000E+00  0.93827000000E+00 0.  1.
     999902    2    1    2    0    0 -0.43653723880E-02  0.73785694491E-02 -0.22197192336E-01  0.10201347250E+01  0.10198571675E+01 0.  0.
     999903    2    3    3    0    0  0.11373000304E+00  0.59354281754E-01 -0.14985675647E-01  0.13069670114E+00  0.19990319203E-01 0.  0.
         14    1    1    2    0    0  0.43653723880E-02 -0.73785694491E-02  0.22197192336E-01  0.23795274968E-01  0.00000000000E+00 0.  1.
     999901    1    3    3    0    0 -0.11809537542E+00 -0.51975712305E-01 -0.72115166894E-02  0.88943802389E+00  0.88000000000E+00 0. -1.
        -11    1    4    4    0    0  0.77399313103E-02  0.10681222254E-01 -0.13496156458E-02  0.13269424588E-01  0.51100000000E-03 0.  1.
         11    1    4    4    0    0  0.10599007173E+00  0.48673059501E-01 -0.13636060001E-01  0.11742727655E+00  0.51100000000E-03 0. -1.
</event>
<event>
 8    1  0.1737576E+005  0.1043930E+01  0.7957747E-01            NaN
         13   -1    0    0    0    0  0.00000000000E+00  0.00000000000E+00  0.74505805969E-08  0.10566000000E+00  0.10566000000E+00 0. -1.
     999900   -1    0    0    0    0 -0.00000000000E+00 -0.00000000000E+00 -0.74505805969E-08  0.93827000000E+00  0.93827000000E+00 0. -1.
     999902    2    1    2    0    0  0.92790826919E-02  0.21958639770E-01 -0.10592702596E-01  0.10178438239E+01  0.10175094895E+01 0.  0.
     999903    2    3    3    0    0 -0.21259150519E-01 -0.27853495378E-01 -0.12264392483E+00  0.12881665394E+00  0.18011922387E-01 0.  0.
         14    1    1    2    0    0 -0.92790826919E-02 -0.21958639770E-01  0.10592702596E-01  0.26086176118E-01  0.00000000000E+00 0. -1.
     999901    1    3    3    0    0  0.30538233210E-01  0.49812135148E-01  0.11205122223E+00  0.88902716994E+00  0.88000000000E+00 0.  1.
        -11    1    4    4    0    0 -0.13023180588E-01 -0.22464358262E-01 -0.59682307645E-01  0.65088321469E-01  0.51100000000E-03 0.  1.
         11    1    4    4    0    0 -0.82359699305E-02 -0.53891371155E-02 -0.62961617186E-01  0.63728332469E-01  0.51100000000E-03 0. -1.
</event>
<event>
 8    1  0.1116619E+005  0.1043930E+01  0.7957747E-01            NaN
         13   -1    0    0    0    0  0.00000000000E+00  0.00000000000E+00  0.74505805969E-08  0.10566000000E+00  0.10566000000E+00 0. -1.
     999900   -1    0    0    0    0 -0.00000000000E+00 -0.00000000000E+00 -0.74505805969E-08  0.93827000000E+00  0.93827000000E+00 0. -1.
     999902    2    1    2    0    0 -0.89329526130E-02  0.11782296062E-02 -0.23222656221E-01  0.10190206116E+01  0.10187161181E+01 0.  0.
     999903    2    3    3    0    0 -0.24450522589E-02  0.11985209314E+00  0.44093049312E-01  0.12848314304E+00  0.13900307118E-01 0.  0.
         14    1    1    2    0    0  0.89329526130E-02 -0.11782296062E-02  0.23222656221E-01  0.24909388378E-01  0.00000000000E+00 0.  1.
     999901    1    3    3    0    0 -0.64879003541E-02 -0.11867386353E+00 -0.67315705533E-01  0.89053746858E+00  0.88000000000E+00 0. -1.
        -11    1    4    4    0    0 -0.63607549560E-02  0.10488749813E+00  0.36465304010E-01  0.11122871025E+00  0.51100000000E-03 0. -1.
         11    1    4    4    0    0  0.39157026971E-02  0.14964595012E-01  0.76277453019E-02  0.17254432789E-01  0.51100000000E-03 0.  1.
</event>
<event>
 8    1  0.1143740E+005  0.1043930E+01  0.7957747E-01            NaN
         13   -1    0    0    0    0  0.00000000000E+00  0.00000000000E+00  0.74505805969E-08  0.10566000000E+00  0.10566000000E+00 0.  1.
     999900   -1    0    0    0    0 -0.00000000000E+00 -0.00000000000E+00 -0.74505805969E-08  0.93827000000E+00  0.93827000000E+00 0.  1.
     999902    2    1    2    0    0  0.18708905492E-01  0.72060119172E-02 -0.10889135452E-01  0.10211150263E+01  0.10208601148E+01 0.  0.
     999903    2    3    3    0    0 -0.12356312466E+00 -0.67474367203E-02  0.28844401922E-01  0.12869428292E+00  0.20416788569E-01 0.  0.
         14    1    1    2    0    0 -0.18708905492E-01 -0.72060119172E-02  0.10889135452E-01  0.22814973666E-01  0.00000000000E+00 0.  1.
     999901    1    3    3    0    0  0.14227203015E+00  0.13953448637E-01 -0.39733537374E-01  0.89242074342E+00  0.88000000000E+00 0.  1.
        -11    1    4    4    0    0 -0.57234474370E-01 -0.34341268164E-03  0.23389672777E-01  0.61832361286E-01  0.51100000000E-03 0. -1.
         11    1    4    4    0    0 -0.66328650288E-01 -0.64040240387E-02  0.54547291453E-02  0.66861921629E-01  0.51100000000E-03 0.  1.
</event>
<event>
 8    1  0.1116619E+005  0.1043930E+01  0.7957747E-01            NaN
         13   -1    0    0    0    0  0.00000000000E+00  0.00000000000E+00  0.74505805969E-08  0.10566000000E+00  0.10566000000E+00 0.  1.
     999900   -1    0    0    0    0 -0.00000000000E+00 -0.00000000000E+00 -0.74505805969E-08  0.93827000000E+00  0.93827000000E+00 0. -1.
     999902    2    1    2    0    0  0.16293225531E-01 -0.16523448914E-01  0.23743593441E-02  0.10206033812E+01  0.10203367731E+01 0.  0.
     999903    2    3    3    0    0  0.12910018724E+00  0.54043349345E-02 -0.19609729798E-01  0.13285930857E+00  0.23895380082E-01 0.  0.
         14    1    1    2    0    0 -0.16293225531E-01  0.16523448914E-01 -0.23743593441E-02  0.23326618797E-01  0.00000000000E+00 0. -1.
     999901    1    3    3    0    0 -0.11280696171E+00 -0.21927783848E-01  0.21984089142E-01  0.88774407263E+00  0.88000000000E+00 0. -1.
        -11    1    4    4    0    0  0.65987851787E-01  0.69036884850E-02  0.12753334487E-02  0.66362226414E-01  0.51100000000E-03 0.  1.
         11    1    4    4    0    0  0.63112335456E-01 -0.14993535505E-02 -0.20885063247E-01  0.66497082159E-01  0.51100000000E-03 0. -1.
</event>
<event>
 8    1  0.1116619E+005  0.1043930E+01  0.7957747E-01            NaN
         13   -1    0    0    0    0  0.00000000000E+00  0.00000000000E+00  0.74505805969E-08  0.10566000000E+00  0.10566000000E+00 0. -1.
     999900   -1    0    0    0    0 -0.00000000000E+00 -0.00000000000E+00 -0.74505805969E-08  0.93827000000E+00  0.93827000000E+00 0.  1.
     999902    2    1    2    0    0  0.40592755558E-02 -0.14159468476E-01 -0.17766658328E-01  0.10208513862E+01  0.10205904812E+01 0.  0.
     999903    2    3    3    0    0  0.11722582665E+00  0.54441805255E-01  0.10034066759E-02  0.13075862792E+00  0.19773906006E-01 0.  0.
         14    1    1    2    0    0 -0.40592755558E-02  0.14159468476E-01  0.17766658328E-01  0.23078613774E-01  0.00000000000E+00 0. -1.
     999901    1    3    3    0    0 -0.11316655109E+00 -0.68601273731E-01 -0.18770065004E-01  0.89009275830E+00  0.88000000000E+00 0.  1.
        -11    1    4    4    0    0  0.10315081176E+00  0.51283972331E-01 -0.45654652189E-02  0.11528764192E+00  0.51100000000E-03 0.  1.
         11    1    4    4    0    0  0.14075014886E-01  0.31578329237E-02  0.55688718948E-02  0.15470986006E-01  0.51100000000E-03 0. -1.
</event>
<event>
 8    1  0.1116619E+005  0.1043930E+01  0.7957747E-01            NaN
         13   -1    0    0    0    0  0.00000000000E+00  0.00000000000E+00  0.74505805969E-08  0.10566000000E+00  0.10566000000E+00 0.  1.
     999900   -1    0    0    0    0 -0.00000000000E+00 -0.00000000000E+00 -0.74505805969E-08  0.93827000000E+00  0.93827000000E+00 0. -1.
     999902    2    1    2    0    0 -0.10156399709E-04 -0.20225269988E-01  0.11805246264E-01  0.10205115140E+01  0.10202427773E+01 0.  0.
     999903    2    3    3    0    0  0.29481748621E-01  0.18520837688E-01  0.12543593353E+00  0.13187043545E+00  0.21058095685E-01 0.  0.
         14    1    1    2    0    0  0.10156399709E-04  0.20225269988E-01 -0.11805246264E-01  0.23418486044E-01  0.00000000000E+00 0.  1.
     999901    1    3    3    0    0 -0.29491905020E-01 -0.38746107676E-01 -0.11363068727E+00  0.88864107851E+00  0.88000000000E+00 0. -1.
        -11    1    4    4    0    0  0.51163323231E-02  0.14779503319E-01  0.40141818110E-01  0.43084071964E-01  0.51100000000E-03 0.  1.
         11    1    4    4    0    0  0.24365416297E-01  0.37413343696E-02  0.85294115422E-01  0.88786363485E-01  0.51100000000E-03 0. -1.
</event>
<event>
 8    1  0.1116619E+005  0.1043930E+01  0.7957747E-01            NaN
         13   -1    0    0    0    0  0.00000000000E+00  0.00000000000E+00  0.74505805969E-08  0.10566000000E+00  0.10566000000E+00 0.  1.
     999900   -1    0    0    0    0 -0.00000000000E+00 -0.00000000000E+00 -0.74505805969E-08  0.93827000000E+00  0.93827000000E+00 0. -1.
     999902    2    1    2    0    0  0.18937774929E-01 -0.32453839135E-02  0.13489690570E-01  0.10204535525E+01  0.10201834684E+01 0.  0.
     999903    2    3    3    0    0 -0.91371234287E-01  0.87168247171E-01 -0.15115764164E-01  0.12851130423E+00  0.18429954349E-01 0.  0.
         14    1    1    2    0    0 -0.18937774929E-01  0.32453839135E-02 -0.13489690570E-01  0.23476447509E-01  0.00000000000E+00 0. -1.
     999901    1    3    3    0    0  0.11030900922E+00 -0.90413631085E-01  0.28605454734E-01  0.89194224827E+00  0.88000000000E+00 0.  1.
        -11    1    4    4    0    0 -0.43162177637E-01  0.31485621807E-01 -0.12178311787E-01  0.54798634636E-01  0.51100000000E-03 0. -1.
         11    1    4    4    0    0 -0.48209056650E-01  0.55682625364E-01 -0.29374523772E-02  0.73712669590E-01  0.51100000000E-03 0.  1.
</event>
<event>
 8    1  0.1116619E+005  0.1043930E+01  0.7957747E-01            NaN
         13   -1    0    0    0    0  0.00000000000E+00  0.00000000000E+00  0.74505805969E-08  0.10566000000E+00  0.10566000000E+00 0. -1.
     999900   -1    0    0    0    0 -0.00000000000E+00 -0.00000000000E+00 -0.74505805969E-08  0.93827000000E+00  0.93827000000E+00 0.  1.
     999902    2    1    2    0    0  0.10469124844E-01 -0.32090701040E-01  0.27464562055E-02  0.10100632214E+01  0.10094952960E+01 0.  0.
     999903    2    3    3    0    0  0.59020990899E-01  0.87914546180E-01 -0.50673425272E-01  0.11898958431E+00  0.19449430535E-01 0.  0.
         14    1    1    2    0    0 -0.10469124844E-01  0.32090701040E-01 -0.27464562055E-02  0.33866778558E-01  0.00000000000E+00 0. -1.
     999901    1    3    3    0    0 -0.48551866055E-01 -0.12000524722E+00  0.53419881477E-01  0.89107363713E+00  0.88000000000E+00 0. -1.
        -11    1    4    4    0    0  0.84870355873E-02  0.13412714062E-01 -0.15928922176E-01  0.22492717805E-01  0.51100000000E-03 0.  1.
         11    1    4    4    0    0  0.50533955312E-01  0.74501832118E-01 -0.34744503096E-01  0.96496866502E-01  0.51100000000E-03 0. -1.
</event>
<event>
 8    1  0.1116619E+005  0.1043930E+01  0.7957747E-01            NaN
         13   -1    0    0    0    0  0.00000000000E+00  0.00000000000E+00  0.74505805969E-08  0.10566000000E+00  0.10566000000E+00 0.  1.
     999900   -1    0    0    0    0 -0.00000000000E+00 -0.00000000000E+00 -0.74505805969E-08  0.93827000000E+00  0.93827000000E+00 0.  1.
     999902    2    1    2    0    0  0.15592417538E-01  0.14928299385E-01 -0.51147299169E-02  0.10217458149E+01  0.10215049545E+01 0.  0.
     999903    2    3    3    0    0 -0.85009711907E-01 -0.95195216363E-01  0.48708600976E-02  0.12913857249E+00  0.19085735221E-01 0.  0.
         14    1    1    2    0    0 -0.15592417538E-01 -0.14928299385E-01  0.51147299169E-02  0.22184185117E-01  0.00000000000E+00 0. -1.
     999901    1    3    3    0    0  0.10060212945E+00  0.11012351575E+00 -0.99855900145E-02  0.89260724240E+00  0.88000000000E+00 0.  1.
        -11    1    4    4    0    0 -0.62037310219E-01 -0.59547788231E-01  0.93087861264E-02  0.86495558051E-01  0.51100000000E-03 0. -1.
         11    1    4    4    0    0 -0.22972401689E-01 -0.35647428132E-01 -0.44379260288E-02  0.42643014436E-01  0.51100000000E-03 0.  1.
</event>
<event>
 8    1  0.1116619E+005  0.1043930E+01  0.7957747E-01            NaN
         13   -1    0    0    0    0  0.00000000000E+00  0.00000000000E+00  0.74505805969E-08  0.10566000000E+00  0.10566000000E+00 0. -1.
     999900   -1    0    0    0    0 -0.00000000000E+00 -0.00000000000E+00 -0.74505805969E-08  0.93827000000E+00  0.93827000000E+00 0.  1.
     999902    2    1    2    0    0 -0.16931843158E-01  0.86924651812E-02  0.96797267929E-02  0.10225771694E+01  0.10223542067E+01 0.  0.
     999903    2    3    3    0    0  0.99547700958E-01 -0.19223162636E-01 -0.79859917261E-01  0.12996072639E+00  0.15261365350E-01 0.  0.
         14    1    1    2    0    0  0.16931843158E-01 -0.86924651812E-02 -0.96797267929E-02  0.21352830596E-01  0.00000000000E+00 0. -1.
     999901    1    3    3    0    0 -0.11647954412E+00  0.27915627818E-01  0.89539644054E-01  0.89261644301E+00  0.88000000000E+00 0. -1.
        -11    1    4    4    0    0  0.12487891758E-01 -0.75406111578E-02 -0.95208087135E-02  0.17427425993E-01  0.51100000000E-03 0. -1.
         11    1    4    4    0    0  0.87059809200E-01 -0.11682551479E-01 -0.70339108547E-01  0.11253330040E+00  0.51100000000E-03 0.  1.
</event>
<event>
 8    1  0.1116619E+005  0.1043930E+01  0.7957747E-01            NaN
         13   -1    0    0    0    0  0.00000000000E+00  0.00000000000E+00  0.74505805969E-08  0.10566000000E+00  0.10566000000E+00 0. -1.
     999900   -1    0    0    0    0 -0.00000000000E+00 -0.00000000000E+00 -0.74505805969E-08  0.93827000000E+00  0.93827000000E+00 0. -1.
     999902    2    1    2    0    0 -0.15051785160E-01 -0.16525750906E-01  0.13939737630E-01  0.10175866334E+01  0.10172455866E+01 0.  0.
     999903    2    3    3    0    0  0.52031051524E-01  0.68723149226E-01  0.91496153828E-01  0.12754029771E+00  0.21561071692E-01 0.  0.
         14    1    1    2    0    0  0.15051785160E-01  0.16525750906E-01 -0.13939737630E-01  0.26343366617E-01  0.00000000000E+00 0.  1.
     999901    1    3    3    0    0 -0.67082836684E-01 -0.85248900132E-01 -0.77556416198E-01  0.89004633567E+00  0.88000000000E+00 0. -1.
        -11    1    4    4    0    0  0.49559797430E-01  0.51702616358E-01  0.72538609386E-01  0.10193843746E+00  0.51100000000E-03 0.  1.
         11    1    4    4    0    0  0.24712540945E-02  0.17020532868E-01  0.18957544442E-01  0.25601860249E-01  0.51100000000E-03 0. -1.
</event>
<event>
 8    1  0.1116619E+005  0.1043930E+01  0.7957747E-01            NaN
         13   -1    0    0    0    0  0.00000000000E+00  0.00000000000E+00  0.74505805969E-08  0.10566000000E+00  0.10566000000E+00 0. -1.
     999900   -1    0    0    0    0 -0.00000000000E+00 -0.00000000000E+00 -0.74505805969E-08  0.93827000000E+00  0.93827000000E+00 0. -1.
     999902    2    1    2    0    0 -0.21399640564E-02 -0.84763183600E-02 -0.22155000135E-01  0.10201125390E+01  0.10198344575E+01 0.  0.
     999903    2    3    3    0    0 -0.30668613533E-01 -0.37597168436E-01  0.11686767589E+00  0.12826658130E+00  0.20979782655E-01 0.  0.
         14    1    1    2    0    0  0.21399640564E-02  0.84763183600E-02  0.22155000135E-01  0.23817461033E-01  0.00000000000E+00 0. -1.
     999901    1    3    3    0    0  0.28528649477E-01  0.29120850076E-01 -0.13902267603E+00  0.89184595766E+00  0.88000000000E+00 0. -1.
        -11    1    4    4    0    0 -0.13848829551E-01 -0.29659186694E-01  0.58903604862E-01  0.67389563153E-01  0.51100000000E-03 0. -1.
         11    1    4    4    0    0 -0.16819783982E-01 -0.79379817410E-02  0.57964071031E-01  0.60877018150E-01  0.51100000000E-03 0.  1.
</event>
<event>
 8    1  0.1116619E+005  0.1043930E+01  0.7957747E-01            NaN
         13   -1    0    0    0    0  0.00000000000E+00  0.00000000000E+00  0.74505805969E-08  0.10566000000E+00  0.10566000000E+00 0.  1.
     999900   -1    0    0    0    0 -0.00000000000E+00 -0.00000000000E+00 -0.74505805969E-08  0.93827000000E+00  0.93827000000E+00 0.  1.
     999902    2    1    2    0    0 -0.14897612262E-01 -0.76024332483E-02 -0.17280116722E-01  0.10198813352E+01  0.10195977637E+01 0.  0.
     999903    2    3    3    0    0 -0.10072212660E+00  0.47642883222E-01  0.64318532952E-01  0.13023183579E+00  0.20215495618E-01 0.  0.
         14    1    1    2    0    0  0.14897612262E-01  0.76024332483E-02  0.17280116722E-01  0.24048664752E-01  0.00000000000E+00 0.  1.
     999901    1    3    3    0    0  0.85824514343E-01 -0.55245316471E-01 -0.81598649674E-01  0.88964949946E+00  0.88000000000E+00 0.  1.
        -11    1    4    4    0    0 -0.53279592516E-01  0.35350323492E-01  0.40977397862E-01  0.75945826786E-01  0.51100000000E-03 0.  1.
         11    1    4    4    0    0 -0.47442534089E-01  0.12292559730E-01  0.23341135090E-01  0.54286009006E-01  0.51100000000E-03 0. -1.
</event>
<event>
 8    1  0.1116619E+005  0.1043930E+01  0.7957747E-01            NaN
         13   -1    0    0    0    0  0.00000000000E+00  0.00000000000E+00  0.74505805969E-08  0.10566000000E+00  0.10566000000E+00 0.  1.
     999900   -1    0    0    0    0 -0.00000000000E+00 -0.00000000000E+00 -0.74505805969E-08  0.93827000000E+00  0.93827000000E+00 0. -1.
     999902    2    1    2    0    0 -0.17620852323E-01  0.27218385272E-02 -0.12207592057E-01  0.10223214798E+01  0.10220930877E+01 0.  0.
     999903    2    3    3    0    0 -0.10859834531E+00  0.68697530229E-01 -0.35904215012E-01  0.13485811376E+00  0.19612417663E-01 0.  0.
         14    1    1    2    0    0  0.17620852323E-01 -0.27218385272E-02  0.12207592057E-01  0.21608520204E-01  0.00000000000E+00 0.  1.
     999901    1    3    3    0    0  0.90977492986E-01 -0.65975691702E-01  0.23696622954E-01  0.88746336604E+00  0.88000000000E+00 0.  1.
        -11    1    4    4    0    0 -0.10756154088E+00  0.64151387828E-01 -0.35356705176E-01  0.13013548079E+00  0.51100000000E-03 0. -1.
         11    1    4    4    0    0 -0.10368044261E-02  0.45461424005E-02 -0.54750983550E-03  0.47226329694E-02  0.51100000000E-03 0.  1.
</event>
<event>
 8    1  0.1116619E+005  0.1043930E+01  0.7957747E-01            NaN
         13   -1    0    0    0    0  0.00000000000E+00  0.00000000000E+00  0.74505805969E-08  0.10566000000E+00  0.10566000000E+00 0.  1.
     999900   -1    0    0    0    0 -0.00000000000E+00 -0.00000000000E+00 -0.74505805969E-08  0.93827000000E+00  0.93827000000E+00 0.  1.
     999902    2    1    2    0    0  0.10111086238E-02  0.12381315027E-03 -0.22421058118E-01  0.10214858133E+01  0.10212392106E+01 0.  0.
     999903    2    3    3    0    0  0.73622770291E-01 -0.40886571261E-01  0.96445773215E-01  0.12958692404E+00  0.19973975473E-01 0.  0.
         14    1    1    2    0    0 -0.10111086238E-02 -0.12381315027E-03  0.22421058118E-01  0.22444186719E-01  0.00000000000E+00 0.  1.
     999901    1    3    3    0    0 -0.72611661667E-01  0.41010384411E-01 -0.11886683133E+00  0.89189888924E+00  0.88000000000E+00 0.  1.
        -11    1    4    4    0    0  0.66635983813E-01 -0.29834951601E-01  0.76656841874E-01  0.10586317208E+00  0.51100000000E-03 0. -1.
         11    1    4    4    0    0  0.69867864771E-02 -0.11051619660E-01  0.19788931341E-01  0.23723751959E-01  0.51100000000E-03 0.  1.
</event>
<event>
 8    1  0.1116619E+005  0.1043930E+01  0.7957747E-01            NaN
         13   -1    0    0    0    0  0.00000000000E+00  0.00000000000E+00  0.74505805969E-08  0.10566000000E+00  0.10566000000E+00 0. -1.
     999900   -1    0    0    0    0 -0.00000000000E+00 -0.00000000000E+00 -0.74505805969E-08  0.93827000000E+00  0.93827000000E+00 0. -1.
     999902    2    1    2    0    0  0.17161393021E-01 -0.14436429545E-01 -0.76784289062E-02  0.10202259459E+01  0.10199505373E+01 0.  0.
     999903    2    3    3    0    0 -0.10455616317E+00 -0.69885506818E-01 -0.25932178978E-01  0.12993219495E+00  0.19847469801E-01 0.  0.
         14    1    1    2    0    0 -0.17161393021E-01  0.14436429545E-01  0.76784289062E-02  0.23704054060E-01  0.00000000000E+00 0. -1.
     999901    1    3    3    0    0  0.12171755620E+00  0.55449077274E-01  0.18253750071E-01  0.89029375099E+00  0.88000000000E+00 0.  1.
        -11    1    4    4    0    0 -0.72300774476E-01 -0.49875121769E-01 -0.87749827305E-02  0.88273388993E-01  0.51100000000E-03 0.  1.
         11    1    4    4    0    0 -0.32255388698E-01 -0.20010385050E-01 -0.17157196247E-01  0.41658805959E-01  0.51100000000E-03 0. -1.
</event>
<event>
 8    1  0.1116619E+005  0.1043930E+01  0.7957747E-01            NaN
         13   -1    0    0    0    0  0.00000000000E+00  0.00000000000E+00  0.74505805969E-08  0.10566000000E+00  0.10566000000E+00 0.  1.
     999900   -1    0    0    0    0 -0.00000000000E+00 -0.00000000000E+00 -0.74505805969E-08  0.93827000000E+00  0.93827000000E+00 0. -1.
     999902    2    1    2    0    0 -0.95758987211E-02  0.13295821291E-01 -0.17555098669E-01  0.10199162916E+01  0.10196335537E+01 0.  0.
     999903    2    3    3    0    0  0.12361924586E+00  0.68953080713E-02 -0.33343941582E-01  0.12973024329E+00  0.19719390555E-01 0.  0.
         14    1    1    2    0    0  0.95758987211E-02 -0.13295821291E-01  0.17555098669E-01  0.24013708364E-01  0.00000000000E+00 0.  1.
     999901    1    3    3    0    0 -0.13319514458E+00  0.64005132193E-02  0.15788842912E-01  0.89018604835E+00  0.88000000000E+00 0.  1.
        -11    1    4    4    0    0  0.74233748609E-01  0.12376850162E-01 -0.14865239478E-01  0.76714225006E-01  0.51100000000E-03 0. -1.
         11    1    4    4    0    0  0.49385497249E-01 -0.54815420911E-02 -0.18478702104E-01  0.53016018284E-01  0.51100000000E-03 0.  1.
</event>
<event>
 8    1  0.1116619E+005  0.1043930E+01  0.7957747E-01            NaN
         13   -1    0    0    0    0  0.00000000000E+00  0.00000000000E+00  0.74505805969E-08  0.10566000000E+00  0.10566000000E+00 0. -1.
     999900   -1    0    0    0    0 -0.00000000000E+00 -0.00000000000E+00 -0.74505805969E-08  0.93827000000E+00  0.93827000000E+00 0. -1.
     999902    2    1    2    0    0 -0.23157628851E-01 -0.79068464288E-03  0.34432323032E-02  0.10205044412E+01  0.10202355403E+01 0.  0.
     999903    2    3    3    0    0  0.12230331743E+00 -0.28490410873E-01  0.14660126521E-01  0.12806285743E+00  0.20380656958E-01 0.  0.
         14    1    1    2    0    0  0.23157628851E-01  0.79068464288E-03 -0.34432323032E-02  0.23425558795E-01  0.00000000000E+00 0. -1.
     999901    1    3    3    0    0 -0.14546094628E+00  0.27699726230E-01 -0.11216894218E-01  0.89244158377E+00  0.88000000000E+00 0.  1.
        -11    1    4    4    0    0  0.73259097233E-01 -0.26131516095E-01  0.44500075944E-02  0.77909018409E-01  0.51100000000E-03 0.  1.
         11    1    4    4    0    0  0.49044220198E-01 -0.23588947778E-02  0.10210118927E-01  0.50153839025E-01  0.51100000000E-03 0. -1.
</event>
<event>
 8    1  0.1116619E+005  0.1043930E+01  0.7957747E-01            NaN
         13   -1    0    0    0    0  0.00000000000E+00  0.00000000000E+00  0.74505805969E-08  0.10566000000E+00  0.10566000000E+00 0. -1.
     999900   -1    0    0    0    0 -0.00000000000E+00 -0.00000000000E+00 -0.74505805969E-08  0.93827000000E+00  0.93827000000E+00 0.  1.
     999902    2    1    2    0    0 -0.81418525140E-02  0.17536795892E-01 -0.65473875843E-02  0.10235168362E+01  0.10233132544E+01 0.  0.
     999903    2    3    3    0    0  0.60652492395E-01 -0.59187193911E-01 -0.99873642879E-01  0.13260212510E+00  0.20657451047E-01 0.  0.
         14    1    1    2    0    0  0.81418525140E-02 -0.17536795892E-01  0.65473875843E-02  0.20413163809E-01  0.00000000000E+00 0. -1.
     999901    1    3    3    0    0 -0.68794344909E-01  0.76723989803E-01  0.93326255294E-01  0.89091471109E+00  0.88000000000E+00 0. -1.
        -11    1    4    4    0    0  0.44135143305E-01 -0.32495471169E-01 -0.72943125811E-01  0.91240491259E-01  0.51100000000E-03 0.  1.
         11    1    4    4    0    0  0.16517349089E-01 -0.26691722742E-01 -0.26930517067E-01  0.41361633846E-01  0.51100000000E-03 0. -1.
</event>
<event>
 8    1  0.1116619E+005  0.1043930E+01  0.7957747E-01            NaN
         13   -1    0    0    0    0  0.00000000000E+00  0.00000000000E+00  0.74505805969E-08  0.10566000000E+00  0.10566000000E+00 0.  1.
     999900   -1    0    0    0    0 -0.00000000000E+00 -0.00000000000E+00 -0.74505805969E-08  0.93827000000E+00  0.93827000000E+00 0.  1.
     999902    2    1    2    0    0  0.12812586935E-01  0.15261845741E-01 -0.13816815404E-01  0.10196814803E+01  0.10193931188E+01 0.  0.
     999903    2    3    3    0    0  0.35734986327E-01 -0.11192358222E+00 -0.50557613355E-01  0.12948405517E+00  0.20153678858E-01 0.  0.
         14    1    1    2    0    0 -0.12812586935E-01 -0.15261845741E-01  0.13816815404E-01  0.24248519693E-01  0.00000000000E+00 0.  1.
     999901    1    3    3    0    0 -0.22922399392E-01  0.12718542796E+00  0.36740797951E-01  0.89019742513E+00  0.88000000000E+00 0. -1.
        -11    1    4    4    0    0  0.19993847877E-01 -0.87846033512E-01 -0.34050700539E-01  0.96314022265E-01  0.51100000000E-03 0.  1.
         11    1    4    4    0    0  0.15741138450E-01 -0.24077548708E-01 -0.16506912816E-01  0.33170032909E-01  0.51100000000E-03 0. -1.
</event>
<event>
 8    1  0.1116619E+005  0.1043930E+01  0.7957747E-01            NaN
         13   -1    0    0    0    0  0.00000000000E+00  0.00000000000E+00  0.74505805969E-08  0.10566000000E+00  0.10566000000E+00 0.  1.
     999900   -1    0    0    0    0 -0.00000000000E+00 -0.00000000000E+00 -0.74505805969E-08  0.93827000000E+00  0.93827000000E+00 0. -1.
     999902    2    1    2    0    0  0.14548685210E-01  0.12621301884E-01  0.10303902565E-01  0.10220866507E+01  0.10218532133E+01 0.  0.
     999903    2    3    3    0    0  0.21386163988E-01  0.68852500498E-01  0.11188803717E+00  0.13443354543E+00  0.18852332451E-01 0.  0.
         14    1    1    2    0    0 -0.14548685210E-01 -0.12621301884E-01 -0.10303902565E-01  0.21843349346E-01  0.00000000000E+00 0. -1.
     999901    1    3    3    0    0 -0.68374787773E-02 -0.56231198614E-01 -0.10158413461E+00  0.88765310523E+00  0.88000000000E+00 0. -1.
        -11    1    4    4    0    0  0.77369280754E-02  0.52250895096E-01  0.74930397645E-01  0.91677923769E-01  0.51100000000E-03 0. -1.
         11    1    4    4    0    0  0.13649235912E-01  0.16601605402E-01  0.36957639528E-01  0.42755621659E-01  0.51100000000E-03 0.  1.
</event>
<event>
 8    1  0.1116619E+005  0.1043930E+01  0.7957747E-01            NaN
         13   -1    0    0    0    0  0.00000000000E+00  0.00000000000E+00  0.74505805969E-08  0.10566000000E+00  0.10566000000E+00 0.  1.
     999900   -1    0    0    0    0 -0.00000000000E+00 -0.00000000000E+00 -0.74505805969E-08  0.93827000000E+00  0.93827000000E+00 0.  1.
     999902    2    1    2    0    0  0.42054641111E-02  0.21752143454E-01  0.59608472627E-02  0.10209871716E+01  0.10207293624E+01 0.  0.
     999903    2    3    3    0    0 -0.83659819450E-01  0.66195419457E-01 -0.74895494455E-01  0.13181156422E+00  0.19599857743E-01 0.  0.
         14    1    1    2    0    0 -0.42054641111E-02 -0.21752143454E-01 -0.59608472627E-02  0.22942828364E-01  0.00000000000E+00 0. -1.
     999901    1    3    3    0    0  0.87865283561E-01 -0.44443276004E-01  0.80856341718E-01  0.88917560742E+00  0.88000000000E+00 0. -1.
        -11    1    4    4    0    0 -0.51655995734E-01  0.45672425339E-01 -0.58416415586E-01  0.90371738185E-01  0.51100000000E-03 0.  1.
         11    1    4    4    0    0 -0.32003823716E-01  0.20522994119E-01 -0.16479078869E-01  0.41439826030E-01  0.51100000000E-03 0. -1.
</event>
<event>
 8    1  0.1116619E+005  0.1043930E+01  0.7957747E-01            NaN
         13   -1    0    0    0    0  0.00000000000E+00  0.00000000000E+00  0.74505805969E-08  0.10566000000E+00  0.10566000000E+00 0. -1.
     999900   -1    0    0    0    0 -0.00000000000E+00 -0.00000000000E+00 -0.74505805969E-08  0.93827000000E+00  0.93827000000E+00 0. -1.
     999902    2    1    2    0    0 -0.17695416922E-01  0.17115684536E-01 -0.16428489192E-02  0.10192566664E+01  0.10189579867E+01 0.  0.
     999903    2    3    3    0    0 -0.95389817464E-01 -0.27147228266E-01  0.82780978256E-01  0.13070559422E+00  0.19876436304E-01 0.  0.
         14    1    1    2    0    0  0.17695416922E-01 -0.17115684536E-01  0.16428489192E-02  0.24673333576E-01  0.00000000000E+00 0. -1.
     999901    1    3    3    0    0  0.77694400542E-01  0.44262912802E-01 -0.84423827176E-01  0.88855107221E+00  0.88000000000E+00 0.  1.
        -11    1    4    4    0    0 -0.82556314306E-01 -0.27810055355E-01  0.64685134309E-01  0.10850517007E+00  0.51100000000E-03 0.  1.
         11    1    4    4    0    0 -0.12833503158E-01  0.66282708983E-03  0.18095843948E-01  0.22200424145E-01  0.51100000000E-03 0. -1.
</event>
<event>
 8    1  0.1116619E+005  0.1043930E+01  0.7957747E-01            NaN
         13   -1    0    0    0    0  0.00000000000E+00  0.00000000000E+00  0.74505805969E-08  0.10566000000E+00  0.10566000000E+00 0. -1.
     999900   -1    0    0    0    0 -0.00000000000E+00 -0.00000000000E+00 -0.74505805969E-08  0.93827000000E+00  0.93827000000E+00 0.  1.
     999902    2    1    2    0    0 -0.14001281889E-01  0.98817159157E-02  0.16882314692E-01  0.10198738832E+01  0.10195901338E+01 0.  0.
     999903    2    3    3    0    0 -0.35492613171E-01  0.30206826776E-01 -0.11849093227E+00  0.12903107812E+00  0.20898328100E-01 0.  0.
         14    1    1    2    0    0  0.14001281889E-01 -0.98817159157E-02 -0.16882314692E-01  0.24056116755E-01  0.00000000000E+00 0.  1.
     999901    1    3    3    0    0  0.21491331282E-01 -0.20325110861E-01  0.13537324696E+00  0.89084280513E+00  0.88000000000E+00 0. -1.
        -11    1    4    4    0    0 -0.27764739506E-01  0.30668755341E-01 -0.11003059032E+00  0.11755188319E+00  0.51100000000E-03 0. -1.
         11    1    4    4    0    0 -0.77278736648E-02 -0.46192856464E-03 -0.84603419461E-02  0.11479194929E-01  0.51100000000E-03 0.  1.
</event>
<event>
 8    1  0.1116619E+005  0.1043930E+01  0.7957747E-01            NaN
         13   -1    0    0    0    0  0.00000000000E+00  0.00000000000E+00  0.74505805969E-08  0.10566000000E+00  0.10566000000E+00 0. -1.
     999900   -1    0    0    0    0 -0.00000000000E+00 -0.00000000000E+00 -0.74505805969E-08  0.93827000000E+00  0.93827000000E+00 0.  1.
     999902    2    1    2    0    0  0.55395434995E-02 -0.26631803462E-01  0.12323579390E-02  0.10167002699E+01  0.10163355649E+01 0.  0.
     999903    2    3    3    0    0 -0.18824542046E-01  0.10206361669E+00 -0.65382890343E-01  0.12451547334E+00  0.21397091286E-01 0.  0.
         14    1    1    2    0    0 -0.55395434995E-02  0.26631803462E-01 -0.12323579390E-02  0.27229730148E-01  0.00000000000E+00 0.  1.
     999901    1    3    3    0    0  0.24364085545E-01 -0.12869542015E+00  0.66615248282E-01  0.89218479652E+00  0.88000000000E+00 0. -1.
        -11    1    4    4    0    0 -0.22690115317E-02  0.56246543688E-01 -0.43321846958E-01  0.71034256771E-01  0.51100000000E-03 0.  1.
         11    1    4    4    0    0 -0.16555530514E-01  0.45817073000E-01 -0.22061043385E-01  0.53481216564E-01  0.51100000000E-03 0. -1.
</event>
<event>
 8    1  0.1144807E+005  0.1043930E+01  0.7957747E-01            NaN
         13   -1    0    0    0    0  0.00000000000E+00  0.00000000000E+00  0.74505805969E-08  0.10566000000E+00  0.10566000000E+00 0. -1.
     999900   -1    0    0    0    0 -0.00000000000E+00 -0.00000000000E+00 -0.74505805969E-08  0.93827000000E+00  0.93827000000E+00 0. -1.
     999902    2    1    2    0    0 -0.68580182425E-02  0.17359571980E-01 -0.23413913613E-01  0.10139867453E+01  0.10135445333E+01 0.  0.
     999903    2    3    3    0    0 -0.10793243128E+00  0.51021927106E-01  0.33503618213E-01  0.12573633206E+00  0.20844327739E-01 0.  0.
         14    1    1    2    0    0  0.68580182425E-02 -0.17359571980E-01  0.23413913613E-01  0.29943254737E-01  0.00000000000E+00 0. -1.
     999901    1    3    3    0    0  0.10107441304E+00 -0.33662355126E-01 -0.56917531826E-01  0.88825041320E+00  0.88000000000E+00 0. -1.
        -11    1    4    4    0    0 -0.39831111467E-01  0.29567732218E-01  0.17104734483E-01  0.52474768146E-01  0.51100000000E-03 0.  1.
         11    1    4    4    0    0 -0.68101319814E-01  0.21454194889E-01  0.16398883730E-01  0.73261563916E-01  0.51100000000E-03 0. -1.
</event>
<event>
 8    1  0.1116619E+005  0.1043930E+01  0.7957747E-01            NaN
         13   -1    0    0    0    0  0.00000000000E+00  0.00000000000E+00  0.74505805969E-08  0.10566000000E+00  0.10566000000E+00 0.  1.
     999900   -1    0    0    0    0 -0.00000000000E+00 -0.00000000000E+00 -0.74505805969E-08  0.93827000000E+00  0.93827000000E+00 0.  1.
     999902    2    1    2    0    0  0.18158444454E-01  0.20762286607E-01 -0.76033738569E-04  0.10163472621E+01  0.10159729080E+01 0.  0.
     999903    2    3    3    0    0  0.47557597711E-01  0.70286147829E-02 -0.11698607472E+00  0.12802250072E+00  0.19821515781E-01 0.  0.
         14    1    1    2    0    0 -0.18158444454E-01 -0.20762286607E-01  0.76033738569E-04  0.27582737922E-01  0.00000000000E+00 0.  1.
     999901    1    3    3    0    0 -0.29399153257E-01  0.13733671824E-01  0.11691004098E+00  0.88832476135E+00  0.88000000000E+00 0. -1.
        -11    1    4    4    0    0  0.28315148637E-01  0.10411979362E-02 -0.44267540602E-01  0.52561468847E-01  0.51100000000E-03 0.  1.
         11    1    4    4    0    0  0.19242449075E-01  0.59874168467E-02 -0.72718534115E-01  0.75461031876E-01  0.51100000000E-03 0. -1.
</event>
<event>
 8    1  0.1116619E+005  0.1043930E+01  0.7957747E-01            NaN
         13   -1    0    0    0    0  0.00000000000E+00  0.00000000000E+00  0.74505805969E-08  0.10566000000E+00  0.10566000000E+00 0. -1.
     999900   -1    0    0    0    0 -0.00000000000E+00 -0.00000000000E+00 -0.74505805969E-08  0.93827000000E+00  0.93827000000E+00 0. -1.
     999902    2    1    2    0    0  0.34522176624E-02 -0.21328701983E-01  0.72647008097E-02  0.10211351056E+01  0.10208806476E+01 0.  0.
     999903    2    3    3    0    0  0.14109408881E-02  0.77159176719E-01  0.10325940241E+00  0.13045053075E+00  0.19982679483E-01 0.  0.
         14    1    1    2    0    0 -0.34522176624E-02  0.21328701983E-01 -0.72647008097E-02  0.22794894448E-01  0.00000000000E+00 0.  1.
     999901    1    3    3    0    0  0.20412767743E-02 -0.98487878702E-01 -0.95994701601E-01  0.89068457481E+00  0.88000000000E+00 0. -1.
        -11    1    4    4    0    0 -0.36722006727E-02  0.46179103379E-02  0.14773716344E-01  0.15916468493E-01  0.51100000000E-03 0.  1.
         11    1    4    4    0    0  0.50831415607E-02  0.72541266382E-01  0.88485686067E-01  0.11453406225E+00  0.51100000000E-03 0. -1.
</event>
<event>
 8    1  0.1116619E+005  0.1043930E+01  0.7957747E-01            NaN
         13   -1    0    0    0    0  0.00000000000E+00  0.00000000000E+00  0.74505805969E-08  0.10566000000E+00  0.10566000000E+00 0. -1.
     999900   -1    0    0    0    0 -0.00000000000E+00 -0.00000000000E+00 -0.74505805969E-08  0.93827000000E+00  0.93827000000E+00 0.  1.
     999902    2    1    2    0    0 -0.26053288898E-02  0.10741239354E-01  0.22847521396E-01  0.10185494721E+01  0.10182332031E+01 0.  0.
     999903    2    3    3    0    0  0.38416899400E-01 -0.11598603988E+00  0.32888629934E-01  0.12846888567E+00  0.22225503375E-01 0.  0.
         14    1    1    2    0    0  0.26053288898E-02 -0.10741239354E-01 -0.22847521396E-01  0.25380527879E-01  0.00000000000E+00 0.  1.
     999901    1    3    3    0    0 -0.41022228290E-01  0.12672727923E+00 -0.10041108538E-01  0.89008058645E+00  0.88000000000E+00 0.  1.
        -11    1    4    4    0    0  0.12180876619E-01 -0.70893158997E-01  0.16761887694E-01  0.73860921656E-01  0.51100000000E-03 0. -1.
         11    1    4    4    0    0  0.26236022781E-01 -0.45092880881E-01  0.16126742240E-01  0.54607964014E-01  0.51100000000E-03 0.  1.
</event>
<event>
 8    1  0.1116619E+005  0.1043930E+01  0.7957747E-01            NaN
         13   -1    0    0    0    0  0.00000000000E+00  0.00000000000E+00  0.74505805969E-08  0.10566000000E+00  0.10566000000E+00 0. -1.
     999900   -1    0    0    0    0 -0.00000000000E+00 -0.00000000000E+00 -0.74505805969E-08  0.93827000000E+00  0.93827000000E+00 0.  1.
     999902    2    1    2    0    0 -0.11728979757E-01  0.20554977789E-01 -0.54219017796E-02  0.10196509329E+01  0.10193618356E+01 0.  0.
     999903    2    3    3    0    0  0.82104998897E-01  0.91816745188E-01  0.38806926033E-01  0.13069691600E+00  0.20103750948E-01 0.  0.
         14    1    1    2    0    0  0.11728979757E-01 -0.20554977789E-01  0.54219017796E-02  0.24279067053E-01  0.00000000000E+00 0.  1.
     999901    1    3    3    0    0 -0.93833978653E-01 -0.71261767399E-01 -0.44228827813E-01  0.88895401695E+00  0.88000000000E+00 0.  1.
        -11    1    4    4    0    0  0.44790667147E-01  0.61021354438E-01  0.16777494075E-01  0.77534218184E-01  0.51100000000E-03 0. -1.
         11    1    4    4    0    0  0.37314331750E-01  0.30795390750E-01  0.22029431958E-01  0.53162697813E-01  0.51100000000E-03 0.  1.
</event>
<event>
 8    1  0.1116619E+005  0.1043930E+01  0.7957747E-01            NaN
         13   -1    0    0    0    0  0.00000000000E+00  0.00000000000E+00  0.74505805969E-08  0.10566000000E+00  0.10566000000E+00 0. -1.
     999900   -1    0    0    0    0 -0.00000000000E+00 -0.00000000000E+00 -0.74505805969E-08  0.93827000000E+00  0.93827000000E+00 0.  1.
     999902    2    1    2    0    0 -0.15224128893E-01  0.17023176720E-01  0.54964199226E-02  0.10204401452E+01  0.10201697490E+01 0.  0.
     999903    2    3    3    0    0  0.11682365143E+00 -0.13973544318E-01 -0.47619355934E-01  0.12846553870E+00  0.19818327369E-01 0.  0.
         14    1    1    2    0    0  0.15224128893E-01 -0.17023176720E-01 -0.54964199226E-02  0.23489854792E-01  0.00000000000E+00 0. -1.
     999901    1    3    3    0    0 -0.13204778033E+00  0.30996721038E-01  0.53115775857E-01  0.89197460650E+00  0.88000000000E+00 0.  1.
        -11    1    4    4    0    0  0.86091330644E-01 -0.37289110676E-02 -0.40856059569E-01  0.95368237450E-01  0.51100000000E-03 0.  1.
         11    1    4    4    0    0  0.30732320789E-01 -0.10244633250E-01 -0.67632963656E-02  0.33097301253E-01  0.51100000000E-03 0. -1.
</event>
<event>
 8    1  0.1116619E+005  0.1043930E+01  0.7957747E-01            NaN
         13   -1    0    0    0    0  0.00000000000E+00  0.00000000000E+00  0.74505805969E-08  0.10566000000E+00  0.10566000000E+00 0. -1.
     999900   -1    0    0    0    0 -0.00000000000E+00 -0.00000000000E+00 -0.74505805969E-08  0.93827000000E+00  0.93827000000E+00 0.  1.
     999902    2    1    2    0    0 -0.85140432511E-02  0.67104576320E-02 -0.19423520339E-01  0.10216860724E+01  0.10214438987E+01 0.  0.
     999903    2    3    3    0    0  0.54848038705E-01 -0.12658202813E-01 -0.12036884028E+00  0.13344069183E+00  0.12215689793E-01 0.  0.
         14    1    1    2    0    0  0.85140432511E-02 -0.67104576320E-02  0.19423520339E-01  0.22243927631E-01  0.00000000000E+00 0. -1.
     999901    1    3    3    0    0 -0.63362081956E-01  0.19368660445E-01  0.10094531994E+00  0.88824538054E+00  0.88000000000E+00 0. -1.
        -11    1    4    4    0    0  0.36185536184E-01 -0.23595213351E-02 -0.74460732799E-01  0.82822836342E-01  0.51100000000E-03 0.  1.
         11    1    4    4    0    0  0.18662502520E-01 -0.10298681478E-01 -0.45908107479E-01  0.50617855484E-01  0.51100000000E-03 0. -1.
</event>
<event>
 8    1  0.1116619E+005  0.1043930E+01  0.7957747E-01            NaN
         13   -1    0    0    0    0  0.00000000000E+00  0.00000000000E+00  0.74505805969E-08  0.10566000000E+00  0.10566000000E+00 0. -1.
     999900   -1    0    0    0    0 -0.00000000000E+00 -0.00000000000E+00 -0.74505805969E-08  0.93827000000E+00  0.93827000000E+00 0. -1.
     999902    2    1    2    0    0 -0.27892684304E-02  0.22708004671E-01 -0.69416995159E-02  0.10200214098E+01  0.10197411709E+01 0.  0.
     999903    2    3    3    0    0 -0.67486533934E-01 -0.20923579291E-01  0.10652502372E+00  0.12931149708E+00  0.19535971092E-01 0.  0.
         14    1    1    2    0    0  0.27892684304E-02 -0.22708004671E-01  0.69416995159E-02  0.23908590228E-01  0.00000000000E+00 0. -1.
     999901    1    3    3    0    0  0.64697265503E-01  0.43631583961E-01 -0.11346672324E+00  0.89070991269E+00  0.88000000000E+00 0. -1.
        -11    1    4    4    0    0 -0.16429681586E-01  0.33382747439E-02  0.24873390161E-01  0.30000419570E-01  0.51100000000E-03 0.  1.
         11    1    4    4    0    0 -0.51056852347E-01 -0.24261854034E-01  0.81651633559E-01  0.99311077512E-01  0.51100000000E-03 0. -1.
</event>
<event>
 8    1  0.1165963E+005  0.1043930E+01  0.7957747E-01            NaN
         13   -1    0    0    0    0  0.00000000000E+00  0.00000000000E+00  0.74505805969E-08  0.10566000000E+00  0.10566000000E+00 0. -1.
     999900   -1    0    0    0    0 -0.00000000000E+00 -0.00000000000E+00 -0.74505805969E-08  0.93827000000E+00  0.93827000000E+00 0.  1.
     999902    2    1    2    0    0 -0.15537724430E-01 -0.11738858345E-01 -0.16509776247E-01  0.10183997359E+01  0.10180796764E+01 0.  0.
     999903    2    3    3    0    0  0.39659061791E-01  0.57787529466E-02 -0.12218152242E+00  0.13018801005E+00  0.20355794586E-01 0.  0.
         14    1    1    2    0    0  0.15537724430E-01  0.11738858345E-01  0.16509776247E-01  0.25530264147E-01  0.00000000000E+00 0. -1.
     999901    1    3    3    0    0 -0.55196786221E-01 -0.17517611291E-01  0.10567174617E+00  0.88821172580E+00  0.88000000000E+00 0. -1.
        -11    1    4    4    0    0  0.14581170381E-01  0.10362819749E-01 -0.67853539043E-01  0.70173801696E-01  0.51100000000E-03 0.  1.
         11    1    4    4    0    0  0.25077891410E-01 -0.45840668022E-02 -0.54327983373E-01  0.60014208354E-01  0.51100000000E-03 0. -1.
</event>
<event>
 8    1  0.1116619E+005  0.1043930E+01  0.7957747E-01            NaN
         13   -1    0    0    0    0  0.00000000000E+00  0.00000000000E+00  0.74505805969E-08  0.10566000000E+00  0.10566000000E+00 0. -1.
     999900   -1    0    0    0    0 -0.00000000000E+00 -0.00000000000E+00 -0.74505805969E-08  0.93827000000E+00  0.93827000000E+00 0.  1.
     999902    2    1    2    0    0  0.31836451267E-02  0.22007220441E-01  0.69434700199E-02  0.10206348262E+01  0.10203689447E+01 0.  0.
     999903    2    3    3    0    0 -0.10417450254E+00 -0.37921329073E-02 -0.75011286001E-01  0.12995645519E+00  0.19881648997E-01 0.  0.
         14    1    1    2    0    0 -0.31836451267E-02 -0.22007220441E-01 -0.69434700199E-02  0.23295173830E-01  0.00000000000E+00 0.  1.
     999901    1    3    3    0    0  0.10735814766E+00  0.25799353348E-01  0.81954756020E-01  0.89067837098E+00  0.88000000000E+00 0. -1.
        -11    1    4    4    0    0 -0.62531537304E-01 -0.11614947494E-01 -0.41672151362E-01  0.76038999751E-01  0.51100000000E-03 0.  1.
         11    1    4    4    0    0 -0.41642965232E-01  0.78228145867E-02 -0.33339134639E-01  0.53917455437E-01  0.51100000000E-03 0. -1.
</event>
<event>
 8    1  0.1116619E+005  0.1043930E+01  0.7957747E-01            NaN
         13   -1    0    0    0    0  0.00000000000E+00  0.00000000000E+00  0.74505805969E-08  0.10566000000E+00  0.10566000000E+00 0. -1.
     999900   -1    0    0    0    0 -0.00000000000E+00 -0.00000000000E+00 -0.74505805969E-08  0.93827000000E+00  0.93827000000E+00 0. -1.
     999902    2    1    2    0    0  0.92663285562E-02  0.12305578998E-01 -0.17398339459E-01  0.10206922218E+01  0.10204276639E+01 0.  0.
     999903    2    3    3    0    0 -0.48370795421E-01 -0.90067878733E-01  0.74473690514E-01  0.12814371736E+00  0.20555415102E-01 0.  0.
         14    1    1    2    0    0 -0.92663285562E-02 -0.12305578998E-01  0.17398339459E-01  0.23237778192E-01  0.00000000000E+00 0. -1.
     999901    1    3    3    0    0  0.57637123977E-01  0.10237345773E+00 -0.91872029972E-01  0.89254850445E+00  0.88000000000E+00 0. -1.
        -11    1    4    4    0    0 -0.20887482273E-01 -0.54431828331E-01  0.33289898770E-01  0.67138583037E-01  0.51100000000E-03 0.  1.
         11    1    4    4    0    0 -0.27483313148E-01 -0.35636050402E-01  0.41183791744E-01  0.61005134318E-01  0.51100000000E-03 0. -1.
</event>
<event>
 8    1  0.1116619E+005  0.1043930E+01  0.7957747E-01            NaN
         13   -1    0    0    0    0  0.00000000000E+00  0.00000000000E+00  0.74505805969E-08  0.10566000000E+00  0.10566000000E+00 0.  1.
     999900   -1    0    0    0    0 -0.00000000000E+00 -0.00000000000E+00 -0.74505805969E-08  0.93827000000E+00  0.93827000000E+00 0. -1.
     999902    2    1    2    0    0  0.60145162440E-02 -0.18669294211E-01 -0.14955369209E-01  0.10192646393E+01  0.10189661549E+01 0.  0.
     999903    2    3    3    0    0  0.77327633051E-01 -0.62651500919E-01 -0.85163999479E-01  0.13250128476E+00  0.19972737775E-01 0.  0.
         14    1    1    2    0    0 -0.60145162440E-02  0.18669294211E-01  0.14955369209E-01  0.24665360734E-01  0.00000000000E+00 0.  1.
     999901    1    3    3    0    0 -0.71313116806E-01  0.43982206709E-01  0.70208630270E-01  0.88676335451E+00  0.88000000000E+00 0.  1.
        -11    1    4    4    0    0  0.27914142933E-01 -0.20450893129E-01 -0.17856187481E-01  0.38942816511E-01  0.51100000000E-03 0.  1.
         11    1    4    4    0    0  0.49413490117E-01 -0.42200607790E-01 -0.67307811998E-01  0.93558468246E-01  0.51100000000E-03 0. -1.
</event>
<event>
 8    1  0.1116619E+005  0.1043930E+01  0.7957747E-01            NaN
         13   -1    0    0    0    0  0.00000000000E+00  0.00000000000E+00  0.74505805969E-08  0.10566000000E+00  0.10566000000E+00 0.  1.
     999900   -1    0    0    0    0 -0.00000000000E+00 -0.00000000000E+00 -0.74505805969E-08  0.93827000000E+00  0.93827000000E+00 0. -1.
     999902    2    1    2    0    0  0.15508839055E-01 -0.62657942451E-02  0.18104893698E-01  0.10192810357E+01  0.10189829529E+01 0.  0.
     999903    2    3    3    0    0 -0.17027089470E-01 -0.10710844818E+00  0.70937048989E-01  0.13135138524E+00  0.21423819398E-01 0.  0.
         14    1    1    2    0    0 -0.15508839055E-01  0.62657942451E-02 -0.18104893698E-01  0.24648964323E-01  0.00000000000E+00 0.  1.
     999901    1    3    3    0    0  0.32535928525E-01  0.10084265393E+00 -0.52832155291E-01  0.88792965044E+00  0.88000000000E+00 0. -1.
        -11    1    4    4    0    0 -0.47870540994E-02 -0.73211759335E-02  0.11848533374E-01  0.14736497824E-01  0.51100000000E-03 0. -1.
         11    1    4    4    0    0 -0.12240035370E-01 -0.99787272245E-01  0.59088515615E-01  0.11661488741E+00  0.51100000000E-03 0.  1.
</event>
<event>
 8    1  0.1116619E+005  0.1043930E+01  0.7957747E-01            NaN
         13   -1    0    0    0    0  0.00000000000E+00  0.00000000000E+00  0.74505805969E-08  0.10566000000E+00  0.10566000000E+00 0. -1.
     999900   -1    0    0    0    0 -0.00000000000E+00 -0.00000000000E+00 -0.74505805969E-08  0.93827000000E+00  0.93827000000E+00 0. -1.
     999902    2    1    2    0    0 -0.15902301833E-01  0.13101402313E-01 -0.11932763775E-01  0.10201199014E+01  0.10198419938E+01 0.  0.
     999903    2    3    3    0    0  0.23998648148E-01 -0.12388977355E+00  0.13460420421E-01  0.12826594365E+00  0.18610703337E-01 0.  0.
         14    1    1    2    0    0  0.15902301833E-01 -0.13101402313E-01  0.11932763775E-01  0.23810098645E-01  0.00000000000E+00 0. -1.
     999901    1    3    3    0    0 -0.39900949981E-01  0.13699117586E+00 -0.25393184197E-01  0.89185395771E+00  0.88000000000E+00 0.  1.
        -11    1    4    4    0    0  0.69267459179E-02 -0.47947303610E-01  0.13981319207E-01  0.50424816710E-01  0.51100000000E-03 0.  1.
         11    1    4    4    0    0  0.17071902230E-01 -0.75942469940E-01 -0.52089878608E-03  0.77841126938E-01  0.51100000000E-03 0. -1.
</event>
<event>
 8    1  0.1116619E+005  0.1043930E+01  0.7957747E-01            NaN
         13   -1    0    0    0    0  0.00000000000E+00  0.00000000000E+00  0.74505805969E-08  0.10566000000E+00  0.10566000000E+00 0. -1.
     999900   -1    0    0    0    0 -0.00000000000E+00 -0.00000000000E+00 -0.74505805969E-08  0.93827000000E+00  0.93827000000E+00 0.  1.
     999902    2    1    2    0    0 -0.13567693012E-01  0.18277974686E-01  0.72787600626E-02  0.10200313180E+01  0.10197513142E+01 0.  0.
     999903    2    3    3    0    0 -0.53602979603E-01 -0.10534621542E+00 -0.50327368994E-01  0.12862555707E+00  0.63706621078E-02 0.  0.
         14    1    1    2    0    0  0.13567693012E-01 -0.18277974686E-01 -0.72787600626E-02  0.23898681979E-01  0.00000000000E+00 0.  1.
     999901    1    3    3    0    0  0.40035286591E-01  0.12362419011E+00  0.57606129056E-01  0.89140576095E+00  0.88000000000E+00 0. -1.
        -11    1    4    4    0    0 -0.15952913824E-01 -0.33785321629E-01 -0.12992814892E-01  0.39560305571E-01  0.51100000000E-03 0. -1.
         11    1    4    4    0    0 -0.37650065779E-01 -0.71560893793E-01 -0.37334554102E-01  0.89065251499E-01  0.51100000000E-03 0.  1.
</event>
<event>
 8    1  0.1116619E+005  0.1043930E+01  0.7957747E-01            NaN
         13   -1    0    0    0    0  0.00000000000E+00  0.00000000000E+00  0.74505805969E-08  0.10566000000E+00  0.10566000000E+00 0.  1.
     999900   -1    0    0    0    0 -0.00000000000E+00 -0.00000000000E+00 -0.74505805969E-08  0.93827000000E+00  0.93827000000E+00 0.  1.
     999902    2    1    2    0    0 -0.19785788531E-02  0.13721435183E-01 -0.18618261684E-01  0.10207172400E+01  0.10204532580E+01 0.  0.
     999903    2    3    3    0    0 -0.23586018708E-01  0.35151568328E-01 -0.12532213612E+00  0.13374945657E+00  0.19782474497E-01 0.  0.
         14    1    1    2    0    0  0.19785788531E-02 -0.13721435183E-01  0.18618261684E-01  0.23212759980E-01  0.00000000000E+00 0.  1.
     999901    1    3    3    0    0  0.21607439855E-01 -0.21430133145E-01  0.10670387443E+00  0.88696778345E+00  0.88000000000E+00 0. -1.
        -11    1    4    4    0    0 -0.14305794795E-01  0.10122315990E-01 -0.29885844576E-01  0.34648836528E-01  0.51100000000E-03 0. -1.
         11    1    4    4    0    0 -0.92802239132E-02  0.25029252338E-01 -0.95436291539E-01  0.99100620039E-01  0.51100000000E-03 0.  1.
</event>
<event>
 8    1  0.1116619E+005  0.1043930E+01  0.7957747E-01            NaN
         13   -1    0    0    0    0  0.00000000000E+00  0.00000000000E+00  0.74505805969E-08  0.10566000000E+00  0.10566000000E+00 0.  1.
     999900   -1    0    0    0    0 -0.00000000000E+00 -0.00000000000E+00 -0.74505805969E-08  0.93827000000E+00  0.93827000000E+00 0. -1.
     999902    2    1    2    0    0 -0.15135349166E-01 -0.17692082466E-01 -0.16171062769E-01  0.10155823044E+01  0.10151865962E+01 0.  0.
     999903    2    3    3    0    0 -0.10262196152E+00 -0.74688783480E-01  0.10542082197E-01  0.12900680089E+00  0.20541124962E-01 0.  0.
         14    1    1    2    0    0  0.15135349166E-01  0.17692082466E-01  0.16171062769E-01  0.28347695628E-01  0.00000000000E+00 0. -1.
     999901    1    3    3    0    0  0.87486612351E-01  0.56996701014E-01 -0.26713144965E-01  0.88657550349E+00  0.88000000000E+00 0. -1.
        -11    1    4    4    0    0 -0.49421154048E-01 -0.46044645138E-01 -0.66622092740E-03  0.67551941383E-01  0.51100000000E-03 0. -1.
         11    1    4    4    0    0 -0.53200807468E-01 -0.28644138343E-01  0.11208303124E-01  0.61454859503E-01  0.51100000000E-03 0.  1.
</event>
<event>
 8    1  0.1116619E+005  0.1043930E+01  0.7957747E-01            NaN
         13   -1    0    0    0    0  0.00000000000E+00  0.00000000000E+00  0.74505805969E-08  0.10566000000E+00  0.10566000000E+00 0. -1.
     999900   -1    0    0    0    0 -0.00000000000E+00 -0.00000000000E+00 -0.74505805969E-08  0.93827000000E+00  0.93827000000E+00 0.  1.
     999902    2    1    2    0    0 -0.21092358831E-01  0.29163117430E-02  0.10434311645E-01  0.10202178231E+01  0.10199422235E+01 0.  0.
     999903    2    3    3    0    0  0.37737427759E-01  0.12120645513E+00 -0.18109085435E-01  0.12989865146E+00  0.20750962787E-01 0.  0.
         14    1    1    2    0    0  0.21092358831E-01 -0.29163117430E-02 -0.10434311645E-01  0.23712176929E-01  0.00000000000E+00 0.  1.
     999901    1    3    3    0    0 -0.58829786590E-01 -0.11829014339E+00  0.28543397080E-01  0.89031917161E+00  0.88000000000E+00 0.  1.
        -11    1    4    4    0    0  0.30217360232E-01  0.11298405235E+00 -0.19788868813E-01  0.11861848673E+00  0.51100000000E-03 0. -1.
         11    1    4    4    0    0  0.75200675276E-02  0.82224027857E-02  0.16797833778E-02  0.11280164732E-01  0.51100000000E-03 0.  1.
</event>
<event>
 8    1  0.1116619E+005  0.1043930E+01  0.7957747E-01            NaN
         13   -1    0    0    0    0  0.00000000000E+00  0.00000000000E+00  0.74505805969E-08  0.10566000000E+00  0.10566000000E+00 0. -1.
     999900   -1    0    0    0    0 -0.00000000000E+00 -0.00000000000E+00 -0.74505805969E-08  0.93827000000E+00  0.93827000000E+00 0. -1.
     999902    2    1    2    0    0  0.44170579852E-02 -0.44977175854E-02 -0.22947957763E-01  0.10201319196E+01  0.10198542959E+01 0.  0.
     999903    2    3    3    0    0 -0.10903397115E+00  0.44760327220E-01  0.47515779824E-01  0.12869340277E+00  0.20306374071E-01 0.  0.
         14    1    1    2    0    0 -0.44170579852E-02  0.44977175854E-02  0.22947957763E-01  0.23798080389E-01  0.00000000000E+00 0. -1.
     999901    1    3    3    0    0  0.11345102913E+00 -0.49258044805E-01 -0.70463737587E-01  0.89143851684E+00  0.88000000000E+00 0. -1.
        -11    1    4    4    0    0 -0.81625266862E-01  0.42670498652E-01  0.36701919411E-01  0.99150126853E-01  0.51100000000E-03 0. -1.
         11    1    4    4    0    0 -0.27408704285E-01  0.20898285682E-02  0.10813860413E-01  0.29543275919E-01  0.51100000000E-03 0.  1.
</event>
<event>
 8    1  0.1116619E+005  0.1043930E+01  0.7957747E-01            NaN
         13   -1    0    0    0    0  0.00000000000E+00  0.00000000000E+00  0.74505805969E-08  0.10566000000E+00  0.10566000000E+00 0.  1.
     999900   -1    0    0    0    0 -0.00000000000E+00 -0.00000000000E+00 -0.74505805969E-08  0.93827000000E+00  0.93827000000E+00 0.  1.
     999902    2    1    2    0    0 -0.37499441932E-02 -0.31396078110E-03 -0.23423447890E-01  0.10202062026E+01  0.10199303296E+01 0.  0.
     999903    2    3    3    0    0 -0.51855092653E-01  0.11652316835E+00 -0.23160233335E-01  0.13118140578E+00  0.20138654842E-01 0.  0.
         14    1    1    2    0    0  0.37499441932E-02  0.31396078110E-03  0.23423447890E-01  0.23723797417E-01  0.00000000000E+00 0.  1.
     999901    1    3    3    0    0  0.48105148459E-01 -0.11683712913E+00 -0.26321455433E-03  0.88902479680E+00  0.88000000000E+00 0.  1.
        -11    1    4    4    0    0 -0.32960972148E-01  0.88206549276E-01 -0.10053411111E-01  0.94700333770E-01  0.51100000000E-03 0.  1.
         11    1    4    4    0    0 -0.18894120504E-01  0.28316619069E-01 -0.13106822224E-01  0.36481072009E-01  0.51100000000E-03 0. -1.
</event>
<event>
 8    1  0.1116619E+005  0.1043930E+01  0.7957747E-01            NaN
         13   -1    0    0    0    0  0.00000000000E+00  0.00000000000E+00  0.74505805969E-08  0.10566000000E+00  0.10566000000E+00 0. -1.
     999900   -1    0    0    0    0 -0.00000000000E+00 -0.00000000000E+00 -0.74505805969E-08  0.93827000000E+00  0.93827000000E+00 0. -1.
     999902    2    1    2    0    0 -0.31929055281E-02 -0.38074616242E-02  0.23701361506E-01  0.10197133539E+01  0.10194257591E+01 0.  0.
     999903    2    3    3    0    0 -0.65190106720E-01 -0.10975918734E+00 -0.17395610009E-01  0.13024251000E+00  0.19070263341E-01 0.  0.
         14    1    1    2    0    0  0.31929055281E-02  0.38074616242E-02 -0.23701361506E-01  0.24216646072E-01  0.00000000000E+00 0.  1.
     999901    1    3    3    0    0  0.61997201192E-01  0.10595172571E+00  0.41096971515E-01  0.88947084393E+00  0.88000000000E+00 0.  1.
        -11    1    4    4    0    0 -0.19970992832E-01 -0.46672873701E-01 -0.33689612756E-03  0.50769797264E-01  0.51100000000E-03 0. -1.
         11    1    4    4    0    0 -0.45219113888E-01 -0.63086313634E-01 -0.17058713882E-01  0.79472712732E-01  0.51100000000E-03 0.  1.
</event>
<event>
 8    1  0.1116619E+005  0.1043930E+01  0.7957747E-01            NaN
         13   -1    0    0    0    0  0.00000000000E+00  0.00000000000E+00  0.74505805969E-08  0.10566000000E+00  0.10566000000E+00 0. -1.
     999900   -1    0    0    0    0 -0.00000000000E+00 -0.00000000000E+00 -0.74505805969E-08  0.93827000000E+00  0.93827000000E+00 0. -1.
     999902    2    1    2    0    0  0.12655890045E-01 -0.17997138692E-01  0.85982193218E-02  0.10203080202E+01  0.10200345377E+01 0.  0.
     999903    2    3    3    0    0  0.83456584749E-02 -0.12974762662E+00 -0.18504325547E-01  0.13281644414E+00  0.19841903654E-01 0.  0.
         14    1    1    2    0    0 -0.12655890045E-01  0.17997138692E-01 -0.85982193218E-02  0.23621979795E-01  0.00000000000E+00 0.  1.
     999901    1    3    3    0    0  0.43102315704E-02  0.11175048793E+00  0.27102544868E-01  0.88749157607E+00  0.88000000000E+00 0.  1.
        -11    1    4    4    0    0  0.47501059511E-02 -0.31712848511E-01  0.35481274715E-02  0.32266369439E-01  0.51100000000E-03 0. -1.
         11    1    4    4    0    0  0.35955525238E-02 -0.98034778110E-01 -0.22052453018E-01  0.10055007470E+00  0.51100000000E-03 0.  1.
</event>
<event>
 8    1  0.1116619E+005  0.1043930E+01  0.7957747E-01            NaN
         13   -1    0    0    0    0  0.00000000000E+00  0.00000000000E+00  0.74505805969E-08  0.10566000000E+00  0.10566000000E+00 0. -1.
     999900   -1    0    0    0    0 -0.00000000000E+00 -0.00000000000E+00 -0.74505805969E-08  0.93827000000E+00  0.93827000000E+00 0. -1.
     999902    2    1    2    0    0 -0.11144697860E-02 -0.23075193520E-01 -0.10518445433E-01  0.10185460623E+01  0.10182297073E+01 0.  0.
     999903    2    3    3    0    0  0.18450890469E-01 -0.89916276314E-01 -0.92555095043E-01  0.13199062379E+00  0.20729376372E-01 0.  0.
         14    1    1    2    0    0  0.11144697860E-02  0.23075193520E-01  0.10518445433E-01  0.25383937701E-01  0.00000000000E+00 0. -1.
     999901    1    3    3    0    0 -0.19565360255E-01  0.66841082794E-01  0.82036649609E-01  0.88655543851E+00  0.88000000000E+00 0. -1.
        -11    1    4    4    0    0  0.71242430930E-02 -0.46718015972E-01 -0.33411416839E-01  0.57878422164E-01  0.51100000000E-03 0. -1.
         11    1    4    4    0    0  0.11326647376E-01 -0.43198260342E-01 -0.59143678203E-01  0.74112201625E-01  0.51100000000E-03 0.  1.
</event>
<event>
 8    1  0.1116619E+005  0.1043930E+01  0.7957747E-01            NaN
         13   -1    0    0    0    0  0.00000000000E+00  0.00000000000E+00  0.74505805969E-08  0.10566000000E+00  0.10566000000E+00 0.  1.
     999900   -1    0    0    0    0 -0.00000000000E+00 -0.00000000000E+00 -0.74505805969E-08  0.93827000000E+00  0.93827000000E+00 0.  1.
     999902    2    1    2    0    0 -0.74173007137E-02  0.94484086012E-02 -0.20073429974E-01  0.10205370232E+01  0.10202688784E+01 0.  0.
     999903    2    3    3    0    0 -0.89104337258E-01 -0.92122224759E-01  0.11611750000E-01  0.13037225406E+00  0.20880725032E-01 0.  0.
         14    1    1    2    0    0  0.74173007137E-02 -0.94484086012E-02  0.20073429974E-01  0.23392976849E-01  0.00000000000E+00 0.  1.
     999901    1    3    3    0    0  0.81687036544E-01  0.10157063336E+00 -0.31685179974E-01  0.89016476909E+00  0.88000000000E+00 0.  1.
        -11    1    4    4    0    0 -0.79140155272E-01 -0.80048864918E-01  0.32410159231E-02  0.11261327744E+00  0.51100000000E-03 0.  1.
         11    1    4    4    0    0 -0.99641819857E-02 -0.12073359840E-01  0.83707340774E-02  0.17758976617E-01  0.51100000000E-03 0. -1.
</event>
<event>
 8    1  0.1116619E+005  0.1043930E+01  0.7957747E-01            NaN
         13   -1    0    0    0    0  0.00000000000E+00  0.00000000000E+00  0.74505805969E-08  0.10566000000E+00  0.10566000000E+00 0.  1.
     999900   -1    0    0    0    0 -0.00000000000E+00 -0.00000000000E+00 -0.74505805969E-08  0.93827000000E+00  0.93827000000E+00 0. -1.
     999902    2    1    2    0    0  0.81377674503E-02 -0.66470990201E-02 -0.23601718836E-01  0.10180949789E+01  0.10177671333E+01 0.  0.
     999903    2    3    3    0    0  0.65514565145E-01  0.10520928672E+00 -0.25557156538E-01  0.12915866413E+00  0.25838730816E-01 0.  0.
         14    1    1    2    0    0 -0.81377674503E-02  0.66470990201E-02  0.23601718836E-01  0.25835021124E-01  0.00000000000E+00 0.  1.
     999901    1    3    3    0    0 -0.57376797694E-01 -0.11185638574E+00  0.19554377019E-02  0.88893631475E+00  0.88000000000E+00 0.  1.
        -11    1    4    4    0    0  0.50768313453E-01  0.75401522102E-01 -0.72420297901E-02  0.91189469253E-01  0.51100000000E-03 0. -1.
         11    1    4    4    0    0  0.14746251691E-01  0.29807764619E-01 -0.18315126748E-01  0.37969194873E-01  0.51100000000E-03 0.  1.
</event>
<event>
 8    1  0.1116619E+005  0.1043930E+01  0.7957747E-01            NaN
         13   -1    0    0    0    0  0.00000000000E+00  0.00000000000E+00  0.74505805969E-08  0.10566000000E+00  0.10566000000E+00 0. -1.
     999900   -1    0    0    0    0 -0.00000000000E+00 -0.00000000000E+00 -0.74505805969E-08  0.93827000000E+00  0.93827000000E+00 0.  1.
     999902    2    1    2    0    0  0.38629900096E-02  0.11069004599E-01  0.20409639677E-01  0.10203928178E+01  0.10201213181E+01 0.  0.
     999903    2    3    3    0    0 -0.76196029216E-01 -0.93678420833E-01 -0.39475160433E-01  0.12855894370E+00  0.19688380216E-01 0.  0.
         14    1    1    2    0    0 -0.38629900096E-02 -0.11069004599E-01 -0.20409639677E-01  0.23537182209E-01  0.00000000000E+00 0.  1.
     999901    1    3    3    0    0  0.80059019226E-01  0.10474742543E+00  0.59884800110E-01  0.89183387409E+00  0.88000000000E+00 0. -1.
        -11    1    4    4    0    0 -0.20340308961E-01 -0.13608738731E-01 -0.11197774039E-01  0.26917971746E-01  0.51100000000E-03 0. -1.
         11    1    4    4    0    0 -0.55855720255E-01 -0.80069682103E-01 -0.28277386394E-01  0.10164097195E+00  0.51100000000E-03 0.  1.
</event>
<event>
 8    1  0.1116619E+005  0.1043930E+01  0.7957747E-01            NaN
         13   -1    0    0    0    0  0.00000000000E+00  0.00000000000E+00  0.74505805969E-08  0.10566000000E+00  0.10566000000E+00 0. -1.
     999900   -1    0    0    0    0 -0.00000000000E+00 -0.00000000000E+00 -0.74505805969E-08  0.93827000000E+00  0.93827000000E+00 0. -1.
     999902    2    1    2    0    0  0.21536797315E-01  0.93587168284E-02 -0.40970673952E-02  0.10200929452E+01  0.10198144006E+01 0.  0.
     999903    2    3    3    0    0  0.44472896429E-03 -0.57112575317E-01 -0.11537352096E+00  0.13034817443E+00  0.20434118457E-01 0.  0.
         14    1    1    2    0    0 -0.21536797315E-01 -0.93587168284E-02  0.40970673952E-02  0.23837054779E-01  0.00000000000E+00 0. -1.
     999901    1    3    3    0    0  0.21092068351E-01  0.66471292146E-01  0.11127645356E+00  0.88974477079E+00  0.88000000000E+00 0.  1.
        -11    1    4    4    0    0  0.42183052803E-02 -0.39544133619E-01 -0.58802155125E-01  0.70989345478E-01  0.51100000000E-03 0. -1.
         11    1    4    4    0    0 -0.37735763160E-02 -0.17568441699E-01 -0.56571365832E-01  0.59358828956E-01  0.51100000000E-03 0.  1.
</event>
<event>
 8    1  0.1116619E+005  0.1043930E+01  0.7957747E-01            NaN
         13   -1    0    0    0    0  0.00000000000E+00  0.00000000000E+00  0.74505805969E-08  0.10566000000E+00  0.10566000000E+00 0.  1.
     999900   -1    0    0    0    0 -0.00000000000E+00 -0.00000000000E+00 -0.74505805969E-08  0.93827000000E+00  0.93827000000E+00 0. -1.
     999902    2    1    2    0    0 -0.13940465962E-01  0.17505657219E-01  0.84154060578E-02  0.10200217653E+01  0.10197415349E+01 0.  0.
     999903    2    3    3    0    0 -0.56621352525E-01  0.34504910706E-01 -0.11033283387E+00  0.13085823865E+00  0.23536736536E-01 0.  0.
         14    1    1    2    0    0  0.13940465962E-01 -0.17505657219E-01 -0.84154060578E-02  0.23908234670E-01  0.00000000000E+00 0. -1.
     999901    1    3    3    0    0  0.42680886563E-01 -0.16999253487E-01  0.11874823993E+00  0.88916352668E+00  0.88000000000E+00 0.  1.
        -11    1    4    4    0    0 -0.24478926614E-01  0.51353648306E-02 -0.55200469619E-01  0.60604808285E-01  0.51100000000E-03 0.  1.
         11    1    4    4    0    0 -0.32142425911E-01  0.29369545876E-01 -0.55132364253E-01  0.70253430361E-01  0.51100000000E-03 0. -1.
</event>
<event>
 8    1  0.1116619E+005  0.1043930E+01  0.7957747E-01            NaN
         13   -1    0    0    0    0  0.00000000000E+00  0.00000000000E+00  0.74505805969E-08  0.10566000000E+00  0.10566000000E+00 0.  1.
     999900   -1    0    0    0    0 -0.00000000000E+00 -0.00000000000E+00 -0.74505805969E-08  0.93827000000E+00  0.93827000000E+00 0.  1.
     999902    2    1    2    0    0 -0.12927286515E-01 -0.18836058760E-01 -0.52197568158E-02  0.10204958858E+01  0.10202267862E+01 0.  0.
     999903    2    3    3    0    0 -0.49013107630E-01 -0.55371845499E-01 -0.10869567062E+00  0.13294627316E+00  0.19789814075E-01 0.  0.
         14    1    1    2    0    0  0.12927286515E-01  0.18836058760E-01  0.52197568158E-02  0.23434114182E-01  0.00000000000E+00 0. -1.
     999901    1    3    3    0    0  0.36085821115E-01  0.36535786739E-01  0.10347591380E+00  0.88754961266E+00  0.88000000000E+00 0. -1.
        -11    1    4    4    0    0 -0.27176352970E-01 -0.30100221678E-01 -0.42182406482E-01  0.58516613397E-01  0.51100000000E-03 0. -1.
         11    1    4    4    0    0 -0.21836754660E-01 -0.25271623821E-01 -0.66513264139E-01  0.74429659760E-01  0.51100000000E-03 0.  1.
</event>
<event>
 8    1  0.1116619E+005  0.1043930E+01  0.7957747E-01            NaN
         13   -1    0    0    0    0  0.00000000000E+00  0.00000000000E+00  0.74505805969E-08  0.10566000000E+00  0.10566000000E+00 0. -1.
     999900   -1    0    0    0    0 -0.00000000000E+00 -0.00000000000E+00 -0.74505805969E-08  0.93827000000E+00  0.93827000000E+00 0.  1.
     999902    2    1    2    0    0  0.16086689809E-01  0.14440943076E-01  0.57400349539E-02  0.10215632741E+01  0.10213183894E+01 0.  0.
     999903    2    3    3    0    0  0.72010358108E-02 -0.12815920177E+00 -0.37874903191E-03  0.13001899833E+00  0.20692040999E-01 0.  0.
         14    1    1    2    0    0 -0.16086689809E-01 -0.14440943076E-01 -0.57400349539E-02  0.22366725894E-01  0.00000000000E+00 0. -1.
     999901    1    3    3    0    0  0.88856539981E-02  0.14260014484E+00  0.61187839859E-02  0.89154427578E+00  0.88000000000E+00 0. -1.
        -11    1    4    4    0    0  0.13463796943E-01 -0.57827205426E-01  0.12233282881E-02  0.59388695630E-01  0.51100000000E-03 0. -1.
         11    1    4    4    0    0 -0.62627611318E-02 -0.70331996342E-01 -0.16020773200E-02  0.70630302698E-01  0.51100000000E-03 0.  1.
</event>
<event>
 8    1  0.1116619E+005  0.1043930E+01  0.7957747E-01            NaN
         13   -1    0    0    0    0  0.00000000000E+00  0.00000000000E+00  0.74505805969E-08  0.10566000000E+00  0.10566000000E+00 0.  1.
     999900   -1    0    0    0    0 -0.00000000000E+00 -0.00000000000E+00 -0.74505805969E-08  0.93827000000E+00  0.93827000000E+00 0. -1.
     999902    2    1    2    0    0  0.11962756521E-02 -0.23790459683E-01  0.18242333819E-01  0.10139266703E+01  0.10134826555E+01 0.  0.
     999903    2    3    3    0    0 -0.80232250995E-03 -0.22642375898E-01 -0.11977272444E+00  0.12316661915E+00  0.17640568146E-01 0.  0.
         14    1    1    2    0    0 -0.11962756521E-02  0.23790459683E-01 -0.18242333819E-01  0.30003329657E-01  0.00000000000E+00 0. -1.
     999901    1    3    3    0    0  0.19985981620E-02 -0.11480837856E-02  0.13801505826E+00  0.89076005119E+00  0.88000000000E+00 0.  1.
        -11    1    4    4    0    0  0.57710227576E-02 -0.87713595936E-02 -0.24441613322E-01  0.26606296916E-01  0.51100000000E-03 0. -1.
         11    1    4    4    0    0 -0.65733452676E-02 -0.13871016304E-01 -0.95331111123E-01  0.96560322236E-01  0.51100000000E-03 0.  1.
</event>
<event>
 8    1  0.1116619E+005  0.1043930E+01  0.7957747E-01            NaN
         13   -1    0    0    0    0  0.00000000000E+00  0.00000000000E+00  0.74505805969E-08  0.10566000000E+00  0.10566000000E+00 0.  1.
     999900   -1    0    0    0    0 -0.00000000000E+00 -0.00000000000E+00 -0.74505805969E-08  0.93827000000E+00  0.93827000000E+00 0. -1.
     999902    2    1    2    0    0 -0.18151930600E-01 -0.44073491710E-03  0.18336683557E-01  0.10181245588E+01  0.10177974732E+01 0.  0.
     999903    2    3    3    0    0 -0.45192642911E-01  0.11949614970E+00  0.24198478517E-02  0.12943484800E+00  0.20635393062E-01 0.  0.
         14    1    1    2    0    0  0.18151930600E-01  0.44073491710E-03 -0.18336683557E-01  0.25805441202E-01  0.00000000000E+00 0. -1.
     999901    1    3    3    0    0  0.27040712311E-01 -0.11993688462E+00  0.15916835705E-01  0.88868971080E+00  0.88000000000E+00 0.  1.
        -11    1    4    4    0    0 -0.29218038271E-01  0.50910487738E-01  0.53958496610E-02  0.58948688168E-01  0.51100000000E-03 0. -1.
         11    1    4    4    0    0 -0.15974604640E-01  0.68585661964E-01 -0.29760018093E-02  0.70486159835E-01  0.51100000000E-03 0.  1.
</event>
<event>
 8    1  0.1116619E+005  0.1043930E+01  0.7957747E-01            NaN
         13   -1    0    0    0    0  0.00000000000E+00  0.00000000000E+00  0.74505805969E-08  0.10566000000E+00  0.10566000000E+00 0. -1.
     999900   -1    0    0    0    0 -0.00000000000E+00 -0.00000000000E+00 -0.74505805969E-08  0.93827000000E+00  0.93827000000E+00 0.  1.
     999902    2    1    2    0    0  0.20515980079E-02 -0.21292631954E-01  0.95225354157E-02  0.10205149640E+01  0.10202463074E+01 0.  0.
     999903    2    3    3    0    0 -0.66149212361E-01 -0.10965564545E+00  0.35182036996E-01  0.13309297717E+00  0.87112553511E-02 0.  0.
         14    1    1    2    0    0 -0.20515980079E-02  0.21292631954E-01 -0.95225354157E-02  0.23415035995E-01  0.00000000000E+00 0.  1.
     999901    1    3    3    0    0  0.68200810368E-01  0.88363013501E-01 -0.25659501580E-01  0.88742198683E+00  0.88000000000E+00 0. -1.
        -11    1    4    4    0    0 -0.25998331732E-01 -0.39693430942E-01  0.16975198172E-01  0.50397422422E-01  0.51100000000E-03 0. -1.
         11    1    4    4    0    0 -0.40150880629E-01 -0.69962214512E-01  0.18206838824E-01  0.82695554752E-01  0.51100000000E-03 0.  1.
</event>
<event>
 8    1  0.1116619E+005  0.1043930E+01  0.7957747E-01            NaN
         13   -1    0    0    0    0  0.00000000000E+00  0.00000000000E+00  0.74505805969E-08  0.10566000000E+00  0.10566000000E+00 0. -1.
     999900   -1    0    0    0    0 -0.00000000000E+00 -0.00000000000E+00 -0.74505805969E-08  0.93827000000E+00  0.93827000000E+00 0.  1.
     999902    2    1    2    0    0  0.16883513511E-01  0.65985157686E-02 -0.14914908665E-01  0.10204555897E+01  0.10201855530E+01 0.  0.
     999903    2    3    3    0    0 -0.10057121822E+00  0.72429460617E-01  0.29786946709E-01  0.12909282225E+00  0.20422973925E-01 0.  0.
         14    1    1    2    0    0 -0.16883513511E-01 -0.65985157686E-02  0.14914908665E-01  0.23474410308E-01  0.00000000000E+00 0. -1.
     999901    1    3    3    0    0  0.11745473173E+00 -0.65830944848E-01 -0.44701855375E-01  0.89136276744E+00  0.88000000000E+00 0.  1.
        -11    1    4    4    0    0 -0.86620340431E-01  0.69317767431E-01  0.29454352586E-01  0.11478613272E+00  0.51100000000E-03 0.  1.
         11    1    4    4    0    0 -0.13950877784E-01  0.31116931858E-02  0.33259412374E-03  0.14306689529E-01  0.51100000000E-03 0. -1.
</event>
<event>
 8    1  0.1116619E+005  0.1043930E+01  0.7957747E-01            NaN
         13   -1    0    0    0    0  0.00000000000E+00  0.00000000000E+00  0.74505805969E-08  0.10566000000E+00  0.10566000000E+00 0. -1.
     999900   -1    0    0    0    0 -0.00000000000E+00 -0.00000000000E+00 -0.74505805969E-08  0.93827000000E+00  0.93827000000E+00 0. -1.
     999902    2    1    2    0    0 -0.46371265272E-02  0.17090643094E-01 -0.14443365127E-01  0.10210782206E+01  0.10208224767E+01 0.  0.
     999903    2    3    3    0    0  0.38291537891E-01  0.10082332483E+00 -0.76976117939E-01  0.13385537524E+00  0.18982993530E-01 0.  0.
         14    1    1    2    0    0  0.46371265272E-02 -0.17090643094E-01  0.14443365127E-01  0.22851779362E-01  0.00000000000E+00 0. -1.
     999901    1    3    3    0    0 -0.42928664418E-01 -0.83732681740E-01  0.62532752812E-01  0.88722284540E+00  0.88000000000E+00 0.  1.
        -11    1    4    4    0    0  0.16643266767E-01  0.68686760030E-01 -0.52148797408E-01  0.87832952382E-01  0.51100000000E-03 0.  1.
         11    1    4    4    0    0  0.21648271124E-01  0.32136564804E-01 -0.24827320532E-01  0.46022422859E-01  0.51100000000E-03 0. -1.
</event>
<event>
 8    1  0.1116619E+005  0.1043930E+01  0.7957747E-01            NaN
         13   -1    0    0    0    0  0.00000000000E+00  0.00000000000E+00  0.74505805969E-08  0.10566000000E+00  0.10566000000E+00 0.  1.
     999900   -1    0    0    0    0 -0.00000000000E+00 -0.00000000000E+00 -0.74505805969E-08  0.93827000000E+00  0.93827000000E+00 0. -1.
     999902    2    1    2    0    0 -0.63957184253E-02 -0.21757057178E-01 -0.60106855992E-02  0.10204693288E+01  0.10201996118E+01 0.  0.
     999903    2    3    3    0    0  0.10140230593E+00  0.74322815260E-01 -0.17970668682E-01  0.12862024004E+00  0.20344844546E-01 0.  0.
         14    1    1    2    0    0  0.63957184253E-02  0.21757057178E-01  0.60106855992E-02  0.23460671188E-01  0.00000000000E+00 0. -1.
     999901    1    3    3    0    0 -0.10779802436E+00 -0.96079872439E-01  0.11959983082E-01  0.89184908877E+00  0.88000000000E+00 0.  1.
        -11    1    4    4    0    0  0.77817463095E-01  0.54667321161E-01 -0.48401153066E-02  0.95224794054E-01  0.51100000000E-03 0.  1.
         11    1    4    4    0    0  0.23584842835E-01  0.19655494100E-01 -0.13130553375E-01  0.33395445989E-01  0.51100000000E-03 0. -1.
</event>
<event>
 8    1  0.1116619E+005  0.1043930E+01  0.7957747E-01            NaN
         13   -1    0    0    0    0  0.00000000000E+00  0.00000000000E+00  0.74505805969E-08  0.10566000000E+00  0.10566000000E+00 0. -1.
     999900   -1    0    0    0    0 -0.00000000000E+00 -0.00000000000E+00 -0.74505805969E-08  0.93827000000E+00  0.93827000000E+00 0. -1.
     999902    2    1    2    0    0 -0.14453922224E-01  0.12395248884E-01  0.14719630484E-01  0.10198628941E+01  0.10195788823E+01 0.  0.
     999903    2    3    3    0    0 -0.56365768149E-01 -0.64295404984E-01  0.97973792488E-01  0.13162344743E+00  0.20368332700E-01 0.  0.
         14    1    1    2    0    0  0.14453922224E-01 -0.12395248884E-01 -0.14719630484E-01  0.24067105853E-01  0.00000000000E+00 0. -1.
     999901    1    3    3    0    0  0.41911845925E-01  0.76690653868E-01 -0.83254162004E-01  0.88823944672E+00  0.88000000000E+00 0. -1.
        -11    1    4    4    0    0 -0.12408048853E-01 -0.10142387571E-01  0.31121841221E-01  0.35009396224E-01  0.51100000000E-03 0.  1.
         11    1    4    4    0    0 -0.43957719296E-01 -0.54153017414E-01  0.66851951267E-01  0.96614051203E-01  0.51100000000E-03 0. -1.
</event>
<event>
 8    1  0.1116619E+005  0.1043930E+01  0.7957747E-01            NaN
         13   -1    0    0    0    0  0.00000000000E+00  0.00000000000E+00  0.74505805969E-08  0.10566000000E+00  0.10566000000E+00 0. -1.
     999900   -1    0    0    0    0 -0.00000000000E+00 -0.00000000000E+00 -0.74505805969E-08  0.93827000000E+00  0.93827000000E+00 0. -1.
     999902    2    1    2    0    0 -0.21110354340E-01  0.40428646005E-02 -0.78932750850E-02  0.10210324978E+01  0.10207757178E+01 0.  0.
     999903    2    3    3    0    0 -0.83085021229E-02 -0.98037058926E-01  0.83056481815E-01  0.13038326468E+00  0.20521218471E-01 0.  0.
         14    1    1    2    0    0  0.21110354340E-01 -0.40428646005E-02  0.78932750850E-02  0.22897502180E-01  0.00000000000E+00 0.  1.
     999901    1    3    3    0    0 -0.12801852217E-01  0.10207992353E+00 -0.90949756900E-01  0.89064923314E+00  0.88000000000E+00 0.  1.
        -11    1    4    4    0    0  0.45293238329E-02 -0.59023532663E-01  0.44646536314E-01  0.74147599477E-01  0.51100000000E-03 0.  1.
         11    1    4    4    0    0 -0.12837825956E-01 -0.39013526263E-01  0.38409945501E-01  0.56235665206E-01  0.51100000000E-03 0. -1.
</event>
<event>
 8    1  0.1116619E+005  0.1043930E+01  0.7957747E-01            NaN
         13   -1    0    0    0    0  0.00000000000E+00  0.00000000000E+00  0.74505805969E-08  0.10566000000E+00  0.10566000000E+00 0. -1.
     999900   -1    0    0    0    0 -0.00000000000E+00 -0.00000000000E+00 -0.74505805969E-08  0.93827000000E+00  0.93827000000E+00 0. -1.
     999902    2    1    2    0    0 -0.50034712268E-02 -0.17519715825E-01  0.14686923382E-01  0.10205274171E+01  0.10202590496E+01 0.  0.
     999903    2    3    3    0    0 -0.10154958930E+00  0.74122544121E-01 -0.25265693202E-01  0.12962020069E+00  0.18883075474E-01 0.  0.
         14    1    1    2    0    0  0.50034712268E-02  0.17519715825E-01 -0.14686923382E-01  0.23402582878E-01  0.00000000000E+00 0.  1.
     999901    1    3    3    0    0  0.96546118073E-01 -0.91642259947E-01  0.39952616583E-01  0.89090721643E+00  0.88000000000E+00 0. -1.
        -11    1    4    4    0    0 -0.24168946849E-01  0.21223318589E-01  0.12931055801E-02  0.32194727624E-01  0.51100000000E-03 0. -1.
         11    1    4    4    0    0 -0.77380642451E-01  0.52899225532E-01 -0.26558798782E-01  0.97425473064E-01  0.51100000000E-03 0.  1.
</event>
<event>
 8    1  0.1116619E+005  0.1043930E+01  0.7957747E-01            NaN
         13   -1    0    0    0    0  0.00000000000E+00  0.00000000000E+00  0.74505805969E-08  0.10566000000E+00  0.10566000000E+00 0.  1.
     999900   -1    0    0    0    0 -0.00000000000E+00 -0.00000000000E+00 -0.74505805969E-08  0.93827000000E+00  0.93827000000E+00 0.  1.
     999902    2    1    2    0    0  0.94914355977E-02 -0.83742888676E-02  0.20987189439E-01  0.10194212631E+01  0.10191266033E+01 0.  0.
     999903    2    3    3    0    0 -0.93672860488E-01 -0.68619556411E-01  0.56345279949E-01  0.13064538651E+00  0.20252854856E-01 0.  0.
         14    1    1    2    0    0 -0.94914355977E-02  0.83742888676E-02 -0.20987189439E-01  0.24508736897E-01  0.00000000000E+00 0. -1.
     999901    1    3    3    0    0  0.10316429609E+00  0.60245267543E-01 -0.35358090510E-01  0.88877587659E+00  0.88000000000E+00 0. -1.
        -11    1    4    4    0    0 -0.50757860894E-01 -0.28540715484E-01  0.19935982352E-01  0.61551908144E-01  0.51100000000E-03 0.  1.
         11    1    4    4    0    0 -0.42914999595E-01 -0.40078840926E-01  0.36409297597E-01  0.69093478366E-01  0.51100000000E-03 0. -1.
</event>
<event>
 8    1  0.1116619E+005  0.1043930E+01  0.7957747E-01            NaN
         13   -1    0    0    0    0  0.00000000000E+00  0.00000000000E+00  0.74505805969E-08  0.10566000000E+00  0.10566000000E+00 0. -1.
     999900   -1    0    0    0    0 -0.00000000000E+00 -0.00000000000E+00 -0.74505805969E-08  0.93827000000E+00  0.93827000000E+00 0.  1.
     999902    2    1    2    0    0  0.62299091098E-02 -0.88831489942E-02 -0.20331258451E-01  0.10208847798E+01  0.10206246379E+01 0.  0.
     999903    2    3    3    0    0 -0.11677422881E+00  0.35572191576E-01 -0.42784254760E-01  0.13093510017E+00  0.20295484046E-01 0.  0.
         14    1    1    2    0    0 -0.62299091098E-02  0.88831489942E-02  0.20331258451E-01  0.23045220193E-01  0.00000000000E+00 0. -1.
     999901    1    3    3    0    0  0.12300413792E+00 -0.44455340570E-01  0.22452996310E-01  0.88994967964E+00  0.88000000000E+00 0. -1.
        -11    1    4    4    0    0 -0.33288746709E-02 -0.74839529073E-03  0.16169222137E-02  0.38101260519E-02  0.51100000000E-03 0.  1.
         11    1    4    4    0    0 -0.11344535414E+00  0.36320586867E-01 -0.44401176974E-01  0.12712497411E+00  0.51100000000E-03 0. -1.
</event>
<event>
 8    1  0.1116619E+005  0.1043930E+01  0.7957747E-01            NaN
         13   -1    0    0    0    0  0.00000000000E+00  0.00000000000E+00  0.74505805969E-08  0.10566000000E+00  0.10566000000E+00 0. -1.
     999900   -1    0    0    0    0 -0.00000000000E+00 -0.00000000000E+00 -0.74505805969E-08  0.93827000000E+00  0.93827000000E+00 0. -1.
     999902    2    1    2    0    0 -0.15247639442E-01  0.12427088805E-01  0.78262624077E-02  0.10227598931E+01  0.10225407696E+01 0.  0.
     999903    2    3    3    0    0 -0.57487542355E-01 -0.25458266014E-01 -0.11465672346E+00  0.13246691244E+00  0.21174933827E-01 0.  0.
         14    1    1    2    0    0  0.15247639442E-01 -0.12427088805E-01 -0.78262624077E-02  0.21170106943E-01  0.00000000000E+00 0.  1.
     999901    1    3    3    0    0  0.42239902914E-01  0.37885354819E-01  0.12248298587E+00  0.89029298062E+00  0.88000000000E+00 0. -1.
        -11    1    4    4    0    0 -0.43022116908E-01 -0.16228271090E-01 -0.62750454293E-01  0.77795500903E-01  0.51100000000E-03 0.  1.
         11    1    4    4    0    0 -0.14465425447E-01 -0.92299949241E-02 -0.51906269167E-01  0.54671411537E-01  0.51100000000E-03 0. -1.
</event>
<event>
 8    1  0.1116619E+005  0.1043930E+01  0.7957747E-01            NaN
         13   -1    0    0    0    0  0.00000000000E+00  0.00000000000E+00  0.74505805969E-08  0.10566000000E+00  0.10566000000E+00 0. -1.
     999900   -1    0    0    0    0 -0.00000000000E+00 -0.00000000000E+00 -0.74505805969E-08  0.93827000000E+00  0.93827000000E+00 0.  1.
     999902    2    1    2    0    0 -0.20448817426E-01 -0.27729750171E-02  0.11441820673E-01  0.10203342634E+01  0.10200613954E+01 0.  0.
     999903    2    3    3    0    0 -0.58877505285E-02  0.65739730611E-01  0.11238136595E+00  0.13179906023E+00  0.19622514559E-01 0.  0.
         14    1    1    2    0    0  0.20448817426E-01  0.27729750171E-02 -0.11441820673E-01  0.23595736583E-01  0.00000000000E+00 0.  1.
     999901    1    3    3    0    0 -0.14561066898E-01 -0.68512705629E-01 -0.10093954528E+00  0.88853520319E+00  0.88000000000E+00 0.  1.
        -11    1    4    4    0    0 -0.11916077279E-01  0.30424396960E-01  0.60256264632E-01  0.68547176284E-01  0.51100000000E-03 0.  1.
         11    1    4    4    0    0  0.60283267509E-02  0.35315333652E-01  0.52125101319E-01  0.63251883947E-01  0.51100000000E-03 0. -1.
</event>
<event>
 8    1  0.1116619E+005  0.1043930E+01  0.7957747E-01            NaN
         13   -1    0    0    0    0  0.00000000000E+00  0.00000000000E+00  0.74505805969E-08  0.10566000000E+00  0.10566000000E+00 0.  1.
     999900   -1    0    0    0    0 -0.00000000000E+00 -0.00000000000E+00 -0.74505805969E-08  0.93827000000E+00  0.93827000000E+00 0. -1.
     999902    2    1    2    0    0 -0.20039688737E-01 -0.11514399628E-01 -0.72413415508E-02  0.10197100175E+01  0.10194223425E+01 0.  0.
     999903    2    3    3    0    0  0.37515432825E-01 -0.45067246158E-01 -0.11503881028E+00  0.13063258570E+00  0.19811113019E-01 0.  0.
         14    1    1    2    0    0  0.20039688737E-01  0.11514399628E-01  0.72413415508E-02  0.24219982471E-01  0.00000000000E+00 0.  1.
     999901    1    3    3    0    0 -0.57555121562E-01  0.33552846530E-01  0.10779746873E+00  0.88907743183E+00  0.88000000000E+00 0.  1.
        -11    1    4    4    0    0  0.30743596521E-01 -0.33034613961E-01 -0.68052831546E-01  0.81657231456E-01  0.51100000000E-03 0.  1.
         11    1    4    4    0    0  0.67718363046E-02 -0.12032632197E-01 -0.46985978733E-01  0.48975354241E-01  0.51100000000E-03 0. -1.
</event>
<event>
 8    1  0.1116619E+005  0.1043930E+01  0.7957747E-01            NaN
         13   -1    0    0    0    0  0.00000000000E+00  0.00000000000E+00  0.74505805969E-08  0.10566000000E+00  0.10566000000E+00 0.  1.
     999900   -1    0    0    0    0 -0.00000000000E+00 -0.00000000000E+00 -0.74505805969E-08  0.93827000000E+00  0.93827000000E+00 0.  1.
     999902    2    1    2    0    0 -0.16782427005E-01 -0.46237256512E-02  0.11979846862E-01  0.10227983785E+01  0.10225800593E+01 0.  0.
     999903    2    3    3    0    0  0.12467863664E+00 -0.13306005940E-01 -0.29750063826E-01  0.13048229106E+00  0.20463375916E-01 0.  0.
         14    1    1    2    0    0  0.16782427005E-01  0.46237256512E-02 -0.11979846862E-01  0.21131621469E-01  0.00000000000E+00 0. -1.
     999901    1    3    3    0    0 -0.14146106364E+00  0.86822802887E-02  0.41729910688E-01  0.89231608747E+00  0.88000000000E+00 0. -1.
        -11    1    4    4    0    0  0.71828091868E-02  0.40120708601E-02 -0.11728957763E-02  0.83262396016E-02  0.51100000000E-03 0. -1.
         11    1    4    4    0    0  0.11749582745E+00 -0.17318076800E-01 -0.28577168050E-01  0.12215605146E+00  0.51100000000E-03 0.  1.
</event>
<event>
 8    1  0.1116619E+005  0.1043930E+01  0.7957747E-01            NaN
         13   -1    0    0    0    0  0.00000000000E+00  0.00000000000E+00  0.74505805969E-08  0.10566000000E+00  0.10566000000E+00 0. -1.
     999900   -1    0    0    0    0 -0.00000000000E+00 -0.00000000000E+00 -0.74505805969E-08  0.93827000000E+00  0.93827000000E+00 0.  1.
     999902    2    1    2    0    0  0.17327001109E-01 -0.15745097798E-01  0.12490719972E-03  0.10205174249E+01  0.10202488254E+01 0.  0.
     999903    2    3    3    0    0 -0.11214218694E+00 -0.35312503625E-01  0.50241679587E-01  0.12941875195E+00  0.20053527988E-01 0.  0.
         14    1    1    2    0    0 -0.17327001109E-01  0.15745097798E-01 -0.12490719972E-03  0.23412575123E-01  0.00000000000E+00 0. -1.
     999901    1    3    3    0    0  0.12946918804E+00  0.19567405827E-01 -0.50116772387E-01  0.89109867293E+00  0.88000000000E+00 0.  1.
        -11    1    4    4    0    0 -0.59143468980E-01 -0.10721820586E-01  0.18320446391E-01  0.62839535618E-01  0.51100000000E-03 0. -1.
         11    1    4    4    0    0 -0.52998717955E-01 -0.24590683039E-01  0.31921233196E-01  0.66579216328E-01  0.51100000000E-03 0.  1.
</event>
<event>
 8    1  0.1121686E+005  0.1043930E+01  0.7957747E-01            NaN
         13   -1    0    0    0    0  0.00000000000E+00  0.00000000000E+00  0.74505805969E-08  0.10566000000E+00  0.10566000000E+00 0.  1.
     999900   -1    0    0    0    0 -0.00000000000E+00 -0.00000000000E+00 -0.74505805969E-08  0.93827000000E+00  0.93827000000E+00 0. -1.
     999902    2    1    2    0    0  0.30864510275E-02 -0.12205338589E-02 -0.19408908718E-01  0.10242393520E+01  0.10240500615E+01 0.  0.
     999903    2    3    3    0    0 -0.80894363258E-01  0.60754273860E-01  0.78695474915E-01  0.13265754188E+00  0.34206225276E-01 0.  0.
         14    1    1    2    0    0 -0.30864510275E-02  0.12205338589E-02  0.19408908718E-01  0.19690648046E-01  0.00000000000E+00 0.  1.
     999901    1    3    3    0    0  0.83980814285E-01 -0.61974807719E-01 -0.98104383632E-01  0.89158181007E+00  0.88000000000E+00 0. -1.
        -11    1    4    4    0    0 -0.46716237719E-01  0.48651824091E-01  0.65637958694E-01  0.94116999508E-01  0.51100000000E-03 0. -1.
         11    1    4    4    0    0 -0.34178125539E-01  0.12102449769E-01  0.13057516221E-01  0.38540542376E-01  0.51100000000E-03 0.  1.
</event>
<event>
 8    1  0.1116619E+005  0.1043930E+01  0.7957747E-01            NaN
         13   -1    0    0    0    0  0.00000000000E+00  0.00000000000E+00  0.74505805969E-08  0.10566000000E+00  0.10566000000E+00 0.  1.
     999900   -1    0    0    0    0 -0.00000000000E+00 -0.00000000000E+00 -0.74505805969E-08  0.93827000000E+00  0.93827000000E+00 0.  1.
     999902    2    1    2    0    0  0.18196273809E-01  0.13962105458E-01 -0.59766473264E-02  0.10202284160E+01  0.10199530655E+01 0.  0.
     999903    2    3    3    0    0  0.76967149662E-01 -0.10197654185E+00  0.18019501373E-01  0.13035673936E+00  0.18574710022E-01 0.  0.
         14    1    1    2    0    0 -0.18196273809E-01 -0.13962105458E-01  0.59766473264E-02  0.23701583968E-01  0.00000000000E+00 0. -1.
     999901    1    3    3    0    0 -0.58770875854E-01  0.11593864731E+00 -0.23996148700E-01  0.88987167667E+00  0.88000000000E+00 0.  1.
        -11    1    4    4    0    0  0.10533554627E-01 -0.10035025622E-01 -0.33279980525E-02  0.14932990469E-01  0.51100000000E-03 0.  1.
         11    1    4    4    0    0  0.66433595035E-01 -0.91941516228E-01  0.21347499426E-01  0.11542374889E+00  0.51100000000E-03 0. -1.
</event>
<event>
 8    1  0.1116619E+005  0.1043930E+01  0.7957747E-01            NaN
         13   -1    0    0    0    0  0.00000000000E+00  0.00000000000E+00  0.74505805969E-08  0.10566000000E+00  0.10566000000E+00 0. -1.
     999900   -1    0    0    0    0 -0.00000000000E+00 -0.00000000000E+00 -0.74505805969E-08  0.93827000000E+00  0.93827000000E+00 0. -1.
     999902    2    1    2    0    0 -0.82614581799E-03 -0.89143456280E-02 -0.20961126828E-01  0.10211370863E+01  0.10208826731E+01 0.  0.
     999903    2    3    3    0    0  0.12775860833E+00  0.14647411512E-01 -0.18834740061E-01  0.13147776002E+00  0.19870714158E-01 0.  0.
         14    1    1    2    0    0  0.82614581799E-03  0.89143456280E-02  0.20961126828E-01  0.22792913653E-01  0.00000000000E+00 0. -1.
     999901    1    3    3    0    0 -0.12858475415E+00 -0.23561757140E-01 -0.21263867671E-02  0.88965932633E+00  0.88000000000E+00 0.  1.
        -11    1    4    4    0    0  0.31558203142E-01 -0.17675381124E-02 -0.11393420163E-01  0.33602314214E-01  0.51100000000E-03 0.  1.
         11    1    4    4    0    0  0.96200405185E-01  0.16414949624E-01 -0.74413198977E-02  0.97875445807E-01  0.51100000000E-03 0. -1.
</event>
<event>
 8    1  0.1116619E+005  0.1043930E+01  0.7957747E-01            NaN
         13   -1    0    0    0    0  0.00000000000E+00  0.00000000000E+00  0.74505805969E-08  0.10566000000E+00  0.10566000000E+00 0. -1.
     999900   -1    0    0    0    0 -0.00000000000E+00 -0.00000000000E+00 -0.74505805969E-08  0.93827000000E+00  0.93827000000E+00 0. -1.
     999902    2    1    2    0    0  0.13521800842E-02 -0.12051024514E-01 -0.19340391098E-01  0.10211022469E+01  0.10208470465E+01 0.  0.
     999903    2    3    3    0    0  0.97214215192E-01 -0.60279189734E-01 -0.65508247946E-01  0.13338215776E+00  0.20378545317E-01 0.  0.
         14    1    1    2    0    0 -0.13521800842E-02  0.12051024514E-01  0.19340391098E-01  0.22827753079E-01  0.00000000000E+00 0. -1.
     999901    1    3    3    0    0 -0.95862035108E-01  0.48228165221E-01  0.46167856848E-01  0.88772008916E+00  0.88000000000E+00 0.  1.
        -11    1    4    4    0    0  0.66656289507E-01 -0.31936348261E-01 -0.35336182490E-01  0.81926175214E-01  0.51100000000E-03 0. -1.
         11    1    4    4    0    0  0.30557925685E-01 -0.28342841473E-01 -0.30172065455E-01  0.51455982546E-01  0.51100000000E-03 0.  1.
</event>
<event>
 8    1  0.1116619E+005  0.1043930E+01  0.7957747E-01            NaN
         13   -1    0    0    0    0  0.00000000000E+00  0.00000000000E+00  0.74505805969E-08  0.10566000000E+00  0.10566000000E+00 0.  1.
     999900   -1    0    0    0    0 -0.00000000000E+00 -0.00000000000E+00 -0.74505805969E-08  0.93827000000E+00  0.93827000000E+00 0. -1.
     999902    2    1    2    0    0 -0.14326637832E-01  0.17330341963E-01  0.74537344391E-03  0.10214322471E+01  0.10211844527E+01 0.  0.
     999903    2    3    3    0    0 -0.16031905910E-01  0.94184999134E-01  0.90975643977E-01  0.13348458648E+00  0.20340377645E-01 0.  0.
         14    1    1    2    0    0  0.14326637832E-01 -0.17330341963E-01 -0.74537344391E-03  0.22497752903E-01  0.00000000000E+00 0.  1.
     999901    1    3    3    0    0  0.17052680783E-02 -0.76854657172E-01 -0.90230270533E-01  0.88794766061E+00  0.88000000000E+00 0. -1.
        -11    1    4    4    0    0 -0.17991966937E-01  0.77744214110E-01  0.82858333323E-01  0.11503755136E+00  0.51100000000E-03 0. -1.
         11    1    4    4    0    0  0.19600610270E-02  0.16440785025E-01  0.81173106533E-02  0.18447035119E-01  0.51100000000E-03 0.  1.
</event>
<event>
 8    1  0.1116619E+005  0.1043930E+01  0.7957747E-01            NaN
         13   -1    0    0    0    0  0.00000000000E+00  0.00000000000E+00  0.74505805969E-08  0.10566000000E+00  0.10566000000E+00 0. -1.
     999900   -1    0    0    0    0 -0.00000000000E+00 -0.00000000000E+00 -0.74505805969E-08  0.93827000000E+00  0.93827000000E+00 0.  1.
     999902    2    1    2    0    0  0.10000777971E-01  0.14234799841E-02 -0.20816765703E-01  0.10207917289E+01  0.10205294578E+01 0.  0.
     999903    2    3    3    0    0  0.71277989940E-01 -0.10809640208E+00 -0.14463943689E-01  0.13186548920E+00  0.20344964567E-01 0.  0.
         14    1    1    2    0    0 -0.10000777971E-01 -0.14234799841E-02  0.20816765703E-01  0.23138271103E-01  0.00000000000E+00 0. -1.
     999901    1    3    3    0    0 -0.61277211969E-01  0.10951988206E+00 -0.63528220138E-02  0.88892623970E+00  0.88000000000E+00 0. -1.
        -11    1    4    4    0    0  0.53920938594E-01 -0.79045765687E-01 -0.17239653094E-02  0.95702319038E-01  0.51100000000E-03 0.  1.
         11    1    4    4    0    0  0.17357051346E-01 -0.29050636390E-01 -0.12739978379E-01  0.36163170163E-01  0.51100000000E-03 0. -1.
</event>
<event>
 8    1  0.1116619E+005  0.1043930E+01  0.7957747E-01            NaN
         13   -1    0    0    0    0  0.00000000000E+00  0.00000000000E+00  0.74505805969E-08  0.10566000000E+00  0.10566000000E+00 0. -1.
     999900   -1    0    0    0    0 -0.00000000000E+00 -0.00000000000E+00 -0.74505805969E-08  0.93827000000E+00  0.93827000000E+00 0. -1.
     999902    2    1    2    0    0 -0.11629704374E-01  0.10295311229E-01  0.20811686900E-01  0.10179613695E+01  0.10176300802E+01 0.  0.
     999903    2    3    3    0    0  0.45215979285E-01  0.10174139402E+00  0.64806704335E-01  0.13030750716E+00  0.19604628427E-01 0.  0.
         14    1    1    2    0    0  0.11629704374E-01 -0.10295311229E-01 -0.20811686900E-01  0.25968630475E-01  0.00000000000E+00 0.  1.
     999901    1    3    3    0    0 -0.56845683658E-01 -0.91446082794E-01 -0.43995017435E-01  0.88765386236E+00  0.88000000000E+00 0. -1.
        -11    1    4    4    0    0  0.21398139697E-01  0.41198906263E-01  0.16494013179E-01  0.49270111138E-01  0.51100000000E-03 0.  1.
         11    1    4    4    0    0  0.23817839587E-01  0.60542487760E-01  0.48312691156E-01  0.81037396025E-01  0.51100000000E-03 0. -1.
</event>
<event>
 8    1  0.1116619E+005  0.1043930E+01  0.7957747E-01            NaN
         13   -1    0    0    0    0  0.00000000000E+00  0.00000000000E+00  0.74505805969E-08  0.10566000000E+00  0.10566000000E+00 0. -1.
     999900   -1    0    0    0    0 -0.00000000000E+00 -0.00000000000E+00 -0.74505805969E-08  0.93827000000E+00  0.93827000000E+00 0. -1.
     999902    2    1    2    0    0 -0.61254567748E-02  0.13778861507E-01  0.19111256926E-01  0.10195862454E+01  0.10192955869E+01 0.  0.
     999903    2    3    3    0    0  0.53564983477E-01 -0.68171243743E-01 -0.90666610809E-01  0.12698894057E+00  0.19728932624E-01 0.  0.
         14    1    1    2    0    0  0.61254567748E-02 -0.13778861507E-01 -0.19111256926E-01  0.24343754568E-01  0.00000000000E+00 0.  1.
     999901    1    3    3    0    0 -0.59690440252E-01  0.81950105250E-01  0.10977786774E+00  0.89259730487E+00  0.88000000000E+00 0.  1.
        -11    1    4    4    0    0  0.24029054295E-02 -0.13274627566E-01 -0.99029902579E-02  0.16742760482E-01  0.51100000000E-03 0.  1.
         11    1    4    4    0    0  0.51162078048E-01 -0.54896616177E-01 -0.80763620551E-01  0.11024618009E+00  0.51100000000E-03 0. -1.
</event>
<event>
 8    1  0.1116619E+005  0.1043930E+01  0.7957747E-01            NaN
         13   -1    0    0    0    0  0.00000000000E+00  0.00000000000E+00  0.74505805969E-08  0.10566000000E+00  0.10566000000E+00 0. -1.
     999900   -1    0    0    0    0 -0.00000000000E+00 -0.00000000000E+00 -0.74505805969E-08  0.93827000000E+00  0.93827000000E+00 0. -1.
     999902    2    1    2    0    0  0.76168687603E-02 -0.44376008332E-02 -0.18766097621E-01  0.10231965630E+01  0.10229864765E+01 0.  0.
     999903    2    3    3    0    0  0.83192978391E-03  0.12347850379E+00 -0.46741388290E-01  0.13348246165E+00  0.19625931392E-01 0.  0.
         14    1    1    2    0    0 -0.76168687603E-02  0.44376008332E-02  0.18766097621E-01  0.20733437023E-01  0.00000000000E+00 0. -1.
     999901    1    3    3    0    0  0.67849389764E-02 -0.12791610462E+00  0.27975290670E-01  0.88971410133E+00  0.88000000000E+00 0.  1.
        -11    1    4    4    0    0 -0.49830160233E-02  0.60649484754E-01 -0.14220642332E-01  0.62495425744E-01  0.51100000000E-03 0. -1.
         11    1    4    4    0    0  0.58149458072E-02  0.62829019034E-01 -0.32520745958E-01  0.70987035903E-01  0.51100000000E-03 0.  1.
</event>
<event>
 8    1  0.1116619E+005  0.1043930E+01  0.7957747E-01            NaN
         13   -1    0    0    0    0  0.00000000000E+00  0.00000000000E+00  0.74505805969E-08  0.10566000000E+00  0.10566000000E+00 0. -1.
     999900   -1    0    0    0    0 -0.00000000000E+00 -0.00000000000E+00 -0.74505805969E-08  0.93827000000E+00  0.93827000000E+00 0. -1.
     999902    2    1    2    0    0  0.61809455293E-02  0.21107401403E-01 -0.69730768211E-02  0.10208572827E+01  0.10205965126E+01 0.  0.
     999903    2    3    3    0    0  0.12958458196E+00 -0.37406225979E-02  0.10658143552E-01  0.13172470448E+00  0.20776082593E-01 0.  0.
         14    1    1    2    0    0 -0.61809455293E-02 -0.21107401403E-01  0.69730768211E-02  0.23072717264E-01  0.00000000000E+00 0. -1.
     999901    1    3    3    0    0 -0.12340363643E+00  0.24848024001E-01 -0.17631220373E-01  0.88913257825E+00  0.88000000000E+00 0. -1.
        -11    1    4    4    0    0  0.84118953982E-01 -0.88454454148E-02 -0.67847194222E-03  0.84587007092E-01  0.51100000000E-03 0.  1.
         11    1    4    4    0    0  0.45465627977E-01  0.51048228169E-02  0.11336615495E-01  0.47137697390E-01  0.51100000000E-03 0. -1.
</event>
<event>
 7    1  0.1116619E+005  0.1043930E+01  0.7957747E-01            NaN
         13   -1    0    0    0    0  0.00000000000E+00  0.00000000000E+00  0.74505805969E-08  0.10566000000E+00  0.10566000000E+00 0. -1.
     999900   -1    0    0    0    0 -0.00000000000E+00 -0.00000000000E+00 -0.74505805969E-08  0.93827000000E+00  0.93827000000E+00 0.  1.
     999902    2    1    2    0    0 -0.21728342075E-01 -0.54791364295E-02  0.43177850884E-02  0.10211092846E+01  0.10208542432E+01 0.  0.
         14    1    1    2    0    0  0.21728342075E-01  0.54791364295E-02 -0.43177850884E-02  0.22820715444E-01  0.00000000000E+00 0.  1.
     999901    1    3    3    0    0  0.37220294598E-01 -0.59803462640E-01  0.10204811697E+00  0.88869321065E+00  0.88000000000E+00 0. -1.
        -11    1    3    3    0    0 -0.17185909168E-01  0.12285117679E-01 -0.56231087833E-01  0.60070591393E-01  0.51100000000E-03 0. -1.
         11    1    3    3    0    0 -0.41762727504E-01  0.42039208532E-01 -0.41499244051E-01  0.72345482515E-01  0.51100000000E-03 0.  1.
</event>
<event>
 8    1  0.1116619E+005  0.1043930E+01  0.7957747E-01            NaN
         13   -1    0    0    0    0  0.00000000000E+00  0.00000000000E+00  0.74505805969E-08  0.10566000000E+00  0.10566000000E+00 0.  1.
     999900   -1    0    0    0    0 -0.00000000000E+00 -0.00000000000E+00 -0.74505805969E-08  0.93827000000E+00  0.93827000000E+00 0. -1.
     999902    2    1    2    0    0 -0.13312694485E-01  0.15994825378E-01 -0.11515029368E-01  0.10201464306E+01  0.10198691493E+01 0.  0.
     999903    2    3    3    0    0 -0.59330976127E-01 -0.11330620770E+00 -0.15420347572E-03  0.12943575490E+00  0.19877862971E-01 0.  0.
         14    1    1    2    0    0  0.13312694485E-01 -0.15994825378E-01  0.11515029368E-01  0.23783569427E-01  0.00000000000E+00 0.  1.
     999901    1    3    3    0    0  0.46018281642E-01  0.12930103307E+00 -0.11360825892E-01  0.89071067568E+00  0.88000000000E+00 0.  1.
        -11    1    4    4    0    0  0.14864619333E-02 -0.15875154619E-02  0.51038193805E-04  0.22346141319E-02  0.51100000000E-03 0.  1.
         11    1    4    4    0    0 -0.60817438060E-01 -0.11171869223E+00 -0.20524166953E-03  0.12720114076E+00  0.51100000000E-03 0. -1.
</event>
<event>
 8    1  0.1116619E+005  0.1043930E+01  0.7957747E-01            NaN
         13   -1    0    0    0    0  0.00000000000E+00  0.00000000000E+00  0.74505805969E-08  0.10566000000E+00  0.10566000000E+00 0.  1.
     999900   -1    0    0    0    0 -0.00000000000E+00 -0.00000000000E+00 -0.74505805969E-08  0.93827000000E+00  0.93827000000E+00 0.  1.
     999902    2    1    2    0    0  0.18599922051E-01  0.22335081517E-02 -0.16573201892E-01  0.10189176694E+01  0.10186106226E+01 0.  0.
     999903    2    3    3    0    0  0.11192707767E+00 -0.59530296331E-01 -0.29894948517E-01  0.13172986832E+00  0.19685613166E-01 0.  0.
         14    1    1    2    0    0 -0.18599922051E-01 -0.22335081517E-02  0.16573201892E-01  0.25012330557E-01  0.00000000000E+00 0.  1.
     999901    1    3    3    0    0 -0.93327155616E-01  0.61763804482E-01  0.13321746625E-01  0.88718780112E+00  0.88000000000E+00 0. -1.
        -11    1    4    4    0    0  0.52980536652E-01 -0.19042485577E-01 -0.18821693234E-01  0.59363884459E-01  0.51100000000E-03 0. -1.
         11    1    4    4    0    0  0.58946541015E-01 -0.40487810754E-01 -0.11073255283E-01  0.72365983865E-01  0.51100000000E-03 0.  1.
</event>
<event>
 8    1  0.1116619E+005  0.1043930E+01  0.7957747E-01            NaN
         13   -1    0    0    0    0  0.00000000000E+00  0.00000000000E+00  0.74505805969E-08  0.10566000000E+00  0.10566000000E+00 0. -1.
     999900   -1    0    0    0    0 -0.00000000000E+00 -0.00000000000E+00 -0.74505805969E-08  0.93827000000E+00  0.93827000000E+00 0.  1.
     999902    2    1    2    0    0 -0.20990211586E-01 -0.24263579741E-02 -0.11850409311E-01  0.10197038076E+01  0.10194159833E+01 0.  0.
     999903    2    3    3    0    0  0.96670797850E-02  0.11699147744E+00 -0.52852094396E-01  0.13016368650E+00  0.19203728227E-01 0.  0.
         14    1    1    2    0    0  0.20990211586E-01  0.24263579741E-02  0.11850409311E-01  0.24226192360E-01  0.00000000000E+00 0. -1.
     999901    1    3    3    0    0 -0.30657291371E-01 -0.11941783541E+00  0.41001685085E-01  0.88954012113E+00  0.88000000000E+00 0. -1.
        -11    1    4    4    0    0  0.13657132677E-01  0.99099745066E-01 -0.39845165667E-01  0.10768089475E+00  0.51100000000E-03 0.  1.
         11    1    4    4    0    0 -0.39900528918E-02  0.17891732372E-01 -0.13006928729E-01  0.22482791760E-01  0.51100000000E-03 0. -1.
</event>
<event>
 8    1  0.1116619E+005  0.1043930E+01  0.7957747E-01            NaN
         13   -1    0    0    0    0  0.00000000000E+00  0.00000000000E+00  0.74505805969E-08  0.10566000000E+00  0.10566000000E+00 0. -1.
     999900   -1    0    0    0    0 -0.00000000000E+00 -0.00000000000E+00 -0.74505805969E-08  0.93827000000E+00  0.93827000000E+00 0.  1.
     999902    2    1    2    0    0  0.28658795334E-01 -0.64752124814E-02 -0.14559618808E-01  0.10111391869E+01  0.10106073509E+01 0.  0.
     999903    2    3    3    0    0 -0.17737773386E-01  0.23103702770E-01  0.11474459528E+00  0.11998985392E+00  0.19566124085E-01 0.  0.
         14    1    1    2    0    0 -0.28658795334E-01  0.64752124814E-02  0.14559618808E-01  0.32790813142E-01  0.00000000000E+00 0. -1.
     999901    1    3    3    0    0  0.46396568719E-01 -0.29578915251E-01 -0.12930421409E+00  0.89114933294E+00  0.88000000000E+00 0.  1.
        -11    1    4    4    0    0 -0.71313947991E-02  0.15058407232E-01  0.31050860881E-01  0.35242438942E-01  0.51100000000E-03 0. -1.
         11    1    4    4    0    0 -0.10606378587E-01  0.80452955381E-02  0.83693734397E-01  0.84747414978E-01  0.51100000000E-03 0.  1.
</event>
<event>
 8    1  0.1116619E+005  0.1043930E+01  0.7957747E-01            NaN
         13   -1    0    0    0    0  0.00000000000E+00  0.00000000000E+00  0.74505805969E-08  0.10566000000E+00  0.10566000000E+00 0.  1.
     999900   -1    0    0    0    0 -0.00000000000E+00 -0.00000000000E+00 -0.74505805969E-08  0.93827000000E+00  0.93827000000E+00 0.  1.
     999902    2    1    2    0    0 -0.41073448580E-02 -0.63287771390E-02  0.34311137680E-01  0.10087991322E+01  0.10081872402E+01 0.  0.
     999903    2    3    3    0    0 -0.63311225497E-01 -0.10083993481E+00 -0.60286297710E-02  0.12084375314E+00  0.19744988440E-01 0.  0.
         14    1    1    2    0    0  0.41073448580E-02  0.63287771390E-02 -0.34311137680E-01  0.35130867777E-01  0.00000000000E+00 0. -1.
     999901    1    3    3    0    0  0.59203880639E-01  0.94511157675E-01  0.40339767451E-01  0.88795537908E+00  0.88000000000E+00 0.  1.
        -11    1    4    4    0    0 -0.45779914974E-01 -0.65283310844E-01  0.43675262907E-02  0.79856419258E-01  0.51100000000E-03 0.  1.
         11    1    4    4    0    0 -0.17531310523E-01 -0.35556623969E-01 -0.10396156062E-01  0.40987333880E-01  0.51100000000E-03 0. -1.
</event>
<event>
 8    1  0.1116619E+005  0.1043930E+01  0.7957747E-01            NaN
         13   -1    0    0    0    0  0.00000000000E+00  0.00000000000E+00  0.74505805969E-08  0.10566000000E+00  0.10566000000E+00 0.  1.
     999900   -1    0    0    0    0 -0.00000000000E+00 -0.00000000000E+00 -0.74505805969E-08  0.93827000000E+00  0.93827000000E+00 0.  1.
     999902    2    1    2    0    0  0.16427566280E-01  0.11052379491E-01  0.95374024470E-02  0.10219531469E+01  0.10217168162E+01 0.  0.
     999903    2    3    3    0    0 -0.93492449142E-01  0.86106577663E-01 -0.25940490916E-01  0.13123757875E+00  0.19879945742E-01 0.  0.
         14    1    1    2    0    0 -0.16427566280E-01 -0.11052379491E-01 -0.95374024470E-02  0.21976853090E-01  0.00000000000E+00 0. -1.
     999901    1    3    3    0    0  0.10992001542E+00 -0.75054198173E-01  0.35477893363E-01  0.89071556816E+00  0.88000000000E+00 0. -1.
        -11    1    4    4    0    0 -0.17420846099E-01  0.99513460920E-02  0.15860605547E-02  0.20131862232E-01  0.51100000000E-03 0. -1.
         11    1    4    4    0    0 -0.76071603043E-01  0.76155231571E-01 -0.27526551471E-01  0.11110571651E+00  0.51100000000E-03 0.  1.
</event>
<event>
 8    1  0.1116619E+005  0.1043930E+01  0.7957747E-01            NaN
         13   -1    0    0    0    0  0.00000000000E+00  0.00000000000E+00  0.74505805969E-08  0.10566000000E+00  0.10566000000E+00 0. -1.
     999900   -1    0    0    0    0 -0.00000000000E+00 -0.00000000000E+00 -0.74505805969E-08  0.93827000000E+00  0.93827000000E+00 0. -1.
     999902    2    1    2    0    0 -0.14086971467E-01 -0.29171473548E-02  0.17662873604E-01  0.10211499733E+01  0.10208958509E+01 0.  0.
     999903    2    3    3    0    0 -0.68385404095E-01 -0.10345234501E+00  0.40138971728E-01  0.13347840071E+00  0.28747090699E-01 0.  0.
         14    1    1    2    0    0  0.14086971467E-01  0.29171473548E-02 -0.17662873604E-01  0.22780026729E-01  0.00000000000E+00 0.  1.
     999901    1    3    3    0    0  0.54298432627E-01  0.10053519765E+00 -0.22476098124E-01  0.88767157256E+00  0.88000000000E+00 0.  1.
        -11    1    4    4    0    0 -0.27608652336E-01 -0.65776830357E-01  0.28071672932E-01  0.76662305195E-01  0.51100000000E-03 0.  1.
         11    1    4    4    0    0 -0.40776751759E-01 -0.37675514648E-01  0.12067298795E-01  0.56816095512E-01  0.51100000000E-03 0. -1.
</event>
<event>
 8    1  0.1116619E+005  0.1043930E+01  0.7957747E-01            NaN
         13   -1    0    0    0    0  0.00000000000E+00  0.00000000000E+00  0.74505805969E-08  0.10566000000E+00  0.10566000000E+00 0. -1.
     999900   -1    0    0    0    0 -0.00000000000E+00 -0.00000000000E+00 -0.74505805969E-08  0.93827000000E+00  0.93827000000E+00 0. -1.
     999902    2    1    2    0    0  0.52534901594E-02 -0.11262632857E-01  0.20566827502E-01  0.10199000093E+01  0.10196168832E+01 0.  0.
     999903    2    3    3    0    0  0.12560927170E+00  0.23921583282E-01 -0.14749551250E-01  0.13030982851E+00  0.20326604741E-01 0.  0.
         14    1    1    2    0    0 -0.52534901594E-02  0.11262632857E-01 -0.20566827502E-01  0.24029990662E-01  0.00000000000E+00 0.  1.
     999901    1    3    3    0    0 -0.12035578154E+00 -0.35184216139E-01  0.35316378752E-01  0.88959018083E+00  0.88000000000E+00 0. -1.
        -11    1    4    4    0    0  0.51972396286E-01  0.14634236713E-01 -0.15170968255E-01  0.56086631728E-01  0.51100000000E-03 0.  1.
         11    1    4    4    0    0  0.73636875416E-01  0.92873465688E-02  0.42141700439E-03  0.74223196782E-01  0.51100000000E-03 0. -1.
</event>
<event>
 8    1  0.1116619E+005  0.1043930E+01  0.7957747E-01            NaN
         13   -1    0    0    0    0  0.00000000000E+00  0.00000000000E+00  0.74505805969E-08  0.10566000000E+00  0.10566000000E+00 0. -1.
     999900   -1    0    0    0    0 -0.00000000000E+00 -0.00000000000E+00 -0.74505805969E-08  0.93827000000E+00  0.93827000000E+00 0. -1.
     999902    2    1    2    0    0  0.14457335806E-01  0.18329506221E-01  0.31994052686E-03  0.10205828863E+01  0.10203158041E+01 0.  0.
     999903    2    3    3    0    0 -0.10069879239E+00  0.80054997519E-01  0.13419538726E-01  0.13083990676E+00  0.19747095114E-01 0.  0.
         14    1    1    2    0    0 -0.14457335806E-01 -0.18329506221E-01 -0.31994052686E-03  0.23347113716E-01  0.00000000000E+00 0. -1.
     999901    1    3    3    0    0  0.11515612819E+00 -0.61725491298E-01 -0.13099598199E-01  0.88974297952E+00  0.88000000000E+00 0. -1.
        -11    1    4    4    0    0 -0.11569122002E-01  0.64093227639E-02 -0.41970623935E-02  0.13885260384E-01  0.51100000000E-03 0.  1.
         11    1    4    4    0    0 -0.89129670386E-01  0.73645674755E-01  0.17616601119E-01  0.11695464638E+00  0.51100000000E-03 0. -1.
</event>
<event>
 8    1  0.1116619E+005  0.1043930E+01  0.7957747E-01            NaN
         13   -1    0    0    0    0  0.00000000000E+00  0.00000000000E+00  0.74505805969E-08  0.10566000000E+00  0.10566000000E+00 0.  1.
     999900   -1    0    0    0    0 -0.00000000000E+00 -0.00000000000E+00 -0.74505805969E-08  0.93827000000E+00  0.93827000000E+00 0. -1.
     999902    2    1    2    0    0  0.68454018513E-04  0.13066760267E-01 -0.19866502341E-01  0.10201513788E+01  0.10198742142E+01 0.  0.
     999903    2    3    3    0    0  0.76606121117E-01 -0.10797015491E-01 -0.10542903333E+00  0.13237413143E+00  0.20556173470E-01 0.  0.
         14    1    1    2    0    0 -0.68454018513E-04 -0.13066760267E-01  0.19866502341E-01  0.23778621177E-01  0.00000000000E+00 0. -1.
     999901    1    3    3    0    0 -0.76537667099E-01  0.23863775759E-01  0.85562530985E-01  0.88777724739E+00  0.88000000000E+00 0.  1.
        -11    1    4    4    0    0  0.77534701022E-01 -0.11869971397E-01 -0.10240094503E+00  0.12899124291E+00  0.51100000000E-03 0. -1.
         11    1    4    4    0    0 -0.92857990414E-03  0.10729559052E-02 -0.30280882954E-02  0.33828885199E-02  0.51100000000E-03 0.  1.
</event>
<event>
 8    1  0.1116619E+005  0.1043930E+01  0.7957747E-01            NaN
         13   -1    0    0    0    0  0.00000000000E+00  0.00000000000E+00  0.74505805969E-08  0.10566000000E+00  0.10566000000E+00 0.  1.
     999900   -1    0    0    0    0 -0.00000000000E+00 -0.00000000000E+00 -0.74505805969E-08  0.93827000000E+00  0.93827000000E+00 0.  1.
     999902    2    1    2    0    0 -0.12069198059E-01  0.19305691819E-01 -0.61146085884E-02  0.10203553586E+01  0.10200829839E+01 0.  0.
     999903    2    3    3    0    0 -0.56786390104E-01  0.11814821193E+00  0.15052503679E-01  0.13344075298E+00  0.19903833949E-01 0.  0.
         14    1    1    2    0    0  0.12069198059E-01 -0.19305691819E-01  0.61146085884E-02  0.23574641388E-01  0.00000000000E+00 0.  1.
     999901    1    3    3    0    0  0.44717192045E-01 -0.98842520107E-01 -0.21167112267E-01  0.88691460563E+00  0.88000000000E+00 0. -1.
        -11    1    4    4    0    0 -0.28693674952E-01  0.80985999546E-01  0.75432729037E-02  0.86250919947E-01  0.51100000000E-03 0. -1.
         11    1    4    4    0    0 -0.28092715151E-01  0.37162212380E-01  0.75092307752E-02  0.47189833030E-01  0.51100000000E-03 0.  1.
</event>
<event>
 8    1  0.1116619E+005  0.1043930E+01  0.7957747E-01            NaN
         13   -1    0    0    0    0  0.00000000000E+00  0.00000000000E+00  0.74505805969E-08  0.10566000000E+00  0.10566000000E+00 0. -1.
     999900   -1    0    0    0    0 -0.00000000000E+00 -0.00000000000E+00 -0.74505805969E-08  0.93827000000E+00  0.93827000000E+00 0.  1.
     999902    2    1    2    0    0  0.73355754312E-02 -0.20495867677E-01 -0.53441577079E-02  0.10215145749E+01  0.10212686109E+01 0.  0.
     999903    2    3    3    0    0 -0.50111922577E-01  0.98625974890E-01 -0.64621653361E-01  0.12966029879E+00  0.19938588026E-01 0.  0.
         14    1    1    2    0    0 -0.73355754312E-02  0.20495867677E-01  0.53441577079E-02  0.22415425054E-01  0.00000000000E+00 0. -1.
     999901    1    3    3    0    0  0.57447498008E-01 -0.11912184257E+00  0.59277495653E-01  0.89185427615E+00  0.88000000000E+00 0. -1.
        -11    1    4    4    0    0 -0.93227157752E-02  0.38214367432E-01 -0.26146408583E-01  0.47235015724E-01  0.51100000000E-03 0. -1.
         11    1    4    4    0    0 -0.40789206801E-01  0.60411607457E-01 -0.38475244778E-01  0.82425283068E-01  0.51100000000E-03 0.  1.
</event>
<event>
 8    1  0.1116619E+005  0.1043930E+01  0.7957747E-01            NaN
         13   -1    0    0    0    0  0.00000000000E+00  0.00000000000E+00  0.74505805969E-08  0.10566000000E+00  0.10566000000E+00 0. -1.
     999900   -1    0    0    0    0 -0.00000000000E+00 -0.00000000000E+00 -0.74505805969E-08  0.93827000000E+00  0.93827000000E+00 0.  1.
     999902    2    1    2    0    0  0.20383453156E-01  0.15927531744E-01  0.35706215800E-02  0.10178163873E+01  0.10174813401E+01 0.  0.
     999903    2    3    3    0    0 -0.17942266228E-01  0.95375570664E-01  0.83913021353E-01  0.12976472615E+00  0.19469581519E-01 0.  0.
         14    1    1    2    0    0 -0.20383453156E-01 -0.15927531744E-01 -0.35706215800E-02  0.26113612704E-01  0.00000000000E+00 0. -1.
     999901    1    3    3    0    0  0.38325719383E-01 -0.79448038920E-01 -0.80342399773E-01  0.88805166114E+00  0.88000000000E+00 0.  1.
        -11    1    4    4    0    0 -0.17600604597E-01  0.95813697559E-01  0.80813463763E-01  0.12657457473E+00  0.51100000000E-03 0. -1.
         11    1    4    4    0    0 -0.34166163069E-03 -0.43812689545E-03  0.30995575897E-02  0.31901514225E-02  0.51100000000E-03 0.  1.
</event>
<event>
 8    1  0.1116619E+005  0.1043930E+01  0.7957747E-01            NaN
         13   -1    0    0    0    0  0.00000000000E+00  0.00000000000E+00  0.74505805969E-08  0.10566000000E+00  0.10566000000E+00 0.  1.
     999900   -1    0    0    0    0 -0.00000000000E+00 -0.00000000000E+00 -0.74505805969E-08  0.93827000000E+00  0.93827000000E+00 0. -1.
     999902    2    1    2    0    0 -0.89240967110E-02 -0.78232765095E-02  0.19897411522E-01  0.10207621312E+01  0.10204991810E+01 0.  0.
     999903    2    3    3    0    0 -0.65146030726E-01 -0.88559182450E-01 -0.68371433370E-01  0.13089102746E+00  0.19263282495E-01 0.  0.
         14    1    1    2    0    0  0.89240967110E-02  0.78232765095E-02 -0.19897411522E-01  0.23167868756E-01  0.00000000000E+00 0. -1.
     999901    1    3    3    0    0  0.56221934015E-01  0.80735905941E-01  0.88268844892E-01  0.88987110378E+00  0.88000000000E+00 0.  1.
        -11    1    4    4    0    0 -0.25443943175E-01 -0.39500976740E-01 -0.39939479382E-01  0.61669640359E-01  0.51100000000E-03 0. -1.
         11    1    4    4    0    0 -0.39702087551E-01 -0.49058205710E-01 -0.28431953989E-01  0.69221387100E-01  0.51100000000E-03 0.  1.
</event>
<event>
 8    1  0.1116619E+005  0.1043930E+01  0.7957747E-01            NaN
         13   -1    0    0    0    0  0.00000000000E+00  0.00000000000E+00  0.74505805969E-08  0.10566000000E+00  0.10566000000E+00 0. -1.
     999900   -1    0    0    0    0 -0.00000000000E+00 -0.00000000000E+00 -0.74505805969E-08  0.93827000000E+00  0.93827000000E+00 0. -1.
     999902    2    1    2    0    0 -0.10064015553E-01  0.21038379749E-01  0.62749540433E-02  0.10197789570E+01  0.10194929368E+01 0.  0.
     999903    2    3    3    0    0 -0.50272439612E-01  0.88937966153E-01 -0.81033783610E-01  0.13194457665E+00  0.20139940730E-01 0.  0.
         14    1    1    2    0    0  0.10064015553E-01 -0.21038379749E-01 -0.62749540433E-02  0.24151043037E-01  0.00000000000E+00 0.  1.
     999901    1    3    3    0    0  0.40208424058E-01 -0.67899586405E-01  0.87308737654E-01  0.88783438032E+00  0.88000000000E+00 0.  1.
        -11    1    4    4    0    0 -0.21147763550E-01  0.21237473640E-01 -0.29154248927E-01  0.41814943995E-01  0.51100000000E-03 0.  1.
         11    1    4    4    0    0 -0.29124676062E-01  0.67700492514E-01 -0.51879534683E-01  0.90129632653E-01  0.51100000000E-03 0. -1.
</event>
<event>
 8    1  0.1116619E+005  0.1043930E+01  0.7957747E-01            NaN
         13   -1    0    0    0    0  0.00000000000E+00  0.00000000000E+00  0.74505805969E-08  0.10566000000E+00  0.10566000000E+00 0.  1.
     999900   -1    0    0    0    0 -0.00000000000E+00 -0.00000000000E+00 -0.74505805969E-08  0.93827000000E+00  0.93827000000E+00 0. -1.
     999902    2    1    2    0    0  0.21240507301E-01  0.91549511701E-02  0.54214849145E-02  0.10201736371E+01  0.10198969972E+01 0.  0.
     999903    2    3    3    0    0  0.12160681255E+00  0.48904917120E-01  0.15316254734E-01  0.13352186692E+00  0.20336998528E-01 0.  0.
         14    1    1    2    0    0 -0.21240507301E-01 -0.91549511701E-02 -0.54214849145E-02  0.23756362937E-01  0.00000000000E+00 0. -1.
     999901    1    3    3    0    0 -0.10036630525E+00 -0.39749965949E-01 -0.98947698198E-02  0.88665177014E+00  0.88000000000E+00 0. -1.
        -11    1    4    4    0    0  0.18508209633E-01  0.15148855811E-01 -0.25881517369E-03  0.23924250511E-01  0.51100000000E-03 0. -1.
         11    1    4    4    0    0  0.10309860292E+00  0.33756061309E-01  0.15575069908E-01  0.10959761641E+00  0.51100000000E-03 0.  1.
</event>
<event>
 8    1  0.1116619E+005  0.1043930E+01  0.7957747E-01            NaN
         13   -1    0    0    0    0  0.00000000000E+00  0.00000000000E+00  0.74505805969E-08  0.10566000000E+00  0.10566000000E+00 0. -1.
     999900   -1    0    0    0    0 -0.00000000000E+00 -0.00000000000E+00 -0.74505805969E-08  0.93827000000E+00  0.93827000000E+00 0.  1.
     999902    2    1    2    0    0 -0.10391061869E-01  0.12552460419E-01 -0.16490174973E-01  0.10207467237E+01  0.10204834196E+01 0.  0.
     999903    2    3    3    0    0  0.55806888132E-01  0.10299134831E+00  0.54286829560E-01  0.13081934161E+00  0.21095347464E-01 0.  0.
         14    1    1    2    0    0  0.10391061869E-01 -0.12552460419E-01  0.16490174973E-01  0.23183276299E-01  0.00000000000E+00 0.  1.
     999901    1    3    3    0    0 -0.66197950001E-01 -0.90438887895E-01 -0.70777004533E-01  0.88992738209E+00  0.88000000000E+00 0.  1.
        -11    1    4    4    0    0  0.33483957887E-01  0.65060651980E-01  0.22596107949E-01  0.76582694437E-01  0.51100000000E-03 0. -1.
         11    1    4    4    0    0  0.22322930245E-01  0.37930696334E-01  0.31690721611E-01  0.54236647171E-01  0.51100000000E-03 0.  1.
</event>
<event>
 8    1  0.1116619E+005  0.1043930E+01  0.7957747E-01            NaN
         13   -1    0    0    0    0  0.00000000000E+00  0.00000000000E+00  0.74505805969E-08  0.10566000000E+00  0.10566000000E+00 0. -1.
     999900   -1    0    0    0    0 -0.00000000000E+00 -0.00000000000E+00 -0.74505805969E-08  0.93827000000E+00  0.93827000000E+00 0. -1.
     999902    2    1    2    0    0  0.21002040820E-01  0.14477047984E-01 -0.11303836919E-01  0.10160293304E+01  0.10156461750E+01 0.  0.
     999903    2    3    3    0    0 -0.40344768768E-01 -0.73536967769E-01 -0.91751865641E-01  0.12587103919E+00  0.19741521311E-01 0.  0.
         14    1    1    2    0    0 -0.21002040820E-01 -0.14477047984E-01  0.11303836919E-01  0.27900669634E-01  0.00000000000E+00 0. -1.
     999901    1    3    3    0    0  0.61346809588E-01  0.88014015753E-01  0.80448028722E-01  0.89015829117E+00  0.88000000000E+00 0.  1.
        -11    1    4    4    0    0 -0.65008616628E-02 -0.66610911424E-02 -0.31990193951E-02  0.98552617244E-02  0.51100000000E-03 0.  1.
         11    1    4    4    0    0 -0.33843907105E-01 -0.66875876627E-01 -0.88552846246E-01  0.11601577747E+00  0.51100000000E-03 0. -1.
</event>
<event>
 8    1  0.1116619E+005  0.1043930E+01  0.7957747E-01            NaN
         13   -1    0    0    0    0  0.00000000000E+00  0.00000000000E+00  0.74505805969E-08  0.10566000000E+00  0.10566000000E+00 0. -1.
     999900   -1    0    0    0    0 -0.00000000000E+00 -0.00000000000E+00 -0.74505805969E-08  0.93827000000E+00  0.93827000000E+00 0.  1.
     999902    2    1    2    0    0 -0.17246840378E-01 -0.13811339169E-01  0.81447871277E-02  0.10203812389E+01  0.10201094689E+01 0.  0.
     999903    2    3    3    0    0  0.51726381088E-01 -0.45260814775E-01  0.11000121826E+00  0.13126869969E+00  0.20175322695E-01 0.  0.
         14    1    1    2    0    0  0.17246840378E-01  0.13811339169E-01 -0.81447871277E-02  0.23548761114E-01  0.00000000000E+00 0. -1.
     999901    1    3    3    0    0 -0.68973221466E-01  0.31449475606E-01 -0.10185643113E+00  0.88911253920E+00  0.88000000000E+00 0.  1.
        -11    1    4    4    0    0  0.27559573887E-02  0.20973084461E-02  0.57400732235E-02  0.67233596853E-02  0.51100000000E-03 0. -1.
         11    1    4    4    0    0  0.48970423699E-01 -0.47358123221E-01  0.10426114503E+00  0.12454534000E+00  0.51100000000E-03 0.  1.
</event>
<event>
 8    1  0.1116619E+005  0.1043930E+01  0.7957747E-01            NaN
         13   -1    0    0    0    0  0.00000000000E+00  0.00000000000E+00  0.74505805969E-08  0.10566000000E+00  0.10566000000E+00 0.  1.
     999900   -1    0    0    0    0 -0.00000000000E+00 -0.00000000000E+00 -0.74505805969E-08  0.93827000000E+00  0.93827000000E+00 0.  1.
     999902    2    1    2    0    0 -0.10505120692E-01  0.20217159196E-01 -0.47713225199E-02  0.10206521864E+01  0.10203867056E+01 0.  0.
     999903    2    3    3    0    0  0.12767326991E+00  0.49965240068E-02  0.70646596410E-02  0.12966115064E+00  0.20896781279E-01 0.  0.
         14    1    1    2    0    0  0.10505120692E-01 -0.20217159196E-01  0.47713225199E-02  0.23277813585E-01  0.00000000000E+00 0. -1.
     999901    1    3    3    0    0 -0.13817839060E+00  0.15220635189E-01 -0.11835982161E-01  0.89099103578E+00  0.88000000000E+00 0. -1.
        -11    1    4    4    0    0  0.68503100808E-01 -0.20521440162E-02 -0.55144513283E-02  0.68757228055E-01  0.51100000000E-03 0.  1.
         11    1    4    4    0    0  0.59170169098E-01  0.70486680230E-02  0.12579110969E-01  0.60903922581E-01  0.51100000000E-03 0. -1.
</event>
<event>
 8    1  0.1116619E+005  0.1043930E+01  0.7957747E-01            NaN
         13   -1    0    0    0    0  0.00000000000E+00  0.00000000000E+00  0.74505805969E-08  0.10566000000E+00  0.10566000000E+00 0. -1.
     999900   -1    0    0    0    0 -0.00000000000E+00 -0.00000000000E+00 -0.74505805969E-08  0.93827000000E+00  0.93827000000E+00 0.  1.
     999902    2    1    2    0    0  0.20411247369E-01  0.52185863151E-02  0.86602183481E-02  0.10211516760E+01  0.10208975920E+01 0.  0.
     999903    2    3    3    0    0  0.48536256178E-01  0.23325460539E-01  0.12047154727E+00  0.13344640493E+00  0.19867159169E-01 0.  0.
         14    1    1    2    0    0 -0.20411247369E-01 -0.52185863151E-02 -0.86602183481E-02  0.22778323998E-01  0.00000000000E+00 0.  1.
     999901    1    3    3    0    0 -0.28125008809E-01 -0.18106874224E-01 -0.11181132892E+00  0.88770527107E+00  0.88000000000E+00 0.  1.
        -11    1    4    4    0    0  0.14356333250E-01 -0.37114768264E-03  0.45428064796E-01  0.47646744349E-01  0.51100000000E-03 0.  1.
         11    1    4    4    0    0  0.34179922929E-01  0.23696608222E-01  0.75043482476E-01  0.85799660580E-01  0.51100000000E-03 0. -1.
</event>
<event>
 8    1  0.1116619E+005  0.1043930E+01  0.7957747E-01            NaN
         13   -1    0    0    0    0  0.00000000000E+00  0.00000000000E+00  0.74505805969E-08  0.10566000000E+00  0.10566000000E+00 0.  1.
     999900   -1    0    0    0    0 -0.00000000000E+00 -0.00000000000E+00 -0.74505805969E-08  0.93827000000E+00  0.93827000000E+00 0.  1.
     999902    2    1    2    0    0 -0.48985279436E-02  0.18590462892E-01  0.14647288629E-01  0.10197609299E+01  0.10194744774E+01 0.  0.
     999903    2    3    3    0    0  0.28541955290E-01 -0.11956898765E+00 -0.26955164729E-01  0.12738373170E+00  0.19714161861E-01 0.  0.
         14    1    1    2    0    0  0.48985279436E-02 -0.18590462892E-01 -0.14647288629E-01  0.24169070126E-01  0.00000000000E+00 0. -1.
     999901    1    3    3    0    0 -0.33440483233E-01  0.13815945054E+00  0.41602453358E-01  0.89237719817E+00  0.88000000000E+00 0.  1.
        -11    1    4    4    0    0  0.29363625701E-01 -0.92694230038E-01 -0.25127349039E-01  0.10042951552E+00  0.51100000000E-03 0.  1.
         11    1    4    4    0    0 -0.82167041106E-03 -0.26874757610E-01 -0.18278156899E-02  0.26954216184E-01  0.51100000000E-03 0. -1.
</event>
<event>
 8    1  0.1116619E+005  0.1043930E+01  0.7957747E-01            NaN
         13   -1    0    0    0    0  0.00000000000E+00  0.00000000000E+00  0.74505805969E-08  0.10566000000E+00  0.10566000000E+00 0. -1.
     999900   -1    0    0    0    0 -0.00000000000E+00 -0.00000000000E+00 -0.74505805969E-08  0.93827000000E+00  0.93827000000E+00 0. -1.
     999902    2    1    2    0    0  0.67234515567E-02 -0.99942811476E-02 -0.46399147177E-02  0.10310218915E+01  0.10309410854E+01 0.  0.
     999903    2    3    3    0    0 -0.71727649901E-01 -0.11709105431E+00 -0.23924346663E-01  0.14085551185E+00  0.20315759786E-01 0.  0.
         14    1    1    2    0    0 -0.67234515567E-02  0.99942811476E-02  0.46399147177E-02  0.12908108501E-01  0.00000000000E+00 0. -1.
     999901    1    3    3    0    0  0.78451101458E-01  0.10709677316E+00  0.19284431945E-01  0.89016637965E+00  0.88000000000E+00 0.  1.
        -11    1    4    4    0    0 -0.24185936790E-01 -0.55664947143E-01 -0.49550950613E-02  0.60896305035E-01  0.51100000000E-03 0. -1.
         11    1    4    4    0    0 -0.47541713112E-01 -0.61426107166E-01 -0.18969251602E-01  0.79959206815E-01  0.51100000000E-03 0.  1.
</event>
<event>
 8    1  0.1116619E+005  0.1043930E+01  0.7957747E-01            NaN
         13   -1    0    0    0    0  0.00000000000E+00  0.00000000000E+00  0.74505805969E-08  0.10566000000E+00  0.10566000000E+00 0.  1.
     999900   -1    0    0    0    0 -0.00000000000E+00 -0.00000000000E+00 -0.74505805969E-08  0.93827000000E+00  0.93827000000E+00 0. -1.
     999902    2    1    2    0    0  0.69271846032E-02  0.30959543185E-01  0.32831048963E-02  0.10120355181E+01  0.10115328130E+01 0.  0.
     999903    2    3    3    0    0  0.37422592178E-01 -0.38852400555E-01 -0.10732073262E+00  0.12184627624E+00  0.20464993234E-01 0.  0.
         14    1    1    2    0    0 -0.69271846032E-02 -0.30959543185E-01 -0.32831048963E-02  0.31894481945E-01  0.00000000000E+00 0.  1.
     999901    1    3    3    0    0 -0.30495407574E-01  0.69811943741E-01  0.11060383752E+00  0.89018924182E+00  0.88000000000E+00 0.  1.
        -11    1    4    4    0    0  0.23387536364E-01 -0.27929827466E-01 -0.50256578449E-01  0.62072835587E-01  0.51100000000E-03 0. -1.
         11    1    4    4    0    0  0.14035055813E-01 -0.10922573089E-01 -0.57064154175E-01  0.59773440651E-01  0.51100000000E-03 0.  1.
</event>
<event>
 8    1  0.1116619E+005  0.1043930E+01  0.7957747E-01            NaN
         13   -1    0    0    0    0  0.00000000000E+00  0.00000000000E+00  0.74505805969E-08  0.10566000000E+00  0.10566000000E+00 0.  1.
     999900   -1    0    0    0    0 -0.00000000000E+00 -0.00000000000E+00 -0.74505805969E-08  0.93827000000E+00  0.93827000000E+00 0. -1.
     999902    2    1    2    0    0  0.18593128443E-01 -0.32009518728E-02 -0.14326818164E-01  0.10202401660E+01  0.10199650916E+01 0.  0.
     999903    2    3    3    0    0 -0.16430393196E-01  0.11821234854E+00 -0.49209714633E-01  0.13052973382E+00  0.19295031249E-01 0.  0.
         14    1    1    2    0    0 -0.18593128443E-01  0.32009518728E-02  0.14326818164E-01  0.23689834041E-01  0.00000000000E+00 0.  1.
     999901    1    3    3    0    0  0.35023521639E-01 -0.12141330041E+00  0.34882896469E-01  0.88971043214E+00  0.88000000000E+00 0.  1.
        -11    1    4    4    0    0 -0.32683861209E-02  0.59093634231E-01 -0.15370147926E-01  0.61149346053E-01  0.51100000000E-03 0.  1.
         11    1    4    4    0    0 -0.13162007075E-01  0.59118714305E-01 -0.33839566707E-01  0.69380387771E-01  0.51100000000E-03 0. -1.
</event>
<event>
 8    1  0.1116619E+005  0.1043930E+01  0.7957747E-01            NaN
         13   -1    0    0    0    0  0.00000000000E+00  0.00000000000E+00  0.74505805969E-08  0.10566000000E+00  0.10566000000E+00 0. -1.
     999900   -1    0    0    0    0 -0.00000000000E+00 -0.00000000000E+00 -0.74505805969E-08  0.93827000000E+00  0.93827000000E+00 0.  1.
     999902    2    1    2    0    0 -0.17493112299E-01  0.15636425422E-01  0.62005041745E-02  0.10196616455E+01  0.10193728063E+01 0.  0.
     999903    2    3    3    0    0 -0.21602929183E-01  0.12845386935E+00 -0.93303615014E-02  0.13231398306E+00  0.21280304732E-01 0.  0.
         14    1    1    2    0    0  0.17493112299E-01 -0.15636425422E-01 -0.62005041745E-02  0.24268354496E-01  0.00000000000E+00 0.  1.
     999901    1    3    3    0    0  0.41098168838E-02 -0.11281744392E+00  0.15530865676E-01  0.88734766244E+00  0.88000000000E+00 0.  1.
        -11    1    4    4    0    0 -0.20242993276E-01  0.11731392526E+00 -0.23189601977E-02  0.11907130021E+00  0.51100000000E-03 0.  1.
         11    1    4    4    0    0 -0.13599359070E-02  0.11139944086E-01 -0.70114013037E-02  0.13242682853E-01  0.51100000000E-03 0. -1.
</event>
<event>
 8    1  0.1116619E+005  0.1043930E+01  0.7957747E-01            NaN
         13   -1    0    0    0    0  0.00000000000E+00  0.00000000000E+00  0.74505805969E-08  0.10566000000E+00  0.10566000000E+00 0.  1.
     999900   -1    0    0    0    0 -0.00000000000E+00 -0.00000000000E+00 -0.74505805969E-08  0.93827000000E+00  0.93827000000E+00 0.  1.
     999902    2    1    2    0    0 -0.98739687912E-02  0.11823855041E-01 -0.16108231196E-01  0.10216415743E+01  0.10213984200E+01 0.  0.
     999903    2    3    3    0    0 -0.61743589054E-02  0.11540489278E+00  0.61402602755E-01  0.13217507810E+00  0.18535362405E-01 0.  0.
         14    1    1    2    0    0  0.98739687912E-02 -0.11823855041E-01  0.16108231196E-01  0.22288425695E-01  0.00000000000E+00 0.  1.
     999901    1    3    3    0    0 -0.36996098858E-02 -0.10358103774E+00 -0.77510833951E-01  0.88946649621E+00  0.88000000000E+00 0.  1.
        -11    1    4    4    0    0 -0.69609021862E-02  0.28598231409E-01  0.22467584155E-01  0.37031965351E-01  0.51100000000E-03 0. -1.
         11    1    4    4    0    0  0.78654328073E-03  0.86806661373E-01  0.38935018600E-01  0.95143112748E-01  0.51100000000E-03 0.  1.
</event>
<event>
 8    1  0.1116619E+005  0.1043930E+01  0.7957747E-01            NaN
         13   -1    0    0    0    0  0.00000000000E+00  0.00000000000E+00  0.74505805969E-08  0.10566000000E+00  0.10566000000E+00 0. -1.
     999900   -1    0    0    0    0 -0.00000000000E+00 -0.00000000000E+00 -0.74505805969E-08  0.93827000000E+00  0.93827000000E+00 0.  1.
     999902    2    1    2    0    0  0.16724433869E-01  0.74488618290E-02  0.14987841213E-01  0.10202693234E+01  0.10199949337E+01 0.  0.
     999903    2    3    3    0    0 -0.52296938513E-01 -0.95735555953E-01  0.67952013792E-01  0.12997938332E+00  0.19413847054E-01 0.  0.
         14    1    1    2    0    0 -0.16724433869E-01 -0.74488618290E-02 -0.14987841213E-01  0.23660676554E-01  0.00000000000E+00 0.  1.
     999901    1    3    3    0    0  0.69021372382E-01  0.10318441778E+00 -0.52964172579E-01  0.89028994013E+00  0.88000000000E+00 0.  1.
        -11    1    4    4    0    0 -0.11240207734E-01 -0.20559301828E-01  0.57878990779E-02  0.24141003672E-01  0.51100000000E-03 0.  1.
         11    1    4    4    0    0 -0.41056730779E-01 -0.75176254125E-01  0.62164114714E-01  0.10583837964E+00  0.51100000000E-03 0. -1.
</event>
<event>
 8    1  0.1116619E+005  0.1043930E+01  0.7957747E-01            NaN
         13   -1    0    0    0    0  0.00000000000E+00  0.00000000000E+00  0.74505805969E-08  0.10566000000E+00  0.10566000000E+00 0. -1.
     999900   -1    0    0    0    0 -0.00000000000E+00 -0.00000000000E+00 -0.74505805969E-08  0.93827000000E+00  0.93827000000E+00 0. -1.
     999902    2    1    2    0    0  0.63998545524E-02  0.15436498015E-01 -0.16855520287E-01  0.10201949590E+01  0.10199188213E+01 0.  0.
     999903    2    3    3    0    0  0.65243701246E-01 -0.21520261565E-01 -0.11136347098E+00  0.13241111527E+00  0.20273592830E-01 0.  0.
         14    1    1    2    0    0 -0.63998545524E-02 -0.15436498015E-01  0.16855520287E-01  0.23735041044E-01  0.00000000000E+00 0. -1.
     999901    1    3    3    0    0 -0.58843846694E-01  0.36956759580E-01  0.94507950697E-01  0.88778384369E+00  0.88000000000E+00 0.  1.
        -11    1    4    4    0    0  0.65093174904E-01 -0.17561688693E-01 -0.10246806530E+00  0.12266009888E+00  0.51100000000E-03 0.  1.
         11    1    4    4    0    0  0.15052634205E-03 -0.39585728716E-02 -0.88954056837E-02  0.97510163899E-02  0.51100000000E-03 0. -1.
</event>
<event>
 8    1  0.1116619E+005  0.1043930E+01  0.7957747E-01            NaN
         13   -1    0    0    0    0  0.00000000000E+00  0.00000000000E+00  0.74505805969E-08  0.10566000000E+00  0.10566000000E+00 0. -1.
     999900   -1    0    0    0    0 -0.00000000000E+00 -0.00000000000E+00 -0.74505805969E-08  0.93827000000E+00  0.93827000000E+00 0.  1.
     999902    2    1    2    0    0 -0.22192756345E-02  0.10862874063E-01 -0.19658101525E-01  0.10213608136E+01  0.10211114256E+01 0.  0.
     999903    2    3    3    0    0  0.86994774704E-01 -0.76408215374E-01  0.54484788291E-01  0.12946813067E+00  0.19674818981E-01 0.  0.
         14    1    1    2    0    0  0.22192756345E-02 -0.10862874063E-01  0.19658101525E-01  0.22569186357E-01  0.00000000000E+00 0. -1.
     999901    1    3    3    0    0 -0.89214050338E-01  0.87271089437E-01 -0.74142889816E-01  0.89189268297E+00  0.88000000000E+00 0.  1.
        -11    1    4    4    0    0  0.65068761146E-01 -0.46108643900E-01  0.32798989473E-01  0.86232160768E-01  0.51100000000E-03 0.  1.
         11    1    4    4    0    0  0.21926013558E-01 -0.30299571474E-01  0.21685798818E-01  0.43235969903E-01  0.51100000000E-03 0. -1.
</event>
<event>
 8    1  0.1116619E+005  0.1043930E+01  0.7957747E-01            NaN
         13   -1    0    0    0    0  0.00000000000E+00  0.00000000000E+00  0.74505805969E-08  0.10566000000E+00  0.10566000000E+00 0. -1.
     999900   -1    0    0    0    0 -0.00000000000E+00 -0.00000000000E+00 -0.74505805969E-08  0.93827000000E+00  0.93827000000E+00 0.  1.
     999902    2    1    2    0    0  0.16159640349E-01 -0.16976192023E-02  0.15375734639E-01  0.10215597273E+01  0.10213147640E+01 0.  0.
     999903    2    3    3    0    0 -0.27151708376E-01 -0.94877133663E-01  0.86360226712E-01  0.13274192086E+00  0.20577731559E-01 0.  0.
         14    1    1    2    0    0 -0.16159640349E-01  0.16976192023E-02 -0.15375734639E-01  0.22370272749E-01  0.00000000000E+00 0.  1.
     999901    1    3    3    0    0  0.43311348724E-01  0.93179514460E-01 -0.70984492072E-01  0.88881780639E+00  0.88000000000E+00 0.  1.
        -11    1    4    4    0    0 -0.11886251736E-01 -0.18213825689E-01  0.11962252258E-01  0.24827062385E-01  0.51100000000E-03 0. -1.
         11    1    4    4    0    0 -0.15265456639E-01 -0.76663307974E-01  0.74397974454E-01  0.10791485848E+00  0.51100000000E-03 0.  1.
</event>
<event>
 8    1  0.1116619E+005  0.1043930E+01  0.7957747E-01            NaN
         13   -1    0    0    0    0  0.00000000000E+00  0.00000000000E+00  0.74505805969E-08  0.10566000000E+00  0.10566000000E+00 0. -1.
     999900   -1    0    0    0    0 -0.00000000000E+00 -0.00000000000E+00 -0.74505805969E-08  0.93827000000E+00  0.93827000000E+00 0.  1.
     999902    2    1    2    0    0 -0.21011675972E-01 -0.18988084271E-02  0.10784981767E-01  0.10202358692E+01  0.10199606939E+01 0.  0.
     999903    2    3    3    0    0  0.21535283032E-01  0.63968009480E-01  0.11060185813E+00  0.13112840092E+00  0.20154698031E-01 0.  0.
         14    1    1    2    0    0  0.21011675972E-01  0.18988084271E-02 -0.10784981767E-01  0.23694130757E-01  0.00000000000E+00 0.  1.
     999901    1    3    3    0    0 -0.42546959004E-01 -0.65866817907E-01 -0.99816876367E-01  0.88910746832E+00  0.88000000000E+00 0.  1.
        -11    1    4    4    0    0  0.12429144075E-01  0.15855292919E-01  0.44621556778E-01  0.48961396899E-01  0.51100000000E-03 0.  1.
         11    1    4    4    0    0  0.91061389565E-02  0.48112716561E-01  0.65980301356E-01  0.82167004020E-01  0.51100000000E-03 0. -1.
</event>
<event>
 8    1  0.1116619E+005  0.1043930E+01  0.7957747E-01            NaN
         13   -1    0    0    0    0  0.00000000000E+00  0.00000000000E+00  0.74505805969E-08  0.10566000000E+00  0.10566000000E+00 0.  1.
     999900   -1    0    0    0    0 -0.00000000000E+00 -0.00000000000E+00 -0.74505805969E-08  0.93827000000E+00  0.93827000000E+00 0.  1.
     999902    2    1    2    0    0  0.20333008428E-01  0.12232747769E-01 -0.76861321852E-02  0.10189871057E+01  0.10186817823E+01 0.  0.
     999903    2    3    3    0    0  0.12574399540E+00 -0.11454723621E-01 -0.32275980980E-01  0.13203883596E+00  0.21207361460E-01 0.  0.
         14    1    1    2    0    0 -0.20333008428E-01 -0.12232747769E-01  0.76861321852E-02  0.24942894333E-01  0.00000000000E+00 0.  1.
     999901    1    3    3    0    0 -0.10541098697E+00  0.23687471391E-01  0.24589848795E-01  0.88694826971E+00  0.88000000000E+00 0.  1.
        -11    1    4    4    0    0  0.19803072698E-01 -0.45245300389E-02 -0.13033481592E-01  0.24140543154E-01  0.51100000000E-03 0.  1.
         11    1    4    4    0    0  0.10594092270E+00 -0.69301935826E-02 -0.19242499389E-01  0.10789829280E+00  0.51100000000E-03 0. -1.
</event>
<event>
 8    1  0.1116619E+005  0.1043930E+01  0.7957747E-01            NaN
         13   -1    0    0    0    0  0.00000000000E+00  0.00000000000E+00  0.74505805969E-08  0.10566000000E+00  0.10566000000E+00 0.  1.
     999900   -1    0    0    0    0 -0.00000000000E+00 -0.00000000000E+00 -0.74505805969E-08  0.93827000000E+00  0.93827000000E+00 0.  1.
     999902    2    1    2    0    0  0.13187365693E-01 -0.15384296869E-01 -0.12098672280E-01  0.10203299772E+01  0.10200570089E+01 0.  0.
     999903    2    3    3    0    0  0.10484569872E-01 -0.56964041252E-02 -0.13028952885E+00  0.13237151032E+00  0.20111692920E-01 0.  0.
         14    1    1    2    0    0 -0.13187365693E-01  0.15384296869E-01  0.12098672280E-01  0.23600022776E-01  0.00000000000E+00 0.  1.
     999901    1    3    3    0    0  0.27027958208E-02 -0.96878927434E-02  0.11819085657E+00  0.88795846690E+00  0.88000000000E+00 0. -1.
        -11    1    4    4    0    0  0.31378155481E-02 -0.11537677107E-01 -0.44950646525E-01  0.46516509149E-01  0.51100000000E-03 0.  1.
         11    1    4    4    0    0  0.73467543244E-02  0.58412729822E-02 -0.85338882322E-01  0.85855001171E-01  0.51100000000E-03 0. -1.
</event>
<event>
 8    1  0.1116619E+005  0.1043930E+01  0.7957747E-01            NaN
         13   -1    0    0    0    0  0.00000000000E+00  0.00000000000E+00  0.74505805969E-08  0.10566000000E+00  0.10566000000E+00 0. -1.
     999900   -1    0    0    0    0 -0.00000000000E+00 -0.00000000000E+00 -0.74505805969E-08  0.93827000000E+00  0.93827000000E+00 0.  1.
     999902    2    1    2    0    0 -0.91596525630E-03 -0.89455300942E-02 -0.23286525119E-01  0.10189675531E+01  0.10186617449E+01 0.  0.
     999903    2    3    3    0    0 -0.71910787598E-01 -0.99075141501E-01  0.36560406125E-01  0.12950408181E+00  0.21156532638E-01 0.  0.
         14    1    1    2    0    0  0.91596525630E-03  0.89455300942E-02  0.23286525119E-01  0.24962446858E-01  0.00000000000E+00 0. -1.
     999901    1    3    3    0    0  0.70994822342E-01  0.90129611407E-01 -0.59846931245E-01  0.88946347133E+00  0.88000000000E+00 0.  1.
        -11    1    4    4    0    0 -0.18031213746E-01 -0.42183844307E-01  0.13533017110E-01  0.47833095893E-01  0.51100000000E-03 0.  1.
         11    1    4    4    0    0 -0.53879573852E-01 -0.56891297195E-01  0.23027389016E-01  0.81670985918E-01  0.51100000000E-03 0. -1.
</event>
<event>
 8    1  0.1116619E+005  0.1043930E+01  0.7957747E-01            NaN
         13   -1    0    0    0    0  0.00000000000E+00  0.00000000000E+00  0.74505805969E-08  0.10566000000E+00  0.10566000000E+00 0.  1.
     999900   -1    0    0    0    0 -0.00000000000E+00 -0.00000000000E+00 -0.74505805969E-08  0.93827000000E+00  0.93827000000E+00 0. -1.
     999902    2    1    2    0    0 -0.17206322733E-01  0.16864261113E-01 -0.20671177317E-02  0.10197487300E+01  0.10194619848E+01 0.  0.
     999903    2    3    3    0    0 -0.72812482207E-01  0.64086649811E-01 -0.88218268442E-01  0.13253735733E+00  0.19363159642E-01 0.  0.
         14    1    1    2    0    0  0.17206322733E-01 -0.16864261113E-01  0.20671177317E-02  0.24181270037E-01  0.00000000000E+00 0.  1.
     999901    1    3    3    0    0  0.55606159474E-01 -0.47222388698E-01  0.86151150710E-01  0.88721137264E+00  0.88000000000E+00 0.  1.
        -11    1    4    4    0    0 -0.65890946692E-01  0.58631192600E-01 -0.71151669563E-01  0.11332279031E+00  0.51100000000E-03 0. -1.
         11    1    4    4    0    0 -0.69215355150E-02  0.54554572110E-02 -0.17066598879E-01  0.19214567015E-01  0.51100000000E-03 0.  1.
</event>
<event>
 8    1  0.1116619E+005  0.1043930E+01  0.7957747E-01            NaN
         13   -1    0    0    0    0  0.00000000000E+00  0.00000000000E+00  0.74505805969E-08  0.10566000000E+00  0.10566000000E+00 0.  1.
     999900   -1    0    0    0    0 -0.00000000000E+00 -0.00000000000E+00 -0.74505805969E-08  0.93827000000E+00  0.93827000000E+00 0.  1.
     999902    2    1    2    0    0  0.11971448324E-02 -0.23502516853E-01 -0.41977750392E-03  0.10203932698E+01  0.10201217807E+01 0.  0.
     999903    2    3    3    0    0 -0.42629433780E-01  0.10646277333E+00 -0.53228567681E-01  0.12820466086E+00  0.21250033430E-01 0.  0.
         14    1    1    2    0    0 -0.11971448324E-02  0.23502516853E-01  0.41977750392E-03  0.23536730175E-01  0.00000000000E+00 0.  1.
     999901    1    3    3    0    0  0.43826578613E-01 -0.12996529018E+00  0.52808790177E-01  0.89218860896E+00  0.88000000000E+00 0. -1.
        -11    1    4    4    0    0 -0.12961507435E-01  0.29043593341E-01 -0.25538768844E-01  0.40792411356E-01  0.51100000000E-03 0. -1.
         11    1    4    4    0    0 -0.29667926345E-01  0.77419179984E-01 -0.27689798837E-01  0.87412249506E-01  0.51100000000E-03 0.  1.
</event>
<event>
 8    1  0.1116619E+005  0.1043930E+01  0.7957747E-01            NaN
         13   -1    0    0    0    0  0.00000000000E+00  0.00000000000E+00  0.74505805969E-08  0.10566000000E+00  0.10566000000E+00 0.  1.
     999900   -1    0    0    0    0 -0.00000000000E+00 -0.00000000000E+00 -0.74505805969E-08  0.93827000000E+00  0.93827000000E+00 0. -1.
     999902    2    1    2    0    0 -0.21924525692E-01 -0.18070900895E-01 -0.37791307148E-02  0.10152677580E+01  0.10148630924E+01 0.  0.
     999903    2    3    3    0    0  0.61734479517E-01  0.99036356972E-01  0.32582741485E-01  0.12283561789E+00  0.20189304505E-01 0.  0.
         14    1    1    2    0    0  0.21924525692E-01  0.18070900895E-01  0.37791307148E-02  0.28662241973E-01  0.00000000000E+00 0.  1.
     999901    1    3    3    0    0 -0.83659005209E-01 -0.11710725787E+00 -0.36361872200E-01  0.89243214014E+00  0.88000000000E+00 0.  1.
        -11    1    4    4    0    0  0.29939345428E-01  0.57501899848E-01  0.89898932169E-02  0.65451601904E-01  0.51100000000E-03 0. -1.
         11    1    4    4    0    0  0.31795134089E-01  0.41534457124E-01  0.23592848269E-01  0.57384015987E-01  0.51100000000E-03 0.  1.
</event>
<event>
 8    1  0.1116619E+005  0.1043930E+01  0.7957747E-01            NaN
         13   -1    0    0    0    0  0.00000000000E+00  0.00000000000E+00  0.74505805969E-08  0.10566000000E+00  0.10566000000E+00 0.  1.
     999900   -1    0    0    0    0 -0.00000000000E+00 -0.00000000000E+00 -0.74505805969E-08  0.93827000000E+00  0.93827000000E+00 0.  1.
     999902    2    1    2    0    0  0.55709395213E-03 -0.21888188500E-01 -0.87564206841E-02  0.10203486927E+01  0.10200761622E+01 0.  0.
     999903    2    3    3    0    0 -0.55998553852E-01 -0.11007064612E+00 -0.46667234883E-01  0.13332450086E+00  0.18606626425E-01 0.  0.
         14    1    1    2    0    0 -0.55709395213E-03  0.21888188500E-01  0.87564206841E-02  0.23581307273E-01  0.00000000000E+00 0.  1.
     999901    1    3    3    0    0  0.56555647804E-01  0.88182457617E-01  0.37910814199E-01  0.88702419187E+00  0.88000000000E+00 0. -1.
        -11    1    4    4    0    0 -0.79271953967E-02 -0.27688803212E-01 -0.49942553421E-02  0.29235491403E-01  0.51100000000E-03 0. -1.
         11    1    4    4    0    0 -0.48071358455E-01 -0.82381842905E-01 -0.41672979541E-01  0.10408900945E+00  0.51100000000E-03 0.  1.
</event>
<event>
 8    1  0.1116619E+005  0.1043930E+01  0.7957747E-01            NaN
         13   -1    0    0    0    0  0.00000000000E+00  0.00000000000E+00  0.74505805969E-08  0.10566000000E+00  0.10566000000E+00 0. -1.
     999900   -1    0    0    0    0 -0.00000000000E+00 -0.00000000000E+00 -0.74505805969E-08  0.93827000000E+00  0.93827000000E+00 0.  1.
     999902    2    1    2    0    0  0.11388361166E-01  0.50451898587E-02 -0.21169251204E-01  0.10193681209E+01  0.10190721662E+01 0.  0.
     999903    2    3    3    0    0  0.18998793443E-01  0.85839701687E-01 -0.96985720279E-01  0.13238795828E+00  0.19772026208E-01 0.  0.
         14    1    1    2    0    0 -0.11388361166E-01 -0.50451898587E-02  0.21169251204E-01  0.24561879148E-01  0.00000000000E+00 0. -1.
     999901    1    3    3    0    0 -0.76104322770E-02 -0.80794511829E-01  0.75816469075E-01  0.88698016258E+00  0.88000000000E+00 0. -1.
        -11    1    4    4    0    0  0.33722892222E-02  0.17702321497E-01 -0.33073186996E-01  0.37667510405E-01  0.51100000000E-03 0. -1.
         11    1    4    4    0    0  0.15626504221E-01  0.68137380190E-01 -0.63912533282E-01  0.94720447871E-01  0.51100000000E-03 0.  1.
</event>
<event>
 8    1  0.1116619E+005  0.1043930E+01  0.7957747E-01            NaN
         13   -1    0    0    0    0  0.00000000000E+00  0.00000000000E+00  0.74505805969E-08  0.10566000000E+00  0.10566000000E+00 0. -1.
     999900   -1    0    0    0    0 -0.00000000000E+00 -0.00000000000E+00 -0.74505805969E-08  0.93827000000E+00  0.93827000000E+00 0.  1.
     999902    2    1    2    0    0  0.18833526780E-02 -0.22587774342E-01 -0.71768023029E-02  0.10201547806E+01  0.10198776962E+01 0.  0.
     999903    2    3    3    0    0 -0.12728114152E+00  0.10688839907E-01  0.13847273602E-01  0.12985549866E+00  0.18866988703E-01 0.  0.
         14    1    1    2    0    0 -0.18833526780E-02  0.22587774342E-01  0.71768023029E-02  0.23775219417E-01  0.00000000000E+00 0. -1.
     999901    1    3    3    0    0  0.12916449420E+00 -0.33276614249E-01 -0.21024075905E-01  0.89029928192E+00  0.88000000000E+00 0. -1.
        -11    1    4    4    0    0 -0.96473365073E-01  0.79868325777E-02  0.22756050950E-02  0.96831498814E-01  0.51100000000E-03 0.  1.
         11    1    4    4    0    0 -0.30807776445E-01  0.27020073296E-02  0.11571668508E-01  0.33023999851E-01  0.51100000000E-03 0. -1.
</event>
<event>
 8    1  0.1116619E+005  0.1043930E+01  0.7957747E-01            NaN
         13   -1    0    0    0    0  0.00000000000E+00  0.00000000000E+00  0.74505805969E-08  0.10566000000E+00  0.10566000000E+00 0.  1.
     999900   -1    0    0    0    0 -0.00000000000E+00 -0.00000000000E+00 -0.74505805969E-08  0.93827000000E+00  0.93827000000E+00 0.  1.
     999902    2    1    2    0    0 -0.16814929240E-01 -0.87969756851E-02 -0.13015799294E-01  0.10209182713E+01  0.10206588936E+01 0.  0.
     999903    2    3    3    0    0 -0.97481026946E-01 -0.69226367567E-01 -0.57526733535E-01  0.13404739344E+00  0.19092879213E-01 0.  0.
         14    1    1    2    0    0  0.16814929240E-01  0.87969756851E-02  0.13015799294E-01  0.23011728701E-01  0.00000000000E+00 0.  1.
     999901    1    3    3    0    0  0.80666097706E-01  0.60429391882E-01  0.44510934241E-01  0.88687087786E+00  0.88000000000E+00 0. -1.
        -11    1    4    4    0    0 -0.78681323125E-01 -0.63366252817E-01 -0.51807091546E-01  0.11353531812E+00  0.51100000000E-03 0. -1.
         11    1    4    4    0    0 -0.18799703820E-01 -0.58601147498E-02 -0.57196419893E-02  0.20512075324E-01  0.51100000000E-03 0.  1.
</event>
<event>
 8    1  0.1116619E+005  0.1043930E+01  0.7957747E-01            NaN
         13   -1    0    0    0    0  0.00000000000E+00  0.00000000000E+00  0.74505805969E-08  0.10566000000E+00  0.10566000000E+00 0.  1.
     999900   -1    0    0    0    0 -0.00000000000E+00 -0.00000000000E+00 -0.74505805969E-08  0.93827000000E+00  0.93827000000E+00 0. -1.
     999902    2    1    2    0    0  0.12610676839E-01  0.15352624910E-01 -0.30849350112E-02  0.10238240535E+01  0.10236266133E+01 0.  0.
     999903    2    3    3    0    0  0.11370576305E+00  0.64820655190E-01  0.30211318813E-01  0.13603131696E+00  0.21472715710E-01 0.  0.
         14    1    1    2    0    0 -0.12610676839E-01 -0.15352624910E-01  0.30849350112E-02  0.20105946533E-01  0.00000000000E+00 0.  1.
     999901    1    3    3    0    0 -0.10109508621E+00 -0.49468030280E-01 -0.33296253824E-01  0.88779273651E+00  0.88000000000E+00 0.  1.
        -11    1    4    4    0    0  0.81489303420E-01  0.52255969438E-01  0.13917922146E-01  0.97801649227E-01  0.51100000000E-03 0. -1.
         11    1    4    4    0    0  0.32216459628E-01  0.12564685752E-01  0.16293396667E-01  0.38229667733E-01  0.51100000000E-03 0.  1.
</event>
<event>
 8    1  0.1116619E+005  0.1043930E+01  0.7957747E-01            NaN
         13   -1    0    0    0    0  0.00000000000E+00  0.00000000000E+00  0.74505805969E-08  0.10566000000E+00  0.10566000000E+00 0.  1.
     999900   -1    0    0    0    0 -0.00000000000E+00 -0.00000000000E+00 -0.74505805969E-08  0.93827000000E+00  0.93827000000E+00 0. -1.
     999902    2    1    2    0    0 -0.11535803633E-01  0.16513110077E-01  0.27245531860E-01  0.10100467213E+01  0.10094782329E+01 0.  0.
     999903    2    3    3    0    0  0.70469080225E-01 -0.92152991384E-01 -0.14115295297E-01  0.11861874293E+00  0.20324849899E-01 0.  0.
         14    1    1    2    0    0  0.11535803633E-01 -0.16513110077E-01 -0.27245531860E-01  0.33883278712E-01  0.00000000000E+00 0. -1.
     999901    1    3    3    0    0 -0.82004883858E-01  0.10866610146E+00  0.41360827157E-01  0.89142797836E+00  0.88000000000E+00 0.  1.
        -11    1    4    4    0    0  0.29810114809E-01 -0.28904960847E-01  0.25451621719E-02  0.41603830088E-01  0.51100000000E-03 0. -1.
         11    1    4    4    0    0  0.40658965416E-01 -0.63248030537E-01 -0.16660457468E-01  0.77014912839E-01  0.51100000000E-03 0.  1.
</event>
<event>
 8    1  0.1116619E+005  0.1043930E+01  0.7957747E-01            NaN
         13   -1    0    0    0    0  0.00000000000E+00  0.00000000000E+00  0.74505805969E-08  0.10566000000E+00  0.10566000000E+00 0.  1.
     999900   -1    0    0    0    0 -0.00000000000E+00 -0.00000000000E+00 -0.74505805969E-08  0.93827000000E+00  0.93827000000E+00 0.  1.
     999902    2    1    2    0    0 -0.20524925010E-01  0.10159654116E-01  0.24338943903E-02  0.10208992605E+01  0.10206394492E+01 0.  0.
     999903    2    3    3    0    0 -0.33241008401E-01 -0.80109795086E-01 -0.95148839899E-01  0.13082473429E+00  0.23222089916E-01 0.  0.
         14    1    1    2    0    0  0.20524925010E-01 -0.10159654116E-01 -0.24338943903E-02  0.23030739465E-01  0.00000000000E+00 0.  1.
     999901    1    3    3    0    0  0.12716083391E-01  0.90269449201E-01  0.97582734289E-01  0.89007452624E+00  0.88000000000E+00 0. -1.
        -11    1    4    4    0    0  0.13212080748E-02 -0.17285688867E-01 -0.12344178959E-01  0.21288036676E-01  0.51100000000E-03 0.  1.
         11    1    4    4    0    0 -0.34562216476E-01 -0.62824106219E-01 -0.82804660940E-01  0.10953669762E+00  0.51100000000E-03 0. -1.
</event>
<event>
 8    1  0.1116619E+005  0.1043930E+01  0.7957747E-01            NaN
         13   -1    0    0    0    0  0.00000000000E+00  0.00000000000E+00  0.74505805969E-08  0.10566000000E+00  0.10566000000E+00 0.  1.
     999900   -1    0    0    0    0 -0.00000000000E+00 -0.00000000000E+00 -0.74505805969E-08  0.93827000000E+00  0.93827000000E+00 0. -1.
     999902    2    1    2    0    0  0.79902081246E-02 -0.47187728927E-02  0.21745700897E-01  0.10202871205E+01  0.10200131482E+01 0.  0.
     999903    2    3    3    0    0 -0.10082357287E+00  0.72445154310E-01 -0.28080444611E-01  0.12884034398E+00  0.19940652921E-01 0.  0.
         14    1    1    2    0    0 -0.79902081246E-02  0.47187728927E-02 -0.21745700897E-01  0.23642879498E-01  0.00000000000E+00 0. -1.
     999901    1    3    3    0    0  0.10881378099E+00 -0.77163927203E-01  0.49826145508E-01  0.89144677652E+00  0.88000000000E+00 0. -1.
        -11    1    4    4    0    0 -0.67364407299E-01  0.51066181900E-01 -0.97172934106E-02  0.85090570670E-01  0.51100000000E-03 0. -1.
         11    1    4    4    0    0 -0.33459165566E-01  0.21378972410E-01 -0.18363151200E-01  0.43749773310E-01  0.51100000000E-03 0.  1.
</event>
<event>
 8    1  0.1116619E+005  0.1043930E+01  0.7957747E-01            NaN
         13   -1    0    0    0    0  0.00000000000E+00  0.00000000000E+00  0.74505805969E-08  0.10566000000E+00  0.10566000000E+00 0. -1.
     999900   -1    0    0    0    0 -0.00000000000E+00 -0.00000000000E+00 -0.74505805969E-08  0.93827000000E+00  0.93827000000E+00 0.  1.
     999902    2    1    2    0    0  0.12250741936E-01  0.19306420713E-01  0.47648698903E-02  0.10205735760E+01  0.10203062782E+01 0.  0.
     999903    2    3    3    0    0  0.74385267492E-01 -0.70180335701E-01  0.78972102665E-01  0.13075601475E+00  0.20052303010E-01 0.  0.
         14    1    1    2    0    0 -0.12250741936E-01 -0.19306420713E-01 -0.47648698903E-02  0.23356424037E-01  0.00000000000E+00 0.  1.
     999901    1    3    3    0    0 -0.62134525556E-01  0.89486756414E-01 -0.74207232775E-01  0.88981756121E+00  0.88000000000E+00 0. -1.
        -11    1    4    4    0    0  0.48804269902E-01 -0.57783727311E-01  0.54273093305E-01  0.93094820912E-01  0.51100000000E-03 0. -1.
         11    1    4    4    0    0  0.25580997590E-01 -0.12396608390E-01  0.24699009360E-01  0.37661193842E-01  0.51100000000E-03 0.  1.
</event>
<event>
 8    1  0.1116619E+005  0.1043930E+01  0.7957747E-01            NaN
         13   -1    0    0    0    0  0.00000000000E+00  0.00000000000E+00  0.74505805969E-08  0.10566000000E+00  0.10566000000E+00 0.  1.
     999900   -1    0    0    0    0 -0.00000000000E+00 -0.00000000000E+00 -0.74505805969E-08  0.93827000000E+00  0.93827000000E+00 0. -1.
     999902    2    1    2    0    0 -0.12385878860E-01  0.15450515736E-01 -0.11948298197E-01  0.10208023053E+01  0.10205402767E+01 0.  0.
     999903    2    3    3    0    0  0.62209174774E-01  0.18372758382E-01 -0.11275791867E+00  0.13190661902E+00  0.21851046691E-01 0.  0.
         14    1    1    2    0    0  0.12385878860E-01 -0.15450515736E-01  0.11948298197E-01  0.23127694685E-01  0.00000000000E+00 0.  1.
     999901    1    3    3    0    0 -0.74595053634E-01 -0.29222426466E-02  0.10080962048E+00  0.88889568629E+00  0.88000000000E+00 0.  1.
        -11    1    4    4    0    0  0.41313981201E-01  0.20761061899E-01 -0.65494873065E-01  0.80172977073E-01  0.51100000000E-03 0. -1.
         11    1    4    4    0    0  0.20895193572E-01 -0.23883035165E-02 -0.47263045609E-01  0.51733641950E-01  0.51100000000E-03 0.  1.
</event>
<event>
 8    1  0.1116619E+005  0.1043930E+01  0.7957747E-01            NaN
         13   -1    0    0    0    0  0.00000000000E+00  0.00000000000E+00  0.74505805969E-08  0.10566000000E+00  0.10566000000E+00 0. -1.
     999900   -1    0    0    0    0 -0.00000000000E+00 -0.00000000000E+00 -0.74505805969E-08  0.93827000000E+00  0.93827000000E+00 0. -1.
     999902    2    1    2    0    0 -0.61029165235E-02  0.21883462893E-01  0.13282275370E-01  0.10176136481E+01  0.10172733096E+01 0.  0.
     999903    2    3    3    0    0 -0.11812414412E+00 -0.13577116356E-01 -0.43063844820E-01  0.12801761991E+00  0.19908911664E-01 0.  0.
         14    1    1    2    0    0  0.61029165235E-02 -0.21883462893E-01 -0.13282275370E-01  0.26316351899E-01  0.00000000000E+00 0.  1.
     999901    1    3    3    0    0  0.11202122760E+00  0.35460579249E-01  0.56346120190E-01  0.88959602819E+00  0.88000000000E+00 0.  1.
        -11    1    4    4    0    0 -0.40292393150E-01  0.12204643900E-02 -0.67939749227E-02  0.40882584254E-01  0.51100000000E-03 0.  1.
         11    1    4    4    0    0 -0.77831750972E-01 -0.14797580746E-01 -0.36269869897E-01  0.87135035655E-01  0.51100000000E-03 0. -1.
</event>
<event>
 8    1  0.1116619E+005  0.1043930E+01  0.7957747E-01            NaN
         13   -1    0    0    0    0  0.00000000000E+00  0.00000000000E+00  0.74505805969E-08  0.10566000000E+00  0.10566000000E+00 0. -1.
     999900   -1    0    0    0    0 -0.00000000000E+00 -0.00000000000E+00 -0.74505805969E-08  0.93827000000E+00  0.93827000000E+00 0. -1.
     999902    2    1    2    0    0  0.10243113688E-01  0.90103063134E-02 -0.19432389168E-01  0.10201871117E+01  0.10199107893E+01 0.  0.
     999903    2    3    3    0    0  0.13000655261E+00  0.34325774310E-02 -0.12235278798E-01  0.13202823468E+00  0.19190268249E-01 0.  0.
         14    1    1    2    0    0 -0.10243113688E-01 -0.90103063134E-02  0.19432389168E-01  0.23742888339E-01  0.00000000000E+00 0. -1.
     999901    1    3    3    0    0 -0.11976343892E+00  0.55777288824E-02 -0.71971103706E-02  0.88815887698E+00  0.88000000000E+00 0. -1.
        -11    1    4    4    0    0  0.40205905084E-01 -0.53256220235E-02 -0.99884592831E-02  0.41772089886E-01  0.51100000000E-03 0.  1.
         11    1    4    4    0    0  0.89800647528E-01  0.87581994545E-02 -0.22468195146E-02  0.90256144794E-01  0.51100000000E-03 0. -1.
</event>
<event>
 8    1  0.1116619E+005  0.1043930E+01  0.7957747E-01            NaN
         13   -1    0    0    0    0  0.00000000000E+00  0.00000000000E+00  0.74505805969E-08  0.10566000000E+00  0.10566000000E+00 0. -1.
     999900   -1    0    0    0    0 -0.00000000000E+00 -0.00000000000E+00 -0.74505805969E-08  0.93827000000E+00  0.93827000000E+00 0. -1.
     999902    2    1    2    0    0 -0.15619124677E-01 -0.84517325146E-02 -0.15730598688E-01  0.10202057387E+01  0.10199298548E+01 0.  0.
     999903    2    3    3    0    0 -0.13005930822E+00  0.14232319321E-01  0.86851653100E-03  0.13235065345E+00  0.19948899193E-01 0.  0.
         14    1    1    2    0    0  0.15619124677E-01  0.84517325146E-02  0.15730598688E-01  0.23724261280E-01  0.00000000000E+00 0. -1.
     999901    1    3    3    0    0  0.11444018354E+00 -0.22684051836E-01 -0.16599115219E-01  0.88785508527E+00  0.88000000000E+00 0. -1.
        -11    1    4    4    0    0 -0.21116842785E-01  0.12146034224E-02  0.74590649836E-02  0.22434239058E-01  0.51100000000E-03 0. -1.
         11    1    4    4    0    0 -0.10894246544E+00  0.13017715899E-01 -0.65905484526E-02  0.10991641439E+00  0.51100000000E-03 0.  1.
</event>
<event>
 8    1  0.1116619E+005  0.1043930E+01  0.7957747E-01            NaN
         13   -1    0    0    0    0  0.00000000000E+00  0.00000000000E+00  0.74505805969E-08  0.10566000000E+00  0.10566000000E+00 0.  1.
     999900   -1    0    0    0    0 -0.00000000000E+00 -0.00000000000E+00 -0.74505805969E-08  0.93827000000E+00  0.93827000000E+00 0. -1.
     999902    2    1    2    0    0 -0.20984874372E-01 -0.48911412062E-02 -0.89081883744E-02  0.10206138246E+01  0.10203474580E+01 0.  0.
     999903    2    3    3    0    0 -0.90487299487E-01  0.47625222303E-01 -0.82820430948E-01  0.13322914188E+00  0.20848676146E-01 0.  0.
         14    1    1    2    0    0  0.20984874372E-01  0.48911412062E-02  0.89081883744E-02  0.23316175390E-01  0.00000000000E+00 0.  1.
     999901    1    3    3    0    0  0.69502425115E-01 -0.52516363510E-01  0.73912242574E-01  0.88738468273E+00  0.88000000000E+00 0.  1.
        -11    1    4    4    0    0 -0.42492072733E-01  0.30328229098E-01 -0.51659907038E-01  0.73446476033E-01  0.51100000000E-03 0.  1.
         11    1    4    4    0    0 -0.47995226753E-01  0.17296993205E-01 -0.31160523910E-01  0.59782665852E-01  0.51100000000E-03 0. -1.
</event>
<event>
 8    1  0.1116619E+005  0.1043930E+01  0.7957747E-01            NaN
         13   -1    0    0    0    0  0.00000000000E+00  0.00000000000E+00  0.74505805969E-08  0.10566000000E+00  0.10566000000E+00 0. -1.
     999900   -1    0    0    0    0 -0.00000000000E+00 -0.00000000000E+00 -0.74505805969E-08  0.93827000000E+00  0.93827000000E+00 0.  1.
     999902    2    1    2    0    0  0.11381763301E-01  0.10821395360E-02 -0.20628252206E-01  0.10203452517E+01  0.10200726407E+01 0.  0.
     999903    2    3    3    0    0  0.13041429800E+00 -0.10744555733E-03 -0.10283522660E-01  0.13227027018E+00  0.19539008880E-01 0.  0.
         14    1    1    2    0    0 -0.11381763301E-01 -0.10821395360E-02  0.20628252206E-01  0.23584748269E-01  0.00000000000E+00 0. -1.
     999901    1    3    3    0    0 -0.11903253470E+00  0.11895850933E-02 -0.10344729546E-01  0.88807498155E+00  0.88000000000E+00 0.  1.
        -11    1    4    4    0    0  0.26788600901E-01 -0.27451824553E-02 -0.96425094907E-02  0.28607765995E-01  0.51100000000E-03 0. -1.
         11    1    4    4    0    0  0.10362569710E+00  0.26377368980E-02 -0.64101316950E-03  0.10366250418E+00  0.51100000000E-03 0.  1.
</event>
<event>
 8    1  0.1116619E+005  0.1043930E+01  0.7957747E-01            NaN
         13   -1    0    0    0    0  0.00000000000E+00  0.00000000000E+00  0.74505805969E-08  0.10566000000E+00  0.10566000000E+00 0. -1.
     999900   -1    0    0    0    0 -0.00000000000E+00 -0.00000000000E+00 -0.74505805969E-08  0.93827000000E+00  0.93827000000E+00 0.  1.
     999902    2    1    2    0    0 -0.35105482445E-02 -0.12137676486E-01 -0.16881127701E-01  0.10228439949E+01  0.10226266270E+01 0.  0.
     999903    2    3    3    0    0  0.63404107426E-01  0.11312807245E+00 -0.69458134268E-02  0.13140258375E+00  0.20008825006E-01 0.  0.
         14    1    1    2    0    0  0.35105482445E-02  0.12137676486E-01  0.16881127701E-01  0.21086005120E-01  0.00000000000E+00 0. -1.
     999901    1    3    3    0    0 -0.66914655671E-01 -0.12526574894E+00 -0.99353142741E-02  0.89144141113E+00  0.88000000000E+00 0.  1.
        -11    1    4    4    0    0  0.29119092511E-01  0.69554552481E-01 -0.88472976377E-02  0.75922941961E-01  0.51100000000E-03 0.  1.
         11    1    4    4    0    0  0.34285014915E-01  0.43573519970E-01  0.19014842109E-02  0.55479641793E-01  0.51100000000E-03 0. -1.
</event>
<event>
 8    1  0.1116619E+005  0.1043930E+01  0.7957747E-01            NaN
         13   -1    0    0    0    0  0.00000000000E+00  0.00000000000E+00  0.74505805969E-08  0.10566000000E+00  0.10566000000E+00 0. -1.
     999900   -1    0    0    0    0 -0.00000000000E+00 -0.00000000000E+00 -0.74505805969E-08  0.93827000000E+00  0.93827000000E+00 0.  1.
     999902    2    1    2    0    0  0.20448196198E-01  0.11417117737E-01  0.77591757135E-04  0.10205102364E+01  0.10202414701E+01 0.  0.
     999903    2    3    3    0    0 -0.10386226018E+00  0.48033805937E-01 -0.57272857707E-01  0.12917250836E+00  0.17627849661E-01 0.  0.
         14    1    1    2    0    0 -0.20448196198E-01 -0.11417117737E-01 -0.77591757135E-04  0.23419763570E-01  0.00000000000E+00 0.  1.
     999901    1    3    3    0    0  0.12431045638E+00 -0.36616688199E-01  0.57350449464E-01  0.89133772807E+00  0.88000000000E+00 0. -1.
        -11    1    4    4    0    0 -0.52158034906E-01  0.29394069615E-01 -0.38068145803E-01  0.70950100632E-01  0.51100000000E-03 0.  1.
         11    1    4    4    0    0 -0.51704225278E-01  0.18639736321E-01 -0.19204711904E-01  0.58222407731E-01  0.51100000000E-03 0. -1.
</event>
<event>
 8    1  0.1116619E+005  0.1043930E+01  0.7957747E-01            NaN
         13   -1    0    0    0    0  0.00000000000E+00  0.00000000000E+00  0.74505805969E-08  0.10566000000E+00  0.10566000000E+00 0. -1.
     999900   -1    0    0    0    0 -0.00000000000E+00 -0.00000000000E+00 -0.74505805969E-08  0.93827000000E+00  0.93827000000E+00 0.  1.
     999902    2    1    2    0    0  0.14219839201E-01  0.12871437371E-01 -0.14045249018E-01  0.10201571847E+01  0.10198801571E+01 0.  0.
     999903    2    3    3    0    0  0.10104531179E+00 -0.44272890229E-01  0.66123186240E-01  0.13042064231E+00  0.21610745881E-01 0.  0.
         14    1    1    2    0    0 -0.14219839201E-01 -0.12871437371E-01  0.14045249018E-01  0.23772815291E-01  0.00000000000E+00 0. -1.
     999901    1    3    3    0    0 -0.86825472592E-01  0.57144327600E-01 -0.80168435258E-01  0.88973654240E+00  0.88000000000E+00 0.  1.
        -11    1    4    4    0    0  0.47259526994E-01 -0.16574811288E-01  0.41716993594E-01  0.65182481822E-01  0.51100000000E-03 0. -1.
         11    1    4    4    0    0  0.53785784798E-01 -0.27698078942E-01  0.24406192646E-01  0.65238160488E-01  0.51100000000E-03 0.  1.
</event>
<event>
 7    1  0.1116619E+005  0.1043930E+01  0.7957747E-01            NaN
         13   -1    0    0    0    0  0.00000000000E+00  0.00000000000E+00  0.74505805969E-08  0.10566000000E+00  0.10566000000E+00 0. -1.
     999900   -1    0    0    0    0 -0.00000000000E+00 -0.00000000000E+00 -0.74505805969E-08  0.93827000000E+00  0.93827000000E+00 0.  1.
     999903    2    1    2    0    0 -0.88640187677E-01  0.20925398848E-01  0.68278655594E-01  0.11579664858E+00  0.21258735229E-01 0.  0.
         14    1    1    2    0    0  0.27583876700E-01 -0.33532432189E-02  0.29398647133E-01  0.40452378758E-01  0.00000000000E+00 0. -1.
     999901    1    1    2    0    0  0.61056310977E-01 -0.17572155629E-01 -0.97677302728E-01  0.88768097267E+00  0.88000000000E+00 0.  1.
        -11    1    3    3    0    0 -0.21283864087E-01  0.13327409913E-01  0.24599847552E-01  0.35157308572E-01  0.51100000000E-03 0.  1.
         11    1    3    3    0    0 -0.67356323590E-01  0.75979889352E-02  0.43678808042E-01  0.80639340005E-01  0.51100000000E-03 0. -1.
</event>
<event>
 8    1  0.1116619E+005  0.1043930E+01  0.7957747E-01            NaN
         13   -1    0    0    0    0  0.00000000000E+00  0.00000000000E+00  0.74505805969E-08  0.10566000000E+00  0.10566000000E+00 0. -1.
     999900   -1    0    0    0    0 -0.00000000000E+00 -0.00000000000E+00 -0.74505805969E-08  0.93827000000E+00  0.93827000000E+00 0.  1.
     999902    2    1    2    0    0  0.18149527143E-01  0.35866723595E-02  0.13943444455E-01  0.10207634466E+01  0.10205005265E+01 0.  0.
     999903    2    3    3    0    0 -0.12157375144E+00 -0.23395720022E-02  0.39655528023E-01  0.12934949886E+00  0.19315312950E-01 0.  0.
         14    1    1    2    0    0 -0.18149527143E-01 -0.35866723595E-02 -0.13943444455E-01  0.23166553421E-01  0.00000000000E+00 0.  1.
     999901    1    3    3    0    0  0.13972327859E+00  0.59262443617E-02 -0.25712083568E-01  0.89141394772E+00  0.88000000000E+00 0.  1.
        -11    1    4    4    0    0 -0.94248646603E-01 -0.43856597633E-03  0.22087372132E-01  0.96804508445E-01  0.51100000000E-03 0.  1.
         11    1    4    4    0    0 -0.27325104841E-01 -0.19010060259E-02  0.17568155891E-01  0.32544990412E-01  0.51100000000E-03 0. -1.
</event>
<event>
 8    1  0.1116619E+005  0.1043930E+01  0.7957747E-01            NaN
         13   -1    0    0    0    0  0.00000000000E+00  0.00000000000E+00  0.74505805969E-08  0.10566000000E+00  0.10566000000E+00 0.  1.
     999900   -1    0    0    0    0 -0.00000000000E+00 -0.00000000000E+00 -0.74505805969E-08  0.93827000000E+00  0.93827000000E+00 0. -1.
     999902    2    1    2    0    0  0.22568091116E-01 -0.57168738933E-02  0.72147055639E-02  0.10195567901E+01  0.10192654193E+01 0.  0.
     999903    2    3    3    0    0 -0.48605513134E-02 -0.12864432557E+00  0.86428463163E-02  0.13058798954E+00  0.20137943302E-01 0.  0.
         14    1    1    2    0    0 -0.22568091116E-01  0.57168738933E-02 -0.72147055639E-02  0.24373209885E-01  0.00000000000E+00 0.  1.
     999901    1    3    3    0    0  0.27428642429E-01  0.12292745168E+00 -0.14281407523E-02  0.88896880057E+00  0.88000000000E+00 0. -1.
        -11    1    4    4    0    0 -0.21053904967E-02 -0.20716016961E-01  0.88294818070E-02  0.22623149601E-01  0.51100000000E-03 0.  1.
         11    1    4    4    0    0 -0.27551608168E-02 -0.10792830861E+00 -0.18663549072E-03  0.10796483994E+00  0.51100000000E-03 0. -1.
</event>
<event>
 8    1  0.1116619E+005  0.1043930E+01  0.7957747E-01            NaN
         13   -1    0    0    0    0  0.00000000000E+00  0.00000000000E+00  0.74505805969E-08  0.10566000000E+00  0.10566000000E+00 0. -1.
     999900   -1    0    0    0    0 -0.00000000000E+00 -0.00000000000E+00 -0.74505805969E-08  0.93827000000E+00  0.93827000000E+00 0.  1.
     999902    2    1    2    0    0  0.97099772577E-02 -0.78025599459E-02 -0.20764611710E-01  0.10197156923E+01  0.10194281536E+01 0.  0.
     999903    2    3    3    0    0 -0.94418843011E-01 -0.18275960660E-01 -0.86640313240E-01  0.13106946828E+00  0.20584775530E-01 0.  0.
         14    1    1    2    0    0 -0.97099772577E-02  0.78025599459E-02  0.20764611710E-01  0.24214307744E-01  0.00000000000E+00 0. -1.
     999901    1    3    3    0    0  0.10412882027E+00  0.10473400714E-01  0.65875701530E-01  0.88864622398E+00  0.88000000000E+00 0.  1.
        -11    1    4    4    0    0 -0.71773998147E-01 -0.16696444904E-01 -0.54223125725E-01  0.91491456251E-01  0.51100000000E-03 0.  1.
         11    1    4    4    0    0 -0.22644844864E-01 -0.15795157561E-02 -0.32417187514E-01  0.39578012031E-01  0.51100000000E-03 0. -1.
</event>
<event>
 8    1  0.1116619E+005  0.1043930E+01  0.7957747E-01            NaN
         13   -1    0    0    0    0  0.00000000000E+00  0.00000000000E+00  0.74505805969E-08  0.10566000000E+00  0.10566000000E+00 0. -1.
     999900   -1    0    0    0    0 -0.00000000000E+00 -0.00000000000E+00 -0.74505805969E-08  0.93827000000E+00  0.93827000000E+00 0.  1.
     999902    2    1    2    0    0 -0.20651707411E-01  0.45083695448E-02  0.98143786564E-02  0.10206246263E+01  0.10203585092E+01 0.  0.
     999903    2    3    3    0    0 -0.42454750956E-01  0.51826018665E-01 -0.11076022144E+00  0.13087602877E+00  0.19296791529E-01 0.  0.
         14    1    1    2    0    0  0.20651707411E-01 -0.45083695448E-02 -0.98143786564E-02  0.23305373701E-01  0.00000000000E+00 0. -1.
     999901    1    3    3    0    0  0.21803043545E-01 -0.47317649120E-01  0.12057460009E+00  0.88974859753E+00  0.88000000000E+00 0. -1.
        -11    1    4    4    0    0 -0.18530038531E-01  0.18514188744E-01 -0.27052158262E-01  0.37659233933E-01  0.51100000000E-03 0.  1.
         11    1    4    4    0    0 -0.23924712425E-01  0.33311829921E-01 -0.83708063175E-01  0.93216794832E-01  0.51100000000E-03 0. -1.
</event>
<event>
 8    1  0.1116619E+005  0.1043930E+01  0.7957747E-01            NaN
         13   -1    0    0    0    0  0.00000000000E+00  0.00000000000E+00  0.74505805969E-08  0.10566000000E+00  0.10566000000E+00 0.  1.
     999900   -1    0    0    0    0 -0.00000000000E+00 -0.00000000000E+00 -0.74505805969E-08  0.93827000000E+00  0.93827000000E+00 0.  1.
     999902    2    1    2    0    0 -0.35560687154E-02  0.19994806119E-01 -0.12811786326E-01  0.10199179246E+01  0.10196352255E+01 0.  0.
     999903    2    3    3    0    0  0.11546162421E+00  0.40558565878E-01  0.39564443214E-01  0.13012505608E+00  0.19768690423E-01 0.  0.
         14    1    1    2    0    0  0.35560687154E-02 -0.19994806119E-01  0.12811786326E-01  0.24012075406E-01  0.00000000000E+00 0.  1.
     999901    1    3    3    0    0 -0.11901769292E+00 -0.20563759759E-01 -0.52376229539E-01  0.88979286852E+00  0.88000000000E+00 0.  1.
        -11    1    4    4    0    0  0.10657548571E+00  0.31201531151E-01  0.35410253035E-01  0.11655907018E+00  0.51100000000E-03 0. -1.
         11    1    4    4    0    0  0.88861385035E-02  0.93570347268E-02  0.41541901790E-02  0.13565985899E-01  0.51100000000E-03 0.  1.
</event>
<event>
 8    1  0.1116619E+005  0.1043930E+01  0.7957747E-01            NaN
         13   -1    0    0    0    0  0.00000000000E+00  0.00000000000E+00  0.74505805969E-08  0.10566000000E+00  0.10566000000E+00 0.  1.
     999900   -1    0    0    0    0 -0.00000000000E+00 -0.00000000000E+00 -0.74505805969E-08  0.93827000000E+00  0.93827000000E+00 0. -1.
     999902    2    1    2    0    0 -0.70087523346E-02 -0.20643089692E-01 -0.93153841216E-02  0.10202226985E+01  0.10199472136E+01 0.  0.
     999903    2    3    3    0    0 -0.41698342223E-01  0.11743381167E+00 -0.24837096196E-01  0.12864571258E+00  0.20084475396E-01 0.  0.
         14    1    1    2    0    0  0.70087523346E-02  0.20643089692E-01  0.93153841216E-02  0.23707301463E-01  0.00000000000E+00 0. -1.
     999901    1    3    3    0    0  0.34689589889E-01 -0.13807690136E+00  0.15521712074E-01  0.89157698595E+00  0.88000000000E+00 0.  1.
        -11    1    4    4    0    0 -0.11727339128E-01  0.18313438250E-01  0.14716284780E-02  0.21802277746E-01  0.51100000000E-03 0. -1.
         11    1    4    4    0    0 -0.29971003096E-01  0.99120373418E-01 -0.26308724674E-01  0.10684343484E+00  0.51100000000E-03 0.  1.
</event>
<event>
 8    1  0.1580834E+005  0.1043930E+01  0.7957747E-01            NaN
         13   -1    0    0    0    0  0.00000000000E+00  0.00000000000E+00  0.74505805969E-08  0.10566000000E+00  0.10566000000E+00 0. -1.
     999900   -1    0    0    0    0 -0.00000000000E+00 -0.00000000000E+00 -0.74505805969E-08  0.93827000000E+00  0.93827000000E+00 0.  1.
     999902    2    1    2    0    0  0.45512587438E-02 -0.23639430266E-01  0.30938600033E-02  0.10196584407E+01  0.10193695243E+01 0.  0.
     999903    2    3    3    0    0  0.11846655963E+00 -0.44809001970E-01 -0.24161289440E-01  0.13164510203E+00  0.26542278970E-01 0.  0.
         14    1    1    2    0    0 -0.45512587438E-02  0.23639430266E-01 -0.30938600033E-02  0.24271559265E-01  0.00000000000E+00 0.  1.
     999901    1    3    3    0    0 -0.11391530089E+00  0.21169571704E-01  0.27255149443E-01  0.88801333870E+00  0.88000000000E+00 0. -1.
        -11    1    4    4    0    0  0.57061644268E-01 -0.18152655543E-01  0.16342301526E-02  0.59903939595E-01  0.51100000000E-03 0. -1.
         11    1    4    4    0    0  0.61404915365E-01 -0.26656346427E-01 -0.25795519593E-01  0.71741162437E-01  0.51100000000E-03 0.  1.
</event>
<event>
 8    1  0.1116619E+005  0.1043930E+01  0.7957747E-01            NaN
         13   -1    0    0    0    0  0.00000000000E+00  0.00000000000E+00  0.74505805969E-08  0.10566000000E+00  0.10566000000E+00 0.  1.
     999900   -1    0    0    0    0 -0.00000000000E+00 -0.00000000000E+00 -0.74505805969E-08  0.93827000000E+00  0.93827000000E+00 0. -1.
     999902    2    1    2    0    0 -0.13146267154E-01 -0.20564377246E-01 -0.14559918091E-02  0.10194792768E+01  0.10191860272E+01 0.  0.
     999903    2    3    3    0    0 -0.41971290756E-01 -0.60851502535E-01 -0.10732987915E+00  0.13175003068E+00  0.19335796266E-01 0.  0.
         14    1    1    2    0    0  0.13146267154E-01  0.20564377246E-01  0.14559918091E-02  0.24450723174E-01  0.00000000000E+00 0. -1.
     999901    1    3    3    0    0  0.28825023603E-01  0.40287125289E-01  0.10587388734E+00  0.88772924615E+00  0.88000000000E+00 0.  1.
        -11    1    4    4    0    0 -0.12055015781E-01 -0.10067147994E-01 -0.12434556827E-01  0.20038717491E-01  0.51100000000E-03 0. -1.
         11    1    4    4    0    0 -0.29916274976E-01 -0.50784354541E-01 -0.94895322319E-01  0.11171131319E+00  0.51100000000E-03 0.  1.
</event>
<event>
 8    1  0.1116619E+005  0.1043930E+01  0.7957747E-01            NaN
         13   -1    0    0    0    0  0.00000000000E+00  0.00000000000E+00  0.74505805969E-08  0.10566000000E+00  0.10566000000E+00 0.  1.
     999900   -1    0    0    0    0 -0.00000000000E+00 -0.00000000000E+00 -0.74505805969E-08  0.93827000000E+00  0.93827000000E+00 0. -1.
     999902    2    1    2    0    0  0.20084371651E-01 -0.29638889809E-02 -0.11634531387E-01  0.10205306636E+01  0.10202623714E+01 0.  0.
     999903    2    3    3    0    0  0.94429803427E-01  0.71428110840E-01  0.54381413454E-01  0.13181275684E+00  0.19957503402E-01 0.  0.
         14    1    1    2    0    0 -0.20084371651E-01  0.29638889809E-02  0.11634531387E-01  0.23399336381E-01  0.00000000000E+00 0.  1.
     999901    1    3    3    0    0 -0.74345431776E-01 -0.74391999820E-01 -0.66015944840E-01  0.88871790678E+00  0.88000000000E+00 0.  1.
        -11    1    4    4    0    0  0.27146306467E-01  0.10327718680E-01  0.10523393033E-01  0.30896385709E-01  0.51100000000E-03 0. -1.
         11    1    4    4    0    0  0.67283496960E-01  0.61100392159E-01  0.43858020421E-01  0.10091637113E+00  0.51100000000E-03 0.  1.
</event>
<event>
 8    1  0.1116619E+005  0.1043930E+01  0.7957747E-01            NaN
         13   -1    0    0    0    0  0.00000000000E+00  0.00000000000E+00  0.74505805969E-08  0.10566000000E+00  0.10566000000E+00 0.  1.
     999900   -1    0    0    0    0 -0.00000000000E+00 -0.00000000000E+00 -0.74505805969E-08  0.93827000000E+00  0.93827000000E+00 0. -1.
     999902    2    1    2    0    0  0.88602885193E-02  0.13213669850E-01 -0.15639727460E-01  0.10216206554E+01  0.10213770394E+01 0.  0.
     999903    2    3    3    0    0 -0.29841442876E-01 -0.59882002428E-01 -0.11239619774E+00  0.13246228034E+00  0.20904174639E-01 0.  0.
         14    1    1    2    0    0 -0.88602885193E-02 -0.13213669850E-01  0.15639727460E-01  0.22309344647E-01  0.00000000000E+00 0. -1.
     999901    1    3    3    0    0  0.38701731395E-01  0.73095672278E-01  0.96756470283E-01  0.88915837502E+00  0.88000000000E+00 0.  1.
        -11    1    4    4    0    0 -0.24163089406E-02 -0.26830606633E-01 -0.38531410169E-01  0.47017557272E-01  0.51100000000E-03 0. -1.
         11    1    4    4    0    0 -0.27425133935E-01 -0.33051395795E-01 -0.73864787574E-01  0.85444723066E-01  0.51100000000E-03 0.  1.
</event>
<event>
 8    1  0.1116619E+005  0.1043930E+01  0.7957747E-01            NaN
         13   -1    0    0    0    0  0.00000000000E+00  0.00000000000E+00  0.74505805969E-08  0.10566000000E+00  0.10566000000E+00 0.  1.
     999900   -1    0    0    0    0 -0.00000000000E+00 -0.00000000000E+00 -0.74505805969E-08  0.93827000000E+00  0.93827000000E+00 0.  1.
     999902    2    1    2    0    0  0.14806679385E-01  0.11049928918E-01 -0.14982473712E-01  0.10201431717E+01  0.10198658135E+01 0.  0.
     999903    2    3    3    0    0 -0.10339533222E+00 -0.20042432363E-01 -0.72990838886E-01  0.12980423570E+00  0.20716737799E-01 0.  0.
         14    1    1    2    0    0 -0.14806679385E-01 -0.11049928918E-01  0.14982473712E-01  0.23786828330E-01  0.00000000000E+00 0. -1.
     999901    1    3    3    0    0  0.11820201160E+00  0.31092361281E-01  0.58008365174E-01  0.89033893597E+00  0.88000000000E+00 0. -1.
        -11    1    4    4    0    0 -0.31601139864E-01  0.13453428549E-02 -0.14694584159E-01  0.34880279711E-01  0.51100000000E-03 0. -1.
         11    1    4    4    0    0 -0.71794192352E-01 -0.21387775218E-01 -0.58296254727E-01  0.94923955988E-01  0.51100000000E-03 0.  1.
</event>
<event>
 8    1  0.1116619E+005  0.1043930E+01  0.7957747E-01            NaN
         13   -1    0    0    0    0  0.00000000000E+00  0.00000000000E+00  0.74505805969E-08  0.10566000000E+00  0.10566000000E+00 0.  1.
     999900   -1    0    0    0    0 -0.00000000000E+00 -0.00000000000E+00 -0.74505805969E-08  0.93827000000E+00  0.93827000000E+00 0. -1.
     999902    2    1    2    0    0  0.16252037799E-01  0.14108013851E-01  0.97046687463E-02  0.10203218365E+01  0.10200486776E+01 0.  0.
     999903    2    3    3    0    0  0.33164189448E-01  0.10303555120E+00 -0.72467918599E-01  0.13187011477E+00  0.20541170107E-01 0.  0.
         14    1    1    2    0    0 -0.16252037799E-01 -0.14108013851E-01 -0.97046687463E-02  0.23608163481E-01  0.00000000000E+00 0. -1.
     999901    1    3    3    0    0 -0.16912151649E-01 -0.88927537351E-01  0.82172587345E-01  0.88845172175E+00  0.88000000000E+00 0. -1.
        -11    1    4    4    0    0  0.14099468172E-01  0.22078918518E-01 -0.24416002678E-01  0.35814465700E-01  0.51100000000E-03 0. -1.
         11    1    4    4    0    0  0.19064721276E-01  0.80956632685E-01 -0.48051915921E-01  0.96055649067E-01  0.51100000000E-03 0.  1.
</event>
<event>
 8    1  0.1116619E+005  0.1043930E+01  0.7957747E-01            NaN
         13   -1    0    0    0    0  0.00000000000E+00  0.00000000000E+00  0.74505805969E-08  0.10566000000E+00  0.10566000000E+00 0. -1.
     999900   -1    0    0    0    0 -0.00000000000E+00 -0.00000000000E+00 -0.74505805969E-08  0.93827000000E+00  0.93827000000E+00 0. -1.
     999902    2    1    2    0    0 -0.95634566578E-02  0.18894978097E-01 -0.11983125939E-01  0.10195974044E+01  0.10193070155E+01 0.  0.
     999903    2    3    3    0    0  0.74686153919E-01 -0.16017286565E-01  0.10057501647E+00  0.12775313632E+00  0.19260188123E-01 0.  0.
         14    1    1    2    0    0  0.95634566578E-02 -0.18894978097E-01  0.11983125939E-01  0.24332595583E-01  0.00000000000E+00 0. -1.
     999901    1    3    3    0    0 -0.84249610577E-01  0.34912264662E-01 -0.11255814241E+00  0.89184426809E+00  0.88000000000E+00 0. -1.
        -11    1    4    4    0    0  0.28506867227E-01  0.15206216517E-02  0.45999572210E-01  0.54140331859E-01  0.51100000000E-03 0.  1.
         11    1    4    4    0    0  0.46179286692E-01 -0.17537908217E-01  0.54575444261E-01  0.73612804466E-01  0.51100000000E-03 0. -1.
</event>
<event>
 8    1  0.1116619E+005  0.1043930E+01  0.7957747E-01            NaN
         13   -1    0    0    0    0  0.00000000000E+00  0.00000000000E+00  0.74505805969E-08  0.10566000000E+00  0.10566000000E+00 0. -1.
     999900   -1    0    0    0    0 -0.00000000000E+00 -0.00000000000E+00 -0.74505805969E-08  0.93827000000E+00  0.93827000000E+00 0. -1.
     999902    2    1    2    0    0 -0.58620835989E-02 -0.14955423975E-01  0.19083907485E-01  0.10189855767E+01  0.10186802154E+01 0.  0.
     999903    2    3    3    0    0  0.27165709729E-01 -0.63430059700E-01  0.11123221984E+00  0.13223198242E+00  0.18744124030E-01 0.  0.
         14    1    1    2    0    0  0.58620835989E-02  0.14955423975E-01 -0.19083907485E-01  0.24944423331E-01  0.00000000000E+00 0.  1.
     999901    1    3    3    0    0 -0.33027793327E-01  0.48474635725E-01 -0.92148312357E-01  0.88675359425E+00  0.88000000000E+00 0. -1.
        -11    1    4    4    0    0  0.13830583920E-01 -0.50523532827E-01  0.74486800300E-01  0.91062928576E-01  0.51100000000E-03 0. -1.
         11    1    4    4    0    0  0.13335125809E-01 -0.12906526873E-01  0.36745419542E-01  0.41169053846E-01  0.51100000000E-03 0.  1.
</event>
<event>
 8    1  0.1116619E+005  0.1043930E+01  0.7957747E-01            NaN
         13   -1    0    0    0    0  0.00000000000E+00  0.00000000000E+00  0.74505805969E-08  0.10566000000E+00  0.10566000000E+00 0. -1.
     999900   -1    0    0    0    0 -0.00000000000E+00 -0.00000000000E+00 -0.74505805969E-08  0.93827000000E+00  0.93827000000E+00 0. -1.
     999902    2    1    2    0    0  0.30335667918E-02  0.13721519789E-01 -0.18938228019E-01  0.10203473981E+01  0.10200748373E+01 0.  0.
     999903    2    3    3    0    0  0.11937619307E+00  0.42611546034E-01 -0.31986965414E-01  0.13212416609E+00  0.19162723749E-01 0.  0.
         14    1    1    2    0    0 -0.30335667918E-02 -0.13721519789E-01  0.18938228019E-01  0.23582601919E-01  0.00000000000E+00 0. -1.
     999901    1    3    3    0    0 -0.11634262627E+00 -0.28890026245E-01  0.13048737396E-01  0.88822323199E+00  0.88000000000E+00 0.  1.
        -11    1    4    4    0    0  0.42950867920E-01  0.19595033850E-01 -0.20551897309E-01  0.51491591650E-01  0.51100000000E-03 0.  1.
         11    1    4    4    0    0  0.76425325146E-01  0.23016512184E-01 -0.11435068106E-01  0.80632574437E-01  0.51100000000E-03 0. -1.
</event>
<event>
 8    1  0.1116619E+005  0.1043930E+01  0.7957747E-01            NaN
         13   -1    0    0    0    0  0.00000000000E+00  0.00000000000E+00  0.74505805969E-08  0.10566000000E+00  0.10566000000E+00 0.  1.
     999900   -1    0    0    0    0 -0.00000000000E+00 -0.00000000000E+00 -0.74505805969E-08  0.93827000000E+00  0.93827000000E+00 0. -1.
     999902    2    1    2    0    0 -0.14952065604E-01 -0.17748620599E-01  0.96557453791E-02  0.10187941448E+01  0.10184840196E+01 0.  0.
     999903    2    3    3    0    0  0.52598022228E-01  0.11195752727E+00 -0.16298573313E-01  0.12634788543E+00  0.19927488691E-01 0.  0.
         14    1    1    2    0    0  0.14952065604E-01  0.17748620599E-01 -0.96557453791E-02  0.25135855224E-01  0.00000000000E+00 0. -1.
     999901    1    3    3    0    0 -0.67550087832E-01 -0.12970614787E+00  0.25954318692E-01  0.89244625935E+00  0.88000000000E+00 0. -1.
        -11    1    4    4    0    0  0.18107029444E-01  0.28251798032E-01 -0.12238582287E-01  0.35722158736E-01  0.51100000000E-03 0. -1.
         11    1    4    4    0    0  0.34490992784E-01  0.83705729240E-01 -0.40599910255E-02  0.90625726695E-01  0.51100000000E-03 0.  1.
</event>
<event>
 8    1  0.1116619E+005  0.1043930E+01  0.7957747E-01            NaN
         13   -1    0    0    0    0  0.00000000000E+00  0.00000000000E+00  0.74505805969E-08  0.10566000000E+00  0.10566000000E+00 0. -1.
     999900   -1    0    0    0    0 -0.00000000000E+00 -0.00000000000E+00 -0.74505805969E-08  0.93827000000E+00  0.93827000000E+00 0. -1.
     999902    2    1    2    0    0 -0.90204795036E-02 -0.14056772888E-01  0.10175865960E-01  0.10243721330E+01  0.10241854113E+01 0.  0.
     999903    2    3    3    0    0  0.29370421616E-01  0.24687896691E-01 -0.12512265802E+00  0.13236277131E+00  0.19801761753E-01 0.  0.
         14    1    1    2    0    0  0.90204795036E-02  0.14056772888E-01 -0.10175865960E-01  0.19557867024E-01  0.00000000000E+00 0.  1.
     999901    1    3    3    0    0 -0.38390901120E-01 -0.38744669579E-01  0.13529852398E+00  0.89200936167E+00  0.88000000000E+00 0.  1.
        -11    1    4    4    0    0  0.12675356289E-01  0.22016876516E-01 -0.61803907437E-01  0.66823585687E-01  0.51100000000E-03 0. -1.
         11    1    4    4    0    0  0.16695065327E-01  0.26710201755E-02 -0.63318750587E-01  0.65539185622E-01  0.51100000000E-03 0.  1.
</event>
<event>
 8    1  0.1116619E+005  0.1043930E+01  0.7957747E-01            NaN
         13   -1    0    0    0    0  0.00000000000E+00  0.00000000000E+00  0.74505805969E-08  0.10566000000E+00  0.10566000000E+00 0. -1.
     999900   -1    0    0    0    0 -0.00000000000E+00 -0.00000000000E+00 -0.74505805969E-08  0.93827000000E+00  0.93827000000E+00 0. -1.
     999902    2    1    2    0    0  0.37261009840E-01  0.51650166587E-03 -0.54117091545E-03  0.10066614812E+01  0.10059713690E+01 0.  0.
     999903    2    3    3    0    0  0.55468116704E-01  0.19647764453E-01  0.10385954104E+00  0.12009675563E+00  0.13178764287E-01 0.  0.
         14    1    1    2    0    0 -0.37261009840E-01 -0.51650166587E-03  0.54117091545E-03  0.37268518809E-01  0.00000000000E+00 0.  1.
     999901    1    3    3    0    0 -0.18207106864E-01 -0.19131262787E-01 -0.10440071196E+00  0.88656472556E+00  0.88000000000E+00 0. -1.
        -11    1    4    4    0    0  0.30982022141E-01  0.13021058155E-01  0.46492396099E-01  0.57369309456E-01  0.51100000000E-03 0.  1.
         11    1    4    4    0    0  0.24486094563E-01  0.66267062982E-02  0.57367144942E-01  0.62727446171E-01  0.51100000000E-03 0. -1.
</event>
<event>
 8    1  0.1116619E+005  0.1043930E+01  0.7957747E-01            NaN
         13   -1    0    0    0    0  0.00000000000E+00  0.00000000000E+00  0.74505805969E-08  0.10566000000E+00  0.10566000000E+00 0. -1.
     999900   -1    0    0    0    0 -0.00000000000E+00 -0.00000000000E+00 -0.74505805969E-08  0.93827000000E+00  0.93827000000E+00 0. -1.
     999902    2    1    2    0    0 -0.10268098653E-01 -0.12713432342E-01 -0.17604795282E-01  0.10199093000E+01  0.10196263954E+01 0.  0.
     999903    2    3    3    0    0 -0.68865504810E-01 -0.27122203454E-01  0.10433766288E+00  0.12945366842E+00  0.19845218584E-01 0.  0.
         14    1    1    2    0    0  0.10268098653E-01  0.12713432342E-01  0.17604795282E-01  0.24020700006E-01  0.00000000000E+00 0. -1.
     999901    1    3    3    0    0  0.58597406156E-01  0.14408771112E-01 -0.12194245816E+00  0.89045563157E+00  0.88000000000E+00 0. -1.
        -11    1    4    4    0    0 -0.37601370739E-01 -0.44267508355E-02  0.47916247970E-01  0.61071164595E-01  0.51100000000E-03 0. -1.
         11    1    4    4    0    0 -0.31264134070E-01 -0.22695452618E-01  0.56421414907E-01  0.68382503828E-01  0.51100000000E-03 0.  1.
</event>
<event>
 8    1  0.1116619E+005  0.1043930E+01  0.7957747E-01            NaN
         13   -1    0    0    0    0  0.00000000000E+00  0.00000000000E+00  0.74505805969E-08  0.10566000000E+00  0.10566000000E+00 0. -1.
     999900   -1    0    0    0    0 -0.00000000000E+00 -0.00000000000E+00 -0.74505805969E-08  0.93827000000E+00  0.93827000000E+00 0. -1.
     999902    2    1    2    0    0  0.10577370451E-01  0.17638305201E-01 -0.16254889742E-02  0.10232991302E+01  0.10230911382E+01 0.  0.
     999903    2    3    3    0    0  0.94970988303E-03  0.13143026927E+00  0.26330652858E-01  0.13547997695E+00  0.19664771711E-01 0.  0.
         14    1    1    2    0    0 -0.10577370451E-01 -0.17638305201E-01  0.16254889742E-02  0.20630869841E-01  0.00000000000E+00 0.  1.
     999901    1    3    3    0    0  0.96276605681E-02 -0.11379196407E+00 -0.27956141832E-01  0.88781915321E+00  0.88000000000E+00 0.  1.
        -11    1    4    4    0    0  0.51461722166E-02  0.36293620242E-01 -0.60309774821E-04  0.36660260733E-01  0.51100000000E-03 0. -1.
         11    1    4    4    0    0 -0.41964623335E-02  0.95136649026E-01  0.26390962633E-01  0.98819716219E-01  0.51100000000E-03 0.  1.
</event>
<event>
 8    1  0.1116619E+005  0.1043930E+01  0.7957747E-01            NaN
         13   -1    0    0    0    0  0.00000000000E+00  0.00000000000E+00  0.74505805969E-08  0.10566000000E+00  0.10566000000E+00 0. -1.
     999900   -1    0    0    0    0 -0.00000000000E+00 -0.00000000000E+00 -0.74505805969E-08  0.93827000000E+00  0.93827000000E+00 0. -1.
     999902    2    1    2    0    0 -0.18160149781E-01 -0.14140284139E-01  0.33544015483E-02  0.10206707935E+01  0.10204057419E+01 0.  0.
     999903    2    3    3    0    0  0.15469120002E-01  0.24583711015E-01  0.12583850070E+00  0.13070853022E+00  0.20142966287E-01 0.  0.
         14    1    1    2    0    0  0.18160149781E-01  0.14140284139E-01 -0.33544015483E-02  0.23259206464E-01  0.00000000000E+00 0.  1.
     999901    1    3    3    0    0 -0.33629269783E-01 -0.38723995154E-01 -0.12248409916E+00  0.88996226332E+00  0.88000000000E+00 0. -1.
        -11    1    4    4    0    0  0.13488139136E-03  0.23846306484E-02  0.52601525240E-01  0.52658201972E-01  0.51100000000E-03 0. -1.
         11    1    4    4    0    0  0.15334238611E-01  0.22199080366E-01  0.73236975464E-01  0.78050328244E-01  0.51100000000E-03 0.  1.
</event>
<event>
 8    1  0.1116619E+005  0.1043930E+01  0.7957747E-01            NaN
         13   -1    0    0    0    0  0.00000000000E+00  0.00000000000E+00  0.74505805969E-08  0.10566000000E+00  0.10566000000E+00 0.  1.
     999900   -1    0    0    0    0 -0.00000000000E+00 -0.00000000000E+00 -0.74505805969E-08  0.93827000000E+00  0.93827000000E+00 0. -1.
     999902    2    1    2    0    0 -0.20561755743E-01  0.60183197070E-02 -0.93966342484E-02  0.10205354984E+01  0.10202673183E+01 0.  0.
     999903    2    3    3    0    0  0.66739863177E-01  0.90833168019E-01 -0.62377332932E-01  0.13057927159E+00  0.21334028096E-01 0.  0.
         14    1    1    2    0    0  0.20561755743E-01 -0.60183197070E-02  0.93966342484E-02  0.23394501630E-01  0.00000000000E+00 0.  1.
     999901    1    3    3    0    0 -0.87301618919E-01 -0.84814848312E-01  0.52980698684E-01  0.88995622678E+00  0.88000000000E+00 0.  1.
        -11    1    4    4    0    0  0.41078300373E-01  0.38700864898E-01 -0.27190973539E-01  0.62648175299E-01  0.51100000000E-03 0.  1.
         11    1    4    4    0    0  0.25661562804E-01  0.52132303121E-01 -0.35186359393E-01  0.67931096286E-01  0.51100000000E-03 0. -1.
</event>
<event>
 8    1  0.1116619E+005  0.1043930E+01  0.7957747E-01            NaN
         13   -1    0    0    0    0  0.00000000000E+00  0.00000000000E+00  0.74505805969E-08  0.10566000000E+00  0.10566000000E+00 0.  1.
     999900   -1    0    0    0    0 -0.00000000000E+00 -0.00000000000E+00 -0.74505805969E-08  0.93827000000E+00  0.93827000000E+00 0. -1.
     999902    2    1    2    0    0  0.16569457474E-01  0.28475242070E-02 -0.16732788604E-01  0.10202099340E+01  0.10199341488E+01 0.  0.
     999903    2    3    3    0    0  0.98630076252E-02 -0.12240385482E+00 -0.40899917329E-01  0.13098727658E+00  0.20121649891E-01 0.  0.
         14    1    1    2    0    0 -0.16569457474E-01 -0.28475242070E-02  0.16732788604E-01  0.23720065968E-01  0.00000000000E+00 0.  1.
     999901    1    3    3    0    0  0.67064498485E-02  0.12525137902E+00  0.24167128725E-01  0.88922265745E+00  0.88000000000E+00 0. -1.
        -11    1    4    4    0    0  0.15194992394E-01 -0.10287285885E+00 -0.31473406948E-01  0.10864874297E+00  0.51100000000E-03 0.  1.
         11    1    4    4    0    0 -0.53319847687E-02 -0.19530995966E-01 -0.94265103811E-02  0.22338533612E-01  0.51100000000E-03 0. -1.
</event>
<event>
 8    1  0.1116619E+005  0.1043930E+01  0.7957747E-01            NaN
         13   -1    0    0    0    0  0.00000000000E+00  0.00000000000E+00  0.74505805969E-08  0.10566000000E+00  0.10566000000E+00 0. -1.
     999900   -1    0    0    0    0 -0.00000000000E+00 -0.00000000000E+00 -0.74505805969E-08  0.93827000000E+00  0.93827000000E+00 0.  1.
     999902    2    1    2    0    0  0.41668767225E-02  0.17564516400E-01  0.13991151017E-01  0.10210908362E+01  0.10208353777E+01 0.  0.
     999903    2    3    3    0    0  0.30461857857E-01 -0.10393072903E+00  0.70124543664E-01  0.13058340865E+00  0.20125947667E-01 0.  0.
         14    1    1    2    0    0 -0.41668767225E-02 -0.17564516400E-01 -0.13991151017E-01  0.22839163837E-01  0.00000000000E+00 0.  1.
     999901    1    3    3    0    0 -0.26294981135E-01  0.12149524543E+00 -0.56133392647E-01  0.89050742752E+00  0.88000000000E+00 0.  1.
        -11    1    4    4    0    0  0.17977338509E-01 -0.85894089921E-01  0.60695475163E-01  0.10670136461E+00  0.51100000000E-03 0. -1.
         11    1    4    4    0    0  0.12484519349E-01 -0.18036639104E-01  0.94290685012E-02  0.23882044036E-01  0.51100000000E-03 0.  1.
</event>
<event>
 8    1  0.1116619E+005  0.1043930E+01  0.7957747E-01            NaN
         13   -1    0    0    0    0  0.00000000000E+00  0.00000000000E+00  0.74505805969E-08  0.10566000000E+00  0.10566000000E+00 0. -1.
     999900   -1    0    0    0    0 -0.00000000000E+00 -0.00000000000E+00 -0.74505805969E-08  0.93827000000E+00  0.93827000000E+00 0. -1.
     999902    2    1    2    0    0 -0.57005890709E-02  0.18900427714E-01  0.22202384516E-01  0.10142202581E+01  0.10137850183E+01 0.  0.
     999903    2    3    3    0    0  0.77416919101E-02  0.11725636933E+00 -0.41690601587E-01  0.12633687624E+00  0.20344780547E-01 0.  0.
         14    1    1    2    0    0  0.57005890709E-02 -0.18900427714E-01 -0.22202384516E-01  0.29709741866E-01  0.00000000000E+00 0.  1.
     999901    1    3    3    0    0 -0.13442280981E-01 -0.98355941616E-01  0.63892986103E-01  0.88788338189E+00  0.88000000000E+00 0.  1.
        -11    1    4    4    0    0  0.73231260270E-02  0.67658707045E-01 -0.34222017279E-01  0.76175694296E-01  0.51100000000E-03 0. -1.
         11    1    4    4    0    0  0.41856588316E-03  0.49597662285E-01 -0.74685843078E-02  0.50161181945E-01  0.51100000000E-03 0.  1.
</event>
<event>
 8    1  0.1116619E+005  0.1043930E+01  0.7957747E-01            NaN
         13   -1    0    0    0    0  0.00000000000E+00  0.00000000000E+00  0.74505805969E-08  0.10566000000E+00  0.10566000000E+00 0.  1.
     999900   -1    0    0    0    0 -0.00000000000E+00 -0.00000000000E+00 -0.74505805969E-08  0.93827000000E+00  0.93827000000E+00 0. -1.
     999902    2    1    2    0    0  0.23202098411E-01 -0.49463485753E-04  0.28611973822E-02  0.10205520987E+01  0.10202843035E+01 0.  0.
     999903    2    3    3    0    0  0.52697158345E-01  0.11444010046E+00  0.34565781177E-01  0.13207981472E+00  0.19410232838E-01 0.  0.
         14    1    1    2    0    0 -0.23202098411E-01  0.49463485753E-04 -0.28611973822E-02  0.23377901270E-01  0.00000000000E+00 0.  1.
     999901    1    3    3    0    0 -0.29495059934E-01 -0.11448956394E+00 -0.31704583794E-01  0.88847228401E+00  0.88000000000E+00 0.  1.
        -11    1    4    4    0    0  0.19791604276E-01  0.24987568385E-01  0.48921199510E-02  0.32253373967E-01  0.51100000000E-03 0. -1.
         11    1    4    4    0    0  0.32905554069E-01  0.89452532073E-01  0.29673661226E-01  0.99826440758E-01  0.51100000000E-03 0.  1.
</event>
<event>
 8    1  0.1116619E+005  0.1043930E+01  0.7957747E-01            NaN
         13   -1    0    0    0    0  0.00000000000E+00  0.00000000000E+00  0.74505805969E-08  0.10566000000E+00  0.10566000000E+00 0. -1.
     999900   -1    0    0    0    0 -0.00000000000E+00 -0.00000000000E+00 -0.74505805969E-08  0.93827000000E+00  0.93827000000E+00 0. -1.
     999902    2    1    2    0    0  0.80378851711E-02 -0.42156547071E-02  0.21744631611E-01  0.10203671405E+01  0.10200950412E+01 0.  0.
     999903    2    3    3    0    0 -0.97278579815E-01 -0.83732329862E-01 -0.75120210819E-02  0.13004674250E+00  0.19532015208E-01 0.  0.
         14    1    1    2    0    0 -0.80378851711E-02  0.42156547071E-02 -0.21744631611E-01  0.23562859472E-01  0.00000000000E+00 0.  1.
     999901    1    3    3    0    0  0.10531646499E+00  0.79516675155E-01  0.29256652693E-01  0.89032039803E+00  0.88000000000E+00 0. -1.
        -11    1    4    4    0    0 -0.15097815742E-01 -0.20233281210E-01  0.39594958100E-02  0.25559116510E-01  0.51100000000E-03 0.  1.
         11    1    4    4    0    0 -0.82180764073E-01 -0.63499048652E-01 -0.11471516892E-01  0.10448762599E+00  0.51100000000E-03 0. -1.
</event>
<event>
 7    1  0.1116619E+005  0.1043930E+01  0.7957747E-01            NaN
         13   -1    0    0    0    0  0.00000000000E+00  0.00000000000E+00  0.74505805969E-08  0.10566000000E+00  0.10566000000E+00 0.  1.
     999900   -1    0    0    0    0 -0.00000000000E+00 -0.00000000000E+00 -0.74505805969E-08  0.93827000000E+00  0.93827000000E+00 0. -1.
     999902    2    1    2    0    0 -0.14068141033E-01  0.17446843439E-01  0.69261292946E-02  0.10204720332E+01  0.10202023791E+01 0.  0.
         14    1    1    2    0    0  0.14068141033E-01 -0.17446843439E-01 -0.69261292946E-02  0.23457966773E-01  0.00000000000E+00 0. -1.
     999901    1    3    3    0    0 -0.35627232050E-01  0.13586064003E+00  0.28638980058E-01  0.89159834250E+00  0.88000000000E+00 0.  1.
        -11    1    3    3    0    0  0.84573816020E-02 -0.93819125320E-01 -0.31508905267E-01  0.99330900587E-01  0.51100000000E-03 0. -1.
         11    1    3    3    0    0  0.13101709415E-01 -0.24594671267E-01  0.97960545036E-02  0.29542790138E-01  0.51100000000E-03 0.  1.
</event>
<event>
 8    1  0.1116619E+005  0.1043930E+01  0.7957747E-01            NaN
         13   -1    0    0    0    0  0.00000000000E+00  0.00000000000E+00  0.74505805969E-08  0.10566000000E+00  0.10566000000E+00 0. -1.
     999900   -1    0    0    0    0 -0.00000000000E+00 -0.00000000000E+00 -0.74505805969E-08  0.93827000000E+00  0.93827000000E+00 0.  1.
     999902    2    1    2    0    0 -0.49454337966E-02  0.13920984264E-01  0.14081854123E-01  0.10235204499E+01  0.10233169410E+01 0.  0.
     999903    2    3    3    0    0 -0.52661592443E-01 -0.11347840823E+00 -0.36734240617E-01  0.13161815008E+00  0.17981672421E-01 0.  0.
         14    1    1    2    0    0  0.49454337966E-02 -0.13920984264E-01 -0.14081854123E-01  0.20409550065E-01  0.00000000000E+00 0.  1.
     999901    1    3    3    0    0  0.47716158647E-01  0.12739939250E+00  0.50816094740E-01  0.89190229986E+00  0.88000000000E+00 0. -1.
        -11    1    4    4    0    0 -0.27755248006E-01 -0.79189791076E-01 -0.22042450125E-01  0.86761209830E-01  0.51100000000E-03 0. -1.
         11    1    4    4    0    0 -0.24906344438E-01 -0.34288617154E-01 -0.14691790492E-01  0.44856940249E-01  0.51100000000E-03 0.  1.
</event>
<event>
 8    1  0.1116619E+005  0.1043930E+01  0.7957747E-01            NaN
         13   -1    0    0    0    0  0.00000000000E+00  0.00000000000E+00  0.74505805969E-08  0.10566000000E+00  0.10566000000E+00 0.  1.
     999900   -1    0    0    0    0 -0.00000000000E+00 -0.00000000000E+00 -0.74505805969E-08  0.93827000000E+00  0.93827000000E+00 0. -1.
     999902    2    1    2    0    0 -0.22174722000E-02 -0.85024748092E-02  0.36917884067E-01  0.10059808310E+01  0.10052647875E+01 0.  0.
     999903    2    3    3    0    0 -0.51401757306E-01  0.19503696805E-01  0.10637153768E+00  0.12143165233E+00  0.20204141078E-01 0.  0.
         14    1    1    2    0    0  0.22174722000E-02  0.85024748092E-02 -0.36917884067E-01  0.37949168961E-01  0.00000000000E+00 0. -1.
     999901    1    3    3    0    0  0.49184285106E-01 -0.28006171614E-01 -0.69453653614E-01  0.88454917871E+00  0.88000000000E+00 0. -1.
        -11    1    4    4    0    0 -0.86024220552E-02 -0.34135085784E-02  0.10780138624E-01  0.14217109966E-01  0.51100000000E-03 0. -1.
         11    1    4    4    0    0 -0.42799335251E-01  0.22917205383E-01  0.95591399057E-01  0.10721454237E+00  0.51100000000E-03 0.  1.
</event>
<event>
 8    1  0.1116619E+005  0.1043930E+01  0.7957747E-01            NaN
         13   -1    0    0    0    0  0.00000000000E+00  0.00000000000E+00  0.74505805969E-08  0.10566000000E+00  0.10566000000E+00 0.  1.
     999900   -1    0    0    0    0 -0.00000000000E+00 -0.00000000000E+00 -0.74505805969E-08  0.93827000000E+00  0.93827000000E+00 0. -1.
     999902    2    1    2    0    0  0.14421783906E-01 -0.18655563753E-01  0.26802380504E-02  0.10201981314E+01  0.10199220685E+01 0.  0.
     999903    2    3    3    0    0 -0.26244050007E-01 -0.50410574520E-01  0.11682379292E+00  0.13132758862E+00  0.19213556568E-01 0.  0.
         14    1    1    2    0    0 -0.14421783906E-01  0.18655563753E-01 -0.26802380504E-02  0.23731868573E-01  0.00000000000E+00 0.  1.
     999901    1    3    3    0    0  0.40665833912E-01  0.31755010767E-01 -0.11414355487E+00  0.88887054281E+00  0.88000000000E+00 0. -1.
        -11    1    4    4    0    0 -0.95003358526E-02 -0.36050685940E-02  0.22914151310E-01  0.25071345240E-01  0.51100000000E-03 0.  1.
         11    1    4    4    0    0 -0.16743714154E-01 -0.46805505926E-01  0.93909641608E-01  0.10625624338E+00  0.51100000000E-03 0. -1.
</event>
<event>
 8    1  0.1116619E+005  0.1043930E+01  0.7957747E-01            NaN
         13   -1    0    0    0    0  0.00000000000E+00  0.00000000000E+00  0.74505805969E-08  0.10566000000E+00  0.10566000000E+00 0. -1.
     999900   -1    0    0    0    0 -0.00000000000E+00 -0.00000000000E+00 -0.74505805969E-08  0.93827000000E+00  0.93827000000E+00 0. -1.
     999902    2    1    2    0    0 -0.10032092117E-01  0.20844786048E-01  0.33767650339E-02  0.10205515800E+01  0.10202837728E+01 0.  0.
     999903    2    3    3    0    0 -0.10563358041E+00 -0.73078238112E-01 -0.92997688620E-02  0.13031460398E+00  0.19913013712E-01 0.  0.
         14    1    1    2    0    0  0.10032092117E-01 -0.20844786048E-01 -0.33767650339E-02  0.23378419958E-01  0.00000000000E+00 0.  1.
     999901    1    3    3    0    0  0.95601488290E-01  0.93923024160E-01  0.12676533896E-01  0.89023697606E+00  0.88000000000E+00 0.  1.
        -11    1    4    4    0    0 -0.35920071089E-01 -0.34701372234E-01 -0.88978919193E-02  0.50733325769E-01  0.51100000000E-03 0.  1.
         11    1    4    4    0    0 -0.69713509319E-01 -0.38376865878E-01 -0.40187694266E-03  0.79581278215E-01  0.51100000000E-03 0. -1.
</event>
<event>
 8    1  0.1116619E+005  0.1043930E+01  0.7957747E-01            NaN
         13   -1    0    0    0    0  0.00000000000E+00  0.00000000000E+00  0.74505805969E-08  0.10566000000E+00  0.10566000000E+00 0. -1.
     999900   -1    0    0    0    0 -0.00000000000E+00 -0.00000000000E+00 -0.74505805969E-08  0.93827000000E+00  0.93827000000E+00 0.  1.
     999902    2    1    2    0    0 -0.63256030449E-02 -0.22567731990E-01  0.64475926585E-02  0.10196218279E+01  0.10193320287E+01 0.  0.
     999903    2    3    3    0    0 -0.48248322854E-01 -0.86761160120E-01  0.86006337478E-01  0.13271264169E+00  0.18977766344E-01 0.  0.
         14    1    1    2    0    0  0.63256030449E-02  0.22567731990E-01 -0.64475926585E-02  0.24308172127E-01  0.00000000000E+00 0. -1.
     999901    1    3    3    0    0  0.41922719809E-01  0.64193428130E-01 -0.79558744820E-01  0.88690918618E+00  0.88000000000E+00 0.  1.
        -11    1    4    4    0    0 -0.13675780868E-01 -0.16148389665E-01  0.27530859593E-01  0.34727608930E-01  0.51100000000E-03 0. -1.
         11    1    4    4    0    0 -0.34572541986E-01 -0.70612770456E-01  0.58475477885E-01  0.97985032764E-01  0.51100000000E-03 0.  1.
</event>
<event>
 8    1  0.1116619E+005  0.1043930E+01  0.7957747E-01            NaN
         13   -1    0    0    0    0  0.00000000000E+00  0.00000000000E+00  0.74505805969E-08  0.10566000000E+00  0.10566000000E+00 0.  1.
     999900   -1    0    0    0    0 -0.00000000000E+00 -0.00000000000E+00 -0.74505805969E-08  0.93827000000E+00  0.93827000000E+00 0.  1.
     999902    2    1    2    0    0 -0.12120575454E-01 -0.18522467301E-01 -0.93774479595E-02  0.10198898945E+01  0.10196065271E+01 0.  0.
     999903    2    3    3    0    0  0.25525025244E-01  0.89679059299E-01 -0.87110831156E-01  0.12906598342E+00  0.19387382020E-01 0.  0.
         14    1    1    2    0    0  0.12120575454E-01  0.18522467301E-01  0.93774479595E-02  0.24040105542E-01  0.00000000000E+00 0. -1.
     999901    1    3    3    0    0 -0.37645600698E-01 -0.10820152660E+00  0.77733383197E-01  0.89082391104E+00  0.88000000000E+00 0.  1.
        -11    1    4    4    0    0  0.16097640661E-02  0.28687748263E-01 -0.18377356015E-01  0.34111091684E-01  0.51100000000E-03 0. -1.
         11    1    4    4    0    0  0.23915261178E-01  0.60991311035E-01 -0.68733475141E-01  0.94954891738E-01  0.51100000000E-03 0.  1.
</event>
<event>
 8    1  0.1116619E+005  0.1043930E+01  0.7957747E-01            NaN
         13   -1    0    0    0    0  0.00000000000E+00  0.00000000000E+00  0.74505805969E-08  0.10566000000E+00  0.10566000000E+00 0. -1.
     999900   -1    0    0    0    0 -0.00000000000E+00 -0.00000000000E+00 -0.74505805969E-08  0.93827000000E+00  0.93827000000E+00 0. -1.
     999902    2    1    2    0    0  0.79795593319E-02  0.83094953675E-02 -0.19789682085E-01  0.10210312534E+01  0.10207744451E+01 0.  0.
     999903    2    3    3    0    0  0.70247765121E-01 -0.10682307309E+00  0.17622143168E-01  0.13056368942E+00  0.19759038834E-01 0.  0.
         14    1    1    2    0    0 -0.79795593319E-02 -0.83094953675E-02  0.19789682085E-01  0.22898746634E-01  0.00000000000E+00 0. -1.
     999901    1    3    3    0    0 -0.62268205789E-01  0.11513256846E+00 -0.37411825253E-01  0.89046756395E+00  0.88000000000E+00 0.  1.
        -11    1    4    4    0    0  0.44784360810E-01 -0.60558997471E-01  0.14620775746E-02  0.75335449423E-01  0.51100000000E-03 0.  1.
         11    1    4    4    0    0  0.25463404311E-01 -0.46264075620E-01  0.16160065594E-01  0.55228239996E-01  0.51100000000E-03 0. -1.
</event>
<event>
 8    1  0.1116619E+005  0.1043930E+01  0.7957747E-01            NaN
         13   -1    0    0    0    0  0.00000000000E+00  0.00000000000E+00  0.74505805969E-08  0.10566000000E+00  0.10566000000E+00 0.  1.
     999900   -1    0    0    0    0 -0.00000000000E+00 -0.00000000000E+00 -0.74505805969E-08  0.93827000000E+00  0.93827000000E+00 0.  1.
     999902    2    1    2    0    0  0.50878937990E-02 -0.65976076936E-02  0.22803372246E-01  0.10196522555E+01  0.10193631901E+01 0.  0.
     999903    2    3    3    0    0 -0.56752229669E-01 -0.66932478782E-01  0.97611435149E-01  0.13226240670E+00  0.16265905002E-01 0.  0.
         14    1    1    2    0    0 -0.50878937990E-02  0.65976076936E-02 -0.22803372246E-01  0.24277744466E-01  0.00000000000E+00 0. -1.
     999901    1    3    3    0    0  0.61840123468E-01  0.60334871088E-01 -0.74808062904E-01  0.88738984883E+00  0.88000000000E+00 0.  1.
        -11    1    4    4    0    0 -0.36354793454E-02 -0.87462582754E-02  0.51744653301E-02  0.10805089372E-01  0.51100000000E-03 0. -1.
         11    1    4    4    0    0 -0.53116750324E-01 -0.58186220506E-01  0.92436969819E-01  0.12145731733E+00  0.51100000000E-03 0.  1.
</event>
<event>
 8    1  0.1116619E+005  0.1043930E+01  0.7957747E-01            NaN
         13   -1    0    0    0    0  0.00000000000E+00  0.00000000000E+00  0.74505805969E-08  0.10566000000E+00  0.10566000000E+00 0. -1.
     999900   -1    0    0    0    0 -0.00000000000E+00 -0.00000000000E+00 -0.74505805969E-08  0.93827000000E+00  0.93827000000E+00 0.  1.
     999902    2    1    2    0    0  0.17242331619E-01 -0.14365915932E-01 -0.48613694838E-02  0.10209667586E+01  0.10207084852E+01 0.  0.
     999903    2    3    3    0    0 -0.65485960325E-01  0.88965842932E-01  0.62583320354E-01  0.12851496226E+00  0.19902043383E-01 0.  0.
         14    1    1    2    0    0 -0.17242331619E-01  0.14365915932E-01  0.48613694838E-02  0.22963241354E-01  0.00000000000E+00 0. -1.
     999901    1    3    3    0    0  0.82728291944E-01 -0.10333175886E+00 -0.67444689838E-01  0.89245179638E+00  0.88000000000E+00 0.  1.
        -11    1    4    4    0    0 -0.34031528811E-01  0.61334963618E-01  0.43150267992E-01  0.82354899453E-01  0.51100000000E-03 0.  1.
         11    1    4    4    0    0 -0.31454431514E-01  0.27630879314E-01  0.19433052363E-01  0.46160062811E-01  0.51100000000E-03 0. -1.
</event>
<event>
 8    1  0.1116619E+005  0.1043930E+01  0.7957747E-01            NaN
         13   -1    0    0    0    0  0.00000000000E+00  0.00000000000E+00  0.74505805969E-08  0.10566000000E+00  0.10566000000E+00 0.  1.
     999900   -1    0    0    0    0 -0.00000000000E+00 -0.00000000000E+00 -0.74505805969E-08  0.93827000000E+00  0.93827000000E+00 0.  1.
     999902    2    1    2    0    0  0.19601701714E-01 -0.15134035564E-02 -0.13016370265E-01  0.10203515566E+01  0.10200790930E+01 0.  0.
     999903    2    3    3    0    0 -0.63743881680E-01 -0.71785842589E-01  0.83639020295E-01  0.12837231549E+00  0.16354694179E-01 0.  0.
         14    1    1    2    0    0 -0.19601701714E-01  0.15134035564E-02  0.13016370265E-01  0.23578443445E-01  0.00000000000E+00 0. -1.
     999901    1    3    3    0    0  0.83345583394E-01  0.70272439032E-01 -0.96655390560E-01  0.89197924106E+00  0.88000000000E+00 0. -1.
        -11    1    4    4    0    0 -0.23932462987E-01 -0.38808713101E-01  0.41953977609E-01  0.61961894382E-01  0.51100000000E-03 0. -1.
         11    1    4    4    0    0 -0.39811418693E-01 -0.32977129487E-01  0.41685042686E-01  0.66410421112E-01  0.51100000000E-03 0.  1.
</event>
<event>
 8    1  0.1116619E+005  0.1043930E+01  0.7957747E-01            NaN
         13   -1    0    0    0    0  0.00000000000E+00  0.00000000000E+00  0.74505805969E-08  0.10566000000E+00  0.10566000000E+00 0. -1.
     999900   -1    0    0    0    0 -0.00000000000E+00 -0.00000000000E+00 -0.74505805969E-08  0.93827000000E+00  0.93827000000E+00 0.  1.
     999902    2    1    2    0    0 -0.31856289314E-02 -0.19859451561E-01  0.11260777492E-01  0.10208789445E+01  0.10206186694E+01 0.  0.
     999903    2    3    3    0    0  0.65164769492E-01 -0.10279491454E+00 -0.48867049231E-01  0.13230400480E+00  0.17410328773E-01 0.  0.
         14    1    1    2    0    0  0.31856289314E-02  0.19859451561E-01 -0.11260777492E-01  0.23051055458E-01  0.00000000000E+00 0.  1.
     999901    1    3    3    0    0 -0.68350398424E-01  0.82935462980E-01  0.60127826723E-01  0.88857493974E+00  0.88000000000E+00 0.  1.
        -11    1    4    4    0    0  0.35348164344E-01 -0.70915290945E-01 -0.29574791653E-01  0.84577778609E-01  0.51100000000E-03 0.  1.
         11    1    4    4    0    0  0.29816605149E-01 -0.31879623597E-01 -0.19292257578E-01  0.47726226194E-01  0.51100000000E-03 0. -1.
</event>
<event>
 8    1  0.1116619E+005  0.1043930E+01  0.7957747E-01            NaN
         13   -1    0    0    0    0  0.00000000000E+00  0.00000000000E+00  0.74505805969E-08  0.10566000000E+00  0.10566000000E+00 0.  1.
     999900   -1    0    0    0    0 -0.00000000000E+00 -0.00000000000E+00 -0.74505805969E-08  0.93827000000E+00  0.93827000000E+00 0. -1.
     999902    2    1    2    0    0 -0.18141263676E-01 -0.12637782059E-01  0.64192156578E-02  0.10209077214E+01  0.10206481031E+01 0.  0.
     999903    2    3    3    0    0 -0.30478256858E-01 -0.93164600060E-02  0.12707018978E+00  0.13258351810E+00  0.20392046782E-01 0.  0.
         14    1    1    2    0    0  0.18141263676E-01  0.12637782059E-01 -0.64192156578E-02  0.23022278618E-01  0.00000000000E+00 0.  1.
     999901    1    3    3    0    0  0.12336993182E-01 -0.33213220534E-02 -0.12065097412E+00  0.88832420328E+00  0.88000000000E+00 0. -1.
        -11    1    4    4    0    0 -0.72905355214E-02  0.64079516020E-02  0.28773683838E-01  0.30371034795E-01  0.51100000000E-03 0. -1.
         11    1    4    4    0    0 -0.23187721336E-01 -0.15724411608E-01  0.98296505944E-01  0.10221248330E+00  0.51100000000E-03 0.  1.
</event>
<event>
 8    1  0.1116619E+005  0.1043930E+01  0.7957747E-01            NaN
         13   -1    0    0    0    0  0.00000000000E+00  0.00000000000E+00  0.74505805969E-08  0.10566000000E+00  0.10566000000E+00 0.  1.
     999900   -1    0    0    0    0 -0.00000000000E+00 -0.00000000000E+00 -0.74505805969E-08  0.93827000000E+00  0.93827000000E+00 0. -1.
     999902    2    1    2    0    0 -0.20178342148E-01 -0.81624405520E-02 -0.78057498744E-02  0.10208059723E+01  0.10205440276E+01 0.  0.
     999903    2    3    3    0    0  0.10862250470E+00  0.28164038741E-02  0.65528083179E-01  0.12834418359E+00  0.19274831240E-01 0.  0.
         14    1    1    2    0    0  0.20178342148E-01  0.81624405520E-02  0.78057498744E-02  0.23124027736E-01  0.00000000000E+00 0.  1.
     999901    1    3    3    0    0 -0.12880084684E+00 -0.10978844426E-01 -0.73333833053E-01  0.89246178867E+00  0.88000000000E+00 0. -1.
        -11    1    4    4    0    0  0.58168694854E-01 -0.77376326103E-02  0.31849303315E-01  0.66769059167E-01  0.51100000000E-03 0. -1.
         11    1    4    4    0    0  0.50453809841E-01  0.10554036484E-01  0.33678779863E-01  0.61575124423E-01  0.51100000000E-03 0.  1.
</event>
<event>
 8    1  0.1116619E+005  0.1043930E+01  0.7957747E-01            NaN
         13   -1    0    0    0    0  0.00000000000E+00  0.00000000000E+00  0.74505805969E-08  0.10566000000E+00  0.10566000000E+00 0. -1.
     999900   -1    0    0    0    0 -0.00000000000E+00 -0.00000000000E+00 -0.74505805969E-08  0.93827000000E+00  0.93827000000E+00 0. -1.
     999902    2    1    2    0    0 -0.42887570992E-02 -0.23762435125E-01  0.61256253303E-02  0.10190187566E+01  0.10187142172E+01 0.  0.
     999903    2    3    3    0    0 -0.71632661670E-01  0.55885907572E-01 -0.87899184705E-01  0.12788480212E+00  0.19333469914E-01 0.  0.
         14    1    1    2    0    0  0.42887570992E-02  0.23762435125E-01 -0.61256253303E-02  0.24911243369E-01  0.00000000000E+00 0. -1.
     999901    1    3    3    0    0  0.67343904571E-01 -0.79648342696E-01  0.94024810035E-01  0.89113395451E+00  0.88000000000E+00 0. -1.
        -11    1    4    4    0    0 -0.15549375580E-01  0.14865830093E-01 -0.32688599934E-01  0.39135427325E-01  0.51100000000E-03 0.  1.
         11    1    4    4    0    0 -0.56083286091E-01  0.41020077479E-01 -0.55210584770E-01  0.88749374797E-01  0.51100000000E-03 0. -1.
</event>
<event>
 8    1  0.1116619E+005  0.1043930E+01  0.7957747E-01            NaN
         13   -1    0    0    0    0  0.00000000000E+00  0.00000000000E+00  0.74505805969E-08  0.10566000000E+00  0.10566000000E+00 0.  1.
     999900   -1    0    0    0    0 -0.00000000000E+00 -0.00000000000E+00 -0.74505805969E-08  0.93827000000E+00  0.93827000000E+00 0.  1.
     999902    2    1    2    0    0  0.75727231101E-02 -0.19848108593E-01  0.40452179155E-02  0.10223046136E+01  0.10220758610E+01 0.  0.
     999903    2    3    3    0    0  0.19871367254E-01  0.58100660031E-01  0.11498674189E+00  0.13183547379E+00  0.19699832617E-01 0.  0.
         14    1    1    2    0    0 -0.75727231101E-02  0.19848108593E-01 -0.40452179155E-02  0.21625386424E-01  0.00000000000E+00 0. -1.
     999901    1    3    3    0    0 -0.12298644144E-01 -0.77948768624E-01 -0.11094152397E+00  0.89046913979E+00  0.88000000000E+00 0.  1.
        -11    1    4    4    0    0  0.45562983242E-02  0.62452538716E-02  0.30955323043E-01  0.31910126857E-01  0.51100000000E-03 0. -1.
         11    1    4    4    0    0  0.15315068929E-01  0.51855406159E-01  0.84031418847E-01  0.99925346928E-01  0.51100000000E-03 0.  1.
</event>
<event>
 8    1  0.1116619E+005  0.1043930E+01  0.7957747E-01            NaN
         13   -1    0    0    0    0  0.00000000000E+00  0.00000000000E+00  0.74505805969E-08  0.10566000000E+00  0.10566000000E+00 0.  1.
     999900   -1    0    0    0    0 -0.00000000000E+00 -0.00000000000E+00 -0.74505805969E-08  0.93827000000E+00  0.93827000000E+00 0. -1.
     999902    2    1    2    0    0  0.22681370101E-02 -0.16771546898E-01  0.16365208113E-01  0.10203875008E+01  0.10201158770E+01 0.  0.
     999903    2    3    3    0    0 -0.60469932008E-01 -0.93433136768E-01  0.70726559010E-01  0.13316248926E+00  0.18537493750E-01 0.  0.
         14    1    1    2    0    0 -0.22681370101E-02  0.16771546898E-01 -0.16365208113E-01  0.23542499176E-01  0.00000000000E+00 0. -1.
     999901    1    3    3    0    0  0.62738069018E-01  0.76661589870E-01 -0.54361350897E-01  0.88722501156E+00  0.88000000000E+00 0. -1.
        -11    1    4    4    0    0 -0.29128881460E-01 -0.32712309770E-01  0.34891172543E-01  0.56002160565E-01  0.51100000000E-03 0. -1.
         11    1    4    4    0    0 -0.31341050548E-01 -0.60720826998E-01  0.35835386467E-01  0.77160328700E-01  0.51100000000E-03 0.  1.
</event>
<event>
 8    1  0.1332591E+005  0.1043930E+01  0.7957747E-01            NaN
         13   -1    0    0    0    0  0.00000000000E+00  0.00000000000E+00  0.74505805969E-08  0.10566000000E+00  0.10566000000E+00 0.  1.
     999900   -1    0    0    0    0 -0.00000000000E+00 -0.00000000000E+00 -0.74505805969E-08  0.93827000000E+00  0.93827000000E+00 0.  1.
     999902    2    1    2    0    0  0.18651985806E-01  0.10505615419E-02  0.14023484332E-01  0.10205706685E+01  0.10203033035E+01 0.  0.
     999903    2    3    3    0    0 -0.63852635812E-01 -0.13323407196E-01  0.11197796441E+00  0.13118396763E+00  0.20383732960E-01 0.  0.
         14    1    1    2    0    0 -0.18651985806E-01 -0.10505615419E-02 -0.14023484332E-01  0.23359331473E-01  0.00000000000E+00 0. -1.
     999901    1    3    3    0    0  0.82504621618E-01  0.14373968738E-01 -0.97954480081E-01  0.88938670090E+00  0.88000000000E+00 0.  1.
        -11    1    4    4    0    0 -0.42812637940E-01 -0.76107783638E-03  0.59968615217E-01  0.73688514294E-01  0.51100000000E-03 0.  1.
         11    1    4    4    0    0 -0.21039997872E-01 -0.12562329360E-01  0.52009349196E-01  0.57495453335E-01  0.51100000000E-03 0. -1.
</event>
<event>
 8    1  0.1116619E+005  0.1043930E+01  0.7957747E-01            NaN
         13   -1    0    0    0    0  0.00000000000E+00  0.00000000000E+00  0.74505805969E-08  0.10566000000E+00  0.10566000000E+00 0. -1.
     999900   -1    0    0    0    0 -0.00000000000E+00 -0.00000000000E+00 -0.74505805969E-08  0.93827000000E+00  0.93827000000E+00 0. -1.
     999902    2    1    2    0    0 -0.24446548633E-01  0.44962356419E-03 -0.53490381715E-02  0.10189010545E+01  0.10185935945E+01 0.  0.
     999903    2    3    3    0    0 -0.12540674365E+00 -0.51640572548E-02  0.36406717254E-01  0.13212711632E+00  0.19457825343E-01 0.  0.
         14    1    1    2    0    0  0.24446548633E-01 -0.44962356419E-03  0.53490381715E-02  0.25028945459E-01  0.00000000000E+00 0.  1.
     999901    1    3    3    0    0  0.10096019502E+00  0.56136808190E-02 -0.41755755425E-01  0.88677393822E+00  0.88000000000E+00 0. -1.
        -11    1    4    4    0    0 -0.19927931539E-01 -0.62893843347E-02  0.12645257003E-02  0.20941321758E-01  0.51100000000E-03 0.  1.
         11    1    4    4    0    0 -0.10547881211E+00  0.11253270799E-02  0.35142191554E-01  0.11118579457E+00  0.51100000000E-03 0. -1.
</event>
<event>
 8    1  0.1116619E+005  0.1043930E+01  0.7957747E-01            NaN
         13   -1    0    0    0    0  0.00000000000E+00  0.00000000000E+00  0.74505805969E-08  0.10566000000E+00  0.10566000000E+00 0. -1.
     999900   -1    0    0    0    0 -0.00000000000E+00 -0.00000000000E+00 -0.74505805969E-08  0.93827000000E+00  0.93827000000E+00 0.  1.
     999902    2    1    2    0    0  0.78752363875E-02  0.58747763102E-03 -0.22462749128E-01  0.10201195070E+01  0.10198415902E+01 0.  0.
     999903    2    3    3    0    0  0.69858137074E-01  0.10718197832E+00 -0.23755966110E-01  0.13152176902E+00  0.19117897575E-01 0.  0.
         14    1    1    2    0    0 -0.78752363875E-02 -0.58747763102E-03  0.22462749128E-01  0.23810492992E-01  0.00000000000E+00 0. -1.
     999901    1    3    3    0    0 -0.61982900687E-01 -0.10659450069E+00  0.12932169821E-02  0.88859773799E+00  0.88000000000E+00 0. -1.
        -11    1    4    4    0    0  0.20690203715E-01  0.20656648883E-01 -0.10751070407E-01  0.31154908261E-01  0.51100000000E-03 0. -1.
         11    1    4    4    0    0  0.49167933359E-01  0.86525329435E-01 -0.13004895704E-01  0.10036686076E+00  0.51100000000E-03 0.  1.
</event>
<event>
 7    1  0.1888309E+005  0.1043930E+01  0.7957747E-01            NaN
         13   -1    0    0    0    0  0.00000000000E+00  0.00000000000E+00  0.74505805969E-08  0.10566000000E+00  0.10566000000E+00 0.  1.
     999900   -1    0    0    0    0 -0.00000000000E+00 -0.00000000000E+00 -0.74505805969E-08  0.93827000000E+00  0.93827000000E+00 0.  1.
     999903    2    1    2    0    0  0.76783742685E-02  0.79934966667E-01 -0.34125573078E-01  0.89944464697E-01  0.21837940935E-01 0.  0.
         14    1    1    2    0    0 -0.49873164476E-02 -0.46230179694E-02  0.69716942451E-01  0.70047824272E-01  0.00000000000E+00 0.  1.
     999901    1    1    2    0    0 -0.26910578209E-02 -0.75311948698E-01 -0.35591369373E-01  0.88393771103E+00  0.88000000000E+00 0. -1.
        -11    1    3    3    0    0  0.80048038473E-02  0.45026276904E-01 -0.82166302176E-02  0.46467371667E-01  0.51100000000E-03 0. -1.
         11    1    3    3    0    0 -0.32642957885E-03  0.34908689763E-01 -0.25908942860E-01  0.43477093030E-01  0.51100000000E-03 0.  1.
</event>
<event>
 8    1  0.1116619E+005  0.1043930E+01  0.7957747E-01            NaN
         13   -1    0    0    0    0  0.00000000000E+00  0.00000000000E+00  0.74505805969E-08  0.10566000000E+00  0.10566000000E+00 0. -1.
     999900   -1    0    0    0    0 -0.00000000000E+00 -0.00000000000E+00 -0.74505805969E-08  0.93827000000E+00  0.93827000000E+00 0.  1.
     999902    2    1    2    0    0 -0.17775702856E-01  0.14813006819E-01 -0.17205015064E-03  0.10207906313E+01  0.10205283350E+01 0.  0.
     999903    2    3    3    0    0 -0.36859903606E-01 -0.12260199841E+00  0.60031539829E-02  0.12990050140E+00  0.21170732129E-01 0.  0.
         14    1    1    2    0    0  0.17775702856E-01 -0.14813006819E-01  0.17205015064E-03  0.23139368710E-01  0.00000000000E+00 0.  1.
     999901    1    3    3    0    0  0.19084200750E-01  0.13741500523E+00 -0.61752041336E-02  0.89089012989E+00  0.88000000000E+00 0.  1.
        -11    1    4    4    0    0 -0.15199825149E-01 -0.71205691875E-01  0.12032446693E-01  0.73799228549E-01  0.51100000000E-03 0.  1.
         11    1    4    4    0    0 -0.21660078457E-01 -0.51396306537E-01 -0.60292927105E-02  0.56101272856E-01  0.51100000000E-03 0. -1.
</event>
<event>
 8    1  0.1116619E+005  0.1043930E+01  0.7957747E-01            NaN
         13   -1    0    0    0    0  0.00000000000E+00  0.00000000000E+00  0.74505805969E-08  0.10566000000E+00  0.10566000000E+00 0.  1.
     999900   -1    0    0    0    0 -0.00000000000E+00 -0.00000000000E+00 -0.74505805969E-08  0.93827000000E+00  0.93827000000E+00 0. -1.
     999902    2    1    2    0    0  0.13935421868E-01  0.18183211600E-01  0.76476374475E-02  0.10197781569E+01  0.10194921176E+01 0.  0.
     999903    2    3    3    0    0 -0.11543390508E+00 -0.25631386382E-01 -0.43885100144E-01  0.12775138331E+00  0.20311561083E-01 0.  0.
         14    1    1    2    0    0 -0.13935421868E-01 -0.18183211600E-01 -0.76476374475E-02  0.24151843103E-01  0.00000000000E+00 0.  1.
     999901    1    3    3    0    0  0.12936932695E+00  0.43814597982E-01  0.51532737591E-01  0.89202677359E+00  0.88000000000E+00 0.  1.
        -11    1    4    4    0    0 -0.38953774071E-01  0.10426974085E-02 -0.13648303031E-01  0.41291900282E-01  0.51100000000E-03 0.  1.
         11    1    4    4    0    0 -0.76480131008E-01 -0.26674083790E-01 -0.30236797113E-01  0.86459483029E-01  0.51100000000E-03 0. -1.
</event>
<event>
 8    1  0.1116619E+005  0.1043930E+01  0.7957747E-01            NaN
         13   -1    0    0    0    0  0.00000000000E+00  0.00000000000E+00  0.74505805969E-08  0.10566000000E+00  0.10566000000E+00 0.  1.
     999900   -1    0    0    0    0 -0.00000000000E+00 -0.00000000000E+00 -0.74505805969E-08  0.93827000000E+00  0.93827000000E+00 0.  1.
     999902    2    1    2    0    0 -0.89307431768E-02 -0.21252197327E-01 -0.13858708874E-01  0.10170324559E+01  0.10166767129E+01 0.  0.
     999903    2    3    3    0    0 -0.97520487164E-01 -0.70433445498E-01  0.43600740121E-01  0.12935654312E+00  0.18999343366E-01 0.  0.
         14    1    1    2    0    0  0.89307431768E-02  0.21252197327E-01  0.13858708874E-01  0.26897544062E-01  0.00000000000E+00 0.  1.
     999901    1    3    3    0    0  0.88589743987E-01  0.49181248172E-01 -0.57459448995E-01  0.88767591281E+00  0.88000000000E+00 0. -1.
        -11    1    4    4    0    0 -0.44547388320E-01 -0.22659246852E-01  0.23579330816E-01  0.55264430123E-01  0.51100000000E-03 0. -1.
         11    1    4    4    0    0 -0.52973098844E-01 -0.47774198646E-01  0.20021409305E-01  0.74092113001E-01  0.51100000000E-03 0.  1.
</event>
<event>
 8    1  0.1116619E+005  0.1043930E+01  0.7957747E-01            NaN
         13   -1    0    0    0    0  0.00000000000E+00  0.00000000000E+00  0.74505805969E-08  0.10566000000E+00  0.10566000000E+00 0. -1.
     999900   -1    0    0    0    0 -0.00000000000E+00 -0.00000000000E+00 -0.74505805969E-08  0.93827000000E+00  0.93827000000E+00 0.  1.
     999902    2    1    2    0    0  0.21114466506E-01  0.98748396034E-02 -0.69473357113E-02  0.10196071995E+01  0.10193170471E+01 0.  0.
     999903    2    3    3    0    0 -0.66017963708E-01 -0.19215028436E-03  0.10766483369E+00  0.12785086835E+00  0.19892703942E-01 0.  0.
         14    1    1    2    0    0 -0.21114466506E-01 -0.98748396034E-02  0.69473357113E-02  0.24322800548E-01  0.00000000000E+00 0. -1.
     999901    1    3    3    0    0  0.87132430214E-01  0.10066989888E-01 -0.11461216941E+00  0.89175633110E+00  0.88000000000E+00 0.  1.
        -11    1    4    4    0    0 -0.55503936835E-01 -0.48055764224E-02  0.76525630127E-01  0.94658405629E-01  0.51100000000E-03 0.  1.
         11    1    4    4    0    0 -0.10514026873E-01  0.46134261380E-02  0.31139203567E-01  0.33192462723E-01  0.51100000000E-03 0. -1.
</event>
<event>
 8    1  0.1116619E+005  0.1043930E+01  0.7957747E-01            NaN
         13   -1    0    0    0    0  0.00000000000E+00  0.00000000000E+00  0.74505805969E-08  0.10566000000E+00  0.10566000000E+00 0. -1.
     999900   -1    0    0    0    0 -0.00000000000E+00 -0.00000000000E+00 -0.74505805969E-08  0.93827000000E+00  0.93827000000E+00 0.  1.
     999902    2    1    2    0    0  0.16052590786E-01  0.16652925208E-01 -0.42768116342E-02  0.10204077402E+01  0.10201365887E+01 0.  0.
     999903    2    3    3    0    0 -0.40276432753E-01  0.12439975496E+00 -0.96293466847E-03  0.13204220731E+00  0.18350128052E-01 0.  0.
         14    1    1    2    0    0 -0.16052590786E-01 -0.16652925208E-01  0.42768116342E-02  0.23522259813E-01  0.00000000000E+00 0. -1.
     999901    1    3    3    0    0  0.56329023539E-01 -0.10774682975E+00 -0.33138769658E-02  0.88836553287E+00  0.88000000000E+00 0.  1.
        -11    1    4    4    0    0 -0.16174464378E-01  0.48940785404E-01 -0.93330760555E-02  0.52384932982E-01  0.51100000000E-03 0.  1.
         11    1    4    4    0    0 -0.24101968374E-01  0.75458969558E-01  0.83701413870E-02  0.79657274332E-01  0.51100000000E-03 0. -1.
</event>
<event>
 8    1  0.1116619E+005  0.1043930E+01  0.7957747E-01            NaN
         13   -1    0    0    0    0  0.00000000000E+00  0.00000000000E+00  0.74505805969E-08  0.10566000000E+00  0.10566000000E+00 0.  1.
     999900   -1    0    0    0    0 -0.00000000000E+00 -0.00000000000E+00 -0.74505805969E-08  0.93827000000E+00  0.93827000000E+00 0.  1.
     999902    2    1    2    0    0  0.92577158116E-02 -0.19329582478E-03  0.22579861865E-01  0.10195252294E+01  0.10192330943E+01 0.  0.
     999903    2    3    3    0    0  0.22474164536E-01  0.89567190052E-01  0.92356392958E-01  0.13211304580E+00  0.19919436364E-01 0.  0.
         14    1    1    2    0    0 -0.92577158116E-02  0.19329582478E-03 -0.22579861865E-01  0.24404770582E-01  0.00000000000E+00 0. -1.
     999901    1    3    3    0    0 -0.13216448725E-01 -0.89760485877E-01 -0.69776531093E-01  0.88741218362E+00  0.88000000000E+00 0. -1.
        -11    1    4    4    0    0  0.24677501353E-01  0.82727743251E-01  0.89533623498E-01  0.12437600023E+00  0.51100000000E-03 0.  1.
         11    1    4    4    0    0 -0.22033368173E-02  0.68394468009E-02  0.28227694594E-02  0.77370455662E-02  0.51100000000E-03 0. -1.
</event>
<event>
 8    1  0.1116619E+005  0.1043930E+01  0.7957747E-01            NaN
         13   -1    0    0    0    0  0.00000000000E+00  0.00000000000E+00  0.74505805969E-08  0.10566000000E+00  0.10566000000E+00 0.  1.
     999900   -1    0    0    0    0 -0.00000000000E+00 -0.00000000000E+00 -0.74505805969E-08  0.93827000000E+00  0.93827000000E+00 0. -1.
     999902    2    1    2    0    0  0.18793497697E-01 -0.11026719623E-01 -0.67211232551E-02  0.10211274212E+01  0.10208727897E+01 0.  0.
     999903    2    3    3    0    0  0.12322241019E+00 -0.43232851887E-01 -0.53465582183E-02  0.13436673076E+00  0.31192800343E-01 0.  0.
         14    1    1    2    0    0 -0.18793497697E-01  0.11026719623E-01  0.67211232551E-02  0.22802578782E-01  0.00000000000E+00 0.  1.
     999901    1    3    3    0    0 -0.10442891250E+00  0.32206132265E-01 -0.13745650368E-02  0.88676069046E+00  0.88000000000E+00 0. -1.
        -11    1    4    4    0    0  0.78588342816E-01 -0.27183807329E-01 -0.18397995178E-01  0.85169444961E-01  0.51100000000E-03 0. -1.
         11    1    4    4    0    0  0.44634067376E-01 -0.16049044558E-01  0.13051436960E-01  0.49197285794E-01  0.51100000000E-03 0.  1.
</event>
<event>
 8    1  0.1116619E+005  0.1043930E+01  0.7957747E-01            NaN
         13   -1    0    0    0    0  0.00000000000E+00  0.00000000000E+00  0.74505805969E-08  0.10566000000E+00  0.10566000000E+00 0. -1.
     999900   -1    0    0    0    0 -0.00000000000E+00 -0.00000000000E+00 -0.74505805969E-08  0.93827000000E+00  0.93827000000E+00 0.  1.
     999902    2    1    2    0    0  0.16347718426E-01  0.13381171817E-01  0.14188657999E-01  0.10184815880E+01  0.10181636035E+01 0.  0.
     999903    2    3    3    0    0  0.87902437897E-01  0.34558593634E-01 -0.86329589404E-01  0.12962137452E+00  0.20682546813E-01 0.  0.
         14    1    1    2    0    0 -0.16347718426E-01 -0.13381171817E-01 -0.14188657999E-01  0.25448411989E-01  0.00000000000E+00 0.  1.
     999901    1    3    3    0    0 -0.71554719471E-01 -0.21177421816E-01  0.10051824740E+00  0.88886021350E+00  0.88000000000E+00 0. -1.
        -11    1    4    4    0    0  0.24128948117E-01  0.10627160347E-01 -0.37355363869E-01  0.45725561834E-01  0.51100000000E-03 0.  1.
         11    1    4    4    0    0  0.63773489779E-01  0.23931433286E-01 -0.48974225536E-01  0.83895812682E-01  0.51100000000E-03 0. -1.
</event>
<event>
 8    1  0.1116619E+005  0.1043930E+01  0.7957747E-01            NaN
         13   -1    0    0    0    0  0.00000000000E+00  0.00000000000E+00  0.74505805969E-08  0.10566000000E+00  0.10566000000E+00 0. -1.
     999900   -1    0    0    0    0 -0.00000000000E+00 -0.00000000000E+00 -0.74505805969E-08  0.93827000000E+00  0.93827000000E+00 0. -1.
     999902    2    1    2    0    0  0.12702359848E-01 -0.19900218324E-01 -0.18455114270E-02  0.10202493212E+01  0.10199744619E+01 0.  0.
     999903    2    3    3    0    0  0.48436682309E-01  0.74163333325E-01  0.92323159256E-01  0.12952341945E+00  0.20160313676E-01 0.  0.
         14    1    1    2    0    0 -0.12702359848E-01  0.19900218324E-01  0.18455114270E-02  0.23680678780E-01  0.00000000000E+00 0. -1.
     999901    1    3    3    0    0 -0.35734322460E-01 -0.94063551648E-01 -0.94168670683E-01  0.89072590177E+00  0.88000000000E+00 0.  1.
        -11    1    4    4    0    0  0.59087905718E-02  0.24578801519E-01  0.21695343326E-01  0.33316367346E-01  0.51100000000E-03 0. -1.
         11    1    4    4    0    0  0.42527891737E-01  0.49584531806E-01  0.70627815930E-01  0.96207052101E-01  0.51100000000E-03 0.  1.
</event>
<event>
 8    1  0.1116619E+005  0.1043930E+01  0.7957747E-01            NaN
         13   -1    0    0    0    0  0.00000000000E+00  0.00000000000E+00  0.74505805969E-08  0.10566000000E+00  0.10566000000E+00 0.  1.
     999900   -1    0    0    0    0 -0.00000000000E+00 -0.00000000000E+00 -0.74505805969E-08  0.93827000000E+00  0.93827000000E+00 0. -1.
     999902    2    1    2    0    0 -0.13942898582E-01  0.19149981931E-02 -0.18807647615E-01  0.10204395924E+01  0.10201691833E+01 0.  0.
     999903    2    3    3    0    0  0.19502287068E-01 -0.59339227070E-01  0.11020681773E+00  0.12829868830E+00  0.20335379901E-01 0.  0.
         14    1    1    2    0    0  0.13942898582E-01 -0.19149981931E-02  0.18807647615E-01  0.23490407570E-01  0.00000000000E+00 0.  1.
     999901    1    3    3    0    0 -0.33445185650E-01  0.61254225263E-01 -0.12901446534E+00  0.89214090413E+00  0.88000000000E+00 0. -1.
        -11    1    4    4    0    0  0.29205870419E-02 -0.40410404795E-01  0.67999793084E-01  0.79156576636E-01  0.51100000000E-03 0. -1.
         11    1    4    4    0    0  0.16581700026E-01 -0.18928822275E-01  0.42207024644E-01  0.49142111663E-01  0.51100000000E-03 0.  1.
</event>
<event>
 8    1  0.1116619E+005  0.1043930E+01  0.7957747E-01            NaN
         13   -1    0    0    0    0  0.00000000000E+00  0.00000000000E+00  0.74505805969E-08  0.10566000000E+00  0.10566000000E+00 0.  1.
     999900   -1    0    0    0    0 -0.00000000000E+00 -0.00000000000E+00 -0.74505805969E-08  0.93827000000E+00  0.93827000000E+00 0. -1.
     999902    2    1    2    0    0 -0.22456851416E-01 -0.75645035722E-02  0.64528173674E-02  0.10193704654E+01  0.10190745679E+01 0.  0.
     999903    2    3    3    0    0  0.93729672631E-01 -0.10805848645E-01 -0.82707225984E-01  0.12726098328E+00  0.21280383889E-01 0.  0.
         14    1    1    2    0    0  0.22456851416E-01  0.75645035722E-02 -0.64528173674E-02  0.24559534641E-01  0.00000000000E+00 0. -1.
     999901    1    3    3    0    0 -0.11618652405E+00  0.32413450728E-02  0.89160043352E-01  0.89210948208E+00  0.88000000000E+00 0.  1.
        -11    1    4    4    0    0  0.70232544799E-01  0.13365930452E-02 -0.61211727782E-01  0.93174747486E-01  0.51100000000E-03 0.  1.
         11    1    4    4    0    0  0.23497127832E-01 -0.12142441690E-01 -0.21495498202E-01  0.34086235793E-01  0.51100000000E-03 0. -1.
</event>
<event>
 8    1  0.1116619E+005  0.1043930E+01  0.7957747E-01            NaN
         13   -1    0    0    0    0  0.00000000000E+00  0.00000000000E+00  0.74505805969E-08  0.10566000000E+00  0.10566000000E+00 0. -1.
     999900   -1    0    0    0    0 -0.00000000000E+00 -0.00000000000E+00 -0.74505805969E-08  0.93827000000E+00  0.93827000000E+00 0.  1.
     999902    2    1    2    0    0  0.16207191420E-01 -0.15988622414E-01 -0.59631595716E-02  0.10203955917E+01  0.10201241568E+01 0.  0.
     999903    2    3    3    0    0 -0.71631577133E-01 -0.31554578875E-01  0.10113850177E+00  0.12942493334E+00  0.19875677041E-01 0.  0.
         14    1    1    2    0    0 -0.16207191420E-01  0.15988622414E-01  0.59631595716E-02  0.23534408267E-01  0.00000000000E+00 0. -1.
     999901    1    3    3    0    0  0.87838768552E-01  0.15565956461E-01 -0.10710166134E+00  0.89097065840E+00  0.88000000000E+00 0.  1.
        -11    1    4    4    0    0 -0.63827437428E-01 -0.25091581237E-01  0.96189758280E-01  0.11813661556E+00  0.51100000000E-03 0. -1.
         11    1    4    4    0    0 -0.78041397044E-02 -0.64629976383E-02  0.49487434915E-02  0.11288317773E-01  0.51100000000E-03 0.  1.
</event>
<event>
 8    1  0.1116619E+005  0.1043930E+01  0.7957747E-01            NaN
         13   -1    0    0    0    0  0.00000000000E+00  0.00000000000E+00  0.74505805969E-08  0.10566000000E+00  0.10566000000E+00 0. -1.
     999900   -1    0    0    0    0 -0.00000000000E+00 -0.00000000000E+00 -0.74505805969E-08  0.93827000000E+00  0.93827000000E+00 0.  1.
     999902    2    1    2    0    0  0.22176854235E-01 -0.37853932931E-02 -0.10416312300E-01  0.10191380330E+01  0.10188364386E+01 0.  0.
     999903    2    3    3    0    0 -0.12391790140E+00  0.73047911539E-02 -0.17534330348E-01  0.12699603981E+00  0.20286328576E-01 0.  0.
         14    1    1    2    0    0 -0.22176854235E-01  0.37853932931E-02  0.10416312300E-01  0.24791967007E-01  0.00000000000E+00 0. -1.
     999901    1    3    3    0    0  0.14609475563E+00 -0.11090184447E-01  0.71180180475E-02  0.89214199318E+00  0.88000000000E+00 0.  1.
        -11    1    4    4    0    0 -0.26947575532E-01 -0.67281942359E-02 -0.47766018265E-02  0.28187186287E-01  0.51100000000E-03 0.  1.
         11    1    4    4    0    0 -0.96970325864E-01  0.14032985390E-01 -0.12757728522E-01  0.98808853526E-01  0.51100000000E-03 0. -1.
</event>
<event>
 8    1  0.1116619E+005  0.1043930E+01  0.7957747E-01            NaN
         13   -1    0    0    0    0  0.00000000000E+00  0.00000000000E+00  0.74505805969E-08  0.10566000000E+00  0.10566000000E+00 0. -1.
     999900   -1    0    0    0    0 -0.00000000000E+00 -0.00000000000E+00 -0.74505805969E-08  0.93827000000E+00  0.93827000000E+00 0.  1.
     999902    2    1    2    0    0  0.12947689491E-01  0.18860972043E-01  0.47410781302E-02  0.10205664225E+01  0.10202989592E+01 0.  0.
     999903    2    3    3    0    0  0.61346432214E-01 -0.22344046579E-01 -0.11157460966E+00  0.13063966653E+00  0.18846426344E-01 0.  0.
         14    1    1    2    0    0 -0.12947689491E-01 -0.18860972043E-01 -0.47410781302E-02  0.23363577453E-01  0.00000000000E+00 0.  1.
     999901    1    3    3    0    0 -0.48398742723E-01  0.41205018623E-01  0.11631568779E+00  0.88992675602E+00  0.88000000000E+00 0. -1.
        -11    1    4    4    0    0  0.54881712210E-01 -0.17482718734E-01 -0.83658989101E-01  0.10157133143E+00  0.51100000000E-03 0. -1.
         11    1    4    4    0    0  0.64647200039E-02 -0.48613278451E-02 -0.27915620560E-01  0.29068335098E-01  0.51100000000E-03 0.  1.
</event>
<event>
 8    1  0.1116619E+005  0.1043930E+01  0.7957747E-01            NaN
         13   -1    0    0    0    0  0.00000000000E+00  0.00000000000E+00  0.74505805969E-08  0.10566000000E+00  0.10566000000E+00 0. -1.
     999900   -1    0    0    0    0 -0.00000000000E+00 -0.00000000000E+00 -0.74505805969E-08  0.93827000000E+00  0.93827000000E+00 0. -1.
     999902    2    1    2    0    0  0.21607719985E-01 -0.86717101291E-02 -0.10960359867E-04  0.10206471256E+01  0.10203815280E+01 0.  0.
     999903    2    3    3    0    0  0.93785767812E-01  0.88034736385E-01  0.21946415623E-01  0.13214055066E+00  0.20822942022E-01 0.  0.
         14    1    1    2    0    0 -0.21607719985E-01  0.86717101291E-02  0.10960359867E-04  0.23282874385E-01  0.00000000000E+00 0. -1.
     999901    1    3    3    0    0 -0.72178047826E-01 -0.96706446514E-01 -0.21957375983E-01  0.88850657496E+00  0.88000000000E+00 0. -1.
        -11    1    4    4    0    0  0.35242093455E-01  0.27690567349E-01  0.16931388224E-01  0.47913523137E-01  0.51100000000E-03 0.  1.
         11    1    4    4    0    0  0.58543674356E-01  0.60344169036E-01  0.50150273994E-02  0.84227027518E-01  0.51100000000E-03 0. -1.
</event>
<event>
 8    1  0.1116619E+005  0.1043930E+01  0.7957747E-01            NaN
         13   -1    0    0    0    0  0.00000000000E+00  0.00000000000E+00  0.74505805969E-08  0.10566000000E+00  0.10566000000E+00 0.  1.
     999900   -1    0    0    0    0 -0.00000000000E+00 -0.00000000000E+00 -0.74505805969E-08  0.93827000000E+00  0.93827000000E+00 0.  1.
     999902    2    1    2    0    0  0.11479891590E-01 -0.86061255484E-03  0.20931257238E-01  0.10200418001E+01  0.10197620447E+01 0.  0.
     999903    2    3    3    0    0 -0.75929386782E-01 -0.34916871084E-02 -0.99935319813E-01  0.12748590048E+00  0.22093506266E-01 0.  0.
         14    1    1    2    0    0 -0.11479891590E-01  0.86061255484E-03 -0.20931257238E-01  0.23888199900E-01  0.00000000000E+00 0. -1.
     999901    1    3    3    0    0  0.87409278372E-01  0.26310745536E-02  0.12086657705E+00  0.89255589962E+00  0.88000000000E+00 0. -1.
        -11    1    4    4    0    0 -0.38631985540E-01 -0.11557625304E-01 -0.59566813278E-01  0.71933826358E-01  0.51100000000E-03 0.  1.
         11    1    4    4    0    0 -0.37297401242E-01  0.80659381953E-02 -0.40368506535E-01  0.55552074122E-01  0.51100000000E-03 0. -1.
</event>
<event>
 8    1  0.1116619E+005  0.1043930E+01  0.7957747E-01            NaN
         13   -1    0    0    0    0  0.00000000000E+00  0.00000000000E+00  0.74505805969E-08  0.10566000000E+00  0.10566000000E+00 0.  1.
     999900   -1    0    0    0    0 -0.00000000000E+00 -0.00000000000E+00 -0.74505805969E-08  0.93827000000E+00  0.93827000000E+00 0. -1.
     999902    2    1    2    0    0  0.42010305520E-02 -0.18645292721E-01 -0.17114374363E-01  0.10182746417E+01  0.10179513979E+01 0.  0.
     999903    2    3    3    0    0  0.39142815193E-01  0.43837175543E-01 -0.11430519504E+00  0.13003422226E+00  0.19732293399E-01 0.  0.
         14    1    1    2    0    0 -0.42010305520E-02  0.18645292721E-01  0.17114374363E-01  0.25655358274E-01  0.00000000000E+00 0.  1.
     999901    1    3    3    0    0 -0.34941784641E-01 -0.62482468265E-01  0.97190820682E-01  0.88824041947E+00  0.88000000000E+00 0.  1.
        -11    1    4    4    0    0  0.12732070848E-01  0.28871062429E-01 -0.55057536000E-01  0.63460517373E-01  0.51100000000E-03 0. -1.
         11    1    4    4    0    0  0.26410744346E-01  0.14966113114E-01 -0.59247659044E-01  0.66573704883E-01  0.51100000000E-03 0.  1.
</event>
<event>
 8    1  0.1116619E+005  0.1043930E+01  0.7957747E-01            NaN
         13   -1    0    0    0    0  0.00000000000E+00  0.00000000000E+00  0.74505805969E-08  0.10566000000E+00  0.10566000000E+00 0.  1.
     999900   -1    0    0    0    0 -0.00000000000E+00 -0.00000000000E+00 -0.74505805969E-08  0.93827000000E+00  0.93827000000E+00 0.  1.
     999902    2    1    2    0    0  0.39818258318E-02  0.11914619556E-01  0.20013648576E-01  0.10203003740E+01  0.10200267124E+01 0.  0.
     999903    2    3    3    0    0 -0.70036349570E-01  0.77260108443E-01  0.79110932592E-01  0.13280884604E+00  0.22481888543E-01 0.  0.
         14    1    1    2    0    0 -0.39818258318E-02 -0.11914619556E-01 -0.20013648576E-01  0.23629626011E-01  0.00000000000E+00 0. -1.
     999901    1    3    3    0    0  0.74018175402E-01 -0.65345488887E-01 -0.59097284016E-01  0.88749152795E+00  0.88000000000E+00 0.  1.
        -11    1    4    4    0    0 -0.12025406680E-01  0.39392815832E-02  0.13981032842E-01  0.18864218657E-01  0.51100000000E-03 0.  1.
         11    1    4    4    0    0 -0.58010942891E-01  0.73320826860E-01  0.65129899750E-01  0.11394462738E+00  0.51100000000E-03 0. -1.
</event>
<event>
 8    1  0.1116619E+005  0.1043930E+01  0.7957747E-01            NaN
         13   -1    0    0    0    0  0.00000000000E+00  0.00000000000E+00  0.74505805969E-08  0.10566000000E+00  0.10566000000E+00 0.  1.
     999900   -1    0    0    0    0 -0.00000000000E+00 -0.00000000000E+00 -0.74505805969E-08  0.93827000000E+00  0.93827000000E+00 0.  1.
     999902    2    1    2    0    0 -0.11254738756E-01 -0.10998771238E-01 -0.18271396739E-01  0.10198159781E+01  0.10195308446E+01 0.  0.
     999903    2    3    3    0    0 -0.12100285095E+00  0.36194282060E-01  0.26692764908E-01  0.13060643686E+00  0.19844940401E-01 0.  0.
         14    1    1    2    0    0  0.11254738756E-01  0.10998771238E-01  0.18271396739E-01  0.24114021896E-01  0.00000000000E+00 0.  1.
     999901    1    3    3    0    0  0.10974811219E+00 -0.47193053298E-01 -0.44964161647E-01  0.88920954125E+00  0.88000000000E+00 0.  1.
        -11    1    4    4    0    0 -0.64337181571E-01  0.29423281835E-01  0.13350450959E-01  0.71996514556E-01  0.51100000000E-03 0.  1.
         11    1    4    4    0    0 -0.56665669375E-01  0.67710002253E-02  0.13342313948E-01  0.58609922303E-01  0.51100000000E-03 0. -1.
</event>
<event>
 8    1  0.1116619E+005  0.1043930E+01  0.7957747E-01            NaN
         13   -1    0    0    0    0  0.00000000000E+00  0.00000000000E+00  0.74505805969E-08  0.10566000000E+00  0.10566000000E+00 0.  1.
     999900   -1    0    0    0    0 -0.00000000000E+00 -0.00000000000E+00 -0.74505805969E-08  0.93827000000E+00  0.93827000000E+00 0. -1.
     999902    2    1    2    0    0  0.17267390056E-01  0.96157856159E-02 -0.57076988115E-02  0.10233580794E+01  0.10231512863E+01 0.  0.
     999903    2    3    3    0    0 -0.29761478431E-01  0.19677587692E-01 -0.12730718349E+00  0.13369556527E+00  0.19860315977E-01 0.  0.
         14    1    1    2    0    0 -0.17267390056E-01 -0.96157856159E-02  0.57076988115E-02  0.20571920622E-01  0.00000000000E+00 0.  1.
     999901    1    3    3    0    0  0.47028868487E-01 -0.10061802076E-01  0.12159948467E+00  0.88966251411E+00  0.88000000000E+00 0.  1.
        -11    1    4    4    0    0 -0.32300677677E-02  0.30783874879E-02 -0.51294020646E-01  0.51490265899E-01  0.51100000000E-03 0.  1.
         11    1    4    4    0    0 -0.26531410663E-01  0.16599200204E-01 -0.76013162840E-01  0.82205299374E-01  0.51100000000E-03 0. -1.
</event>
<event>
 8    1  0.1116619E+005  0.1043930E+01  0.7957747E-01            NaN
         13   -1    0    0    0    0  0.00000000000E+00  0.00000000000E+00  0.74505805969E-08  0.10566000000E+00  0.10566000000E+00 0.  1.
     999900   -1    0    0    0    0 -0.00000000000E+00 -0.00000000000E+00 -0.74505805969E-08  0.93827000000E+00  0.93827000000E+00 0. -1.
     999902    2    1    2    0    0 -0.11118350064E-01 -0.98482311055E-02 -0.16395179846E-01  0.10218074485E+01  0.10215679392E+01 0.  0.
     999903    2    3    3    0    0 -0.11353492724E+00 -0.59879057435E-01  0.29846928856E-01  0.13325212015E+00  0.19738468528E-01 0.  0.
         14    1    1    2    0    0  0.11118350064E-01  0.98482311055E-02  0.16395179846E-01  0.22122551531E-01  0.00000000000E+00 0.  1.
     999901    1    3    3    0    0  0.10241657718E+00  0.50030826330E-01 -0.46242108702E-01  0.88855532832E+00  0.88000000000E+00 0.  1.
        -11    1    4    4    0    0 -0.27660789825E-01 -0.24531921598E-01  0.96835861819E-02  0.38222603697E-01  0.51100000000E-03 0. -1.
         11    1    4    4    0    0 -0.85874137416E-01 -0.35347135838E-01  0.20163342674E-01  0.95029516455E-01  0.51100000000E-03 0.  1.
</event>
<event>
 8    1  0.1116619E+005  0.1043930E+01  0.7957747E-01            NaN
         13   -1    0    0    0    0  0.00000000000E+00  0.00000000000E+00  0.74505805969E-08  0.10566000000E+00  0.10566000000E+00 0. -1.
     999900   -1    0    0    0    0 -0.00000000000E+00 -0.00000000000E+00 -0.74505805969E-08  0.93827000000E+00  0.93827000000E+00 0.  1.
     999902    2    1    2    0    0  0.33036149702E-02 -0.20633228311E-01 -0.11233441377E-01  0.10202058733E+01  0.10199299926E+01 0.  0.
     999903    2    3    3    0    0  0.25584571650E-03 -0.82498498311E-01  0.99835906023E-01  0.13106415206E+00  0.20113083849E-01 0.  0.
         14    1    1    2    0    0 -0.33036149702E-02  0.20633228311E-01  0.11233441377E-01  0.23724126698E-01  0.00000000000E+00 0. -1.
     999901    1    3    3    0    0  0.30477692538E-02  0.61865270000E-01 -0.11106934740E+00  0.88914172125E+00  0.88000000000E+00 0.  1.
        -11    1    4    4    0    0 -0.28064075641E-02 -0.48314363235E-01  0.72566572534E-01  0.87225696837E-01  0.51100000000E-03 0.  1.
         11    1    4    4    0    0  0.30622532806E-02 -0.34184135076E-01  0.27269333489E-01  0.43838455219E-01  0.51100000000E-03 0. -1.
</event>
<event>
 8    1  0.1116619E+005  0.1043930E+01  0.7957747E-01            NaN
         13   -1    0    0    0    0  0.00000000000E+00  0.00000000000E+00  0.74505805969E-08  0.10566000000E+00  0.10566000000E+00 0.  1.
     999900   -1    0    0    0    0 -0.00000000000E+00 -0.00000000000E+00 -0.74505805969E-08  0.93827000000E+00  0.93827000000E+00 0. -1.
     999902    2    1    2    0    0  0.18707116549E-01  0.14518776863E-01 -0.91343125509E-03  0.10202322058E+01  0.10199569444E+01 0.  0.
     999903    2    3    3    0    0 -0.67121701112E-01 -0.46748660015E-02  0.10850363491E+00  0.12910534830E+00  0.19182675474E-01 0.  0.
         14    1    1    2    0    0 -0.18707116549E-01 -0.14518776863E-01  0.91343125509E-03  0.23697794156E-01  0.00000000000E+00 0. -1.
     999901    1    3    3    0    0  0.85828817661E-01  0.19193642864E-01 -0.10941706617E+00  0.89112685754E+00  0.88000000000E+00 0. -1.
        -11    1    4    4    0    0 -0.17798406575E-01 -0.72353498762E-02  0.19908215052E-01  0.27671857761E-01  0.51100000000E-03 0. -1.
         11    1    4    4    0    0 -0.49323294537E-01  0.25604838746E-02  0.88595419860E-01  0.10143349054E+00  0.51100000000E-03 0.  1.
</event>
<event>
 8    1  0.1116619E+005  0.1043930E+01  0.7957747E-01            NaN
         13   -1    0    0    0    0  0.00000000000E+00  0.00000000000E+00  0.74505805969E-08  0.10566000000E+00  0.10566000000E+00 0.  1.
     999900   -1    0    0    0    0 -0.00000000000E+00 -0.00000000000E+00 -0.74505805969E-08  0.93827000000E+00  0.93827000000E+00 0.  1.
     999902    2    1    2    0    0  0.53282759505E-02  0.29052763849E-02 -0.23076809762E-01  0.10200685184E+01  0.10197893959E+01 0.  0.
     999903    2    3    3    0    0 -0.97232843419E-01  0.23676336535E-01  0.77443110487E-01  0.12818597315E+00  0.20479589844E-01 0.  0.
         14    1    1    2    0    0 -0.53282759505E-02 -0.29052763849E-02  0.23076809762E-01  0.23861481602E-01  0.00000000000E+00 0.  1.
     999901    1    3    3    0    0  0.10256111937E+00 -0.20771060150E-01 -0.10051992025E+00  0.89188254525E+00  0.88000000000E+00 0.  1.
        -11    1    4    4    0    0 -0.50217067449E-01  0.29052139579E-02  0.32350209367E-01  0.59807953471E-01  0.51100000000E-03 0. -1.
         11    1    4    4    0    0 -0.47015775970E-01  0.20771122577E-01  0.45092901120E-01  0.68378019682E-01  0.51100000000E-03 0.  1.
</event>
<event>
 8    1  0.1116619E+005  0.1043930E+01  0.7957747E-01            NaN
         13   -1    0    0    0    0  0.00000000000E+00  0.00000000000E+00  0.74505805969E-08  0.10566000000E+00  0.10566000000E+00 0.  1.
     999900   -1    0    0    0    0 -0.00000000000E+00 -0.00000000000E+00 -0.74505805969E-08  0.93827000000E+00  0.93827000000E+00 0. -1.
     999902    2    1    2    0    0  0.92855857467E-02  0.11664301283E-01 -0.18417720188E-01  0.10202342104E+01  0.10199589961E+01 0.  0.
     999903    2    3    3    0    0 -0.39880457019E-01  0.54075914779E-01 -0.11318393949E+00  0.13276777103E+00  0.17378764477E-01 0.  0.
         14    1    1    2    0    0 -0.92855857467E-02 -0.11664301283E-01  0.18417720188E-01  0.23695789584E-01  0.00000000000E+00 0.  1.
     999901    1    3    3    0    0  0.49166042766E-01 -0.42411613495E-01  0.94766219298E-01  0.88746643939E+00  0.88000000000E+00 0.  1.
        -11    1    4    4    0    0 -0.27278383714E-01  0.47555076551E-01 -0.95150709959E-01  0.10981581967E+00  0.51100000000E-03 0.  1.
         11    1    4    4    0    0 -0.12602073305E-01  0.65208382283E-02 -0.18033229527E-01  0.22951951354E-01  0.51100000000E-03 0. -1.
</event>
<event>
 8    1  0.1116619E+005  0.1043930E+01  0.7957747E-01            NaN
         13   -1    0    0    0    0  0.00000000000E+00  0.00000000000E+00  0.74505805969E-08  0.10566000000E+00  0.10566000000E+00 0.  1.
     999900   -1    0    0    0    0 -0.00000000000E+00 -0.00000000000E+00 -0.74505805969E-08  0.93827000000E+00  0.93827000000E+00 0. -1.
     999902    2    1    2    0    0 -0.68473157592E-02 -0.14393052346E-01 -0.17023954779E-01  0.10206091783E+01  0.10203427042E+01 0.  0.
     999903    2    3    3    0    0  0.31087481690E-01  0.83427790230E-01 -0.94112789384E-01  0.13103025851E+00  0.19623552644E-01 0.  0.
         14    1    1    2    0    0  0.68473157592E-02  0.14393052346E-01  0.17023954779E-01  0.23320821711E-01  0.00000000000E+00 0.  1.
     999901    1    3    3    0    0 -0.37934797449E-01 -0.97820842576E-01  0.77088834605E-01  0.88957891978E+00  0.88000000000E+00 0.  1.
        -11    1    4    4    0    0 -0.17919050684E-02  0.14642342011E-01 -0.18305732407E-01  0.23515315505E-01  0.51100000000E-03 0.  1.
         11    1    4    4    0    0  0.32879386758E-01  0.68785448219E-01 -0.75807056977E-01  0.10751494300E+00  0.51100000000E-03 0. -1.
</event>
<event>
 8    1  0.1116619E+005  0.1043930E+01  0.7957747E-01            NaN
         13   -1    0    0    0    0  0.00000000000E+00  0.00000000000E+00  0.74505805969E-08  0.10566000000E+00  0.10566000000E+00 0.  1.
     999900   -1    0    0    0    0 -0.00000000000E+00 -0.00000000000E+00 -0.74505805969E-08  0.93827000000E+00  0.93827000000E+00 0. -1.
     999902    2    1    2    0    0  0.21490847706E-01 -0.35667879344E-02 -0.76717297653E-02  0.10208338109E+01  0.10205725039E+01 0.  0.
     999903    2    3    3    0    0 -0.65124084013E-01  0.10560794075E+00 -0.31248300822E-01  0.12955544675E+00  0.20346351298E-01 0.  0.
         14    1    1    2    0    0 -0.21490847706E-01  0.35667879344E-02  0.76717297653E-02  0.23096189055E-01  0.00000000000E+00 0. -1.
     999901    1    3    3    0    0  0.86614931719E-01 -0.10917472868E+00  0.23576571057E-01  0.89127836419E+00  0.88000000000E+00 0. -1.
        -11    1    4    4    0    0 -0.33623530908E-01  0.65120901347E-01 -0.26898215093E-01  0.78070792997E-01  0.51100000000E-03 0.  1.
         11    1    4    4    0    0 -0.31500553105E-01  0.40487039399E-01 -0.43500857291E-02  0.51484653753E-01  0.51100000000E-03 0. -1.
</event>
<event>
 8    1  0.1116619E+005  0.1043930E+01  0.7957747E-01            NaN
         13   -1    0    0    0    0  0.00000000000E+00  0.00000000000E+00  0.74505805969E-08  0.10566000000E+00  0.10566000000E+00 0.  1.
     999900   -1    0    0    0    0 -0.00000000000E+00 -0.00000000000E+00 -0.74505805969E-08  0.93827000000E+00  0.93827000000E+00 0.  1.
     999902    2    1    2    0    0  0.14294225117E-02 -0.21830416408E-01  0.83817469250E-02  0.10205021531E+01  0.10202331991E+01 0.  0.
     999903    2    3    3    0    0 -0.11891555875E+00 -0.20745324859E-01  0.47851423300E-01  0.13143413135E+00  0.20344374028E-01 0.  0.
         14    1    1    2    0    0 -0.14294225117E-02  0.21830416408E-01 -0.83817469250E-02  0.23427846909E-01  0.00000000000E+00 0. -1.
     999901    1    3    3    0    0  0.12034498126E+00 -0.10850915495E-02 -0.39469676375E-01  0.88906802175E+00  0.88000000000E+00 0. -1.
        -11    1    4    4    0    0 -0.38691507556E-01 -0.16374544445E-01  0.14612019256E-01  0.44485173827E-01  0.51100000000E-03 0. -1.
         11    1    4    4    0    0 -0.80224051193E-01 -0.43707804141E-02  0.33239404044E-01  0.86948957518E-01  0.51100000000E-03 0.  1.
</event>
<event>
 8    1  0.1116619E+005  0.1043930E+01  0.7957747E-01            NaN
         13   -1    0    0    0    0  0.00000000000E+00  0.00000000000E+00  0.74505805969E-08  0.10566000000E+00  0.10566000000E+00 0.  1.
     999900   -1    0    0    0    0 -0.00000000000E+00 -0.00000000000E+00 -0.74505805969E-08  0.93827000000E+00  0.93827000000E+00 0.  1.
     999902    2    1    2    0    0 -0.22934312893E-01 -0.29750505650E-02 -0.91801678429E-02  0.10190480966E+01  0.10187442830E+01 0.  0.
     999903    2    3    3    0    0  0.31651491854E-01 -0.21856288269E-01 -0.12237007625E+00  0.12992039681E+00  0.20624249650E-01 0.  0.
         14    1    1    2    0    0  0.22934312893E-01  0.29750505650E-02  0.91801678429E-02  0.24881903371E-01  0.00000000000E+00 0.  1.
     999901    1    3    3    0    0 -0.54585804746E-01  0.18881237704E-01  0.11318990840E+00  0.88912769982E+00  0.88000000000E+00 0. -1.
        -11    1    4    4    0    0  0.23134186296E-01 -0.42662921121E-02 -0.77064622416E-01  0.80576727242E-01  0.51100000000E-03 0.  1.
         11    1    4    4    0    0  0.85173055579E-02 -0.17589996157E-01 -0.45305453831E-01  0.49343669570E-01  0.51100000000E-03 0. -1.
</event>
<event>
 8    1  0.1116619E+005  0.1043930E+01  0.7957747E-01            NaN
         13   -1    0    0    0    0  0.00000000000E+00  0.00000000000E+00  0.74505805969E-08  0.10566000000E+00  0.10566000000E+00 0.  1.
     999900   -1    0    0    0    0 -0.00000000000E+00 -0.00000000000E+00 -0.74505805969E-08  0.93827000000E+00  0.93827000000E+00 0.  1.
     999902    2    1    2    0    0 -0.11613662388E-02 -0.16578312863E-01  0.16133540321E-01  0.10207679545E+01  0.10205051379E+01 0.  0.
     999903    2    3    3    0    0  0.11224689522E-01  0.11592995789E+00 -0.49843103190E-01  0.12831920320E+00  0.20389560650E-01 0.  0.
         14    1    1    2    0    0  0.11613662388E-02  0.16578312863E-01 -0.16133540321E-01  0.23162045510E-01  0.00000000000E+00 0. -1.
     999901    1    3    3    0    0 -0.12386055761E-01 -0.13250827075E+00  0.65976643511E-01  0.89244875129E+00  0.88000000000E+00 0. -1.
        -11    1    4    4    0    0  0.15225058014E-01  0.78810749716E-01 -0.27728648309E-01  0.84923940796E-01  0.51100000000E-03 0. -1.
         11    1    4    4    0    0 -0.40003684916E-02  0.37119208169E-01 -0.22114454882E-01  0.43395262402E-01  0.51100000000E-03 0.  1.
</event>
<event>
 8    1  0.1116619E+005  0.1043930E+01  0.7957747E-01            NaN
         13   -1    0    0    0    0  0.00000000000E+00  0.00000000000E+00  0.74505805969E-08  0.10566000000E+00  0.10566000000E+00 0.  1.
     999900   -1    0    0    0    0 -0.00000000000E+00 -0.00000000000E+00 -0.74505805969E-08  0.93827000000E+00  0.93827000000E+00 0.  1.
     999902    2    1    2    0    0 -0.64869601585E-02 -0.22589679441E-01  0.80349350763E-03  0.10204136255E+01  0.10201426112E+01 0.  0.
     999903    2    3    3    0    0 -0.57700125879E-02 -0.15690567101E-01  0.12863132756E+00  0.13115097196E+00  0.19366777579E-01 0.  0.
         14    1    1    2    0    0  0.64869601585E-02  0.22589679441E-01 -0.80349350763E-03  0.23516374532E-01  0.00000000000E+00 0.  1.
     999901    1    3    3    0    0 -0.71694757057E-03 -0.68991123396E-02 -0.12782783406E+00  0.88926265351E+00  0.88000000000E+00 0.  1.
        -11    1    4    4    0    0 -0.23267108379E-03 -0.18766899371E-01  0.84232454131E-01  0.86299583416E-01  0.51100000000E-03 0. -1.
         11    1    4    4    0    0 -0.55373415041E-02  0.30763322696E-02  0.44398873433E-01  0.44851388544E-01  0.51100000000E-03 0.  1.
</event>
<event>
 8    1  0.1116619E+005  0.1043930E+01  0.7957747E-01            NaN
         13   -1    0    0    0    0  0.00000000000E+00  0.00000000000E+00  0.74505805969E-08  0.10566000000E+00  0.10566000000E+00 0. -1.
     999900   -1    0    0    0    0 -0.00000000000E+00 -0.00000000000E+00 -0.74505805969E-08  0.93827000000E+00  0.93827000000E+00 0. -1.
     999902    2    1    2    0    0 -0.67432734433E-02  0.18297064703E-01 -0.13108523168E-01  0.10204334536E+01  0.10201629015E+01 0.  0.
     999903    2    3    3    0    0 -0.40603158084E-01 -0.12059679692E+00 -0.34401434145E-02  0.12884415680E+00  0.19919294215E-01 0.  0.
         14    1    1    2    0    0  0.67432734433E-02 -0.18297064703E-01  0.13108523168E-01  0.23496546409E-01  0.00000000000E+00 0. -1.
     999901    1    3    3    0    0  0.33859884641E-01  0.13889386162E+00 -0.96683797530E-02  0.89158929679E+00  0.88000000000E+00 0. -1.
        -11    1    4    4    0    0 -0.40243119363E-01 -0.99641076557E-01 -0.64924032610E-02  0.10765809405E+00  0.51100000000E-03 0.  1.
         11    1    4    4    0    0 -0.36003872074E-03 -0.20955720361E-01  0.30522598465E-02  0.21186062751E-01  0.51100000000E-03 0. -1.
</event>
<event>
 8    1  0.1116619E+005  0.1043930E+01  0.7957747E-01            NaN
         13   -1    0    0    0    0  0.00000000000E+00  0.00000000000E+00  0.74505805969E-08  0.10566000000E+00  0.10566000000E+00 0.  1.
     999900   -1    0    0    0    0 -0.00000000000E+00 -0.00000000000E+00 -0.74505805969E-08  0.93827000000E+00  0.93827000000E+00 0.  1.
     999902    2    1    2    0    0 -0.11609363425E-01 -0.17837835040E-01 -0.11509544486E-01  0.10197342299E+01  0.10194471366E+01 0.  0.
     999903    2    3    3    0    0  0.65103549182E-01  0.10771394185E+00 -0.83652592528E-03  0.12745510708E+00  0.20083305506E-01 0.  0.
         14    1    1    2    0    0  0.11609363425E-01  0.17837835040E-01  0.11509544486E-01  0.24195770133E-01  0.00000000000E+00 0.  1.
     999901    1    3    3    0    0 -0.76712912608E-01 -0.12555177689E+00 -0.10673018561E-01  0.89227912279E+00  0.88000000000E+00 0. -1.
        -11    1    4    4    0    0  0.43292146275E-01  0.80526891480E-01 -0.83082640364E-02  0.91804567167E-01  0.51100000000E-03 0.  1.
         11    1    4    4    0    0  0.21811402907E-01  0.27187050368E-01  0.74717381112E-02  0.35650539911E-01  0.51100000000E-03 0. -1.
</event>
<event>
 8    1  0.1116619E+005  0.1043930E+01  0.7957747E-01            NaN
         13   -1    0    0    0    0  0.00000000000E+00  0.00000000000E+00  0.74505805969E-08  0.10566000000E+00  0.10566000000E+00 0.  1.
     999900   -1    0    0    0    0 -0.00000000000E+00 -0.00000000000E+00 -0.74505805969E-08  0.93827000000E+00  0.93827000000E+00 0.  1.
     999902    2    1    2    0    0  0.11652329391E-02 -0.12041126482E-01  0.19367505298E-01  0.10210947913E+01  0.10208394223E+01 0.  0.
     999903    2    3    3    0    0 -0.85698542437E-01 -0.98684153905E-01 -0.42162582664E-02  0.13227055470E+00  0.19872604220E-01 0.  0.
         14    1    1    2    0    0 -0.11652329391E-02  0.12041126482E-01 -0.19367505298E-01  0.22835208696E-01  0.00000000000E+00 0. -1.
     999901    1    3    3    0    0  0.86863775376E-01  0.86643027424E-01  0.23583763564E-01  0.88882423661E+00  0.88000000000E+00 0.  1.
        -11    1    4    4    0    0 -0.16558479433E-01 -0.20747905865E-01  0.70693328223E-02  0.27475360352E-01  0.51100000000E-03 0. -1.
         11    1    4    4    0    0 -0.69140063005E-01 -0.77936248040E-01 -0.11285591089E-01  0.10479519435E+00  0.51100000000E-03 0.  1.
</event>
<event>
 8    1  0.1116619E+005  0.1043930E+01  0.7957747E-01            NaN
         13   -1    0    0    0    0  0.00000000000E+00  0.00000000000E+00  0.74505805969E-08  0.10566000000E+00  0.10566000000E+00 0.  1.
     999900   -1    0    0    0    0 -0.00000000000E+00 -0.00000000000E+00 -0.74505805969E-08  0.93827000000E+00  0.93827000000E+00 0. -1.
     999902    2    1    2    0    0 -0.23156510470E-01 -0.80732288631E-03  0.10059646520E-01  0.10186699082E+01  0.10183566712E+01 0.  0.
     999903    2    3    3    0    0  0.46278865058E-01 -0.11813380440E+00  0.10824471029E-02  0.12812661073E+00  0.17830524206E-01 0.  0.
         14    1    1    2    0    0  0.23156510470E-01  0.80732288631E-03 -0.10059646520E-01  0.25260091756E-01  0.00000000000E+00 0. -1.
     999901    1    3    3    0    0 -0.69435375528E-01  0.11732648151E+00  0.89771994166E-02  0.89054329751E+00  0.88000000000E+00 0.  1.
        -11    1    4    4    0    0  0.20949491031E-01 -0.32433664562E-01 -0.24325964810E-02  0.38691115492E-01  0.51100000000E-03 0.  1.
         11    1    4    4    0    0  0.25329374026E-01 -0.85700139833E-01  0.35150435839E-02  0.89435495238E-01  0.51100000000E-03 0. -1.
</event>
<event>
 8    1  0.1116619E+005  0.1043930E+01  0.7957747E-01            NaN
         13   -1    0    0    0    0  0.00000000000E+00  0.00000000000E+00  0.74505805969E-08  0.10566000000E+00  0.10566000000E+00 0. -1.
     999900   -1    0    0    0    0 -0.00000000000E+00 -0.00000000000E+00 -0.74505805969E-08  0.93827000000E+00  0.93827000000E+00 0. -1.
     999902    2    1    2    0    0 -0.34178223997E-02 -0.10346698587E-01 -0.20541070559E-01  0.10206776612E+01  0.10204127678E+01 0.  0.
     999903    2    3    3    0    0  0.20446699798E-02  0.63111993484E-01  0.11003000442E+00  0.12799920624E+00  0.17026171904E-01 0.  0.
         14    1    1    2    0    0  0.34178223997E-02  0.10346698587E-01  0.20541070559E-01  0.23252338835E-01  0.00000000000E+00 0. -1.
     999901    1    3    3    0    0 -0.54624923796E-02 -0.73458692071E-01 -0.13057107498E+00  0.89267845492E+00  0.88000000000E+00 0. -1.
        -11    1    4    4    0    0  0.44411504955E-02  0.49467205312E-01  0.71564513914E-01  0.87111818899E-01  0.51100000000E-03 0.  1.
         11    1    4    4    0    0 -0.23964805157E-02  0.13644788172E-01  0.38465490502E-01  0.40887387343E-01  0.51100000000E-03 0. -1.
</event>
<event>
 8    1  0.1116619E+005  0.1043930E+01  0.7957747E-01            NaN
         13   -1    0    0    0    0  0.00000000000E+00  0.00000000000E+00  0.74505805969E-08  0.10566000000E+00  0.10566000000E+00 0.  1.
     999900   -1    0    0    0    0 -0.00000000000E+00 -0.00000000000E+00 -0.74505805969E-08  0.93827000000E+00  0.93827000000E+00 0.  1.
     999902    2    1    2    0    0  0.34769727900E-02  0.12048816144E-01 -0.18796175985E-01  0.10213344353E+01  0.10210844575E+01 0.  0.
     999903    2    3    3    0    0 -0.35507910688E-01  0.87695011536E-01 -0.93048322341E-01  0.13411656512E+00  0.19443147347E-01 0.  0.
         14    1    1    2    0    0 -0.34769727900E-02 -0.12048816144E-01  0.18796175985E-01  0.22595564652E-01  0.00000000000E+00 0. -1.
     999901    1    3    3    0    0  0.38984883478E-01 -0.75646195392E-01  0.74252146356E-01  0.88721787023E+00  0.88000000000E+00 0. -1.
        -11    1    4    4    0    0 -0.14208021793E-01  0.22901552321E-01 -0.16567868554E-01  0.31640233429E-01  0.51100000000E-03 0. -1.
         11    1    4    4    0    0 -0.21299888894E-01  0.64793459215E-01 -0.76480453787E-01  0.10247633169E+00  0.51100000000E-03 0.  1.
</event>
<event>
 8    1  0.1116619E+005  0.1043930E+01  0.7957747E-01            NaN
         13   -1    0    0    0    0  0.00000000000E+00  0.00000000000E+00  0.74505805969E-08  0.10566000000E+00  0.10566000000E+00 0.  1.
     999900   -1    0    0    0    0 -0.00000000000E+00 -0.00000000000E+00 -0.74505805969E-08  0.93827000000E+00  0.93827000000E+00 0.  1.
     999902    2    1    2    0    0 -0.24426173529E-02 -0.24326549746E-01 -0.24484911444E-02  0.10193588276E+01  0.10190626463E+01 0.  0.
     999903    2    3    3    0    0  0.50572203568E-01 -0.10487229779E-01 -0.11799699856E+00  0.13011557882E+00  0.18418534668E-01 0.  0.
         14    1    1    2    0    0  0.24426173529E-02  0.24326549746E-01  0.24484911444E-02  0.24571172356E-01  0.00000000000E+00 0.  1.
     999901    1    3    3    0    0 -0.53014820921E-01 -0.13839319967E-01  0.11554850742E+00  0.88924324883E+00  0.88000000000E+00 0. -1.
        -11    1    4    4    0    0  0.22350641429E-01 -0.51502472035E-02 -0.31470525053E-01  0.38945234453E-01  0.51100000000E-03 0.  1.
         11    1    4    4    0    0  0.28221562139E-01 -0.53369825756E-02 -0.86526473510E-01  0.91170344365E-01  0.51100000000E-03 0. -1.
</event>
<event>
 8    1  0.1116619E+005  0.1043930E+01  0.7957747E-01            NaN
         13   -1    0    0    0    0  0.00000000000E+00  0.00000000000E+00  0.74505805969E-08  0.10566000000E+00  0.10566000000E+00 0.  1.
     999900   -1    0    0    0    0 -0.00000000000E+00 -0.00000000000E+00 -0.74505805969E-08  0.93827000000E+00  0.93827000000E+00 0.  1.
     999902    2    1    2    0    0 -0.18936531909E-01 -0.14256031645E-01 -0.18466886503E-02  0.10201552878E+01  0.10198782155E+01 0.  0.
     999903    2    3    3    0    0  0.67351663173E-01 -0.94301589644E-01 -0.56796745979E-01  0.13062032352E+00  0.20168346984E-01 0.  0.
         14    1    1    2    0    0  0.18936531909E-01  0.14256031645E-01  0.18466886503E-02  0.23774712154E-01  0.00000000000E+00 0.  1.
     999901    1    3    3    0    0 -0.86288195082E-01  0.80045557999E-01  0.54950057329E-01  0.88953496433E+00  0.88000000000E+00 0.  1.
        -11    1    4    4    0    0  0.10298535468E-01 -0.18973803446E-01 -0.27752669891E-02  0.21772190469E-01  0.51100000000E-03 0. -1.
         11    1    4    4    0    0  0.57053127705E-01 -0.75327786199E-01 -0.54021478990E-01  0.10884813305E+00  0.51100000000E-03 0.  1.
</event>
<event>
 8    1  0.1116619E+005  0.1043930E+01  0.7957747E-01            NaN
         13   -1    0    0    0    0  0.00000000000E+00  0.00000000000E+00  0.74505805969E-08  0.10566000000E+00  0.10566000000E+00 0. -1.
     999900   -1    0    0    0    0 -0.00000000000E+00 -0.00000000000E+00 -0.74505805969E-08  0.93827000000E+00  0.93827000000E+00 0.  1.
     999902    2    1    2    0    0  0.43332385572E-02  0.14073035084E-01 -0.18077347657E-01  0.10206143878E+01  0.10203480342E+01 0.  0.
     999903    2    3    3    0    0  0.73317231550E-01 -0.10506013698E+00  0.11366842777E-02  0.12970435701E+00  0.20220765406E-01 0.  0.
         14    1    1    2    0    0 -0.43332385572E-02 -0.14073035084E-01  0.18077347657E-01  0.23315612177E-01  0.00000000000E+00 0.  1.
     999901    1    3    3    0    0 -0.68983992993E-01  0.11913317206E+00 -0.19214031935E-01  0.89091003081E+00  0.88000000000E+00 0.  1.
        -11    1    4    4    0    0  0.67431286594E-01 -0.83448989984E-01  0.46886792593E-03  0.10729022928E+00  0.51100000000E-03 0.  1.
         11    1    4    4    0    0  0.58859449560E-02 -0.21611146991E-01  0.66781635174E-03  0.22414127732E-01  0.51100000000E-03 0. -1.
</event>
<event>
 8    1  0.1116619E+005  0.1043930E+01  0.7957747E-01            NaN
         13   -1    0    0    0    0  0.00000000000E+00  0.00000000000E+00  0.74505805969E-08  0.10566000000E+00  0.10566000000E+00 0.  1.
     999900   -1    0    0    0    0 -0.00000000000E+00 -0.00000000000E+00 -0.74505805969E-08  0.93827000000E+00  0.93827000000E+00 0. -1.
     999902    2    1    2    0    0 -0.14245843290E-01  0.49548622055E-02 -0.19441990861E-01  0.10193233806E+01  0.10190263336E+01 0.  0.
     999903    2    3    3    0    0  0.80839940322E-01 -0.48343640856E-01 -0.87064650918E-01  0.13002317209E+00  0.21297142484E-01 0.  0.
         14    1    1    2    0    0  0.14245843290E-01 -0.49548622055E-02  0.19441990861E-01  0.24606619418E-01  0.00000000000E+00 0.  1.
     999901    1    3    3    0    0 -0.95085783612E-01  0.53298503061E-01  0.67622660057E-01  0.88930020849E+00  0.88000000000E+00 0.  1.
        -11    1    4    4    0    0  0.63564798408E-01 -0.28969297571E-01 -0.55959000089E-01  0.89506282519E-01  0.51100000000E-03 0.  1.
         11    1    4    4    0    0  0.17275141914E-01 -0.19374343285E-01 -0.31105650830E-01  0.40516889570E-01  0.51100000000E-03 0. -1.
</event>
<event>
 8    1  0.1116619E+005  0.1043930E+01  0.7957747E-01            NaN
         13   -1    0    0    0    0  0.00000000000E+00  0.00000000000E+00  0.74505805969E-08  0.10566000000E+00  0.10566000000E+00 0. -1.
     999900   -1    0    0    0    0 -0.00000000000E+00 -0.00000000000E+00 -0.74505805969E-08  0.93827000000E+00  0.93827000000E+00 0.  1.
     999902    2    1    2    0    0  0.91512215295E-02 -0.21061237623E-01  0.53748632671E-02  0.10203459007E+01  0.10200733049E+01 0.  0.
     999903    2    3    3    0    0  0.81270385785E-01  0.63107350653E-01 -0.76159683342E-01  0.12965324471E+00  0.20548800082E-01 0.  0.
         14    1    1    2    0    0 -0.91512215295E-02  0.21061237623E-01 -0.53748632671E-02  0.23584099322E-01  0.00000000000E+00 0.  1.
     999901    1    3    3    0    0 -0.72119164256E-01 -0.84168588276E-01  0.81534546609E-01  0.89069265597E+00  0.88000000000E+00 0. -1.
        -11    1    4    4    0    0  0.34538068330E-01  0.19184937786E-01 -0.19441393941E-01  0.44035995744E-01  0.51100000000E-03 0.  1.
         11    1    4    4    0    0  0.46732317456E-01  0.43922412867E-01 -0.56718289401E-01  0.85617248965E-01  0.51100000000E-03 0. -1.
</event>
<event>
 8    1  0.1116619E+005  0.1043930E+01  0.7957747E-01            NaN
         13   -1    0    0    0    0  0.00000000000E+00  0.00000000000E+00  0.74505805969E-08  0.10566000000E+00  0.10566000000E+00 0.  1.
     999900   -1    0    0    0    0 -0.00000000000E+00 -0.00000000000E+00 -0.74505805969E-08  0.93827000000E+00  0.93827000000E+00 0.  1.
     999902    2    1    2    0    0  0.18443654983E-01 -0.13780996773E-01  0.31214473987E-02  0.10206958072E+01  0.10204313319E+01 0.  0.
     999903    2    3    3    0    0 -0.10721870408E+00 -0.18646448922E-02 -0.68409375922E-01  0.12881594611E+00  0.20356273107E-01 0.  0.
         14    1    1    2    0    0 -0.18443654983E-01  0.13780996773E-01 -0.31214473987E-02  0.23234192800E-01  0.00000000000E+00 0.  1.
     999901    1    3    3    0    0  0.12566235906E+00 -0.11916351881E-01  0.71530823321E-01  0.89187986109E+00  0.88000000000E+00 0. -1.
        -11    1    4    4    0    0 -0.97635575187E-01 -0.75677102432E-02 -0.62640459937E-01  0.11625000698E+00  0.51100000000E-03 0.  1.
         11    1    4    4    0    0 -0.95831288893E-02  0.57030653510E-02 -0.57689159850E-02  0.12565939135E-01  0.51100000000E-03 0. -1.
</event>
<event>
 8    1  0.1141420E+005  0.1043930E+01  0.7957747E-01            NaN
         13   -1    0    0    0    0  0.00000000000E+00  0.00000000000E+00  0.74505805969E-08  0.10566000000E+00  0.10566000000E+00 0.  1.
     999900   -1    0    0    0    0 -0.00000000000E+00 -0.00000000000E+00 -0.74505805969E-08  0.93827000000E+00  0.93827000000E+00 0.  1.
     999902    2    1    2    0    0 -0.11823447288E-01 -0.51942601110E-03 -0.18205826852E-01  0.10222155845E+01  0.10219849242E+01 0.  0.
     999903    2    3    3    0    0  0.93311252405E-01 -0.39482641752E-01  0.78579728873E-01  0.12983736813E+00  0.20423015135E-01 0.  0.
         14    1    1    2    0    0  0.11823447288E-01  0.51942601110E-03  0.18205826852E-01  0.21714415500E-01  0.00000000000E+00 0.  1.
     999901    1    3    3    0    0 -0.10513469969E+00  0.38963215741E-01 -0.96785555725E-01  0.89237821637E+00  0.88000000000E+00 0.  1.
        -11    1    4    4    0    0  0.58946285132E-01 -0.15014585905E-01  0.41185555785E-01  0.73461646096E-01  0.51100000000E-03 0. -1.
         11    1    4    4    0    0  0.34364967273E-01 -0.24468055846E-01  0.37394173088E-01  0.56375722031E-01  0.51100000000E-03 0.  1.
</event>
<event>
 8    1  0.1116619E+005  0.1043930E+01  0.7957747E-01            NaN
         13   -1    0    0    0    0  0.00000000000E+00  0.00000000000E+00  0.74505805969E-08  0.10566000000E+00  0.10566000000E+00 0.  1.
     999900   -1    0    0    0    0 -0.00000000000E+00 -0.00000000000E+00 -0.74505805969E-08  0.93827000000E+00  0.93827000000E+00 0. -1.
     999902    2    1    2    0    0  0.20480464538E-01 -0.11785773506E-01 -0.24457008165E-02  0.10201742568E+01  0.10198976315E+01 0.  0.
     999903    2    3    3    0    0 -0.85332547610E-01  0.56526882611E-01 -0.73979899746E-01  0.12833337737E+00  0.22792499654E-01 0.  0.
         14    1    1    2    0    0 -0.20480464538E-01  0.11785773506E-01  0.24457008165E-02  0.23755743249E-01  0.00000000000E+00 0. -1.
     999901    1    3    3    0    0  0.10581301215E+00 -0.68312656117E-01  0.71534198930E-01  0.89184087938E+00  0.88000000000E+00 0.  1.
        -11    1    4    4    0    0 -0.11820197098E-01  0.14606281442E-01 -0.58378041026E-02  0.19682520030E-01  0.51100000000E-03 0. -1.
         11    1    4    4    0    0 -0.73512350512E-01  0.41920601168E-01 -0.68142095644E-01  0.10865085734E+00  0.51100000000E-03 0.  1.
</event>
<event>
 8    1  0.1116619E+005  0.1043930E+01  0.7957747E-01            NaN
         13   -1    0    0    0    0  0.00000000000E+00  0.00000000000E+00  0.74505805969E-08  0.10566000000E+00  0.10566000000E+00 0.  1.
     999900   -1    0    0    0    0 -0.00000000000E+00 -0.00000000000E+00 -0.74505805969E-08  0.93827000000E+00  0.93827000000E+00 0. -1.
     999902    2    1    2    0    0  0.29075509208E-02  0.22288945940E-01  0.82654913583E-02  0.10199806929E+01  0.10196994874E+01 0.  0.
     999903    2    3    3    0    0 -0.71364196852E-01 -0.30358628184E-01 -0.10083550122E+00  0.12858230488E+00  0.18738087525E-01 0.  0.
         14    1    1    2    0    0 -0.29075509208E-02 -0.22288945940E-01 -0.82654913583E-02  0.23949307106E-01  0.00000000000E+00 0.  1.
     999901    1    3    3    0    0  0.74271747772E-01  0.52647574124E-01  0.10910099258E+00  0.89139838802E+00  0.88000000000E+00 0. -1.
        -11    1    4    4    0    0 -0.13599244165E-01 -0.13881950820E-01 -0.20249916275E-01  0.28070771820E-01  0.51100000000E-03 0. -1.
         11    1    4    4    0    0 -0.57764952687E-01 -0.16476677364E-01 -0.80585584943E-01  0.10051153306E+00  0.51100000000E-03 0.  1.
</event>
<event>
 8    1  0.1116619E+005  0.1043930E+01  0.7957747E-01            NaN
         13   -1    0    0    0    0  0.00000000000E+00  0.00000000000E+00  0.74505805969E-08  0.10566000000E+00  0.10566000000E+00 0.  1.
     999900   -1    0    0    0    0 -0.00000000000E+00 -0.00000000000E+00 -0.74505805969E-08  0.93827000000E+00  0.93827000000E+00 0. -1.
     999902    2    1    2    0    0  0.11657410938E-01 -0.15918514209E-01 -0.12500392930E-01  0.10205728994E+01  0.10203055860E+01 0.  0.
     999903    2    3    3    0    0 -0.38142446971E-01 -0.64645691747E-01 -0.10763623483E+00  0.13270737351E+00  0.19793337548E-01 0.  0.
         14    1    1    2    0    0 -0.11657410938E-01  0.15918514209E-01  0.12500392930E-01  0.23357100586E-01  0.00000000000E+00 0. -1.
     999901    1    3    3    0    0  0.49799857909E-01  0.48727177538E-01  0.95135841904E-01  0.88786552591E+00  0.88000000000E+00 0.  1.
        -11    1    4    4    0    0 -0.11866841575E-01 -0.27868427089E-01 -0.58912213043E-01  0.66244857340E-01  0.51100000000E-03 0.  1.
         11    1    4    4    0    0 -0.26275605396E-01 -0.36777264658E-01 -0.48724021792E-01  0.66462516167E-01  0.51100000000E-03 0. -1.
</event>
<event>
 8    1  0.1116619E+005  0.1043930E+01  0.7957747E-01            NaN
         13   -1    0    0    0    0  0.00000000000E+00  0.00000000000E+00  0.74505805969E-08  0.10566000000E+00  0.10566000000E+00 0. -1.
     999900   -1    0    0    0    0 -0.00000000000E+00 -0.00000000000E+00 -0.74505805969E-08  0.93827000000E+00  0.93827000000E+00 0.  1.
     999902    2    1    2    0    0 -0.18729052961E-01  0.55698228301E-02  0.12300945539E-01  0.10208407468E+01  0.10205795984E+01 0.  0.
     999903    2    3    3    0    0 -0.16752066782E-02  0.12867633569E+00 -0.16297493614E-01  0.13164790053E+00  0.22475669756E-01 0.  0.
         14    1    1    2    0    0  0.18729052961E-01 -0.55698228301E-02 -0.12300945539E-01  0.23089253178E-01  0.00000000000E+00 0.  1.
     999901    1    3    3    0    0 -0.17053846283E-01 -0.12310651286E+00  0.28598439153E-01  0.88919284630E+00  0.88000000000E+00 0. -1.
        -11    1    4    4    0    0  0.16195157737E-02  0.37240579987E-01 -0.14883239647E-01  0.40140448085E-01  0.51100000000E-03 0. -1.
         11    1    4    4    0    0 -0.32947224519E-02  0.91435755702E-01 -0.14142539667E-02  0.91507452441E-01  0.51100000000E-03 0.  1.
</event>
<event>
 7    1  0.1116619E+005  0.1043930E+01  0.7957747E-01            NaN
         13   -1    0    0    0    0  0.00000000000E+00  0.00000000000E+00  0.74505805969E-08  0.10566000000E+00  0.10566000000E+00 0.  1.
     999900   -1    0    0    0    0 -0.00000000000E+00 -0.00000000000E+00 -0.74505805969E-08  0.93827000000E+00  0.93827000000E+00 0.  1.
     999903    2    1    2    0    0 -0.99551480494E-01  0.48557589845E-01  0.19095841148E-01  0.11411112826E+00  0.19706893299E-01 0.  0.
         14    1    1    2    0    0 -0.43406216079E-02  0.11558915756E-01  0.37883288110E-01  0.39844611272E-01  0.00000000000E+00 0. -1.
     999901    1    1    2    0    0  0.10389210210E+00 -0.60116505601E-01 -0.56979129259E-01  0.88997426047E+00  0.88000000000E+00 0. -1.
        -11    1    3    3    0    0 -0.33016250168E-01  0.19389840161E-01  0.15689177183E-01  0.41381760213E-01  0.51100000000E-03 0.  1.
         11    1    3    3    0    0 -0.66535230326E-01  0.29167749684E-01  0.34066639651E-02  0.72729368047E-01  0.51100000000E-03 0. -1.
</event>
<event>
 8    1  0.1116619E+005  0.1043930E+01  0.7957747E-01            NaN
         13   -1    0    0    0    0  0.00000000000E+00  0.00000000000E+00  0.74505805969E-08  0.10566000000E+00  0.10566000000E+00 0.  1.
     999900   -1    0    0    0    0 -0.00000000000E+00 -0.00000000000E+00 -0.74505805969E-08  0.93827000000E+00  0.93827000000E+00 0. -1.
     999902    2    1    2    0    0 -0.43271962296E-03 -0.20889854112E-01  0.12005760318E-01  0.10198320430E+01  0.10195472938E+01 0.  0.
     999903    2    3    3    0    0 -0.37411265745E-02 -0.13002373860E+00 -0.16894598652E-01  0.13261370400E+00  0.19514056354E-01 0.  0.
         14    1    1    2    0    0  0.43271962296E-03  0.20889854112E-01 -0.12005760318E-01  0.24097957007E-01  0.00000000000E+00 0. -1.
     999901    1    3    3    0    0  0.33084069516E-02  0.10913388449E+00  0.28900358970E-01  0.88721833900E+00  0.88000000000E+00 0.  1.
        -11    1    4    4    0    0  0.75681022971E-02 -0.70511995014E-01 -0.10644383427E-01  0.71713190089E-01  0.51100000000E-03 0.  1.
         11    1    4    4    0    0 -0.11309228872E-01 -0.59511743591E-01 -0.62502152255E-02  0.60900513908E-01  0.51100000000E-03 0. -1.
</event>
<event>
 8    1  0.1116619E+005  0.1043930E+01  0.7957747E-01            NaN
         13   -1    0    0    0    0  0.00000000000E+00  0.00000000000E+00  0.74505805969E-08  0.10566000000E+00  0.10566000000E+00 0. -1.
     999900   -1    0    0    0    0 -0.00000000000E+00 -0.00000000000E+00 -0.74505805969E-08  0.93827000000E+00  0.93827000000E+00 0.  1.
     999902    2    1    2    0    0 -0.19947375188E-02 -0.17861090790E-01 -0.16363244648E-01  0.10196245826E+01  0.10193348498E+01 0.  0.
     999903    2    3    3    0    0  0.72623003549E-01 -0.99368416786E-01  0.39306535014E-01  0.13096808207E+00  0.21434829788E-01 0.  0.
         14    1    1    2    0    0  0.19947375188E-02  0.17861090790E-01  0.16363244648E-01  0.24305417450E-01  0.00000000000E+00 0. -1.
     999901    1    3    3    0    0 -0.74617741067E-01  0.81507325996E-01 -0.55669779663E-01  0.88865650048E+00  0.88000000000E+00 0.  1.
        -11    1    4    4    0    0  0.30575252113E-01 -0.57729731678E-01  0.15235229869E-01  0.67081601885E-01  0.51100000000E-03 0. -1.
         11    1    4    4    0    0  0.42047751435E-01 -0.41638685109E-01  0.24071305146E-01  0.63886480188E-01  0.51100000000E-03 0.  1.
</event>
<event>
 8    1  0.1116619E+005  0.1043930E+01  0.7957747E-01            NaN
         13   -1    0    0    0    0  0.00000000000E+00  0.00000000000E+00  0.74505805969E-08  0.10566000000E+00  0.10566000000E+00 0.  1.
     999900   -1    0    0    0    0 -0.00000000000E+00 -0.00000000000E+00 -0.74505805969E-08  0.93827000000E+00  0.93827000000E+00 0. -1.
     999902    2    1    2    0    0  0.14968235381E-01  0.14283480447E-01 -0.11003863635E-01  0.10204960311E+01  0.10202269348E+01 0.  0.
     999903    2    3    3    0    0 -0.59986753303E-01  0.91015919103E-01  0.68848886243E-01  0.13039346445E+00  0.19493032917E-01 0.  0.
         14    1    1    2    0    0 -0.14968235381E-01 -0.14283480447E-01  0.11003863635E-01  0.23433968913E-01  0.00000000000E+00 0.  1.
     999901    1    3    3    0    0  0.74954988684E-01 -0.76732438656E-01 -0.79852749878E-01  0.89010256664E+00  0.88000000000E+00 0.  1.
        -11    1    4    4    0    0 -0.41190132445E-01  0.48452326499E-01  0.46433800463E-01  0.78743976915E-01  0.51100000000E-03 0.  1.
         11    1    4    4    0    0 -0.18796620858E-01  0.42563592605E-01  0.22415085780E-01  0.51649487535E-01  0.51100000000E-03 0. -1.
</event>
<event>
 8    1  0.1116619E+005  0.1043930E+01  0.7957747E-01            NaN
         13   -1    0    0    0    0  0.00000000000E+00  0.00000000000E+00  0.74505805969E-08  0.10566000000E+00  0.10566000000E+00 0.  1.
     999900   -1    0    0    0    0 -0.00000000000E+00 -0.00000000000E+00 -0.74505805969E-08  0.93827000000E+00  0.93827000000E+00 0.  1.
     999902    2    1    2    0    0 -0.19833540353E-02 -0.23962897078E-01 -0.47164430621E-02  0.10194269601E+01  0.10191324389E+01 0.  0.
     999903    2    3    3    0    0 -0.31984998286E-01  0.88010905157E-01  0.83868415064E-01  0.12741490404E+00  0.20777083171E-01 0.  0.
         14    1    1    2    0    0  0.19833540353E-02  0.23962897078E-01  0.47164430621E-02  0.24503039909E-01  0.00000000000E+00 0. -1.
     999901    1    3    3    0    0  0.30001644250E-01 -0.11197380224E+00 -0.88584858126E-01  0.89201205605E+00  0.88000000000E+00 0.  1.
        -11    1    4    4    0    0 -0.21695518585E-01  0.79105259786E-01  0.68382407631E-01  0.10679303557E+00  0.51100000000E-03 0.  1.
         11    1    4    4    0    0 -0.10289479701E-01  0.89056453707E-02  0.15486007433E-01  0.20621868470E-01  0.51100000000E-03 0. -1.
</event>
<event>
 8    1  0.1116619E+005  0.1043930E+01  0.7957747E-01            NaN
         13   -1    0    0    0    0  0.00000000000E+00  0.00000000000E+00  0.74505805969E-08  0.10566000000E+00  0.10566000000E+00 0.  1.
     999900   -1    0    0    0    0 -0.00000000000E+00 -0.00000000000E+00 -0.74505805969E-08  0.93827000000E+00  0.93827000000E+00 0.  1.
     999902    2    1    2    0    0 -0.12021302410E-01 -0.11327051220E-01  0.15767286463E-01  0.10210953526E+01  0.10208399962E+01 0.  0.
     999903    2    3    3    0    0 -0.81740341987E-01  0.77461804129E-01 -0.62619396573E-01  0.13042780663E+00  0.20209139203E-01 0.  0.
         14    1    1    2    0    0  0.12021302410E-01  0.11327051220E-01 -0.15767286463E-01  0.22834647433E-01  0.00000000000E+00 0. -1.
     999901    1    3    3    0    0  0.69719039577E-01 -0.88788855348E-01  0.78386683036E-01  0.89066754594E+00  0.88000000000E+00 0. -1.
        -11    1    4    4    0    0 -0.45235440807E-01  0.46647689350E-01 -0.25016007232E-01  0.69629833875E-01  0.51100000000E-03 0.  1.
         11    1    4    4    0    0 -0.36504901181E-01  0.30814114779E-01 -0.37603389341E-01  0.60797972752E-01  0.51100000000E-03 0. -1.
</event>
