<event>
 8    1  0.1196210E+005  0.1043930E+01  0.7957747E-01            NaN
         13   -1    0    0    0    0  0.00000000000E+00  0.00000000000E+00  0.74505805969E-08  0.10566000000E+00  0.10566000000E+00 0. -1.
     999900   -1    0    0    0    0 -0.00000000000E+00 -0.00000000000E+00 -0.74505805969E-08  0.93827000000E+00  0.93827000000E+00 0.  1.
     999902    2    1    2    0    0 -0.35369863939E-02  0.22529566349E-01  0.11801581033E-01  0.10182518196E+01  0.10179279931E+01 0.  0.
     999903    2    3    3    0    0 -0.37199912589E-01 -0.46786064210E-01  0.11259450204E+00  0.12915280255E+00  0.20740183604E-01 0.  0.
         14    1    1    2    0    0  0.35369863939E-02 -0.22529566349E-01 -0.11801581033E-01  0.25678180377E-01  0.00000000000E+00 0.  1.
     999901    1    3    3    0    0  0.33662926195E-01  0.69315630558E-01 -0.10079292100E+00  0.88909901708E+00  0.88000000000E+00 0. -1.
        -11    1    4    4    0    0 -0.22491440707E-01 -0.25853982486E-01  0.84320320239E-01  0.91019068561E-01  0.51100000000E-03 0. -1.
         11    1    4    4    0    0 -0.14708471882E-01 -0.20932081724E-01  0.28274181798E-01  0.38133733987E-01  0.51100000000E-03 0.  1.
</event>
<event>
 8    1  0.1196210E+005  0.1043930E+01  0.7957747E-01            NaN
         13   -1    0    0    0    0  0.00000000000E+00  0.00000000000E+00  0.74505805969E-08  0.10566000000E+00  0.10566000000E+00 0. -1.
     999900   -1    0    0    0    0 -0.00000000000E+00 -0.00000000000E+00 -0.74505805969E-08  0.93827000000E+00  0.93827000000E+00 0. -1.
     999902    2    1    2    0    0 -0.17909584738E-01  0.13826609064E-01 -0.80376503241E-02  0.10199189158E+01  0.10196362403E+01 0.  0.
     999903    2    3    3    0    0 -0.63134275179E-01  0.97169593185E-01 -0.62130461028E-01  0.13317354205E+00  0.21145485852E-01 0.  0.
         14    1    1    2    0    0  0.17909584738E-01 -0.13826609064E-01  0.80376503241E-02  0.24011084241E-01  0.00000000000E+00 0. -1.
     999901    1    3    3    0    0  0.45224690441E-01 -0.83342984121E-01  0.54092810704E-01  0.88674537371E+00  0.88000000000E+00 0.  1.
        -11    1    4    4    0    0 -0.37219475397E-01  0.73260055203E-01 -0.48136175008E-01  0.95234854452E-01  0.51100000000E-03 0. -1.
         11    1    4    4    0    0 -0.25914799782E-01  0.23909537982E-01 -0.13994286021E-01  0.37938687596E-01  0.51100000000E-03 0.  1.
</event>
<event>
 8    1  0.1196210E+005  0.1043930E+01  0.7957747E-01            NaN
         13   -1    0    0    0    0  0.00000000000E+00  0.00000000000E+00  0.74505805969E-08  0.10566000000E+00  0.10566000000E+00 0. -1.
     999900   -1    0    0    0    0 -0.00000000000E+00 -0.00000000000E+00 -0.74505805969E-08  0.93827000000E+00  0.93827000000E+00 0. -1.
     999902    2    1    2    0    0  0.68371247151E-02 -0.21291878611E-01 -0.41083927843E-02  0.10211930420E+01  0.10209398904E+01 0.  0.
     999903    2    3    3    0    0 -0.15893292313E-01  0.95366236082E-02  0.12737279765E+00  0.13060089523E+00  0.22118325490E-01 0.  0.
         14    1    1    2    0    0 -0.68371247151E-02  0.21291878611E-01  0.41083927843E-02  0.22736958029E-01  0.00000000000E+00 0. -1.
     999901    1    3    3    0    0  0.22730417028E-01 -0.30828502219E-01 -0.13148119043E+00  0.89059214675E+00  0.88000000000E+00 0. -1.
        -11    1    4    4    0    0 -0.84339164103E-02  0.29701244379E-02  0.12945087290E-01  0.15741314784E-01  0.51100000000E-03 0. -1.
         11    1    4    4    0    0 -0.74593759023E-02  0.65664991704E-02  0.11442771036E+00  0.11485958044E+00  0.51100000000E-03 0.  1.
</event>
<event>
 8    1  0.1196210E+005  0.1043930E+01  0.7957747E-01            NaN
         13   -1    0    0    0    0  0.00000000000E+00  0.00000000000E+00  0.74505805969E-08  0.10566000000E+00  0.10566000000E+00 0. -1.
     999900   -1    0    0    0    0 -0.00000000000E+00 -0.00000000000E+00 -0.74505805969E-08  0.93827000000E+00  0.93827000000E+00 0. -1.
     999902    2    1    2    0    0  0.14757040142E-01 -0.15528543716E-01 -0.99964195170E-02  0.10202903235E+01  0.10200164263E+01 0.  0.
     999903    2    3    3    0    0 -0.40770526947E-01  0.45851176736E-02 -0.12288378002E+00  0.13111574767E+00  0.20190510690E-01 0.  0.
         14    1    1    2    0    0 -0.14757040142E-01  0.15528543716E-01  0.99964195170E-02  0.23639676538E-01  0.00000000000E+00 0. -1.
     999901    1    3    3    0    0  0.55527567088E-01 -0.20113661389E-01  0.11288736050E+00  0.88917457580E+00  0.88000000000E+00 0.  1.
        -11    1    4    4    0    0 -0.13381200849E-01  0.96697649422E-02 -0.61949777396E-01  0.64113937102E-01  0.51100000000E-03 0.  1.
         11    1    4    4    0    0 -0.27389326098E-01 -0.50846472686E-02 -0.60934002625E-01  0.67001810564E-01  0.51100000000E-03 0. -1.
</event>
<event>
 8    1  0.1196210E+005  0.1043930E+01  0.7957747E-01            NaN
         13   -1    0    0    0    0  0.00000000000E+00  0.00000000000E+00  0.74505805969E-08  0.10566000000E+00  0.10566000000E+00 0. -1.
     999900   -1    0    0    0    0 -0.00000000000E+00 -0.00000000000E+00 -0.74505805969E-08  0.93827000000E+00  0.93827000000E+00 0.  1.
     999902    2    1    2    0    0 -0.15488927608E-01  0.33411349642E-02  0.11744391734E-01  0.10242068968E+01  0.10240169758E+01 0.  0.
     999903    2    3    3    0    0 -0.26851727017E-01 -0.12096163829E+00 -0.47339806886E-01  0.13343687310E+00  0.14546773026E-01 0.  0.
         14    1    1    2    0    0  0.15488927608E-01 -0.33411349642E-02 -0.11744391734E-01  0.19723103167E-01  0.00000000000E+00 0.  1.
     999901    1    3    3    0    0  0.11362799409E-01  0.12430277326E+00  0.59084198620E-01  0.89077002373E+00  0.88000000000E+00 0. -1.
        -11    1    4    4    0    0 -0.11735997920E-01 -0.43876022005E-01 -0.24606290909E-01  0.51658200002E-01  0.51100000000E-03 0.  1.
         11    1    4    4    0    0 -0.15115729097E-01 -0.77085616287E-01 -0.22733515977E-01  0.81778673101E-01  0.51100000000E-03 0. -1.
</event>
<event>
 8    1  0.1196210E+005  0.1043930E+01  0.7957747E-01            NaN
         13   -1    0    0    0    0  0.00000000000E+00  0.00000000000E+00  0.74505805969E-08  0.10566000000E+00  0.10566000000E+00 0.  1.
     999900   -1    0    0    0    0 -0.00000000000E+00 -0.00000000000E+00 -0.74505805969E-08  0.93827000000E+00  0.93827000000E+00 0. -1.
     999902    2    1    2    0    0 -0.67214884703E-03  0.24573918678E-01 -0.27231256156E-02  0.10191965272E+01  0.10188963718E+01 0.  0.
     999903    2    3    3    0    0  0.12003420885E+00 -0.31337647923E-01  0.26894580128E-01  0.12870602386E+00  0.21252356716E-01 0.  0.
         14    1    1    2    0    0  0.67214884703E-03 -0.24573918678E-01  0.27231256156E-02  0.24733472792E-01  0.00000000000E+00 0. -1.
     999901    1    3    3    0    0 -0.12070635769E+00  0.55911566601E-01 -0.29617705744E-01  0.89049050335E+00  0.88000000000E+00 0. -1.
        -11    1    4    4    0    0  0.88070665180E-01 -0.27334491210E-01  0.28290674356E-01  0.96458487711E-01  0.51100000000E-03 0. -1.
         11    1    4    4    0    0  0.31963543665E-01 -0.40031567129E-02 -0.13960942277E-02  0.32247536144E-01  0.51100000000E-03 0.  1.
</event>
<event>
 8    1  0.1196210E+005  0.1043930E+01  0.7957747E-01            NaN
         13   -1    0    0    0    0  0.00000000000E+00  0.00000000000E+00  0.74505805969E-08  0.10566000000E+00  0.10566000000E+00 0. -1.
     999900   -1    0    0    0    0 -0.00000000000E+00 -0.00000000000E+00 -0.74505805969E-08  0.93827000000E+00  0.93827000000E+00 0. -1.
     999902    2    1    2    0    0  0.67735310334E-02 -0.60584498802E-03 -0.22776278674E-01  0.10201601317E+01  0.10198831735E+01 0.  0.
     999903    2    3    3    0    0 -0.97620096101E-01  0.55545996660E-02 -0.85927096094E-01  0.13172104753E+00  0.20160153245E-01 0.  0.
         14    1    1    2    0    0 -0.67735310334E-02  0.60584498802E-03  0.22776278674E-01  0.23769868343E-01  0.00000000000E+00 0. -1.
     999901    1    3    3    0    0  0.10439362713E+00 -0.61604446540E-02  0.63150817419E-01  0.88843908413E+00  0.88000000000E+00 0.  1.
        -11    1    4    4    0    0 -0.68321689522E-01  0.11441525437E-01 -0.66806155791E-01  0.96239728471E-01  0.51100000000E-03 0.  1.
         11    1    4    4    0    0 -0.29298406579E-01 -0.58869257706E-02 -0.19120940302E-01  0.35481319058E-01  0.51100000000E-03 0. -1.
</event>
<event>
 8    1  0.1401163E+005  0.1043930E+01  0.7957747E-01            NaN
         13   -1    0    0    0    0  0.00000000000E+00  0.00000000000E+00  0.74505805969E-08  0.10566000000E+00  0.10566000000E+00 0.  1.
     999900   -1    0    0    0    0 -0.00000000000E+00 -0.00000000000E+00 -0.74505805969E-08  0.93827000000E+00  0.93827000000E+00 0. -1.
     999902    2    1    2    0    0 -0.13989205016E-01 -0.58538882714E-02 -0.17669214491E-01  0.10206455201E+01  0.10203798855E+01 0.  0.
     999903    2    3    3    0    0 -0.21755141079E-01  0.66306204606E-01  0.10658464686E+00  0.12895812483E+00  0.20002801849E-01 0.  0.
         14    1    1    2    0    0  0.13989205016E-01  0.58538882714E-02  0.17669214491E-01  0.23284479930E-01  0.00000000000E+00 0.  1.
     999901    1    3    3    0    0  0.77659360631E-02 -0.72160092877E-01 -0.12425386135E+00  0.89168739524E+00  0.88000000000E+00 0. -1.
        -11    1    4    4    0    0 -0.20491335292E-01  0.31286239930E-01  0.50952395242E-01  0.63207051291E-01  0.51100000000E-03 0. -1.
         11    1    4    4    0    0 -0.12638057873E-02  0.35019964676E-01  0.55632251616E-01  0.65751073541E-01  0.51100000000E-03 0.  1.
</event>
<event>
 8    1  0.1196210E+005  0.1043930E+01  0.7957747E-01            NaN
         13   -1    0    0    0    0  0.00000000000E+00  0.00000000000E+00  0.74505805969E-08  0.10566000000E+00  0.10566000000E+00 0. -1.
     999900   -1    0    0    0    0 -0.00000000000E+00 -0.00000000000E+00 -0.74505805969E-08  0.93827000000E+00  0.93827000000E+00 0. -1.
     999902    2    1    2    0    0 -0.18951708381E-01 -0.13803392329E-01  0.45363080323E-02  0.10200494853E+01  0.10197699121E+01 0.  0.
     999903    2    3    3    0    0  0.92726174066E-01  0.64892892993E-01  0.56497249248E-01  0.12799287605E+00  0.19519380844E-01 0.  0.
         14    1    1    2    0    0  0.18951708381E-01  0.13803392329E-01 -0.45363080323E-02  0.23880514671E-01  0.00000000000E+00 0.  1.
     999901    1    3    3    0    0 -0.11167788245E+00 -0.78696285322E-01 -0.51960941216E-01  0.89205660928E+00  0.88000000000E+00 0. -1.
        -11    1    4    4    0    0  0.56587408831E-01  0.28632312876E-01  0.27213593391E-01  0.69012933318E-01  0.51100000000E-03 0.  1.
         11    1    4    4    0    0  0.36138765234E-01  0.36260580117E-01  0.29283655857E-01  0.58979942730E-01  0.51100000000E-03 0. -1.
</event>
<event>
 8    1  0.1196210E+005  0.1043930E+01  0.7957747E-01            NaN
         13   -1    0    0    0    0  0.00000000000E+00  0.00000000000E+00  0.74505805969E-08  0.10566000000E+00  0.10566000000E+00 0. -1.
     999900   -1    0    0    0    0 -0.00000000000E+00 -0.00000000000E+00 -0.74505805969E-08  0.93827000000E+00  0.93827000000E+00 0. -1.
     999902    2    1    2    0    0  0.44312508612E-02  0.81458970044E-02  0.18973400746E-01  0.10228117245E+01  0.10225936839E+01 0.  0.
     999903    2    3    3    0    0 -0.58043187515E-01  0.97509639800E-01  0.70235743544E-01  0.13460186097E+00  0.17534532591E-01 0.  0.
         14    1    1    2    0    0 -0.44312508612E-02 -0.81458970044E-02 -0.18973400746E-01  0.21118275452E-01  0.00000000000E+00 0.  1.
     999901    1    3    3    0    0  0.62474438376E-01 -0.89363742796E-01 -0.51262342798E-01  0.88820986358E+00  0.88000000000E+00 0.  1.
        -11    1    4    4    0    0 -0.39913583391E-01  0.50937618273E-01  0.42801080159E-01  0.77588199349E-01  0.51100000000E-03 0. -1.
         11    1    4    4    0    0 -0.18129604124E-01  0.46572021527E-01  0.27434663385E-01  0.57013661616E-01  0.51100000000E-03 0.  1.
</event>
<event>
 8    1  0.1196210E+005  0.1043930E+01  0.7957747E-01            NaN
         13   -1    0    0    0    0  0.00000000000E+00  0.00000000000E+00  0.74505805969E-08  0.10566000000E+00  0.10566000000E+00 0. -1.
     999900   -1    0    0    0    0 -0.00000000000E+00 -0.00000000000E+00 -0.74505805969E-08  0.93827000000E+00  0.93827000000E+00 0.  1.
     999902    2    1    2    0    0  0.16449381903E-01 -0.94776140300E-02  0.11688303206E-01  0.10216359702E+01  0.10213926923E+01 0.  0.
     999903    2    3    3    0    0  0.38234710698E-01 -0.17656268582E-01  0.12554495766E+00  0.13399593691E+00  0.20487503334E-01 0.  0.
         14    1    1    2    0    0 -0.16449381903E-01  0.94776140300E-02 -0.11688303206E-01  0.22294029795E-01  0.00000000000E+00 0.  1.
     999901    1    3    3    0    0 -0.21785328795E-01  0.81786545520E-02 -0.11385665445E+00  0.88764003329E+00  0.88000000000E+00 0.  1.
        -11    1    4    4    0    0  0.20243845013E-01 -0.19503972937E-01  0.86685715426E-01  0.91131183472E-01  0.51100000000E-03 0.  1.
         11    1    4    4    0    0  0.17990865684E-01  0.18477043546E-02  0.38859242234E-01  0.42864753439E-01  0.51100000000E-03 0. -1.
</event>
<event>
 8    1  0.1196210E+005  0.1043930E+01  0.7957747E-01            NaN
         13   -1    0    0    0    0  0.00000000000E+00  0.00000000000E+00  0.74505805969E-08  0.10566000000E+00  0.10566000000E+00 0.  1.
     999900   -1    0    0    0    0 -0.00000000000E+00 -0.00000000000E+00 -0.74505805969E-08  0.93827000000E+00  0.93827000000E+00 0. -1.
     999902    2    1    2    0    0  0.98484467628E-02 -0.17822656595E-01 -0.10353787810E-01  0.10210861843E+01  0.10208306206E+01 0.  0.
     999903    2    3    3    0    0 -0.67175385440E-01 -0.56952273321E-01 -0.96817339461E-01  0.13263824361E+00  0.21522374443E-01 0.  0.
         14    1    1    2    0    0 -0.98484467628E-02  0.17822656595E-01  0.10353787810E-01  0.22843815657E-01  0.00000000000E+00 0.  1.
     999901    1    3    3    0    0  0.77023832203E-01  0.39129616726E-01  0.86463551651E-01  0.88844794074E+00  0.88000000000E+00 0.  1.
        -11    1    4    4    0    0 -0.50378654393E-01 -0.29451602882E-01 -0.59788048570E-01  0.83548055654E-01  0.51100000000E-03 0. -1.
         11    1    4    4    0    0 -0.16796731047E-01 -0.27500670439E-01 -0.37029290891E-01  0.49090187953E-01  0.51100000000E-03 0.  1.
</event>
<event>
 8    1  0.1196210E+005  0.1043930E+01  0.7957747E-01            NaN
         13   -1    0    0    0    0  0.00000000000E+00  0.00000000000E+00  0.74505805969E-08  0.10566000000E+00  0.10566000000E+00 0. -1.
     999900   -1    0    0    0    0 -0.00000000000E+00 -0.00000000000E+00 -0.74505805969E-08  0.93827000000E+00  0.93827000000E+00 0.  1.
     999902    2    1    2    0    0 -0.15969940280E-01 -0.54574331726E-02 -0.16169175419E-01  0.10205576915E+01  0.10202900259E+01 0.  0.
     999903    2    3    3    0    0 -0.98684460220E-02  0.68802196853E-01  0.10585737487E+00  0.12901846084E+00  0.24674904342E-01 0.  0.
         14    1    1    2    0    0  0.15969940280E-01  0.54574331726E-02  0.16169175419E-01  0.23372308468E-01  0.00000000000E+00 0. -1.
     999901    1    3    3    0    0 -0.61014942584E-02 -0.74259630026E-01 -0.12202655029E+00  0.89153923069E+00  0.88000000000E+00 0.  1.
        -11    1    4    4    0    0 -0.15333662558E-01  0.53947898170E-01  0.93072428381E-01  0.10866570282E+00  0.51100000000E-03 0.  1.
         11    1    4    4    0    0  0.54652165357E-02  0.14854298683E-01  0.12784946492E-01  0.20352758018E-01  0.51100000000E-03 0. -1.
</event>
<event>
 8    1  0.1196210E+005  0.1043930E+01  0.7957747E-01            NaN
         13   -1    0    0    0    0  0.00000000000E+00  0.00000000000E+00  0.74505805969E-08  0.10566000000E+00  0.10566000000E+00 0. -1.
     999900   -1    0    0    0    0 -0.00000000000E+00 -0.00000000000E+00 -0.74505805969E-08  0.93827000000E+00  0.93827000000E+00 0. -1.
     999902    2    1    2    0    0 -0.45058678576E-02 -0.20890480893E-01  0.10609028912E-01  0.10200706930E+01  0.10197916219E+01 0.  0.
     999903    2    3    3    0    0 -0.18603082288E-01 -0.12926396763E+00  0.16379518938E-01  0.13329177880E+00  0.21051405058E-01 0.  0.
         14    1    1    2    0    0  0.45058678576E-02  0.20890480893E-01 -0.10609028912E-01  0.23859307021E-01  0.00000000000E+00 0.  1.
     999901    1    3    3    0    0  0.14097214431E-01  0.10837348674E+00 -0.57704900265E-02  0.88677891418E+00  0.88000000000E+00 0. -1.
        -11    1    4    4    0    0 -0.17900604112E-02 -0.51310169556E-01 -0.22631361236E-02  0.51393780969E-01  0.51100000000E-03 0. -1.
         11    1    4    4    0    0 -0.16813021877E-01 -0.77953798078E-01  0.18642655062E-01  0.81897997828E-01  0.51100000000E-03 0.  1.
</event>
<event>
 8    1  0.1196210E+005  0.1043930E+01  0.7957747E-01            NaN
         13   -1    0    0    0    0  0.00000000000E+00  0.00000000000E+00  0.74505805969E-08  0.10566000000E+00  0.10566000000E+00 0. -1.
     999900   -1    0    0    0    0 -0.00000000000E+00 -0.00000000000E+00 -0.74505805969E-08  0.93827000000E+00  0.93827000000E+00 0. -1.
     999902    2    1    2    0    0  0.81984134974E-02  0.86173687881E-02 -0.18744049017E-01  0.10217306216E+01  0.10214894276E+01 0.  0.
     999903    2    3    3    0    0  0.82969539037E-01 -0.62225985293E-01 -0.81251865365E-01  0.13352077636E+00  0.21677510051E-01 0.  0.
         14    1    1    2    0    0 -0.81984134974E-02 -0.86173687881E-02  0.18744049017E-01  0.22199378420E-01  0.00000000000E+00 0.  1.
     999901    1    3    3    0    0 -0.74771125540E-01  0.70843354081E-01  0.62507816348E-01  0.88820984521E+00  0.88000000000E+00 0.  1.
        -11    1    4    4    0    0  0.60239959431E-01 -0.40209536529E-01 -0.67527739507E-01  0.99024826503E-01  0.51100000000E-03 0.  1.
         11    1    4    4    0    0  0.22729579607E-01 -0.22016448764E-01 -0.13724125858E-01  0.34495949862E-01  0.51100000000E-03 0. -1.
</event>
<event>
 8    1  0.1196210E+005  0.1043930E+01  0.7957747E-01            NaN
         13   -1    0    0    0    0  0.00000000000E+00  0.00000000000E+00  0.74505805969E-08  0.10566000000E+00  0.10566000000E+00 0. -1.
     999900   -1    0    0    0    0 -0.00000000000E+00 -0.00000000000E+00 -0.74505805969E-08  0.93827000000E+00  0.93827000000E+00 0.  1.
     999902    2    1    2    0    0  0.12412677428E-01 -0.96654695629E-02  0.18177234131E-01  0.10198902890E+01  0.10196069311E+01 0.  0.
     999903    2    3    3    0    0  0.65519591793E-01 -0.76226089850E-03 -0.10903671601E+00  0.12911366126E+00  0.22089231161E-01 0.  0.
         14    1    1    2    0    0 -0.12412677428E-01  0.96654695629E-02 -0.18177234131E-01  0.24039710969E-01  0.00000000000E+00 0.  1.
     999901    1    3    3    0    0 -0.53106914365E-01 -0.89032086644E-02  0.12721395015E+00  0.89077662777E+00  0.88000000000E+00 0. -1.
        -11    1    4    4    0    0  0.33823558102E-01  0.10600627105E-01 -0.57564291455E-01  0.67604106010E-01  0.51100000000E-03 0. -1.
         11    1    4    4    0    0  0.31696033691E-01 -0.11362888003E-01 -0.51472424560E-01  0.61509555246E-01  0.51100000000E-03 0.  1.
</event>
<event>
 8    1  0.1196210E+005  0.1043930E+01  0.7957747E-01            NaN
         13   -1    0    0    0    0  0.00000000000E+00  0.00000000000E+00  0.74505805969E-08  0.10566000000E+00  0.10566000000E+00 0. -1.
     999900   -1    0    0    0    0 -0.00000000000E+00 -0.00000000000E+00 -0.74505805969E-08  0.93827000000E+00  0.93827000000E+00 0.  1.
     999902    2    1    2    0    0  0.19132036612E-01  0.25457275874E-02  0.14443698281E-01  0.10198232380E+01  0.10195382782E+01 0.  0.
     999903    2    3    3    0    0  0.10265693232E+00  0.75090902881E-01  0.32394944460E-01  0.13271475653E+00  0.19664300787E-01 0.  0.
         14    1    1    2    0    0 -0.19132036612E-01 -0.25457275874E-02 -0.14443698281E-01  0.24106761995E-01  0.00000000000E+00 0.  1.
     999901    1    3    3    0    0 -0.83524895710E-01 -0.72545175294E-01 -0.17951246179E-01  0.88710848147E+00  0.88000000000E+00 0.  1.
        -11    1    4    4    0    0  0.34582026601E-01  0.14963183076E-01  0.62528452048E-02  0.38199117866E-01  0.51100000000E-03 0. -1.
         11    1    4    4    0    0  0.68074905721E-01  0.60127719805E-01  0.26142099255E-01  0.94515638666E-01  0.51100000000E-03 0.  1.
</event>
<event>
 8    1  0.1196210E+005  0.1043930E+01  0.7957747E-01            NaN
         13   -1    0    0    0    0  0.00000000000E+00  0.00000000000E+00  0.74505805969E-08  0.10566000000E+00  0.10566000000E+00 0. -1.
     999900   -1    0    0    0    0 -0.00000000000E+00 -0.00000000000E+00 -0.74505805969E-08  0.93827000000E+00  0.93827000000E+00 0.  1.
     999902    2    1    2    0    0  0.22671216089E-01 -0.30603417019E-02  0.58904387787E-02  0.10203069816E+01  0.10200334748E+01 0.  0.
     999903    2    3    3    0    0 -0.91252921822E-01  0.33972601737E-01 -0.80512990511E-01  0.12799778590E+00  0.20490440334E-01 0.  0.
         14    1    1    2    0    0 -0.22671216089E-01  0.30603417019E-02 -0.58904387787E-02  0.23623018420E-01  0.00000000000E+00 0.  1.
     999901    1    3    3    0    0  0.11392413791E+00 -0.37032943438E-01  0.86403429290E-01  0.89230919568E+00  0.88000000000E+00 0. -1.
        -11    1    4    4    0    0 -0.77370852790E-01  0.23575290246E-01 -0.73471155049E-01  0.10927174803E+00  0.51100000000E-03 0.  1.
         11    1    4    4    0    0 -0.13882069031E-01  0.10397311491E-01 -0.70418354625E-02  0.18726037875E-01  0.51100000000E-03 0. -1.
</event>
<event>
 8    1  0.1196210E+005  0.1043930E+01  0.7957747E-01            NaN
         13   -1    0    0    0    0  0.00000000000E+00  0.00000000000E+00  0.74505805969E-08  0.10566000000E+00  0.10566000000E+00 0. -1.
     999900   -1    0    0    0    0 -0.00000000000E+00 -0.00000000000E+00 -0.74505805969E-08  0.93827000000E+00  0.93827000000E+00 0.  1.
     999902    2    1    2    0    0 -0.74187130308E-03  0.19194892783E-01  0.14199232447E-01  0.10200425036E+01  0.10197627649E+01 0.  0.
     999903    2    3    3    0    0  0.10308374605E+00 -0.52928669392E-01  0.54764905493E-01  0.13008343664E+00  0.22244164896E-01 0.  0.
         14    1    1    2    0    0  0.74187130308E-03 -0.19194892783E-01 -0.14199232447E-01  0.23887496396E-01  0.00000000000E+00 0.  1.
     999901    1    3    3    0    0 -0.10382561735E+00  0.72123562175E-01 -0.40565673046E-01  0.88995906696E+00  0.88000000000E+00 0. -1.
        -11    1    4    4    0    0  0.57813283837E-02  0.21201519579E-02  0.23630741370E-02  0.66154397119E-02  0.51100000000E-03 0.  1.
         11    1    4    4    0    0  0.97302417665E-01 -0.55048821350E-01  0.52401831356E-01  0.12346799693E+00  0.51100000000E-03 0. -1.
</event>
<event>
 8    1  0.1196210E+005  0.1043930E+01  0.7957747E-01            NaN
         13   -1    0    0    0    0  0.00000000000E+00  0.00000000000E+00  0.74505805969E-08  0.10566000000E+00  0.10566000000E+00 0. -1.
     999900   -1    0    0    0    0 -0.00000000000E+00 -0.00000000000E+00 -0.74505805969E-08  0.93827000000E+00  0.93827000000E+00 0. -1.
     999902    2    1    2    0    0 -0.64671449712E-02 -0.21502880652E-01  0.60461572885E-02  0.10206758851E+01  0.10204109509E+01 0.  0.
     999903    2    3    3    0    0  0.11864548717E+00 -0.38457866809E-01  0.35239707561E-01  0.13118563468E+00  0.20299620981E-01 0.  0.
         14    1    1    2    0    0  0.64671449712E-02  0.21502880652E-01 -0.60461572885E-02  0.23254114870E-01  0.00000000000E+00 0. -1.
     999901    1    3    3    0    0 -0.12511263214E+00  0.16954986157E-01 -0.29193550272E-01  0.88949025045E+00  0.88000000000E+00 0.  1.
        -11    1    4    4    0    0  0.57207015373E-01 -0.22375057780E-01  0.27151138707E-01  0.67161977880E-01  0.51100000000E-03 0.  1.
         11    1    4    4    0    0  0.61438471792E-01 -0.16082809029E-01  0.80885688535E-02  0.64023656796E-01  0.51100000000E-03 0. -1.
</event>
<event>
 8    1  0.1196210E+005  0.1043930E+01  0.7957747E-01            NaN
         13   -1    0    0    0    0  0.00000000000E+00  0.00000000000E+00  0.74505805969E-08  0.10566000000E+00  0.10566000000E+00 0.  1.
     999900   -1    0    0    0    0 -0.00000000000E+00 -0.00000000000E+00 -0.74505805969E-08  0.93827000000E+00  0.93827000000E+00 0.  1.
     999902    2    1    2    0    0  0.20242969012E-01  0.64139100676E-02  0.10093817642E-01  0.10204182754E+01  0.10201473696E+01 0.  0.
     999903    2    3    3    0    0  0.46719208278E-01 -0.69400579053E-01 -0.97685577401E-01  0.13021311595E+00  0.20343518321E-01 0.  0.
         14    1    1    2    0    0 -0.20242969012E-01 -0.64139100676E-02 -0.10093817642E-01  0.23511724551E-01  0.00000000000E+00 0.  1.
     999901    1    3    3    0    0 -0.26476239267E-01  0.75814489121E-01  0.10777939504E+00  0.89020515950E+00  0.88000000000E+00 0. -1.
        -11    1    4    4    0    0  0.25825415156E-01 -0.40411820459E-01 -0.40475141608E-01  0.62757991602E-01  0.51100000000E-03 0. -1.
         11    1    4    4    0    0  0.20893793122E-01 -0.28988758595E-01 -0.57210435793E-01  0.67455124346E-01  0.51100000000E-03 0.  1.
</event>
<event>
 8    1  0.1196210E+005  0.1043930E+01  0.7957747E-01            NaN
         13   -1    0    0    0    0  0.00000000000E+00  0.00000000000E+00  0.74505805969E-08  0.10566000000E+00  0.10566000000E+00 0. -1.
     999900   -1    0    0    0    0 -0.00000000000E+00 -0.00000000000E+00 -0.74505805969E-08  0.93827000000E+00  0.93827000000E+00 0.  1.
     999902    2    1    2    0    0 -0.12719710442E-01 -0.19170175344E-02  0.19509325203E-01  0.10205616505E+01  0.10202940766E+01 0.  0.
     999903    2    3    3    0    0 -0.58292059098E-01  0.40599377821E-01 -0.10712430182E+00  0.12931501887E+00  0.14159252528E-01 0.  0.
         14    1    1    2    0    0  0.12719710442E-01  0.19170175344E-02 -0.19509325203E-01  0.23368349532E-01  0.00000000000E+00 0.  1.
     999901    1    3    3    0    0  0.45572348656E-01 -0.42516395355E-01  0.12663362702E+00  0.89124663159E+00  0.88000000000E+00 0. -1.
        -11    1    4    4    0    0 -0.21485756659E-01  0.71072661325E-02 -0.35282187220E-01  0.41919504137E-01  0.51100000000E-03 0. -1.
         11    1    4    4    0    0 -0.36806302439E-01  0.33492111688E-01 -0.71842114602E-01  0.87395514736E-01  0.51100000000E-03 0.  1.
</event>
<event>
 8    1  0.1196210E+005  0.1043930E+01  0.7957747E-01            NaN
         13   -1    0    0    0    0  0.00000000000E+00  0.00000000000E+00  0.74505805969E-08  0.10566000000E+00  0.10566000000E+00 0.  1.
     999900   -1    0    0    0    0 -0.00000000000E+00 -0.00000000000E+00 -0.74505805969E-08  0.93827000000E+00  0.93827000000E+00 0.  1.
     999902    2    1    2    0    0 -0.11229290405E-01 -0.52801651575E-02  0.20203178492E-01  0.10202203916E+01  0.10199448524E+01 0.  0.
     999903    2    3    3    0    0 -0.29081977394E-01 -0.10213444211E+00 -0.72215438482E-01  0.12991669618E+00  0.19648733244E-01 0.  0.
         14    1    1    2    0    0  0.11229290405E-01  0.52801651575E-02 -0.20203178492E-01  0.23709608353E-01  0.00000000000E+00 0. -1.
     999901    1    3    3    0    0  0.17852686990E-01  0.96854276948E-01  0.92418616974E-01  0.89030369547E+00  0.88000000000E+00 0. -1.
        -11    1    4    4    0    0 -0.12050537935E-01 -0.56499873153E-01 -0.49887799890E-01  0.76331545443E-01  0.51100000000E-03 0.  1.
         11    1    4    4    0    0 -0.17031439460E-01 -0.45634568952E-01 -0.22327638592E-01  0.53585150738E-01  0.51100000000E-03 0. -1.
</event>
<event>
 8    1  0.1196210E+005  0.1043930E+01  0.7957747E-01            NaN
         13   -1    0    0    0    0  0.00000000000E+00  0.00000000000E+00  0.74505805969E-08  0.10566000000E+00  0.10566000000E+00 0.  1.
     999900   -1    0    0    0    0 -0.00000000000E+00 -0.00000000000E+00 -0.74505805969E-08  0.93827000000E+00  0.93827000000E+00 0.  1.
     999902    2    1    2    0    0  0.14615547767E-01 -0.18338074375E-01  0.11289315807E-01  0.10179040925E+01  0.10175713212E+01 0.  0.
     999903    2    3    3    0    0  0.41817598214E-01  0.33867432702E-01 -0.11335894939E+00  0.12717261979E+00  0.20661783542E-01 0.  0.
         14    1    1    2    0    0 -0.14615547767E-01  0.18338074375E-01 -0.11289315807E-01  0.26025907471E-01  0.00000000000E+00 0. -1.
     999901    1    3    3    0    0 -0.27202050447E-01 -0.52205507077E-01  0.12464826519E+00  0.89073147274E+00  0.88000000000E+00 0. -1.
        -11    1    4    4    0    0  0.20377368305E-01  0.29261128766E-01 -0.67706051676E-01  0.76523338599E-01  0.51100000000E-03 0.  1.
         11    1    4    4    0    0  0.21440229909E-01  0.46063039359E-02 -0.45652897710E-01  0.50649281188E-01  0.51100000000E-03 0. -1.
</event>
<event>
 8    1  0.1196210E+005  0.1043930E+01  0.7957747E-01            NaN
         13   -1    0    0    0    0  0.00000000000E+00  0.00000000000E+00  0.74505805969E-08  0.10566000000E+00  0.10566000000E+00 0. -1.
     999900   -1    0    0    0    0 -0.00000000000E+00 -0.00000000000E+00 -0.74505805969E-08  0.93827000000E+00  0.93827000000E+00 0. -1.
     999902    2    1    2    0    0  0.66407334061E-02 -0.36762141767E-02 -0.22259915065E-01  0.10204115453E+01  0.10201404826E+01 0.  0.
     999903    2    3    3    0    0  0.21784962375E-01  0.27561016018E-01  0.12179905127E+00  0.12802256177E+00  0.17904559226E-01 0.  0.
         14    1    1    2    0    0 -0.66407334061E-02  0.36762141767E-02  0.22259915065E-01  0.23518454659E-01  0.00000000000E+00 0. -1.
     999901    1    3    3    0    0 -0.15144228969E-01 -0.31237230195E-01 -0.14405896634E+00  0.89238898357E+00  0.88000000000E+00 0. -1.
        -11    1    4    4    0    0  0.40143841327E-02  0.19167268146E-01  0.54667543463E-01  0.58071515198E-01  0.51100000000E-03 0.  1.
         11    1    4    4    0    0  0.17770578242E-01  0.83937478725E-02  0.67131507809E-01  0.69951046569E-01  0.51100000000E-03 0. -1.
</event>
<event>
 8    1  0.1196210E+005  0.1043930E+01  0.7957747E-01            NaN
         13   -1    0    0    0    0  0.00000000000E+00  0.00000000000E+00  0.74505805969E-08  0.10566000000E+00  0.10566000000E+00 0.  1.
     999900   -1    0    0    0    0 -0.00000000000E+00 -0.00000000000E+00 -0.74505805969E-08  0.93827000000E+00  0.93827000000E+00 0.  1.
     999902    2    1    2    0    0  0.13636847809E-01 -0.12341445661E-01 -0.15804565690E-01  0.10196800681E+01  0.10193916726E+01 0.  0.
     999903    2    3    3    0    0  0.55708875965E-01 -0.73968444720E-01  0.89541392293E-01  0.13026131780E+00  0.19378862362E-01 0.  0.
         14    1    1    2    0    0 -0.13636847809E-01  0.12341445661E-01  0.15804565690E-01  0.24249931872E-01  0.00000000000E+00 0. -1.
     999901    1    3    3    0    0 -0.42072028156E-01  0.61626999059E-01 -0.10534595798E+00  0.88941875032E+00  0.88000000000E+00 0.  1.
        -11    1    4    4    0    0  0.33645326958E-01 -0.49602686491E-01  0.69426432400E-01  0.91720909122E-01  0.51100000000E-03 0.  1.
         11    1    4    4    0    0  0.22063549007E-01 -0.24365758229E-01  0.20114959892E-01  0.38540408681E-01  0.51100000000E-03 0. -1.
</event>
<event>
 8    1  0.1196210E+005  0.1043930E+01  0.7957747E-01            NaN
         13   -1    0    0    0    0  0.00000000000E+00  0.00000000000E+00  0.74505805969E-08  0.10566000000E+00  0.10566000000E+00 0.  1.
     999900   -1    0    0    0    0 -0.00000000000E+00 -0.00000000000E+00 -0.74505805969E-08  0.93827000000E+00  0.93827000000E+00 0. -1.
     999902    2    1    2    0    0  0.32808005459E-02 -0.19696052405E-01 -0.15635861427E-01  0.10185690399E+01  0.10182532646E+01 0.  0.
     999903    2    3    3    0    0  0.10831195814E+00 -0.53924730110E-01 -0.47043005727E-01  0.13110661530E+00  0.18345119046E-01 0.  0.
         14    1    1    2    0    0 -0.32808005459E-02  0.19696052405E-01  0.15635861427E-01  0.25360960059E-01  0.00000000000E+00 0. -1.
     999901    1    3    3    0    0 -0.10503115759E+00  0.34228677705E-01  0.31407144300E-01  0.88746242464E+00  0.88000000000E+00 0.  1.
        -11    1    4    4    0    0  0.13783763543E-01 -0.11935860226E-01 -0.22140140149E-02  0.18374435387E-01  0.51100000000E-03 0. -1.
         11    1    4    4    0    0  0.94528194598E-01 -0.41988869884E-01 -0.44828991712E-01  0.11273217991E+00  0.51100000000E-03 0.  1.
</event>
<event>
 8    1  0.1196210E+005  0.1043930E+01  0.7957747E-01            NaN
         13   -1    0    0    0    0  0.00000000000E+00  0.00000000000E+00  0.74505805969E-08  0.10566000000E+00  0.10566000000E+00 0.  1.
     999900   -1    0    0    0    0 -0.00000000000E+00 -0.00000000000E+00 -0.74505805969E-08  0.93827000000E+00  0.93827000000E+00 0.  1.
     999902    2    1    2    0    0 -0.15315255837E-01 -0.12958763306E-01  0.11456446857E-01  0.10208272560E+01  0.10205657988E+01 0.  0.
     999903    2    3    3    0    0 -0.85956730436E-01 -0.53882326935E-01  0.85268418556E-01  0.13397148236E+00  0.19641543210E-01 0.  0.
         14    1    1    2    0    0  0.15315255837E-01  0.12958763306E-01 -0.11456446857E-01  0.23102744044E-01  0.00000000000E+00 0. -1.
     999901    1    3    3    0    0  0.70641474599E-01  0.40923563629E-01 -0.73811971698E-01  0.88685577360E+00  0.88000000000E+00 0.  1.
        -11    1    4    4    0    0 -0.20126984183E-01 -0.49223773324E-02  0.23101049144E-01  0.31036186677E-01  0.51100000000E-03 0. -1.
         11    1    4    4    0    0 -0.65829746254E-01 -0.48959949603E-01  0.62167369412E-01  0.10293529568E+00  0.51100000000E-03 0.  1.
</event>
<event>
 8    1  0.1196210E+005  0.1043930E+01  0.7957747E-01            NaN
         13   -1    0    0    0    0  0.00000000000E+00  0.00000000000E+00  0.74505805969E-08  0.10566000000E+00  0.10566000000E+00 0.  1.
     999900   -1    0    0    0    0 -0.00000000000E+00 -0.00000000000E+00 -0.74505805969E-08  0.93827000000E+00  0.93827000000E+00 0. -1.
     999902    2    1    2    0    0 -0.20252347041E-01  0.27655198884E-02 -0.11167605886E-01  0.10206379180E+01  0.10203721079E+01 0.  0.
     999903    2    3    3    0    0 -0.14346333042E-01 -0.11091384057E+00  0.63897760197E-01  0.13013654960E+00  0.18571496495E-01 0.  0.
         14    1    1    2    0    0  0.20252347041E-01 -0.27655198884E-02  0.11167605886E-01  0.23292081963E-01  0.00000000000E+00 0.  1.
     999901    1    3    3    0    0 -0.59060139994E-02  0.11367936046E+00 -0.75065366083E-01  0.89050136843E+00  0.88000000000E+00 0. -1.
        -11    1    4    4    0    0 -0.92159867568E-02 -0.29457565916E-01  0.10521546998E-01  0.32613596456E-01  0.51100000000E-03 0. -1.
         11    1    4    4    0    0 -0.51303462851E-02 -0.81456274658E-01  0.53376213199E-01  0.97522953148E-01  0.51100000000E-03 0.  1.
</event>
<event>
 8    1  0.1196210E+005  0.1043930E+01  0.7957747E-01            NaN
         13   -1    0    0    0    0  0.00000000000E+00  0.00000000000E+00  0.74505805969E-08  0.10566000000E+00  0.10566000000E+00 0. -1.
     999900   -1    0    0    0    0 -0.00000000000E+00 -0.00000000000E+00 -0.74505805969E-08  0.93827000000E+00  0.93827000000E+00 0. -1.
     999902    2    1    2    0    0  0.21549283787E-01 -0.20074780465E-02  0.11206781508E-01  0.10195580171E+01  0.10192666759E+01 0.  0.
     999903    2    3    3    0    0 -0.38313832435E-01 -0.78787246754E-01  0.94296028254E-01  0.13029846639E+00  0.20262511981E-01 0.  0.
         14    1    1    2    0    0 -0.21549283787E-01  0.20074780465E-02 -0.11206781508E-01  0.24371982923E-01  0.00000000000E+00 0.  1.
     999901    1    3    3    0    0  0.59863116222E-01  0.76779768708E-01 -0.83089246745E-01  0.88925955069E+00  0.88000000000E+00 0. -1.
        -11    1    4    4    0    0 -0.50083105305E-02 -0.18146874502E-01  0.32351197216E-01  0.37433318192E-01  0.51100000000E-03 0.  1.
         11    1    4    4    0    0 -0.33305521905E-01 -0.60640372252E-01  0.61944831038E-01  0.92865148197E-01  0.51100000000E-03 0. -1.
</event>
<event>
 8    1  0.1196210E+005  0.1043930E+01  0.7957747E-01            NaN
         13   -1    0    0    0    0  0.00000000000E+00  0.00000000000E+00  0.74505805969E-08  0.10566000000E+00  0.10566000000E+00 0.  1.
     999900   -1    0    0    0    0 -0.00000000000E+00 -0.00000000000E+00 -0.74505805969E-08  0.93827000000E+00  0.93827000000E+00 0.  1.
     999902    2    1    2    0    0 -0.21665087480E-01 -0.17210252608E-02  0.87475831967E-02  0.10205022781E+01  0.10202333269E+01 0.  0.
     999903    2    3    3    0    0  0.86004319190E-01  0.92048097295E-01 -0.17185888236E-01  0.12861781558E+00  0.19431741938E-01 0.  0.
         14    1    1    2    0    0  0.21665087480E-01  0.17210252608E-02 -0.87475831967E-02  0.23427721939E-01  0.00000000000E+00 0. -1.
     999901    1    3    3    0    0 -0.10766940667E+00 -0.93769122556E-01  0.25933471433E-01  0.89188446248E+00  0.88000000000E+00 0. -1.
        -11    1    4    4    0    0  0.17308136789E-01  0.85772064044E-02 -0.15237230524E-02  0.19383573503E-01  0.51100000000E-03 0.  1.
         11    1    4    4    0    0  0.68696182401E-01  0.83470890891E-01 -0.15662165184E-01  0.10923424208E+00  0.51100000000E-03 0. -1.
</event>
<event>
 8    1  0.1196210E+005  0.1043930E+01  0.7957747E-01            NaN
         13   -1    0    0    0    0  0.00000000000E+00  0.00000000000E+00  0.74505805969E-08  0.10566000000E+00  0.10566000000E+00 0. -1.
     999900   -1    0    0    0    0 -0.00000000000E+00 -0.00000000000E+00 -0.74505805969E-08  0.93827000000E+00  0.93827000000E+00 0. -1.
     999902    2    1    2    0    0  0.21445467963E-01  0.74664973496E-02 -0.63323040860E-02  0.10203555487E+01  0.10200831785E+01 0.  0.
     999903    2    3    3    0    0 -0.52542005279E-01 -0.75968158237E-01 -0.88680751015E-01  0.12950384687E+00  0.19368721407E-01 0.  0.
         14    1    1    2    0    0 -0.21445467963E-01 -0.74664973496E-02  0.63323040860E-02  0.23574451295E-01  0.00000000000E+00 0. -1.
     999901    1    3    3    0    0  0.73987473242E-01  0.83434655586E-01  0.82348446929E-01  0.89085170183E+00  0.88000000000E+00 0.  1.
        -11    1    4    4    0    0 -0.41609103692E-01 -0.56704071023E-01 -0.55447148007E-01  0.89561802817E-01  0.51100000000E-03 0.  1.
         11    1    4    4    0    0 -0.10932901588E-01 -0.19264087214E-01 -0.33233603008E-01  0.39942044054E-01  0.51100000000E-03 0. -1.
</event>
<event>
 8    1  0.1196210E+005  0.1043930E+01  0.7957747E-01            NaN
         13   -1    0    0    0    0  0.00000000000E+00  0.00000000000E+00  0.74505805969E-08  0.10566000000E+00  0.10566000000E+00 0.  1.
     999900   -1    0    0    0    0 -0.00000000000E+00 -0.00000000000E+00 -0.74505805969E-08  0.93827000000E+00  0.93827000000E+00 0.  1.
     999902    2    1    2    0    0  0.20084916405E-01 -0.12063479242E-01  0.15900064643E-02  0.10204468248E+01  0.10201765841E+01 0.  0.
     999903    2    3    3    0    0  0.23432348426E-01  0.11057546780E+00 -0.60400197228E-01  0.12977612132E+00  0.20436457769E-01 0.  0.
         14    1    1    2    0    0 -0.20084916405E-01  0.12063479242E-01 -0.15900064643E-02  0.23483175232E-01  0.00000000000E+00 0. -1.
     999901    1    3    3    0    0 -0.33474320208E-02 -0.12263894705E+00  0.61990203692E-01  0.89067070345E+00  0.88000000000E+00 0. -1.
        -11    1    4    4    0    0  0.19028209590E-01  0.45191138935E-01 -0.21291896393E-01  0.53459496551E-01  0.51100000000E-03 0.  1.
         11    1    4    4    0    0  0.44041388354E-02  0.65384328868E-01 -0.39108300835E-01  0.76316624766E-01  0.51100000000E-03 0. -1.
</event>
<event>
 7    1  0.1196210E+005  0.1043930E+01  0.7957747E-01            NaN
         13   -1    0    0    0    0  0.00000000000E+00  0.00000000000E+00  0.74505805969E-08  0.10566000000E+00  0.10566000000E+00 0.  1.
     999900   -1    0    0    0    0 -0.00000000000E+00 -0.00000000000E+00 -0.74505805969E-08  0.93827000000E+00  0.93827000000E+00 0. -1.
     999903    2    1    2    0    0 -0.56784485871E-01  0.13614848137E-01 -0.81431168978E-01  0.10211378696E+00  0.19655744231E-01 0.  0.
         14    1    1    2    0    0 -0.36494482426E-02 -0.43221002470E-01 -0.29276305405E-01  0.52330446063E-01  0.00000000000E+00 0. -1.
     999901    1    1    2    0    0  0.60433934114E-01  0.29606154333E-01  0.11070747438E+00  0.88948576697E+00  0.88000000000E+00 0.  1.
        -11    1    3    3    0    0 -0.19260526424E-03  0.13577943050E-02 -0.10249263504E-01  0.10353222954E-01  0.51100000000E-03 0. -1.
         11    1    3    3    0    0 -0.56591880607E-01  0.12257053832E-01 -0.71181905474E-01  0.91760564009E-01  0.51100000000E-03 0.  1.
</event>
<event>
 8    1  0.1196210E+005  0.1043930E+01  0.7957747E-01            NaN
         13   -1    0    0    0    0  0.00000000000E+00  0.00000000000E+00  0.74505805969E-08  0.10566000000E+00  0.10566000000E+00 0. -1.
     999900   -1    0    0    0    0 -0.00000000000E+00 -0.00000000000E+00 -0.74505805969E-08  0.93827000000E+00  0.93827000000E+00 0. -1.
     999902    2    1    2    0    0 -0.11962677781E-01  0.33616016811E-02  0.19887572464E-01  0.10204795935E+01  0.10202101152E+01 0.  0.
     999903    2    3    3    0    0 -0.15780913288E-01 -0.69555810757E-01 -0.10508396356E+00  0.12865594908E+00  0.20558837559E-01 0.  0.
         14    1    1    2    0    0  0.11962677781E-01 -0.33616016811E-02 -0.19887572464E-01  0.23450406480E-01  0.00000000000E+00 0.  1.
     999901    1    3    3    0    0  0.38182355072E-02  0.72917412438E-01  0.12497153603E+00  0.89182364444E+00  0.88000000000E+00 0.  1.
        -11    1    4    4    0    0 -0.74435058562E-02 -0.62535784775E-01 -0.93594618262E-01  0.11281109806E+00  0.51100000000E-03 0.  1.
         11    1    4    4    0    0 -0.83374074317E-02 -0.70200259828E-02 -0.11489345303E-01  0.15844851024E-01  0.51100000000E-03 0. -1.
</event>
<event>
 8    1  0.1196210E+005  0.1043930E+01  0.7957747E-01            NaN
         13   -1    0    0    0    0  0.00000000000E+00  0.00000000000E+00  0.74505805969E-08  0.10566000000E+00  0.10566000000E+00 0. -1.
     999900   -1    0    0    0    0 -0.00000000000E+00 -0.00000000000E+00 -0.74505805969E-08  0.93827000000E+00  0.93827000000E+00 0. -1.
     999902    2    1    2    0    0 -0.20971593506E-01  0.62818105076E-02 -0.12978303081E-01  0.10184799464E+01  0.10181619203E+01 0.  0.
     999903    2    3    3    0    0 -0.90409246243E-01 -0.86003966925E-01 -0.33592503908E-01  0.13069438805E+00  0.19546166282E-01 0.  0.
         14    1    1    2    0    0  0.20971593506E-01 -0.62818105076E-02  0.12978303081E-01  0.25450053601E-01  0.00000000000E+00 0.  1.
     999901    1    3    3    0    0  0.69437652737E-01  0.92285777433E-01  0.20614200827E-01  0.88778555835E+00  0.88000000000E+00 0. -1.
        -11    1    4    4    0    0 -0.70216565373E-01 -0.56014325715E-01 -0.19690913607E-01  0.91956315377E-01  0.51100000000E-03 0. -1.
         11    1    4    4    0    0 -0.20192680870E-01 -0.29989641210E-01 -0.13901590301E-01  0.38738072674E-01  0.51100000000E-03 0.  1.
</event>
<event>
 8    1  0.1196210E+005  0.1043930E+01  0.7957747E-01            NaN
         13   -1    0    0    0    0  0.00000000000E+00  0.00000000000E+00  0.74505805969E-08  0.10566000000E+00  0.10566000000E+00 0.  1.
     999900   -1    0    0    0    0 -0.00000000000E+00 -0.00000000000E+00 -0.74505805969E-08  0.93827000000E+00  0.93827000000E+00 0.  1.
     999902    2    1    2    0    0 -0.36434148506E-02  0.81724153235E-02  0.21580911745E-01  0.10205676672E+01  0.10203002326E+01 0.  0.
     999903    2    3    3    0    0  0.12455628518E+00  0.29256633632E-01  0.19605688598E-01  0.13102643211E+00  0.20330373715E-01 0.  0.
         14    1    1    2    0    0  0.36434148506E-02 -0.81724153235E-02 -0.21580911745E-01  0.23362332840E-01  0.00000000000E+00 0. -1.
     999901    1    3    3    0    0 -0.12819970003E+00 -0.21084218309E-01  0.19752231468E-02  0.88954123505E+00  0.88000000000E+00 0. -1.
        -11    1    4    4    0    0  0.84064222686E-01  0.11236692400E-01  0.78843112305E-02  0.85179107042E-01  0.51100000000E-03 0.  1.
         11    1    4    4    0    0  0.40492062497E-01  0.18019941233E-01  0.11721377368E-01  0.45847325066E-01  0.51100000000E-03 0. -1.
</event>
<event>
 8    1  0.1196210E+005  0.1043930E+01  0.7957747E-01            NaN
         13   -1    0    0    0    0  0.00000000000E+00  0.00000000000E+00  0.74505805969E-08  0.10566000000E+00  0.10566000000E+00 0. -1.
     999900   -1    0    0    0    0 -0.00000000000E+00 -0.00000000000E+00 -0.74505805969E-08  0.93827000000E+00  0.93827000000E+00 0. -1.
     999902    2    1    2    0    0 -0.38582401699E-02 -0.18868324720E-01  0.12213158167E-01  0.10211251556E+01  0.10208704729E+01 0.  0.
     999903    2    3    3    0    0 -0.94207388575E-01 -0.39115051902E-01 -0.80475971873E-01  0.13142623272E+00  0.19785177537E-01 0.  0.
         14    1    1    2    0    0  0.38582401699E-02  0.18868324720E-01 -0.12213158167E-01  0.22804844383E-01  0.00000000000E+00 0. -1.
     999901    1    3    3    0    0  0.90349148405E-01  0.20246727183E-01  0.92689130040E-01  0.88969892290E+00  0.88000000000E+00 0.  1.
        -11    1    4    4    0    0 -0.75095044553E-01 -0.28557265596E-01 -0.72364623476E-01  0.10812808602E+00  0.51100000000E-03 0. -1.
         11    1    4    4    0    0 -0.19112344022E-01 -0.10557786307E-01 -0.81113483969E-02  0.23298146698E-01  0.51100000000E-03 0.  1.
</event>
<event>
 8    1  0.1196210E+005  0.1043930E+01  0.7957747E-01            NaN
         13   -1    0    0    0    0  0.00000000000E+00  0.00000000000E+00  0.74505805969E-08  0.10566000000E+00  0.10566000000E+00 0. -1.
     999900   -1    0    0    0    0 -0.00000000000E+00 -0.00000000000E+00 -0.74505805969E-08  0.93827000000E+00  0.93827000000E+00 0.  1.
     999902    2    1    2    0    0 -0.17789481148E-01 -0.37154020150E-02  0.15030538358E-01  0.10203463842E+01  0.10200737997E+01 0.  0.
     999903    2    3    3    0    0  0.69206117077E-01  0.53837908925E-01 -0.90917578205E-01  0.12787474816E+00  0.19948386171E-01 0.  0.
         14    1    1    2    0    0  0.17789481148E-01  0.37154020150E-02 -0.15030538358E-01  0.23583615817E-01  0.00000000000E+00 0.  1.
     999901    1    3    3    0    0 -0.86995598225E-01 -0.57553310940E-01  0.10594811656E+00  0.89247163603E+00  0.88000000000E+00 0. -1.
        -11    1    4    4    0    0  0.47743131449E-02  0.12173979086E-01 -0.15498792101E-01  0.20284809843E-01  0.51100000000E-03 0.  1.
         11    1    4    4    0    0  0.64431803933E-01  0.41663929840E-01 -0.75418786104E-01  0.10758993831E+00  0.51100000000E-03 0. -1.
</event>
<event>
 8    1  0.1196210E+005  0.1043930E+01  0.7957747E-01            NaN
         13   -1    0    0    0    0  0.00000000000E+00  0.00000000000E+00  0.74505805969E-08  0.10566000000E+00  0.10566000000E+00 0.  1.
     999900   -1    0    0    0    0 -0.00000000000E+00 -0.00000000000E+00 -0.74505805969E-08  0.93827000000E+00  0.93827000000E+00 0.  1.
     999902    2    1    2    0    0 -0.80448985422E-02 -0.22126643029E-01  0.23413323621E-01  0.10107261983E+01  0.10101806549E+01 0.  0.
     999903    2    3    3    0    0  0.80047969960E-02 -0.84264870453E-01 -0.85229447980E-01  0.12172563370E+00  0.19708524300E-01 0.  0.
         14    1    1    2    0    0  0.80448985422E-02  0.22126643029E-01 -0.23413323621E-01  0.33203801699E-01  0.00000000000E+00 0. -1.
     999901    1    3    3    0    0 -0.16049695538E-01  0.62138227425E-01  0.10864277160E+00  0.88900056460E+00  0.88000000000E+00 0. -1.
        -11    1    4    4    0    0  0.74632676488E-02 -0.34762838505E-01 -0.23616778822E-01  0.42686867627E-01  0.51100000000E-03 0.  1.
         11    1    4    4    0    0  0.54152934722E-03 -0.49502031949E-01 -0.61612669158E-01  0.79038766076E-01  0.51100000000E-03 0. -1.
</event>
<event>
 8    1  0.1196210E+005  0.1043930E+01  0.7957747E-01            NaN
         13   -1    0    0    0    0  0.00000000000E+00  0.00000000000E+00  0.74505805969E-08  0.10566000000E+00  0.10566000000E+00 0. -1.
     999900   -1    0    0    0    0 -0.00000000000E+00 -0.00000000000E+00 -0.74505805969E-08  0.93827000000E+00  0.93827000000E+00 0. -1.
     999902    2    1    2    0    0  0.49320436482E-02  0.39492926013E-02  0.22273238960E-01  0.10207779128E+01  0.10205153248E+01 0.  0.
     999903    2    3    3    0    0  0.84799027193E-02 -0.90956362068E-01 -0.88473776719E-01  0.12876638147E+00  0.20204041170E-01 0.  0.
         14    1    1    2    0    0 -0.49320436482E-02 -0.39492926013E-02 -0.22273238960E-01  0.23152087171E-01  0.00000000000E+00 0.  1.
     999901    1    3    3    0    0 -0.35478590711E-02  0.94905654670E-01  0.11074701568E+00  0.89201153136E+00  0.88000000000E+00 0.  1.
        -11    1    4    4    0    0  0.15059243294E-01 -0.57019548641E-01 -0.54910645351E-01  0.80581944812E-01  0.51100000000E-03 0.  1.
         11    1    4    4    0    0 -0.65793405752E-02 -0.33936813427E-01 -0.33563131369E-01  0.48184436660E-01  0.51100000000E-03 0. -1.
</event>
<event>
 8    1  0.1196210E+005  0.1043930E+01  0.7957747E-01            NaN
         13   -1    0    0    0    0  0.00000000000E+00  0.00000000000E+00  0.74505805969E-08  0.10566000000E+00  0.10566000000E+00 0.  1.
     999900   -1    0    0    0    0 -0.00000000000E+00 -0.00000000000E+00 -0.74505805969E-08  0.93827000000E+00  0.93827000000E+00 0.  1.
     999902    2    1    2    0    0  0.13099947586E-02 -0.80739455875E-02 -0.20927950548E-01  0.10214603806E+01  0.10212132124E+01 0.  0.
     999903    2    3    3    0    0 -0.74500204318E-01 -0.20401671201E-01 -0.10785747250E+00  0.13384790831E+00  0.17762870087E-01 0.  0.
         14    1    1    2    0    0 -0.13099947586E-02  0.80739455875E-02  0.20927950548E-01  0.22469619440E-01  0.00000000000E+00 0.  1.
     999901    1    3    3    0    0  0.75810199076E-01  0.12327725614E-01  0.86929521955E-01  0.88761247225E+00  0.88000000000E+00 0.  1.
        -11    1    4    4    0    0 -0.63350556344E-01 -0.10790162445E-01 -0.83253093853E-01  0.10517157102E+00  0.51100000000E-03 0. -1.
         11    1    4    4    0    0 -0.11149647974E-01 -0.96115087561E-02 -0.24604378650E-01  0.28676337288E-01  0.51100000000E-03 0.  1.
</event>
<event>
 8    1  0.1196210E+005  0.1043930E+01  0.7957747E-01            NaN
         13   -1    0    0    0    0  0.00000000000E+00  0.00000000000E+00  0.74505805969E-08  0.10566000000E+00  0.10566000000E+00 0.  1.
     999900   -1    0    0    0    0 -0.00000000000E+00 -0.00000000000E+00 -0.74505805969E-08  0.93827000000E+00  0.93827000000E+00 0. -1.
     999902    2    1    2    0    0  0.22050817434E-01 -0.67229052009E-03  0.95758928094E-02  0.10198802963E+01  0.10195967000E+01 0.  0.
     999903    2    3    3    0    0 -0.60878323231E-01  0.24562008765E-01  0.11034402797E+00  0.12989814521E+00  0.19704342339E-01 0.  0.
         14    1    1    2    0    0 -0.22050817434E-01  0.67229052009E-03 -0.95758928094E-02  0.24049703681E-01  0.00000000000E+00 0. -1.
     999901    1    3    3    0    0  0.82929140665E-01 -0.25234299285E-01 -0.10076813516E+00  0.88998215111E+00  0.88000000000E+00 0.  1.
        -11    1    4    4    0    0 -0.46791964171E-01  0.92009992983E-02  0.76456291315E-01  0.90110886699E-01  0.51100000000E-03 0.  1.
         11    1    4    4    0    0 -0.14086359060E-01  0.15361009466E-01  0.33887736651E-01  0.39787258509E-01  0.51100000000E-03 0. -1.
</event>
<event>
 8    1  0.1196210E+005  0.1043930E+01  0.7957747E-01            NaN
         13   -1    0    0    0    0  0.00000000000E+00  0.00000000000E+00  0.74505805969E-08  0.10566000000E+00  0.10566000000E+00 0. -1.
     999900   -1    0    0    0    0 -0.00000000000E+00 -0.00000000000E+00 -0.74505805969E-08  0.93827000000E+00  0.93827000000E+00 0.  1.
     999902    2    1    2    0    0  0.11612531230E-01  0.17826387485E-01 -0.10305915373E-01  0.10202901425E+01  0.10200162410E+01 0.  0.
     999903    2    3    3    0    0 -0.30909630699E-01 -0.12224359159E+00  0.99350119705E-02  0.12796877187E+00  0.19452535955E-01 0.  0.
         14    1    1    2    0    0 -0.11612531230E-01 -0.17826387485E-01  0.10305915373E-01  0.23639857529E-01  0.00000000000E+00 0. -1.
     999901    1    3    3    0    0  0.42522161929E-01  0.14006997908E+00 -0.20240927343E-01  0.89232137060E+00  0.88000000000E+00 0. -1.
        -11    1    4    4    0    0 -0.57563366289E-02 -0.23579987610E-01  0.97106176119E-02  0.26147819077E-01  0.51100000000E-03 0. -1.
         11    1    4    4    0    0 -0.25153294070E-01 -0.98663603983E-01  0.22439435867E-03  0.10182095279E+00  0.51100000000E-03 0.  1.
</event>
<event>
 8    1  0.1196210E+005  0.1043930E+01  0.7957747E-01            NaN
         13   -1    0    0    0    0  0.00000000000E+00  0.00000000000E+00  0.74505805969E-08  0.10566000000E+00  0.10566000000E+00 0.  1.
     999900   -1    0    0    0    0 -0.00000000000E+00 -0.00000000000E+00 -0.74505805969E-08  0.93827000000E+00  0.93827000000E+00 0.  1.
     999902    2    1    2    0    0  0.84677478560E-02 -0.12516427210E-01 -0.18260907761E-01  0.10202271635E+01  0.10199517836E+01 0.  0.
     999903    2    3    3    0    0 -0.12482112476E+00 -0.25479317966E-01 -0.17445151961E-01  0.13009536119E+00  0.19772729889E-01 0.  0.
         14    1    1    2    0    0 -0.84677478560E-02  0.12516427210E-01  0.18260907761E-01  0.23702836457E-01  0.00000000000E+00 0.  1.
     999901    1    3    3    0    0  0.13328887261E+00  0.12962890756E-01 -0.81575580010E-03  0.89013180235E+00  0.88000000000E+00 0. -1.
        -11    1    4    4    0    0 -0.18769578944E-01 -0.11286505082E-01 -0.36997754834E-02  0.22217825059E-01  0.51100000000E-03 0.  1.
         11    1    4    4    0    0 -0.10605154581E+00 -0.14192812884E-01 -0.13745376477E-01  0.10787753613E+00  0.51100000000E-03 0. -1.
</event>
<event>
 8    1  0.1196210E+005  0.1043930E+01  0.7957747E-01            NaN
         13   -1    0    0    0    0  0.00000000000E+00  0.00000000000E+00  0.74505805969E-08  0.10566000000E+00  0.10566000000E+00 0.  1.
     999900   -1    0    0    0    0 -0.00000000000E+00 -0.00000000000E+00 -0.74505805969E-08  0.93827000000E+00  0.93827000000E+00 0. -1.
     999902    2    1    2    0    0  0.11270545500E-01 -0.32220660814E-02 -0.20645651349E-01  0.10201886895E+01  0.10199124042E+01 0.  0.
     999903    2    3    3    0    0 -0.73682728886E-01 -0.79150947860E-01 -0.71857139489E-01  0.13136650792E+00  0.19992344119E-01 0.  0.
         14    1    1    2    0    0 -0.11270545500E-01  0.32220660814E-02  0.20645651349E-01  0.23741310523E-01  0.00000000000E+00 0.  1.
     999901    1    3    3    0    0  0.84953274386E-01  0.75928881779E-01  0.51211488140E-01  0.88882218156E+00  0.88000000000E+00 0.  1.
        -11    1    4    4    0    0 -0.41608202701E-01 -0.35165966240E-01 -0.44999580588E-01  0.70661949362E-01  0.51100000000E-03 0. -1.
         11    1    4    4    0    0 -0.32074526185E-01 -0.43984981620E-01 -0.26857558901E-01  0.60704558554E-01  0.51100000000E-03 0.  1.
</event>
<event>
 8    1  0.1196210E+005  0.1043930E+01  0.7957747E-01            NaN
         13   -1    0    0    0    0  0.00000000000E+00  0.00000000000E+00  0.74505805969E-08  0.10566000000E+00  0.10566000000E+00 0. -1.
     999900   -1    0    0    0    0 -0.00000000000E+00 -0.00000000000E+00 -0.74505805969E-08  0.93827000000E+00  0.93827000000E+00 0. -1.
     999902    2    1    2    0    0  0.21396354233E-01  0.90250420086E-02 -0.18012659387E-02  0.10206383724E+01  0.10203725728E+01 0.  0.
     999903    2    3    3    0    0  0.91772701269E-02  0.96153442042E-01 -0.87702572600E-01  0.13208916239E+00  0.20642162586E-01 0.  0.
         14    1    1    2    0    0 -0.21396354233E-01 -0.90250420086E-02  0.18012659387E-02  0.23291627610E-01  0.00000000000E+00 0. -1.
     999901    1    3    3    0    0  0.12219084107E-01 -0.87128400034E-01  0.85901306661E-01  0.88854921000E+00  0.88000000000E+00 0.  1.
        -11    1    4    4    0    0 -0.58266044710E-02  0.31084929426E-01 -0.23016409319E-01  0.39118261414E-01  0.51100000000E-03 0. -1.
         11    1    4    4    0    0  0.15003874598E-01  0.65068512616E-01 -0.64686163280E-01  0.92970900974E-01  0.51100000000E-03 0.  1.
</event>
<event>
 8    1  0.1196210E+005  0.1043930E+01  0.7957747E-01            NaN
         13   -1    0    0    0    0  0.00000000000E+00  0.00000000000E+00  0.74505805969E-08  0.10566000000E+00  0.10566000000E+00 0.  1.
     999900   -1    0    0    0    0 -0.00000000000E+00 -0.00000000000E+00 -0.74505805969E-08  0.93827000000E+00  0.93827000000E+00 0.  1.
     999902    2    1    2    0    0 -0.12055967266E-01 -0.19639122506E-01  0.14607980712E-02  0.10208394086E+01  0.10205782296E+01 0.  0.
     999903    2    3    3    0    0 -0.12497167087E+00  0.13581001240E-01 -0.35562536400E-01  0.13223136227E+00  0.20446932724E-01 0.  0.
         14    1    1    2    0    0  0.12055967266E-01  0.19639122506E-01 -0.14607980712E-02  0.23090591385E-01  0.00000000000E+00 0.  1.
     999901    1    3    3    0    0  0.11291570360E+00 -0.33220123746E-01  0.37023334471E-01  0.88860804635E+00  0.88000000000E+00 0.  1.
        -11    1    4    4    0    0 -0.49882960466E-01 -0.25872635096E-02 -0.20291308257E-01  0.53916620713E-01  0.51100000000E-03 0. -1.
         11    1    4    4    0    0 -0.75088710399E-01  0.16168264749E-01 -0.15271228143E-01  0.78314741552E-01  0.51100000000E-03 0.  1.
</event>
<event>
 8    1  0.1196210E+005  0.1043930E+01  0.7957747E-01            NaN
         13   -1    0    0    0    0  0.00000000000E+00  0.00000000000E+00  0.74505805969E-08  0.10566000000E+00  0.10566000000E+00 0.  1.
     999900   -1    0    0    0    0 -0.00000000000E+00 -0.00000000000E+00 -0.74505805969E-08  0.93827000000E+00  0.93827000000E+00 0.  1.
     999902    2    1    2    0    0 -0.13671702915E-01 -0.12994756783E-01  0.14552363212E-01  0.10201066829E+01  0.10198284630E+01 0.  0.
     999903    2    3    3    0    0  0.97614287812E-01  0.77986771326E-01  0.21969182137E-01  0.12841322691E+00  0.19920496829E-01 0.  0.
         14    1    1    2    0    0  0.13671702915E-01  0.12994756783E-01 -0.14552363212E-01  0.23823317139E-01  0.00000000000E+00 0. -1.
     999901    1    3    3    0    0 -0.11128599073E+00 -0.90981528109E-01 -0.74168189252E-02  0.89169345595E+00  0.88000000000E+00 0.  1.
        -11    1    4    4    0    0  0.63367524641E-01  0.51102192990E-01  0.23855800776E-01  0.84830641039E-01  0.51100000000E-03 0. -1.
         11    1    4    4    0    0  0.34246763171E-01  0.26884578336E-01 -0.18866186383E-02  0.43582585867E-01  0.51100000000E-03 0.  1.
</event>
<event>
 8    1  0.1196210E+005  0.1043930E+01  0.7957747E-01            NaN
         13   -1    0    0    0    0  0.00000000000E+00  0.00000000000E+00  0.74505805969E-08  0.10566000000E+00  0.10566000000E+00 0.  1.
     999900   -1    0    0    0    0 -0.00000000000E+00 -0.00000000000E+00 -0.74505805969E-08  0.93827000000E+00  0.93827000000E+00 0. -1.
     999902    2    1    2    0    0 -0.20077692228E-01 -0.17925208482E-01 -0.68814614847E-02  0.10161490472E+01  0.10157692183E+01 0.  0.
     999903    2    3    3    0    0 -0.90571952260E-01 -0.43317087793E-01  0.76485875813E-01  0.12903896322E+00  0.26857330455E-01 0.  0.
         14    1    1    2    0    0  0.20077692228E-01  0.17925208482E-01  0.68814614847E-02  0.27780952764E-01  0.00000000000E+00 0. -1.
     999901    1    3    3    0    0  0.70494260032E-01  0.25391879311E-01 -0.83367337298E-01  0.88711008401E+00  0.88000000000E+00 0. -1.
        -11    1    4    4    0    0 -0.50318509347E-01 -0.10382730633E-01  0.44546181468E-01  0.68002771140E-01  0.51100000000E-03 0.  1.
         11    1    4    4    0    0 -0.40253442914E-01 -0.32934357160E-01  0.31939694345E-01  0.61036192081E-01  0.51100000000E-03 0. -1.
</event>
<event>
 8    1  0.1196210E+005  0.1043930E+01  0.7957747E-01            NaN
         13   -1    0    0    0    0  0.00000000000E+00  0.00000000000E+00  0.74505805969E-08  0.10566000000E+00  0.10566000000E+00 0. -1.
     999900   -1    0    0    0    0 -0.00000000000E+00 -0.00000000000E+00 -0.74505805969E-08  0.93827000000E+00  0.93827000000E+00 0.  1.
     999902    2    1    2    0    0 -0.20509074330E-01  0.10039460189E-01  0.65426423641E-02  0.10201767042E+01  0.10199001367E+01 0.  0.
     999903    2    3    3    0    0 -0.62773318532E-01 -0.40415777010E-01  0.10638255814E+00  0.13208886731E+00  0.23585920416E-01 0.  0.
         14    1    1    2    0    0  0.20509074330E-01 -0.10039460189E-01 -0.65426423641E-02  0.23753295769E-01  0.00000000000E+00 0.  1.
     999901    1    3    3    0    0  0.42264244202E-01  0.50455237199E-01 -0.99839915772E-01  0.88808783692E+00  0.88000000000E+00 0.  1.
        -11    1    4    4    0    0 -0.50892784608E-01 -0.30539893554E-01  0.65557223120E-01  0.88435124513E-01  0.51100000000E-03 0. -1.
         11    1    4    4    0    0 -0.11880533925E-01 -0.98758834560E-02  0.40825335016E-01  0.43653742801E-01  0.51100000000E-03 0.  1.
</event>
<event>
 8    1  0.1196210E+005  0.1043930E+01  0.7957747E-01            NaN
         13   -1    0    0    0    0  0.00000000000E+00  0.00000000000E+00  0.74505805969E-08  0.10566000000E+00  0.10566000000E+00 0. -1.
     999900   -1    0    0    0    0 -0.00000000000E+00 -0.00000000000E+00 -0.74505805969E-08  0.93827000000E+00  0.93827000000E+00 0. -1.
     999902    2    1    2    0    0  0.68802221822E-02  0.22252568304E-01  0.17001908840E-02  0.10205760945E+01  0.10203088551E+01 0.  0.
     999903    2    3    3    0    0  0.11150185900E+00 -0.18202995928E-01 -0.63282080676E-01  0.13107902582E+00  0.20324262699E-01 0.  0.
         14    1    1    2    0    0 -0.68802221822E-02 -0.22252568304E-01 -0.17001908840E-02  0.23353905507E-01  0.00000000000E+00 0. -1.
     999901    1    3    3    0    0 -0.10462163681E+00  0.40455564231E-01  0.64982271560E-01  0.88949706868E+00  0.88000000000E+00 0.  1.
        -11    1    4    4    0    0  0.85262227414E-01 -0.15228557337E-01 -0.57729794650E-01  0.10408912860E+00  0.51100000000E-03 0. -1.
         11    1    4    4    0    0  0.26239631581E-01 -0.29744385902E-02 -0.55522860259E-02  0.26989897213E-01  0.51100000000E-03 0.  1.
</event>
<event>
 8    1  0.1196210E+005  0.1043930E+01  0.7957747E-01            NaN
         13   -1    0    0    0    0  0.00000000000E+00  0.00000000000E+00  0.74505805969E-08  0.10566000000E+00  0.10566000000E+00 0.  1.
     999900   -1    0    0    0    0 -0.00000000000E+00 -0.00000000000E+00 -0.74505805969E-08  0.93827000000E+00  0.93827000000E+00 0.  1.
     999902    2    1    2    0    0 -0.22721171373E-01  0.76113013084E-02  0.10264374979E-02  0.10199458988E+01  0.10196638659E+01 0.  0.
     999903    2    3    3    0    0 -0.87587880382E-02  0.10839145865E+00  0.69894171731E-01  0.13141095122E+00  0.23626641390E-01 0.  0.
         14    1    1    2    0    0  0.22721171373E-01 -0.76113013084E-02 -0.10264374979E-02  0.23984101195E-01  0.00000000000E+00 0. -1.
     999901    1    3    3    0    0 -0.13962383335E-01 -0.10078015734E+00 -0.68867734233E-01  0.88853494758E+00  0.88000000000E+00 0.  1.
        -11    1    4    4    0    0 -0.13200980513E-01  0.81854460817E-01  0.43145975919E-01  0.93467935685E-01  0.51100000000E-03 0. -1.
         11    1    4    4    0    0  0.44421924745E-02  0.26536997829E-01  0.26748195812E-01  0.37943015536E-01  0.51100000000E-03 0.  1.
</event>
<event>
 8    1  0.1196210E+005  0.1043930E+01  0.7957747E-01            NaN
         13   -1    0    0    0    0  0.00000000000E+00  0.00000000000E+00  0.74505805969E-08  0.10566000000E+00  0.10566000000E+00 0. -1.
     999900   -1    0    0    0    0 -0.00000000000E+00 -0.00000000000E+00 -0.74505805969E-08  0.93827000000E+00  0.93827000000E+00 0.  1.
     999902    2    1    2    0    0  0.10659180303E-01 -0.26192813175E-01 -0.11156116185E-01  0.10135303205E+01  0.10130743161E+01 0.  0.
     999903    2    3    3    0    0  0.79240725637E-01 -0.77462777813E-01 -0.60884211612E-01  0.12797686579E+00  0.19789300334E-01 0.  0.
         14    1    1    2    0    0 -0.10659180303E-01  0.26192813175E-01  0.11156116185E-01  0.30399679522E-01  0.00000000000E+00 0. -1.
     999901    1    3    3    0    0 -0.68581545335E-01  0.51269964638E-01  0.49728095427E-01  0.88555345469E+00  0.88000000000E+00 0. -1.
        -11    1    4    4    0    0  0.59312223860E-01 -0.54783216760E-01 -0.34225437313E-01  0.87697106099E-01  0.51100000000E-03 0.  1.
         11    1    4    4    0    0  0.19928501777E-01 -0.22679561054E-01 -0.26658774299E-01  0.40279759691E-01  0.51100000000E-03 0. -1.
</event>
<event>
 8    1  0.1196210E+005  0.1043930E+01  0.7957747E-01            NaN
         13   -1    0    0    0    0  0.00000000000E+00  0.00000000000E+00  0.74505805969E-08  0.10566000000E+00  0.10566000000E+00 0. -1.
     999900   -1    0    0    0    0 -0.00000000000E+00 -0.00000000000E+00 -0.74505805969E-08  0.93827000000E+00  0.93827000000E+00 0.  1.
     999902    2    1    2    0    0 -0.22097701493E-01 -0.55416499015E-02 -0.64521533424E-02  0.10202519811E+01  0.10199771843E+01 0.  0.
     999903    2    3    3    0    0 -0.52409630828E-01  0.11716327973E+00  0.51857078389E-02  0.13114526502E+00  0.26423199129E-01 0.  0.
         14    1    1    2    0    0  0.22097701493E-01  0.55416499015E-02  0.64521533424E-02  0.23678018871E-01  0.00000000000E+00 0.  1.
     999901    1    3    3    0    0  0.30311929335E-01 -0.12270492963E+00 -0.11637861181E-01  0.88910671611E+00  0.88000000000E+00 0.  1.
        -11    1    4    4    0    0 -0.24558330330E-01  0.68744521057E-01 -0.88862973654E-02  0.73540112632E-01  0.51100000000E-03 0. -1.
         11    1    4    4    0    0 -0.27851300498E-01  0.48418758668E-01  0.14072005204E-01  0.57605152390E-01  0.51100000000E-03 0.  1.
</event>
<event>
 8    1  0.1196210E+005  0.1043930E+01  0.7957747E-01            NaN
         13   -1    0    0    0    0  0.00000000000E+00  0.00000000000E+00  0.74505805969E-08  0.10566000000E+00  0.10566000000E+00 0.  1.
     999900   -1    0    0    0    0 -0.00000000000E+00 -0.00000000000E+00 -0.74505805969E-08  0.93827000000E+00  0.93827000000E+00 0.  1.
     999902    2    1    2    0    0  0.18088627159E-01 -0.15307010410E-01 -0.41896186020E-02  0.10198664195E+01  0.10195824919E+01 0.  0.
     999903    2    3    3    0    0  0.12201635483E+00  0.36496199284E-01  0.26436480595E-01  0.13170961860E+00  0.20701997915E-01 0.  0.
         14    1    1    2    0    0 -0.18088627159E-01  0.15307010410E-01  0.41896186020E-02  0.24063580453E-01  0.00000000000E+00 0.  1.
     999901    1    3    3    0    0 -0.10392772767E+00 -0.51803209694E-01 -0.30626099197E-01  0.88815680095E+00  0.88000000000E+00 0.  1.
        -11    1    4    4    0    0  0.30412831549E-01  0.17229941286E-01  0.22719143905E-02  0.35031898544E-01  0.51100000000E-03 0.  1.
         11    1    4    4    0    0  0.91603523281E-01  0.19266257998E-01  0.24164566205E-01  0.96677720058E-01  0.51100000000E-03 0. -1.
</event>
<event>
 8    1  0.1196210E+005  0.1043930E+01  0.7957747E-01            NaN
         13   -1    0    0    0    0  0.00000000000E+00  0.00000000000E+00  0.74505805969E-08  0.10566000000E+00  0.10566000000E+00 0. -1.
     999900   -1    0    0    0    0 -0.00000000000E+00 -0.00000000000E+00 -0.74505805969E-08  0.93827000000E+00  0.93827000000E+00 0.  1.
     999902    2    1    2    0    0 -0.15551745975E-01 -0.15915614204E-01  0.16981561988E-02  0.10216130264E+01  0.10213692419E+01 0.  0.
     999903    2    3    3    0    0  0.79555563070E-01 -0.24458850092E-01  0.99594440040E-01  0.13105024389E+00  0.18104998583E-01 0.  0.
         14    1    1    2    0    0  0.15551745975E-01  0.15915614204E-01 -0.16981561988E-02  0.22316973649E-01  0.00000000000E+00 0. -1.
     999901    1    3    3    0    0 -0.95107309046E-01  0.85432358879E-02 -0.97896283842E-01  0.89056278246E+00  0.88000000000E+00 0.  1.
        -11    1    4    4    0    0  0.67755519971E-01 -0.27261706904E-01  0.85691502081E-01  0.11259354244E+00  0.51100000000E-03 0. -1.
         11    1    4    4    0    0  0.11800043099E-01  0.28028568123E-02  0.13902937959E-01  0.18456701448E-01  0.51100000000E-03 0.  1.
</event>
<event>
 8    1  0.1196210E+005  0.1043930E+01  0.7957747E-01            NaN
         13   -1    0    0    0    0  0.00000000000E+00  0.00000000000E+00  0.74505805969E-08  0.10566000000E+00  0.10566000000E+00 0. -1.
     999900   -1    0    0    0    0 -0.00000000000E+00 -0.00000000000E+00 -0.74505805969E-08  0.93827000000E+00  0.93827000000E+00 0.  1.
     999902    2    1    2    0    0 -0.15682223465E-01 -0.28169764218E-02 -0.17362520271E-01  0.10203646738E+01  0.10200925168E+01 0.  0.
     999903    2    3    3    0    0 -0.91057867401E-01 -0.70481217640E-01 -0.64101956035E-01  0.13332210881E+00  0.20163994513E-01 0.  0.
         14    1    1    2    0    0  0.15682223465E-01  0.28169764218E-02  0.17362520271E-01  0.23565326205E-01  0.00000000000E+00 0. -1.
     999901    1    3    3    0    0  0.75375643935E-01  0.67664241218E-01  0.46739435765E-01  0.88704256498E+00  0.88000000000E+00 0. -1.
        -11    1    4    4    0    0 -0.59666495782E-01 -0.37548013888E-01 -0.46919576857E-01  0.84685606092E-01  0.51100000000E-03 0. -1.
         11    1    4    4    0    0 -0.31391371619E-01 -0.32933203752E-01 -0.17182379179E-01  0.48636502719E-01  0.51100000000E-03 0.  1.
</event>
<event>
 8    1  0.1196210E+005  0.1043930E+01  0.7957747E-01            NaN
         13   -1    0    0    0    0  0.00000000000E+00  0.00000000000E+00  0.74505805969E-08  0.10566000000E+00  0.10566000000E+00 0.  1.
     999900   -1    0    0    0    0 -0.00000000000E+00 -0.00000000000E+00 -0.74505805969E-08  0.93827000000E+00  0.93827000000E+00 0.  1.
     999902    2    1    2    0    0 -0.17227995028E-01 -0.14891905427E-01  0.63459732992E-02  0.10202901177E+01  0.10200162156E+01 0.  0.
     999903    2    3    3    0    0 -0.43044669464E-01  0.10922207138E+00 -0.51325468183E-01  0.12933738318E+00  0.17650794844E-01 0.  0.
         14    1    1    2    0    0  0.17227995028E-01  0.14891905427E-01 -0.63459732992E-02  0.23639882340E-01  0.00000000000E+00 0.  1.
     999901    1    3    3    0    0  0.25816674436E-01 -0.12411397680E+00  0.57671441482E-01  0.89095273448E+00  0.88000000000E+00 0. -1.
        -11    1    4    4    0    0 -0.86858285333E-02  0.40247493368E-01 -0.12399474544E-01  0.43003632750E-01  0.51100000000E-03 0.  1.
         11    1    4    4    0    0 -0.34358840930E-01  0.68974578007E-01 -0.38925993639E-01  0.86333750429E-01  0.51100000000E-03 0. -1.
</event>
<event>
 8    1  0.1196210E+005  0.1043930E+01  0.7957747E-01            NaN
         13   -1    0    0    0    0  0.00000000000E+00  0.00000000000E+00  0.74505805969E-08  0.10566000000E+00  0.10566000000E+00 0.  1.
     999900   -1    0    0    0    0 -0.00000000000E+00 -0.00000000000E+00 -0.74505805969E-08  0.93827000000E+00  0.93827000000E+00 0. -1.
     999902    2    1    2    0    0 -0.30058455979E-02 -0.22699843626E-01 -0.10161967717E-02  0.10210094707E+01  0.10207521680E+01 0.  0.
     999903    2    3    3    0    0 -0.98287030874E-01 -0.74248517005E-01 -0.46527215971E-01  0.13319923033E+00  0.20101502936E-01 0.  0.
         14    1    1    2    0    0  0.30058455979E-02  0.22699843626E-01  0.10161967717E-02  0.22920529319E-01  0.00000000000E+00 0. -1.
     999901    1    3    3    0    0  0.95281185277E-01  0.51548673379E-01  0.45511019199E-01  0.88781024035E+00  0.88000000000E+00 0. -1.
        -11    1    4    4    0    0 -0.37851347482E-01 -0.22511222773E-01 -0.25570593664E-01  0.50927360409E-01  0.51100000000E-03 0.  1.
         11    1    4    4    0    0 -0.60435683392E-01 -0.51737294232E-01 -0.20956622307E-01  0.82271869925E-01  0.51100000000E-03 0. -1.
</event>
<event>
 8    1  0.1196210E+005  0.1043930E+01  0.7957747E-01            NaN
         13   -1    0    0    0    0  0.00000000000E+00  0.00000000000E+00  0.74505805969E-08  0.10566000000E+00  0.10566000000E+00 0.  1.
     999900   -1    0    0    0    0 -0.00000000000E+00 -0.00000000000E+00 -0.74505805969E-08  0.93827000000E+00  0.93827000000E+00 0.  1.
     999902    2    1    2    0    0 -0.27496522540E-02 -0.56889239327E-03 -0.24924763816E-01  0.10188475743E+01  0.10185387826E+01 0.  0.
     999903    2    3    3    0    0  0.55704662276E-01 -0.11976571832E-01 -0.11759857792E+00  0.13197922003E+00  0.18510573164E-01 0.  0.
         14    1    1    2    0    0  0.27496522540E-02  0.56889239327E-03  0.24924763816E-01  0.25082425667E-01  0.00000000000E+00 0.  1.
     999901    1    3    3    0    0 -0.58454314530E-01  0.11407679439E-01  0.92673814107E-01  0.88686835430E+00  0.88000000000E+00 0. -1.
        -11    1    4    4    0    0  0.24413236527E-01 -0.14688432140E-01 -0.56113117659E-01  0.62934086557E-01  0.51100000000E-03 0. -1.
         11    1    4    4    0    0  0.31291425749E-01  0.27118603075E-02 -0.61485460264E-01  0.69045133476E-01  0.51100000000E-03 0.  1.
</event>
<event>
 8    1  0.1196210E+005  0.1043930E+01  0.7957747E-01            NaN
         13   -1    0    0    0    0  0.00000000000E+00  0.00000000000E+00  0.74505805969E-08  0.10566000000E+00  0.10566000000E+00 0.  1.
     999900   -1    0    0    0    0 -0.00000000000E+00 -0.00000000000E+00 -0.74505805969E-08  0.93827000000E+00  0.93827000000E+00 0. -1.
     999902    2    1    2    0    0  0.14100796368E-01 -0.70899993965E-02  0.18035612429E-01  0.10199636931E+01  0.10196820835E+01 0.  0.
     999903    2    3    3    0    0  0.19644122849E-01  0.43334242009E-01  0.12196395630E+00  0.13239711351E+00  0.19749454080E-01 0.  0.
         14    1    1    2    0    0 -0.14100796368E-01  0.70899993965E-02 -0.18035612429E-01  0.23966306877E-01  0.00000000000E+00 0. -1.
     999901    1    3    3    0    0 -0.55433264812E-02 -0.50424241405E-01 -0.10392834387E+00  0.88756657961E+00  0.88000000000E+00 0. -1.
        -11    1    4    4    0    0  0.13877662246E-01  0.38254004673E-01  0.80264020677E-01  0.89991846960E-01  0.51100000000E-03 0.  1.
         11    1    4    4    0    0  0.57664606033E-02  0.50802373353E-02  0.41699935620E-01  0.42405266548E-01  0.51100000000E-03 0. -1.
</event>
<event>
 8    1  0.1196210E+005  0.1043930E+01  0.7957747E-01            NaN
         13   -1    0    0    0    0  0.00000000000E+00  0.00000000000E+00  0.74505805969E-08  0.10566000000E+00  0.10566000000E+00 0.  1.
     999900   -1    0    0    0    0 -0.00000000000E+00 -0.00000000000E+00 -0.74505805969E-08  0.93827000000E+00  0.93827000000E+00 0.  1.
     999902    2    1    2    0    0  0.41366779745E-02  0.18618886055E-01  0.14527397696E-01  0.10199545895E+01  0.10196727634E+01 0.  0.
     999903    2    3    3    0    0 -0.42803289336E-01 -0.77823630854E-01 -0.89297892111E-01  0.12738290593E+00  0.19069664111E-01 0.  0.
         14    1    1    2    0    0 -0.41366779745E-02 -0.18618886055E-01 -0.14527397696E-01  0.23975410453E-01  0.00000000000E+00 0. -1.
     999901    1    3    3    0    0  0.46939967310E-01  0.96442516909E-01  0.10382528981E+00  0.89257168362E+00  0.88000000000E+00 0. -1.
        -11    1    4    4    0    0 -0.26300971441E-01 -0.56051809262E-01 -0.50346409669E-01  0.79803311384E-01  0.51100000000E-03 0. -1.
         11    1    4    4    0    0 -0.16502317895E-01 -0.21771821593E-01 -0.38951482442E-01  0.47579594542E-01  0.51100000000E-03 0.  1.
</event>
<event>
 8    1  0.1196210E+005  0.1043930E+01  0.7957747E-01            NaN
         13   -1    0    0    0    0  0.00000000000E+00  0.00000000000E+00  0.74505805969E-08  0.10566000000E+00  0.10566000000E+00 0.  1.
     999900   -1    0    0    0    0 -0.00000000000E+00 -0.00000000000E+00 -0.74505805969E-08  0.93827000000E+00  0.93827000000E+00 0. -1.
     999902    2    1    2    0    0  0.13619828386E-01 -0.18291253255E-01 -0.49695368163E-02  0.10205897779E+01  0.10203228552E+01 0.  0.
     999903    2    3    3    0    0 -0.40018731160E-01  0.72435631310E-01 -0.97673932793E-01  0.12946545006E+00  0.19305079272E-01 0.  0.
         14    1    1    2    0    0 -0.13619828386E-01  0.18291253255E-01  0.49695368163E-02  0.23340222087E-01  0.00000000000E+00 0.  1.
     999901    1    3    3    0    0  0.53638559546E-01 -0.90726884565E-01  0.92704395977E-01  0.89112432785E+00  0.88000000000E+00 0.  1.
        -11    1    4    4    0    0 -0.96277158717E-02  0.27343904024E-01 -0.22577903049E-01  0.36747854730E-01  0.51100000000E-03 0.  1.
         11    1    4    4    0    0 -0.30391015288E-01  0.45091727286E-01 -0.75096029744E-01  0.92717595332E-01  0.51100000000E-03 0. -1.
</event>
<event>
 8    1  0.1196210E+005  0.1043930E+01  0.7957747E-01            NaN
         13   -1    0    0    0    0  0.00000000000E+00  0.00000000000E+00  0.74505805969E-08  0.10566000000E+00  0.10566000000E+00 0. -1.
     999900   -1    0    0    0    0 -0.00000000000E+00 -0.00000000000E+00 -0.74505805969E-08  0.93827000000E+00  0.93827000000E+00 0. -1.
     999902    2    1    2    0    0  0.23248323454E-01 -0.66085861040E-02  0.51684568303E-02  0.10192141974E+01  0.10189144759E+01 0.  0.
     999903    2    3    3    0    0  0.94465030506E-01  0.45704889638E-01  0.77322780011E-01  0.13185025543E+00  0.19826714850E-01 0.  0.
         14    1    1    2    0    0 -0.23248323454E-01  0.66085861040E-02 -0.51684568303E-02  0.24715802631E-01  0.00000000000E+00 0. -1.
     999901    1    3    3    0    0 -0.71216707053E-01 -0.52313475742E-01 -0.72154323180E-01  0.88736394194E+00  0.88000000000E+00 0. -1.
        -11    1    4    4    0    0  0.72923183783E-01  0.38528677249E-01  0.69418052649E-01  0.10780249004E+00  0.51100000000E-03 0. -1.
         11    1    4    4    0    0  0.21541846724E-01  0.71762123888E-02  0.79047273617E-02  0.24047765388E-01  0.51100000000E-03 0.  1.
</event>
<event>
 8    1  0.1196210E+005  0.1043930E+01  0.7957747E-01            NaN
         13   -1    0    0    0    0  0.00000000000E+00  0.00000000000E+00  0.74505805969E-08  0.10566000000E+00  0.10566000000E+00 0.  1.
     999900   -1    0    0    0    0 -0.00000000000E+00 -0.00000000000E+00 -0.74505805969E-08  0.93827000000E+00  0.93827000000E+00 0. -1.
     999902    2    1    2    0    0  0.22515270559E-01  0.41553126314E-02 -0.59820167013E-02  0.10202659227E+01  0.10199914531E+01 0.  0.
     999903    2    3    3    0    0 -0.66359171548E-01 -0.10474556543E+00 -0.28492011644E-01  0.12882620651E+00  0.20229276536E-01 0.  0.
         14    1    1    2    0    0 -0.22515270559E-01 -0.41553126314E-02  0.59820167013E-02  0.23664077316E-01  0.00000000000E+00 0.  1.
     999901    1    3    3    0    0  0.88874442106E-01  0.10890087807E+00  0.22509994943E-01  0.89143971618E+00  0.88000000000E+00 0.  1.
        -11    1    4    4    0    0 -0.37031153913E-01 -0.47275018058E-01 -0.54048082520E-02  0.60296822187E-01  0.51100000000E-03 0.  1.
         11    1    4    4    0    0 -0.29328017634E-01 -0.57470547376E-01 -0.23087203392E-01  0.68529384322E-01  0.51100000000E-03 0. -1.
</event>
<event>
 8    1  0.1196210E+005  0.1043930E+01  0.7957747E-01            NaN
         13   -1    0    0    0    0  0.00000000000E+00  0.00000000000E+00  0.74505805969E-08  0.10566000000E+00  0.10566000000E+00 0. -1.
     999900   -1    0    0    0    0 -0.00000000000E+00 -0.00000000000E+00 -0.74505805969E-08  0.93827000000E+00  0.93827000000E+00 0.  1.
     999902    2    1    2    0    0 -0.21236234609E-01 -0.56732770185E-02  0.83413701560E-02  0.10204195302E+01  0.10201486536E+01 0.  0.
     999903    2    3    3    0    0  0.26517055259E-01  0.43016695151E-01  0.11978839969E+00  0.13077267306E+00  0.14094007211E-01 0.  0.
         14    1    1    2    0    0  0.21236234609E-01  0.56732770185E-02 -0.83413701560E-02  0.23510469765E-01  0.00000000000E+00 0.  1.
     999901    1    3    3    0    0 -0.47753289868E-01 -0.48689972170E-01 -0.11144702953E+00  0.88964685717E+00  0.88000000000E+00 0.  1.
        -11    1    4    4    0    0 -0.13756737053E-02  0.50072363309E-02  0.97422128305E-02  0.11051548564E-01  0.51100000000E-03 0. -1.
         11    1    4    4    0    0  0.27892728965E-01  0.38009458820E-01  0.11004618686E+00  0.11972112450E+00  0.51100000000E-03 0.  1.
</event>
<event>
 8    1  0.1196210E+005  0.1043930E+01  0.7957747E-01            NaN
         13   -1    0    0    0    0  0.00000000000E+00  0.00000000000E+00  0.74505805969E-08  0.10566000000E+00  0.10566000000E+00 0.  1.
     999900   -1    0    0    0    0 -0.00000000000E+00 -0.00000000000E+00 -0.74505805969E-08  0.93827000000E+00  0.93827000000E+00 0.  1.
     999902    2    1    2    0    0 -0.11744998640E-01 -0.21277273655E-01  0.47701709677E-02  0.10191626445E+01  0.10188616560E+01 0.  0.
     999903    2    3    3    0    0 -0.12464375031E+00  0.23922353912E-01 -0.21789796421E-01  0.13040251582E+00  0.20534785028E-01 0.  0.
         14    1    1    2    0    0  0.11744998640E-01  0.21277273655E-01 -0.47701709677E-02  0.24767355497E-01  0.00000000000E+00 0. -1.
     999901    1    3    3    0    0  0.11289875167E+00 -0.45199627568E-01  0.26559967389E-01  0.88876012868E+00  0.88000000000E+00 0. -1.
        -11    1    4    4    0    0 -0.31759757924E-01  0.23580290104E-02 -0.13801058656E-01  0.34712719070E-01  0.51100000000E-03 0.  1.
         11    1    4    4    0    0 -0.92883992389E-01  0.21564324902E-01 -0.79887377655E-02  0.95689796754E-01  0.51100000000E-03 0. -1.
</event>
<event>
 8    1  0.1196210E+005  0.1043930E+01  0.7957747E-01            NaN
         13   -1    0    0    0    0  0.00000000000E+00  0.00000000000E+00  0.74505805969E-08  0.10566000000E+00  0.10566000000E+00 0. -1.
     999900   -1    0    0    0    0 -0.00000000000E+00 -0.00000000000E+00 -0.74505805969E-08  0.93827000000E+00  0.93827000000E+00 0. -1.
     999902    2    1    2    0    0  0.11709380168E-01 -0.12223639189E-01  0.16777503068E-01  0.10200970072E+01  0.10198185586E+01 0.  0.
     999903    2    3    3    0    0 -0.20389761019E-02 -0.11305800211E+00  0.66981720835E-01  0.13281066694E+00  0.19127285782E-01 0.  0.
         14    1    1    2    0    0 -0.11709380168E-01  0.12223639189E-01 -0.16777503068E-01  0.23832992849E-01  0.00000000000E+00 0. -1.
     999901    1    3    3    0    0  0.13748356270E-01  0.10083436292E+00 -0.50204217767E-01  0.88728634021E+00  0.88000000000E+00 0. -1.
        -11    1    4    4    0    0 -0.91280474657E-02 -0.37368389346E-01  0.18935951473E-01  0.42878306310E-01  0.51100000000E-03 0.  1.
         11    1    4    4    0    0  0.70890713639E-02 -0.75689612766E-01  0.48045769362E-01  0.89932360628E-01  0.51100000000E-03 0. -1.
</event>
<event>
 8    1  0.1196210E+005  0.1043930E+01  0.7957747E-01            NaN
         13   -1    0    0    0    0  0.00000000000E+00  0.00000000000E+00  0.74505805969E-08  0.10566000000E+00  0.10566000000E+00 0.  1.
     999900   -1    0    0    0    0 -0.00000000000E+00 -0.00000000000E+00 -0.74505805969E-08  0.93827000000E+00  0.93827000000E+00 0.  1.
     999902    2    1    2    0    0  0.60442543996E-02 -0.14778785601E-02  0.25884456558E-01  0.10173081626E+01  0.10169597708E+01 0.  0.
     999903    2    3    3    0    0 -0.72842584131E-01  0.87472772425E-01 -0.50352617182E-01  0.12604644848E+00  0.19869402088E-01 0.  0.
         14    1    1    2    0    0 -0.60442543996E-02  0.14778785601E-02 -0.25884456558E-01  0.26621837420E-01  0.00000000000E+00 0. -1.
     999901    1    3    3    0    0  0.78886838531E-01 -0.88950650985E-01  0.76237073740E-01  0.89126171410E+00  0.88000000000E+00 0. -1.
        -11    1    4    4    0    0 -0.68034469978E-01  0.77510157187E-01 -0.39209652188E-01  0.11033662818E+00  0.51100000000E-03 0.  1.
         11    1    4    4    0    0 -0.48081141532E-02  0.99626152382E-02 -0.11142964994E-01  0.15709820303E-01  0.51100000000E-03 0. -1.
</event>
<event>
 8    1  0.1196210E+005  0.1043930E+01  0.7957747E-01            NaN
         13   -1    0    0    0    0  0.00000000000E+00  0.00000000000E+00  0.74505805969E-08  0.10566000000E+00  0.10566000000E+00 0. -1.
     999900   -1    0    0    0    0 -0.00000000000E+00 -0.00000000000E+00 -0.74505805969E-08  0.93827000000E+00  0.93827000000E+00 0. -1.
     999902    2    1    2    0    0  0.11019252822E-01  0.37960782641E-02  0.20194664057E-01  0.10206135123E+01  0.10203471384E+01 0.  0.
     999903    2    3    3    0    0  0.31660008235E-01 -0.72188213271E-01  0.10620916169E+00  0.13292091507E+00  0.13194293468E-01 0.  0.
         14    1    1    2    0    0 -0.11019252822E-01 -0.37960782641E-02 -0.20194664057E-01  0.23316487714E-01  0.00000000000E+00 0.  1.
     999901    1    3    3    0    0 -0.20640755413E-01  0.75984291535E-01 -0.86014497634E-01  0.88769259721E+00  0.88000000000E+00 0. -1.
        -11    1    4    4    0    0  0.84807374062E-02 -0.30792955475E-01  0.35355697366E-01  0.47648876912E-01  0.51100000000E-03 0.  1.
         11    1    4    4    0    0  0.23179270828E-01 -0.41395257796E-01  0.70853464325E-01  0.85272038160E-01  0.51100000000E-03 0. -1.
</event>
<event>
 8    1  0.1196210E+005  0.1043930E+01  0.7957747E-01            NaN
         13   -1    0    0    0    0  0.00000000000E+00  0.00000000000E+00  0.74505805969E-08  0.10566000000E+00  0.10566000000E+00 0.  1.
     999900   -1    0    0    0    0 -0.00000000000E+00 -0.00000000000E+00 -0.74505805969E-08  0.93827000000E+00  0.93827000000E+00 0. -1.
     999902    2    1    2    0    0 -0.79171682441E-02  0.14759429385E-01 -0.16706465197E-01  0.10202735360E+01  0.10199992451E+01 0.  0.
     999903    2    3    3    0    0  0.11864239910E-01 -0.12548483286E+00  0.14363401069E-01  0.12840746211E+00  0.19873740670E-01 0.  0.
         14    1    1    2    0    0  0.79171682441E-02 -0.14759429385E-01  0.16706465197E-01  0.23656463983E-01  0.00000000000E+00 0.  1.
     999901    1    3    3    0    0 -0.19781408154E-01  0.14024426224E+00 -0.31069866266E-01  0.89186607391E+00  0.88000000000E+00 0. -1.
        -11    1    4    4    0    0  0.11668690552E-01 -0.34746490565E-01  0.85109450754E-03  0.36666911905E-01  0.51100000000E-03 0. -1.
         11    1    4    4    0    0  0.19554935831E-03 -0.90738342295E-01  0.13512306561E-01  0.91740550203E-01  0.51100000000E-03 0.  1.
</event>
<event>
 8    1  0.1196210E+005  0.1043930E+01  0.7957747E-01            NaN
         13   -1    0    0    0    0  0.00000000000E+00  0.00000000000E+00  0.74505805969E-08  0.10566000000E+00  0.10566000000E+00 0.  1.
     999900   -1    0    0    0    0 -0.00000000000E+00 -0.00000000000E+00 -0.74505805969E-08  0.93827000000E+00  0.93827000000E+00 0.  1.
     999902    2    1    2    0    0 -0.17357460022E-01  0.11958442957E-01 -0.63991149522E-02  0.10219019622E+01  0.10216645173E+01 0.  0.
     999903    2    3    3    0    0  0.20628167907E-01  0.98790642474E-01 -0.84629795839E-01  0.13336227361E+00  0.20932781145E-01 0.  0.
         14    1    1    2    0    0  0.17357460022E-01 -0.11958442957E-01  0.63991149522E-02  0.22028037783E-01  0.00000000000E+00 0.  1.
     999901    1    3    3    0    0 -0.37985627930E-01 -0.86832199516E-01  0.78230680887E-01  0.88853968861E+00  0.88000000000E+00 0. -1.
        -11    1    4    4    0    0  0.22325857345E-01  0.57516343990E-01 -0.52862261849E-01  0.81248098938E-01  0.51100000000E-03 0. -1.
         11    1    4    4    0    0 -0.16976894374E-02  0.41274298484E-01 -0.31767533990E-01  0.52114174670E-01  0.51100000000E-03 0.  1.
</event>
<event>
 8    1  0.1196210E+005  0.1043930E+01  0.7957747E-01            NaN
         13   -1    0    0    0    0  0.00000000000E+00  0.00000000000E+00  0.74505805969E-08  0.10566000000E+00  0.10566000000E+00 0.  1.
     999900   -1    0    0    0    0 -0.00000000000E+00 -0.00000000000E+00 -0.74505805969E-08  0.93827000000E+00  0.93827000000E+00 0. -1.
     999902    2    1    2    0    0  0.16002021290E-01  0.15471310767E-01 -0.56140602346E-02  0.10209747432E+01  0.10207166514E+01 0.  0.
     999903    2    3    3    0    0 -0.21341089652E-01  0.69752341867E-01  0.10780507369E+00  0.13125296747E+00  0.16869388094E-01 0.  0.
         14    1    1    2    0    0 -0.16002021290E-01 -0.15471310767E-01  0.56140602346E-02  0.22955256795E-01  0.00000000000E+00 0. -1.
     999901    1    3    3    0    0  0.37343110942E-01 -0.54281031100E-01 -0.11341913392E+00  0.88972177573E+00  0.88000000000E+00 0. -1.
        -11    1    4    4    0    0 -0.23964271791E-01  0.57063325215E-01  0.89878204314E-01  0.10912773313E+00  0.51100000000E-03 0. -1.
         11    1    4    4    0    0  0.26231821391E-02  0.12689016652E-01  0.17926869372E-01  0.22125234340E-01  0.51100000000E-03 0.  1.
</event>
<event>
 8    1  0.1196210E+005  0.1043930E+01  0.7957747E-01            NaN
         13   -1    0    0    0    0  0.00000000000E+00  0.00000000000E+00  0.74505805969E-08  0.10566000000E+00  0.10566000000E+00 0. -1.
     999900   -1    0    0    0    0 -0.00000000000E+00 -0.00000000000E+00 -0.74505805969E-08  0.93827000000E+00  0.93827000000E+00 0. -1.
     999902    2    1    2    0    0 -0.91964679091E-02 -0.82542589188E-02 -0.20283685753E-01  0.10201784586E+01  0.10199019324E+01 0.  0.
     999903    2    3    3    0    0 -0.26328866749E-01 -0.98692419540E-01 -0.83305530493E-01  0.13313599460E+00  0.18761096655E-01 0.  0.
         14    1    1    2    0    0  0.91964679091E-02  0.82542589188E-02  0.20283685753E-01  0.23751541425E-01  0.00000000000E+00 0. -1.
     999901    1    3    3    0    0  0.17132398839E-01  0.90438160622E-01  0.63021844739E-01  0.88704246398E+00  0.88000000000E+00 0.  1.
        -11    1    4    4    0    0 -0.12729308275E-01 -0.58005947029E-01 -0.36809171633E-01  0.69870604814E-01  0.51100000000E-03 0.  1.
         11    1    4    4    0    0 -0.13599558473E-01 -0.40686472512E-01 -0.46496358860E-01  0.63265389783E-01  0.51100000000E-03 0. -1.
</event>
<event>
 8    1  0.1196210E+005  0.1043930E+01  0.7957747E-01            NaN
         13   -1    0    0    0    0  0.00000000000E+00  0.00000000000E+00  0.74505805969E-08  0.10566000000E+00  0.10566000000E+00 0. -1.
     999900   -1    0    0    0    0 -0.00000000000E+00 -0.00000000000E+00 -0.74505805969E-08  0.93827000000E+00  0.93827000000E+00 0. -1.
     999902    2    1    2    0    0  0.12068334528E-01  0.13072999542E-01  0.15826168809E-01  0.10201179099E+01  0.10198399553E+01 0.  0.
     999903    2    3    3    0    0  0.92089777548E-02 -0.10549766115E+00 -0.68940711628E-01  0.12812429922E+00  0.21176698287E-01 0.  0.
         14    1    1    2    0    0 -0.12068334528E-01 -0.13072999542E-01 -0.15826168809E-01  0.23812090091E-01  0.00000000000E+00 0. -1.
     999901    1    3    3    0    0  0.28593567732E-02  0.11857066069E+00  0.84766880437E-01  0.89199361069E+00  0.88000000000E+00 0.  1.
        -11    1    4    4    0    0  0.13934552876E-01 -0.87079314480E-01 -0.50465524634E-01  0.10160713101E+00  0.51100000000E-03 0. -1.
         11    1    4    4    0    0 -0.47255751207E-02 -0.18418346671E-01 -0.18475186994E-01  0.26517168208E-01  0.51100000000E-03 0.  1.
</event>
<event>
 8    1  0.1196210E+005  0.1043930E+01  0.7957747E-01            NaN
         13   -1    0    0    0    0  0.00000000000E+00  0.00000000000E+00  0.74505805969E-08  0.10566000000E+00  0.10566000000E+00 0. -1.
     999900   -1    0    0    0    0 -0.00000000000E+00 -0.00000000000E+00 -0.74505805969E-08  0.93827000000E+00  0.93827000000E+00 0.  1.
     999902    2    1    2    0    0  0.18239971365E-01  0.94533441806E-02  0.54635747959E-02  0.10226717564E+01  0.10224507853E+01 0.  0.
     999903    2    3    3    0    0 -0.12465547321E+00 -0.10986574867E-01  0.31426434710E-01  0.13053333190E+00  0.19789848649E-01 0.  0.
         14    1    1    2    0    0 -0.18239971365E-01 -0.94533441806E-02 -0.54635747959E-02  0.21258243604E-01  0.00000000000E+00 0. -1.
     999901    1    3    3    0    0  0.14289544457E+00  0.20439919047E-01 -0.25962859914E-01  0.89213842450E+00  0.88000000000E+00 0. -1.
        -11    1    4    4    0    0 -0.35671810166E-01 -0.10192932120E-01  0.35104405628E-02  0.37268729783E-01  0.51100000000E-03 0. -1.
         11    1    4    4    0    0 -0.88983663043E-01 -0.79364274623E-03  0.27915994147E-01  0.93264602115E-01  0.51100000000E-03 0.  1.
</event>
<event>
 8    1  0.1196210E+005  0.1043930E+01  0.7957747E-01            NaN
         13   -1    0    0    0    0  0.00000000000E+00  0.00000000000E+00  0.74505805969E-08  0.10566000000E+00  0.10566000000E+00 0.  1.
     999900   -1    0    0    0    0 -0.00000000000E+00 -0.00000000000E+00 -0.74505805969E-08  0.93827000000E+00  0.93827000000E+00 0.  1.
     999902    2    1    2    0    0 -0.21002834918E-01 -0.19214448624E-02  0.13234252521E-01  0.10190310750E+01  0.10187268404E+01 0.  0.
     999903    2    3    3    0    0 -0.79572123121E-01  0.22269325406E-01 -0.97881663081E-01  0.12978290855E+00  0.20859955704E-01 0.  0.
         14    1    1    2    0    0  0.21002834918E-01  0.19214448624E-02 -0.13234252521E-01  0.24898924972E-01  0.00000000000E+00 0.  1.
     999901    1    3    3    0    0  0.58569288203E-01 -0.24190770268E-01  0.11111591560E+00  0.88924816648E+00  0.88000000000E+00 0. -1.
        -11    1    4    4    0    0 -0.78345536658E-02  0.95026730924E-02 -0.12995079545E-01  0.17911288073E-01  0.51100000000E-03 0.  1.
         11    1    4    4    0    0 -0.71737569455E-01  0.12766652314E-01 -0.84886583536E-01  0.11187162048E+00  0.51100000000E-03 0. -1.
</event>
<event>
 8    1  0.1196210E+005  0.1043930E+01  0.7957747E-01            NaN
         13   -1    0    0    0    0  0.00000000000E+00  0.00000000000E+00  0.74505805969E-08  0.10566000000E+00  0.10566000000E+00 0. -1.
     999900   -1    0    0    0    0 -0.00000000000E+00 -0.00000000000E+00 -0.74505805969E-08  0.93827000000E+00  0.93827000000E+00 0. -1.
     999902    2    1    2    0    0 -0.21287943434E-01 -0.61807334354E-02  0.66399860078E-02  0.10207898311E+01  0.10205275165E+01 0.  0.
     999903    2    3    3    0    0 -0.42430628266E-01  0.11876741957E+00  0.30895974766E-01  0.13138137206E+00  0.20011134470E-01 0.  0.
         14    1    1    2    0    0  0.21287943434E-01  0.61807334354E-02 -0.66399860078E-02  0.23140168876E-01  0.00000000000E+00 0. -1.
     999901    1    3    3    0    0  0.21142684832E-01 -0.12494815300E+00 -0.24255988758E-01  0.88940845906E+00  0.88000000000E+00 0. -1.
        -11    1    4    4    0    0 -0.17594426331E-01  0.59653505584E-01  0.24845675012E-01  0.66975168937E-01  0.51100000000E-03 0. -1.
         11    1    4    4    0    0 -0.24836201935E-01  0.59113913982E-01  0.60502997536E-02  0.64406203124E-01  0.51100000000E-03 0.  1.
</event>
<event>
 8    1  0.1196210E+005  0.1043930E+01  0.7957747E-01            NaN
         13   -1    0    0    0    0  0.00000000000E+00  0.00000000000E+00  0.74505805969E-08  0.10566000000E+00  0.10566000000E+00 0.  1.
     999900   -1    0    0    0    0 -0.00000000000E+00 -0.00000000000E+00 -0.74505805969E-08  0.93827000000E+00  0.93827000000E+00 0. -1.
     999902    2    1    2    0    0 -0.13393739916E-01  0.17645271883E-01 -0.87329489679E-02  0.10201179802E+01  0.10198400273E+01 0.  0.
     999903    2    3    3    0    0  0.71241149546E-01  0.10462605108E+00  0.27252119595E-01  0.13106025114E+00  0.20302695712E-01 0.  0.
         14    1    1    2    0    0  0.13393739916E-01 -0.17645271883E-01  0.87329489679E-02  0.23812019789E-01  0.00000000000E+00 0.  1.
     999901    1    3    3    0    0 -0.84634889462E-01 -0.86980779195E-01 -0.35985068563E-01  0.88905772907E+00  0.88000000000E+00 0. -1.
        -11    1    4    4    0    0  0.58270060601E-01  0.77321154921E-01  0.28096675988E-01  0.10081490606E+00  0.51100000000E-03 0.  1.
         11    1    4    4    0    0  0.12971088945E-01  0.27304896157E-01 -0.84455639265E-03  0.30245345081E-01  0.51100000000E-03 0. -1.
</event>
<event>
 8    1  0.1196210E+005  0.1043930E+01  0.7957747E-01            NaN
         13   -1    0    0    0    0  0.00000000000E+00  0.00000000000E+00  0.74505805969E-08  0.10566000000E+00  0.10566000000E+00 0. -1.
     999900   -1    0    0    0    0 -0.00000000000E+00 -0.00000000000E+00 -0.74505805969E-08  0.93827000000E+00  0.93827000000E+00 0. -1.
     999902    2    1    2    0    0  0.15065670820E-01 -0.14492250140E-01  0.15496000018E-01  0.10179083596E+01  0.10175756988E+01 0.  0.
     999903    2    3    3    0    0  0.42810693833E-01  0.10955693650E+00  0.47210770479E-01  0.12820963889E+00  0.19322960784E-01 0.  0.
         14    1    1    2    0    0 -0.15065670820E-01  0.14492250140E-01 -0.15496000018E-01  0.26021640377E-01  0.00000000000E+00 0.  1.
     999901    1    3    3    0    0 -0.27745023013E-01 -0.12404918664E+00 -0.31714770462E-01  0.88969872073E+00  0.88000000000E+00 0. -1.
        -11    1    4    4    0    0  0.11105233175E-01  0.50550040343E-01  0.15048285412E-01  0.53901250425E-01  0.51100000000E-03 0.  1.
         11    1    4    4    0    0  0.31705460658E-01  0.59006896156E-01  0.32162485067E-01  0.74308388465E-01  0.51100000000E-03 0. -1.
</event>
<event>
 8    1  0.1196210E+005  0.1043930E+01  0.7957747E-01            NaN
         13   -1    0    0    0    0  0.00000000000E+00  0.00000000000E+00  0.74505805969E-08  0.10566000000E+00  0.10566000000E+00 0. -1.
     999900   -1    0    0    0    0 -0.00000000000E+00 -0.00000000000E+00 -0.74505805969E-08  0.93827000000E+00  0.93827000000E+00 0. -1.
     999902    2    1    2    0    0 -0.52215577484E-02 -0.24101238235E-02  0.23009119525E-01  0.10202130663E+01  0.10199373548E+01 0.  0.
     999903    2    3    3    0    0 -0.61479962743E-02 -0.84928690520E-01 -0.94181324959E-01  0.12861687273E+00  0.20530407879E-01 0.  0.
         14    1    1    2    0    0  0.52215577484E-02  0.24101238235E-02 -0.23009119525E-01  0.23716933686E-01  0.00000000000E+00 0. -1.
     999901    1    3    3    0    0  0.92643852599E-03  0.82518566697E-01  0.11719044448E+00  0.89159619359E+00  0.88000000000E+00 0.  1.
        -11    1    4    4    0    0 -0.13522810049E-01 -0.47393828717E-01 -0.50926612217E-01  0.70871872735E-01  0.51100000000E-03 0.  1.
         11    1    4    4    0    0  0.73748137751E-02 -0.37534861803E-01 -0.43254712742E-01  0.57744999993E-01  0.51100000000E-03 0. -1.
</event>
<event>
 8    1  0.1196210E+005  0.1043930E+01  0.7957747E-01            NaN
         13   -1    0    0    0    0  0.00000000000E+00  0.00000000000E+00  0.74505805969E-08  0.10566000000E+00  0.10566000000E+00 0. -1.
     999900   -1    0    0    0    0 -0.00000000000E+00 -0.00000000000E+00 -0.74505805969E-08  0.93827000000E+00  0.93827000000E+00 0. -1.
     999902    2    1    2    0    0 -0.10578712915E-01  0.20758858385E-01  0.28519605298E-02  0.10204571849E+01  0.10201871854E+01 0.  0.
     999903    2    3    3    0    0  0.44074898119E-02 -0.11257865408E+00  0.58532381592E-01  0.12854699450E+00  0.20122395009E-01 0.  0.
         14    1    1    2    0    0  0.10578712915E-01 -0.20758858385E-01 -0.28519605298E-02  0.23472815069E-01  0.00000000000E+00 0.  1.
     999901    1    3    3    0    0 -0.14986202727E-01  0.13333751246E+00 -0.55680421062E-01  0.89191019043E+00  0.88000000000E+00 0. -1.
        -11    1    4    4    0    0  0.46604364195E-02 -0.10572985037E-01  0.11175665673E-01  0.16083044004E-01  0.51100000000E-03 0.  1.
         11    1    4    4    0    0 -0.25294660751E-03 -0.10200566904E+00  0.47356715919E-01  0.11246395050E+00  0.51100000000E-03 0. -1.
</event>
<event>
 8    1  0.1196210E+005  0.1043930E+01  0.7957747E-01            NaN
         13   -1    0    0    0    0  0.00000000000E+00  0.00000000000E+00  0.74505805969E-08  0.10566000000E+00  0.10566000000E+00 0. -1.
     999900   -1    0    0    0    0 -0.00000000000E+00 -0.00000000000E+00 -0.74505805969E-08  0.93827000000E+00  0.93827000000E+00 0.  1.
     999902    2    1    2    0    0 -0.14573069030E-01  0.50544943098E-02  0.17843785940E-01  0.10203435007E+01  0.10200708487E+01 0.  0.
     999903    2    3    3    0    0 -0.11521059374E+00  0.13862771816E-01  0.62565373319E-01  0.13343566019E+00  0.20615337016E-01 0.  0.
         14    1    1    2    0    0  0.14573069030E-01 -0.50544943098E-02 -0.17843785940E-01  0.23586499323E-01  0.00000000000E+00 0.  1.
     999901    1    3    3    0    0  0.10063752471E+00 -0.88082775066E-02 -0.44721587379E-01  0.88690784048E+00  0.88000000000E+00 0. -1.
        -11    1    4    4    0    0 -0.63216034839E-01 -0.25486793832E-03  0.41288553388E-01  0.75507203500E-01  0.51100000000E-03 0. -1.
         11    1    4    4    0    0 -0.51994558901E-01  0.14117639755E-01  0.21276819931E-01  0.57928456694E-01  0.51100000000E-03 0.  1.
</event>
<event>
 8    1  0.1196210E+005  0.1043930E+01  0.7957747E-01            NaN
         13   -1    0    0    0    0  0.00000000000E+00  0.00000000000E+00  0.74505805969E-08  0.10566000000E+00  0.10566000000E+00 0.  1.
     999900   -1    0    0    0    0 -0.00000000000E+00 -0.00000000000E+00 -0.74505805969E-08  0.93827000000E+00  0.93827000000E+00 0.  1.
     999902    2    1    2    0    0  0.34051253324E-02  0.23413921546E-01  0.28486006778E-02  0.10200989042E+01  0.10198205005E+01 0.  0.
     999903    2    3    3    0    0  0.76620613545E-01 -0.66167265536E-01 -0.77594188111E-01  0.12888830112E+00  0.18507044297E-01 0.  0.
         14    1    1    2    0    0 -0.34051253324E-02 -0.23413921546E-01 -0.28486006778E-02  0.23831095789E-01  0.00000000000E+00 0. -1.
     999901    1    3    3    0    0 -0.73215488212E-01  0.89581187082E-01  0.80442788789E-01  0.89121060309E+00  0.88000000000E+00 0. -1.
        -11    1    4    4    0    0  0.65299734107E-01 -0.47359247690E-01 -0.64828916523E-01  0.10348914511E+00  0.51100000000E-03 0. -1.
         11    1    4    4    0    0  0.11320879438E-01 -0.18808017845E-01 -0.12765271588E-01  0.25399156014E-01  0.51100000000E-03 0.  1.
</event>
<event>
 8    1  0.1196210E+005  0.1043930E+01  0.7957747E-01            NaN
         13   -1    0    0    0    0  0.00000000000E+00  0.00000000000E+00  0.74505805969E-08  0.10566000000E+00  0.10566000000E+00 0.  1.
     999900   -1    0    0    0    0 -0.00000000000E+00 -0.00000000000E+00 -0.74505805969E-08  0.93827000000E+00  0.93827000000E+00 0.  1.
     999902    2    1    2    0    0  0.40773922115E-02  0.23854877418E-01  0.13355237064E-02  0.10196923448E+01  0.10194042447E+01 0.  0.
     999903    2    3    3    0    0  0.23437636062E-01 -0.11251860491E+00 -0.51603598750E-01  0.12740590182E+00  0.18962414866E-01 0.  0.
         14    1    1    2    0    0 -0.40773922115E-02 -0.23854877418E-01 -0.13355237064E-02  0.24237655155E-01  0.00000000000E+00 0. -1.
     999901    1    3    3    0    0 -0.19360243851E-01  0.13637348233E+00  0.52939122456E-01  0.89228644303E+00  0.88000000000E+00 0.  1.
        -11    1    4    4    0    0  0.19372153896E-01 -0.47884700542E-01 -0.25037899277E-01  0.57405421466E-01  0.51100000000E-03 0. -1.
         11    1    4    4    0    0  0.40654821665E-02 -0.64633904373E-01 -0.26565699473E-01  0.70000480350E-01  0.51100000000E-03 0.  1.
</event>
<event>
 8    1  0.1196210E+005  0.1043930E+01  0.7957747E-01            NaN
         13   -1    0    0    0    0  0.00000000000E+00  0.00000000000E+00  0.74505805969E-08  0.10566000000E+00  0.10566000000E+00 0. -1.
     999900   -1    0    0    0    0 -0.00000000000E+00 -0.00000000000E+00 -0.74505805969E-08  0.93827000000E+00  0.93827000000E+00 0. -1.
     999902    2    1    2    0    0  0.20513949174E-01 -0.49636297748E-02 -0.96209334375E-02  0.10207346968E+01  0.10204711163E+01 0.  0.
     999903    2    3    3    0    0  0.93811683770E-01 -0.13228970729E-01  0.89843734065E-01  0.13206485154E+00  0.19839122545E-01 0.  0.
         14    1    1    2    0    0 -0.20513949174E-01  0.49636297748E-02  0.96209334375E-02  0.23195303220E-01  0.00000000000E+00 0. -1.
     999901    1    3    3    0    0 -0.73297734596E-01  0.82653409537E-02 -0.99464667502E-01  0.88866984524E+00  0.88000000000E+00 0. -1.
        -11    1    4    4    0    0  0.75017866428E-01 -0.15930394371E-01  0.63391633343E-01  0.99499839433E-01  0.51100000000E-03 0.  1.
         11    1    4    4    0    0  0.18793817342E-01  0.27014236420E-02  0.26452100722E-01  0.32565012108E-01  0.51100000000E-03 0. -1.
</event>
<event>
 8    1  0.1196210E+005  0.1043930E+01  0.7957747E-01            NaN
         13   -1    0    0    0    0  0.00000000000E+00  0.00000000000E+00  0.74505805969E-08  0.10566000000E+00  0.10566000000E+00 0.  1.
     999900   -1    0    0    0    0 -0.00000000000E+00 -0.00000000000E+00 -0.74505805969E-08  0.93827000000E+00  0.93827000000E+00 0. -1.
     999902    2    1    2    0    0 -0.34399869347E-02  0.10622305461E-01  0.21684950540E-01  0.10195393468E+01  0.10192475537E+01 0.  0.
     999903    2    3    3    0    0  0.18777574546E-02 -0.12494917861E+00  0.25324181654E-01  0.12913429869E+00  0.20457998757E-01 0.  0.
         14    1    1    2    0    0  0.34399869347E-02 -0.10622305461E-01 -0.21684950540E-01  0.24390653197E-01  0.00000000000E+00 0. -1.
     999901    1    3    3    0    0 -0.53177443893E-02  0.13557148407E+00 -0.36392311132E-02  0.89040504811E+00  0.88000000000E+00 0.  1.
        -11    1    4    4    0    0  0.26391474931E-02 -0.26511804234E-01 -0.26926381642E-02  0.26783433024E-01  0.51100000000E-03 0. -1.
         11    1    4    4    0    0 -0.76139003858E-03 -0.98437374379E-01  0.28016819818E-01  0.10235086567E+00  0.51100000000E-03 0.  1.
</event>
<event>
 8    1  0.1196210E+005  0.1043930E+01  0.7957747E-01            NaN
         13   -1    0    0    0    0  0.00000000000E+00  0.00000000000E+00  0.74505805969E-08  0.10566000000E+00  0.10566000000E+00 0.  1.
     999900   -1    0    0    0    0 -0.00000000000E+00 -0.00000000000E+00 -0.74505805969E-08  0.93827000000E+00  0.93827000000E+00 0.  1.
     999902    2    1    2    0    0 -0.15836350215E-02  0.23030803529E-01  0.41066392536E-02  0.10204823925E+01  0.10202129793E+01 0.  0.
     999903    2    3    3    0    0  0.10584696972E+00  0.68815344409E-01  0.33751770018E-01  0.13227273663E+00  0.20439233156E-01 0.  0.
         14    1    1    2    0    0  0.15836350215E-02 -0.23030803529E-01 -0.41066392536E-02  0.23447607490E-01  0.00000000000E+00 0.  1.
     999901    1    3    3    0    0 -0.10743060474E+00 -0.45784540880E-01 -0.29645130764E-01  0.88820965588E+00  0.88000000000E+00 0.  1.
        -11    1    4    4    0    0  0.43285483561E-01  0.37474436811E-01  0.21901511323E-01  0.61301744026E-01  0.51100000000E-03 0.  1.
         11    1    4    4    0    0  0.62561486157E-01  0.31340907598E-01  0.11850258695E-01  0.70970992605E-01  0.51100000000E-03 0. -1.
</event>
<event>
 8    1  0.1196210E+005  0.1043930E+01  0.7957747E-01            NaN
         13   -1    0    0    0    0  0.00000000000E+00  0.00000000000E+00  0.74505805969E-08  0.10566000000E+00  0.10566000000E+00 0. -1.
     999900   -1    0    0    0    0 -0.00000000000E+00 -0.00000000000E+00 -0.74505805969E-08  0.93827000000E+00  0.93827000000E+00 0. -1.
     999902    2    1    2    0    0 -0.87279229737E-02  0.22105499207E-01 -0.90297184778E-03  0.10201467056E+01  0.10198694308E+01 0.  0.
     999903    2    3    3    0    0  0.72988085614E-01 -0.55437235309E-01  0.87797294307E-01  0.12854246662E+00  0.20353209516E-01 0.  0.
         14    1    1    2    0    0  0.87279229737E-02 -0.22105499207E-01  0.90297184778E-03  0.23783294406E-01  0.00000000000E+00 0. -1.
     999901    1    3    3    0    0 -0.81716008587E-01  0.77542734517E-01 -0.88700266154E-01  0.89160423897E+00  0.88000000000E+00 0. -1.
        -11    1    4    4    0    0  0.10295067190E-01 -0.27218343743E-03  0.81863715728E-02  0.13165876074E-01  0.51100000000E-03 0. -1.
         11    1    4    4    0    0  0.62693018424E-01 -0.55165051872E-01  0.79610922734E-01  0.11537659055E+00  0.51100000000E-03 0.  1.
</event>
<event>
 8    1  0.1196210E+005  0.1043930E+01  0.7957747E-01            NaN
         13   -1    0    0    0    0  0.00000000000E+00  0.00000000000E+00  0.74505805969E-08  0.10566000000E+00  0.10566000000E+00 0. -1.
     999900   -1    0    0    0    0 -0.00000000000E+00 -0.00000000000E+00 -0.74505805969E-08  0.93827000000E+00  0.93827000000E+00 0. -1.
     999902    2    1    2    0    0 -0.47460212340E-02  0.19772912181E-01 -0.11321337296E-01  0.10206562927E+01  0.10203909066E+01 0.  0.
     999903    2    3    3    0    0  0.11580206494E+00 -0.16534196886E-01 -0.55018534846E-01  0.13062287067E+00  0.18756259056E-01 0.  0.
         14    1    1    2    0    0  0.47460212340E-02 -0.19772912181E-01  0.11321337296E-01  0.23273707308E-01  0.00000000000E+00 0. -1.
     999901    1    3    3    0    0 -0.12054808617E+00  0.36307109067E-01  0.43697197550E-01  0.89003342203E+00  0.88000000000E+00 0. -1.
        -11    1    4    4    0    0  0.65531945808E-01 -0.12302494937E-02 -0.25358508522E-01  0.70279901186E-01  0.51100000000E-03 0. -1.
         11    1    4    4    0    0  0.50270119131E-01 -0.15303947392E-01 -0.29660026324E-01  0.60342969481E-01  0.51100000000E-03 0.  1.
</event>
<event>
 8    1  0.1196210E+005  0.1043930E+01  0.7957747E-01            NaN
         13   -1    0    0    0    0  0.00000000000E+00  0.00000000000E+00  0.74505805969E-08  0.10566000000E+00  0.10566000000E+00 0.  1.
     999900   -1    0    0    0    0 -0.00000000000E+00 -0.00000000000E+00 -0.74505805969E-08  0.93827000000E+00  0.93827000000E+00 0.  1.
     999902    2    1    2    0    0 -0.12958872237E-01  0.60889716742E-02  0.11175435827E-01  0.10257668970E+01  0.10256060787E+01 0.  0.
     999903    2    3    3    0    0 -0.10744457664E-01  0.51376149014E-01  0.12508056478E+00  0.13726804471E+00  0.21033695684E-01 0.  0.
         14    1    1    2    0    0  0.12958872237E-01 -0.60889716742E-02 -0.11175435827E-01  0.18163103029E-01  0.00000000000E+00 0. -1.
     999901    1    3    3    0    0 -0.22144145736E-02 -0.45287177340E-01 -0.11390512896E+00  0.88849885226E+00  0.88000000000E+00 0.  1.
        -11    1    4    4    0    0 -0.12246670556E-01  0.21793388459E-01  0.39945752088E-01  0.47125968967E-01  0.51100000000E-03 0. -1.
         11    1    4    4    0    0  0.15022128920E-02  0.29582760555E-01  0.85134812697E-01  0.90142075745E-01  0.51100000000E-03 0.  1.
</event>
<event>
 8    1  0.1196210E+005  0.1043930E+01  0.7957747E-01            NaN
         13   -1    0    0    0    0  0.00000000000E+00  0.00000000000E+00  0.74505805969E-08  0.10566000000E+00  0.10566000000E+00 0.  1.
     999900   -1    0    0    0    0 -0.00000000000E+00 -0.00000000000E+00 -0.74505805969E-08  0.93827000000E+00  0.93827000000E+00 0. -1.
     999902    2    1    2    0    0  0.74323383416E-02  0.15206503350E-01 -0.16207018124E-01  0.10204961605E+01  0.10202270673E+01 0.  0.
     999903    2    3    3    0    0  0.33160709302E-01  0.12694167033E+00 -0.78716868279E-02  0.13301873861E+00  0.20449964813E-01 0.  0.
         14    1    1    2    0    0 -0.74323383416E-02 -0.15206503350E-01  0.16207018124E-01  0.23433839502E-01  0.00000000000E+00 0.  1.
     999901    1    3    3    0    0 -0.25728370961E-01 -0.11173516698E+00 -0.83353312956E-02  0.88747742189E+00  0.88000000000E+00 0.  1.
        -11    1    4    4    0    0  0.33926469834E-01  0.10690568188E+00 -0.22296326193E-02  0.11218316521E+00  0.51100000000E-03 0.  1.
         11    1    4    4    0    0 -0.76576053164E-03  0.20035988450E-01 -0.56420542086E-02  0.20835573403E-01  0.51100000000E-03 0. -1.
</event>
<event>
 8    1  0.1196210E+005  0.1043930E+01  0.7957747E-01            NaN
         13   -1    0    0    0    0  0.00000000000E+00  0.00000000000E+00  0.74505805969E-08  0.10566000000E+00  0.10566000000E+00 0. -1.
     999900   -1    0    0    0    0 -0.00000000000E+00 -0.00000000000E+00 -0.74505805969E-08  0.93827000000E+00  0.93827000000E+00 0. -1.
     999902    2    1    2    0    0  0.11873534807E-01  0.54155242139E-02  0.20518493980E-01  0.10196129828E+01  0.10193229701E+01 0.  0.
     999903    2    3    3    0    0  0.67271462964E-01  0.10614593323E+00 -0.29865368320E-01  0.13070686888E+00  0.19998411873E-01 0.  0.
         14    1    1    2    0    0 -0.11873534807E-01 -0.54155242139E-02 -0.20518493980E-01  0.24317017222E-01  0.00000000000E+00 0.  1.
     999901    1    3    3    0    0 -0.55397928157E-01 -0.10073040901E+00  0.50383862300E-01  0.88890611390E+00  0.88000000000E+00 0.  1.
        -11    1    4    4    0    0  0.51155899593E-01  0.74715411918E-01 -0.29968433170E-01  0.95381795689E-01  0.51100000000E-03 0. -1.
         11    1    4    4    0    0  0.16115563371E-01  0.31430521310E-01  0.10306485015E-03  0.35325073192E-01  0.51100000000E-03 0.  1.
</event>
<event>
 8    1  0.1196210E+005  0.1043930E+01  0.7957747E-01            NaN
         13   -1    0    0    0    0  0.00000000000E+00  0.00000000000E+00  0.74505805969E-08  0.10566000000E+00  0.10566000000E+00 0.  1.
     999900   -1    0    0    0    0 -0.00000000000E+00 -0.00000000000E+00 -0.74505805969E-08  0.93827000000E+00  0.93827000000E+00 0. -1.
     999902    2    1    2    0    0  0.16165626082E-01  0.90201091313E-02 -0.14499847145E-01  0.10204154215E+01  0.10201444491E+01 0.  0.
     999903    2    3    3    0    0 -0.88655468668E-01  0.71775047259E-01  0.57046292035E-01  0.12909926310E+00  0.20022256755E-01 0.  0.
         14    1    1    2    0    0 -0.16165626082E-01 -0.90201091313E-02  0.14499847145E-01  0.23514578512E-01  0.00000000000E+00 0. -1.
     999901    1    3    3    0    0  0.10482109475E+00 -0.62754938128E-01 -0.71546139180E-01  0.89131615838E+00  0.88000000000E+00 0. -1.
        -11    1    4    4    0    0 -0.73783091649E-01  0.52049908912E-01  0.50831979668E-01  0.10362089031E+00  0.51100000000E-03 0.  1.
         11    1    4    4    0    0 -0.14872377019E-01  0.19725138347E-01  0.62143123667E-02  0.25478372793E-01  0.51100000000E-03 0. -1.
</event>
<event>
 8    1  0.1196210E+005  0.1043930E+01  0.7957747E-01            NaN
         13   -1    0    0    0    0  0.00000000000E+00  0.00000000000E+00  0.74505805969E-08  0.10566000000E+00  0.10566000000E+00 0.  1.
     999900   -1    0    0    0    0 -0.00000000000E+00 -0.00000000000E+00 -0.74505805969E-08  0.93827000000E+00  0.93827000000E+00 0. -1.
     999902    2    1    2    0    0 -0.15035278238E-01  0.57670629689E-02 -0.16818315280E-01  0.10206453627E+01  0.10203797244E+01 0.  0.
     999903    2    3    3    0    0 -0.91810760715E-01 -0.52516453810E-01  0.74137508207E-01  0.13072154297E+00  0.20113626449E-01 0.  0.
         14    1    1    2    0    0  0.15035278238E-01 -0.57670629689E-02  0.16818315280E-01  0.23284637335E-01  0.00000000000E+00 0.  1.
     999901    1    3    3    0    0  0.76775482477E-01  0.58283516779E-01 -0.90955823487E-01  0.88992381970E+00  0.88000000000E+00 0. -1.
        -11    1    4    4    0    0 -0.44715751955E-01 -0.28683801346E-01  0.48931982842E-01  0.72227827037E-01  0.51100000000E-03 0. -1.
         11    1    4    4    0    0 -0.47095008759E-01 -0.23832652464E-01  0.25205525365E-01  0.58493715931E-01  0.51100000000E-03 0.  1.
</event>
<event>
 8    1  0.1196210E+005  0.1043930E+01  0.7957747E-01            NaN
         13   -1    0    0    0    0  0.00000000000E+00  0.00000000000E+00  0.74505805969E-08  0.10566000000E+00  0.10566000000E+00 0.  1.
     999900   -1    0    0    0    0 -0.00000000000E+00 -0.00000000000E+00 -0.74505805969E-08  0.93827000000E+00  0.93827000000E+00 0. -1.
     999902    2    1    2    0    0  0.21530737246E-01 -0.88677604403E-02  0.58313801743E-02  0.10199255251E+01  0.10196430071E+01 0.  0.
     999903    2    3    3    0    0 -0.94892009519E-01  0.81911277423E-01  0.82002194302E-02  0.12762473438E+00  0.22513959827E-01 0.  0.
         14    1    1    2    0    0 -0.21530737246E-01  0.88677604403E-02 -0.58313801743E-02  0.24004474923E-01  0.00000000000E+00 0.  1.
     999901    1    3    3    0    0  0.11642274677E+00 -0.90779037863E-01 -0.23688392559E-02  0.89230079070E+00  0.88000000000E+00 0.  1.
        -11    1    4    4    0    0 -0.60633277659E-01  0.37943199833E-01  0.22158040691E-02  0.71562921139E-01  0.51100000000E-03 0.  1.
         11    1    4    4    0    0 -0.34258731860E-01  0.43968077590E-01  0.59844153610E-02  0.56061813241E-01  0.51100000000E-03 0. -1.
</event>
<event>
 8    1  0.1196210E+005  0.1043930E+01  0.7957747E-01            NaN
         13   -1    0    0    0    0  0.00000000000E+00  0.00000000000E+00  0.74505805969E-08  0.10566000000E+00  0.10566000000E+00 0.  1.
     999900   -1    0    0    0    0 -0.00000000000E+00 -0.00000000000E+00 -0.74505805969E-08  0.93827000000E+00  0.93827000000E+00 0. -1.
     999902    2    1    2    0    0  0.13446916957E-01  0.15007967870E-02  0.17864966951E-01  0.10215195335E+01  0.10212736794E+01 0.  0.
     999903    2    3    3    0    0  0.66070249979E-01 -0.11279264378E+00  0.42771229043E-02  0.13246563450E+00  0.21009334106E-01 0.  0.
         14    1    1    2    0    0 -0.13446916957E-01 -0.15007967870E-02 -0.17864966951E-01  0.22410466546E-01  0.00000000000E+00 0. -1.
     999901    1    3    3    0    0 -0.52623333023E-01  0.11429344057E+00  0.13587844047E-01  0.88905389895E+00  0.88000000000E+00 0.  1.
        -11    1    4    4    0    0  0.55629357024E-01 -0.76594979455E-01  0.47594997966E-02  0.94785706728E-01  0.51100000000E-03 0. -1.
         11    1    4    4    0    0  0.10440892955E-01 -0.36197664329E-01 -0.48237689224E-03  0.37679927774E-01  0.51100000000E-03 0.  1.
</event>
<event>
 8    1  0.1196210E+005  0.1043930E+01  0.7957747E-01            NaN
         13   -1    0    0    0    0  0.00000000000E+00  0.00000000000E+00  0.74505805969E-08  0.10566000000E+00  0.10566000000E+00 0. -1.
     999900   -1    0    0    0    0 -0.00000000000E+00 -0.00000000000E+00 -0.74505805969E-08  0.93827000000E+00  0.93827000000E+00 0. -1.
     999902    2    1    2    0    0  0.41850989411E-02 -0.22450529567E-01 -0.30942880454E-02  0.10208840470E+01  0.10206238884E+01 0.  0.
     999903    2    3    3    0    0  0.12229131817E+00  0.29754369624E-01 -0.30176563592E-01  0.13104817440E+00  0.20555048346E-01 0.  0.
         14    1    1    2    0    0 -0.41850989411E-02  0.22450529567E-01  0.30942880454E-02  0.23045952996E-01  0.00000000000E+00 0.  1.
     999901    1    3    3    0    0 -0.11810621923E+00 -0.52204899192E-01  0.27082275547E-01  0.88983587260E+00  0.88000000000E+00 0. -1.
        -11    1    4    4    0    0  0.45593904280E-01  0.12384203979E-01 -0.21562825503E-01  0.51936395527E-01  0.51100000000E-03 0. -1.
         11    1    4    4    0    0  0.76697413889E-01  0.17370165645E-01 -0.86137380893E-02  0.79111778875E-01  0.51100000000E-03 0.  1.
</event>
<event>
 8    1  0.1196210E+005  0.1043930E+01  0.7957747E-01            NaN
         13   -1    0    0    0    0  0.00000000000E+00  0.00000000000E+00  0.74505805969E-08  0.10566000000E+00  0.10566000000E+00 0.  1.
     999900   -1    0    0    0    0 -0.00000000000E+00 -0.00000000000E+00 -0.74505805969E-08  0.93827000000E+00  0.93827000000E+00 0. -1.
     999902    2    1    2    0    0  0.22773133458E-01  0.62307010586E-02  0.10532460744E-02  0.10202964101E+01  0.10200226556E+01 0.  0.
     999903    2    3    3    0    0  0.30616837502E-01 -0.34981372836E-01 -0.12076845772E+00  0.13091432899E+00  0.19810451044E-01 0.  0.
         14    1    1    2    0    0 -0.22773133458E-01 -0.62307010586E-02 -0.10532460744E-02  0.23633589877E-01  0.00000000000E+00 0. -1.
     999901    1    3    3    0    0 -0.78437040443E-02  0.41212073895E-01  0.12182170379E+00  0.88938208113E+00  0.88000000000E+00 0.  1.
        -11    1    4    4    0    0  0.22507566512E-01 -0.24021121625E-01 -0.10511221940E+00  0.11014737683E+00  0.51100000000E-03 0. -1.
         11    1    4    4    0    0  0.81092709897E-02 -0.10960251211E-01 -0.15656238315E-01  0.20766952154E-01  0.51100000000E-03 0.  1.
</event>
<event>
 7    1  0.1196210E+005  0.1043930E+01  0.7957747E-01            NaN
         13   -1    0    0    0    0  0.00000000000E+00  0.00000000000E+00  0.74505805969E-08  0.10566000000E+00  0.10566000000E+00 0.  1.
     999900   -1    0    0    0    0 -0.00000000000E+00 -0.00000000000E+00 -0.74505805969E-08  0.93827000000E+00  0.93827000000E+00 0. -1.
     999902    2    1    2    0    0 -0.64726768723E-03  0.40994154523E-02  0.23049048460E-01  0.10205102904E+01  0.10202415253E+01 0.  0.
         14    1    1    2    0    0  0.64726768723E-03 -0.40994154523E-02 -0.23049048460E-01  0.23419709593E-01  0.00000000000E+00 0. -1.
     999901    1    3    3    0    0  0.17745786997E-01 -0.21344172506E-01  0.13090245149E+00  0.89011568825E+00  0.88000000000E+00 0.  1.
        -11    1    3    3    0    0 -0.26628132175E-01 -0.15716765314E-01 -0.52381569560E-01  0.60828974064E-01  0.51100000000E-03 0. -1.
         11    1    3    3    0    0  0.82350774909E-02  0.41160353272E-01 -0.55471833472E-01  0.69565628097E-01  0.51100000000E-03 0.  1.
</event>
<event>
 8    1  0.1196210E+005  0.1043930E+01  0.7957747E-01            NaN
         13   -1    0    0    0    0  0.00000000000E+00  0.00000000000E+00  0.74505805969E-08  0.10566000000E+00  0.10566000000E+00 0. -1.
     999900   -1    0    0    0    0 -0.00000000000E+00 -0.00000000000E+00 -0.74505805969E-08  0.93827000000E+00  0.93827000000E+00 0.  1.
     999902    2    1    2    0    0  0.20392058189E-01 -0.52520222912E-03 -0.14014041183E-01  0.10191811571E+01  0.10188806239E+01 0.  0.
     999903    2    3    3    0    0 -0.89826315544E-01  0.49941884904E-01  0.71639132513E-01  0.12675105734E+00  0.19253737249E-01 0.  0.
         14    1    1    2    0    0 -0.20392058189E-01  0.52520222912E-03  0.14014041183E-01  0.24748842899E-01  0.00000000000E+00 0. -1.
     999901    1    3    3    0    0  0.11021837373E+00 -0.50467087133E-01 -0.85653173696E-01  0.89243009976E+00  0.88000000000E+00 0.  1.
        -11    1    4    4    0    0 -0.20704731071E-01  0.16160711011E-01  0.97840136176E-02  0.28032882702E-01  0.51100000000E-03 0. -1.
         11    1    4    4    0    0 -0.69121584473E-01  0.33781173893E-01  0.61855118895E-01  0.98718174640E-01  0.51100000000E-03 0.  1.
</event>
<event>
 8    1  0.1196210E+005  0.1043930E+01  0.7957747E-01            NaN
         13   -1    0    0    0    0  0.00000000000E+00  0.00000000000E+00  0.74505805969E-08  0.10566000000E+00  0.10566000000E+00 0. -1.
     999900   -1    0    0    0    0 -0.00000000000E+00 -0.00000000000E+00 -0.74505805969E-08  0.93827000000E+00  0.93827000000E+00 0.  1.
     999902    2    1    2    0    0  0.15033271581E-01  0.16341468525E-01  0.63236525090E-02  0.10208425266E+01  0.10205814189E+01 0.  0.
     999903    2    3    3    0    0 -0.98822224162E-01  0.18947654669E-01  0.80582136460E-01  0.13040208019E+00  0.19656454321E-01 0.  0.
         14    1    1    2    0    0 -0.15033271581E-01 -0.16341468525E-01 -0.63236525090E-02  0.23087473423E-01  0.00000000000E+00 0.  1.
     999901    1    3    3    0    0  0.11385549574E+00 -0.26061861434E-02 -0.74258483951E-01  0.89044044638E+00  0.88000000000E+00 0. -1.
        -11    1    4    4    0    0 -0.19556547805E-01 -0.98997744848E-04  0.24950403866E-01  0.31705711421E-01  0.51100000000E-03 0.  1.
         11    1    4    4    0    0 -0.79265676356E-01  0.19046652414E-01  0.55631732594E-01  0.98696368772E-01  0.51100000000E-03 0. -1.
</event>
<event>
 8    1  0.1196210E+005  0.1043930E+01  0.7957747E-01            NaN
         13   -1    0    0    0    0  0.00000000000E+00  0.00000000000E+00  0.74505805969E-08  0.10566000000E+00  0.10566000000E+00 0. -1.
     999900   -1    0    0    0    0 -0.00000000000E+00 -0.00000000000E+00 -0.74505805969E-08  0.93827000000E+00  0.93827000000E+00 0.  1.
     999902    2    1    2    0    0 -0.20104189445E-02  0.12569744264E-03 -0.23236778511E-01  0.10206060754E+01  0.10203395296E+01 0.  0.
     999903    2    3    3    0    0  0.11828283377E+00 -0.43447724385E-01  0.24982289338E-01  0.13004771781E+00  0.20242544500E-01 0.  0.
         14    1    1    2    0    0  0.20104189445E-02 -0.12569744264E-03  0.23236778511E-01  0.23323924622E-01  0.00000000000E+00 0. -1.
     999901    1    3    3    0    0 -0.12029325271E+00  0.43573421828E-01 -0.48219067850E-01  0.89055835757E+00  0.88000000000E+00 0.  1.
        -11    1    4    4    0    0  0.16290662803E-01 -0.78322084679E-03 -0.14274111034E-02  0.16379797096E-01  0.51100000000E-03 0. -1.
         11    1    4    4    0    0  0.10199217096E+00 -0.42664503539E-01  0.26409700442E-01  0.11366792071E+00  0.51100000000E-03 0.  1.
</event>
<event>
 8    1  0.1196210E+005  0.1043930E+01  0.7957747E-01            NaN
         13   -1    0    0    0    0  0.00000000000E+00  0.00000000000E+00  0.74505805969E-08  0.10566000000E+00  0.10566000000E+00 0. -1.
     999900   -1    0    0    0    0 -0.00000000000E+00 -0.00000000000E+00 -0.74505805969E-08  0.93827000000E+00  0.93827000000E+00 0. -1.
     999902    2    1    2    0    0 -0.16456411671E-01 -0.11694424750E-01 -0.17831021932E-01  0.10169945513E+01  0.10166377914E+01 0.  0.
     999903    2    3    3    0    0  0.85263700406E-01  0.77757452356E-01  0.42514470930E-01  0.12458758243E+00  0.19961599474E-01 0.  0.
         14    1    1    2    0    0  0.16456411671E-01  0.11694424750E-01  0.17831021932E-01  0.26935448733E-01  0.00000000000E+00 0.  1.
     999901    1    3    3    0    0 -0.10172011208E+00 -0.89451877106E-01 -0.60345492862E-01  0.89240696884E+00  0.88000000000E+00 0. -1.
        -11    1    4    4    0    0  0.14595525261E-01  0.21572459449E-01  0.36918277766E-02  0.26311424850E-01  0.51100000000E-03 0.  1.
         11    1    4    4    0    0  0.70668175145E-01  0.56184992907E-01  0.38822643154E-01  0.98276157580E-01  0.51100000000E-03 0. -1.
</event>
<event>
 8    1  0.1196210E+005  0.1043930E+01  0.7957747E-01            NaN
         13   -1    0    0    0    0  0.00000000000E+00  0.00000000000E+00  0.74505805969E-08  0.10566000000E+00  0.10566000000E+00 0. -1.
     999900   -1    0    0    0    0 -0.00000000000E+00 -0.00000000000E+00 -0.74505805969E-08  0.93827000000E+00  0.93827000000E+00 0.  1.
     999902    2    1    2    0    0 -0.13159859613E-01 -0.12200620242E-01 -0.14819380247E-01  0.10206566017E+01  0.10203912227E+01 0.  0.
     999903    2    3    3    0    0  0.83781874691E-01 -0.10370818253E-01 -0.98516973131E-01  0.13138367669E+00  0.20715214427E-01 0.  0.
         14    1    1    2    0    0  0.13159859613E-01  0.12200620242E-01  0.14819380247E-01  0.23273398339E-01  0.00000000000E+00 0. -1.
     999901    1    3    3    0    0 -0.96941734304E-01 -0.18298019888E-02  0.83697592885E-01  0.88927292497E+00  0.88000000000E+00 0. -1.
        -11    1    4    4    0    0  0.45300117136E-01 -0.25029184612E-02 -0.37734017807E-01  0.59012561664E-01  0.51100000000E-03 0.  1.
         11    1    4    4    0    0  0.38481757555E-01 -0.78678997922E-02 -0.60782955325E-01  0.72371115030E-01  0.51100000000E-03 0. -1.
</event>
<event>
 8    1  0.1196210E+005  0.1043930E+01  0.7957747E-01            NaN
         13   -1    0    0    0    0  0.00000000000E+00  0.00000000000E+00  0.74505805969E-08  0.10566000000E+00  0.10566000000E+00 0. -1.
     999900   -1    0    0    0    0 -0.00000000000E+00 -0.00000000000E+00 -0.74505805969E-08  0.93827000000E+00  0.93827000000E+00 0. -1.
     999902    2    1    2    0    0 -0.16962601833E-01  0.74337233768E-02 -0.15177673513E-01  0.10199852328E+01  0.10197041351E+01 0.  0.
     999903    2    3    3    0    0 -0.11777305715E+00 -0.54767986946E-01  0.27410485197E-02  0.13186762724E+00  0.22617081628E-01 0.  0.
         14    1    1    2    0    0  0.16962601833E-01 -0.74337233768E-02  0.15177673513E-01  0.23944767225E-01  0.00000000000E+00 0. -1.
     999901    1    3    3    0    0  0.10081045532E+00  0.62201710322E-01 -0.17918722033E-01  0.88811760554E+00  0.88000000000E+00 0. -1.
        -11    1    4    4    0    0 -0.46415956533E-01 -0.16742714251E-01  0.11099197977E-01  0.50578778337E-01  0.51100000000E-03 0. -1.
         11    1    4    4    0    0 -0.71357100618E-01 -0.38025272694E-01 -0.83581494572E-02  0.81288848900E-01  0.51100000000E-03 0.  1.
</event>
<event>
 8    1  0.1196210E+005  0.1043930E+01  0.7957747E-01            NaN
         13   -1    0    0    0    0  0.00000000000E+00  0.00000000000E+00  0.74505805969E-08  0.10566000000E+00  0.10566000000E+00 0. -1.
     999900   -1    0    0    0    0 -0.00000000000E+00 -0.00000000000E+00 -0.74505805969E-08  0.93827000000E+00  0.93827000000E+00 0.  1.
     999902    2    1    2    0    0 -0.18392978032E-01 -0.46119929782E-02  0.17040722453E-01  0.10184357194E+01  0.10181165730E+01 0.  0.
     999903    2    3    3    0    0  0.75079562125E-02  0.12575756695E+00  0.10478896371E-01  0.12843002388E+00  0.22652344546E-01 0.  0.
         14    1    1    2    0    0  0.18392978032E-01  0.46119929782E-02 -0.17040722453E-01  0.25494280571E-01  0.00000000000E+00 0.  1.
     999901    1    3    3    0    0 -0.25900934245E-01 -0.13036955993E+00  0.65618260825E-02  0.89000569555E+00  0.88000000000E+00 0. -1.
        -11    1    4    4    0    0  0.16518205813E-02  0.17756331306E-01 -0.64128012117E-02  0.18957873115E-01  0.51100000000E-03 0. -1.
         11    1    4    4    0    0  0.58561356312E-02  0.10800123564E+00  0.16891697582E-01  0.10947215076E+00  0.51100000000E-03 0.  1.
</event>
<event>
 8    1  0.1196210E+005  0.1043930E+01  0.7957747E-01            NaN
         13   -1    0    0    0    0  0.00000000000E+00  0.00000000000E+00  0.74505805969E-08  0.10566000000E+00  0.10566000000E+00 0.  1.
     999900   -1    0    0    0    0 -0.00000000000E+00 -0.00000000000E+00 -0.74505805969E-08  0.93827000000E+00  0.93827000000E+00 0. -1.
     999902    2    1    2    0    0 -0.91276741353E-02 -0.21689493802E-01  0.54133321856E-02  0.10197835149E+01  0.10194976040E+01 0.  0.
     999903    2    3    3    0    0  0.96064628599E-01  0.68003469188E-01  0.46695505175E-01  0.12803553148E+00  0.18966877115E-01 0.  0.
         14    1    1    2    0    0  0.91276741353E-02  0.21689493802E-01 -0.54133321856E-02  0.24146485083E-01  0.00000000000E+00 0. -1.
     999901    1    3    3    0    0 -0.10519230273E+00 -0.89692962990E-01 -0.41282172989E-01  0.89174798344E+00  0.88000000000E+00 0. -1.
        -11    1    4    4    0    0  0.52378986290E-01  0.37202189279E-01  0.35562399707E-01  0.73433687677E-01  0.51100000000E-03 0. -1.
         11    1    4    4    0    0  0.43685642308E-01  0.30801279909E-01  0.11133105468E-01  0.54601843799E-01  0.51100000000E-03 0.  1.
</event>
<event>
 8    1  0.1196210E+005  0.1043930E+01  0.7957747E-01            NaN
         13   -1    0    0    0    0  0.00000000000E+00  0.00000000000E+00  0.74505805969E-08  0.10566000000E+00  0.10566000000E+00 0.  1.
     999900   -1    0    0    0    0 -0.00000000000E+00 -0.00000000000E+00 -0.74505805969E-08  0.93827000000E+00  0.93827000000E+00 0.  1.
     999902    2    1    2    0    0 -0.17287324974E-01  0.16951945164E-01  0.26221714771E-03  0.10197165986E+01  0.10194290817E+01 0.  0.
     999903    2    3    3    0    0 -0.10268563113E+00  0.51418387216E-01  0.65063078017E-01  0.13254132962E+00  0.12075204027E-01 0.  0.
         14    1    1    2    0    0  0.17287324974E-01 -0.16951945164E-01 -0.26221714771E-03  0.24213401402E-01  0.00000000000E+00 0.  1.
     999901    1    3    3    0    0  0.85398306151E-01 -0.34466442051E-01 -0.64800860869E-01  0.88717526898E+00  0.88000000000E+00 0.  1.
        -11    1    4    4    0    0 -0.24999800620E-01  0.96332147520E-02  0.10270140947E-01  0.28697138769E-01  0.51100000000E-03 0.  1.
         11    1    4    4    0    0 -0.77685830506E-01  0.41785172464E-01  0.54792937070E-01  0.10384419085E+00  0.51100000000E-03 0. -1.
</event>
<event>
 8    1  0.1196210E+005  0.1043930E+01  0.7957747E-01            NaN
         13   -1    0    0    0    0  0.00000000000E+00  0.00000000000E+00  0.74505805969E-08  0.10566000000E+00  0.10566000000E+00 0.  1.
     999900   -1    0    0    0    0 -0.00000000000E+00 -0.00000000000E+00 -0.74505805969E-08  0.93827000000E+00  0.93827000000E+00 0. -1.
     999902    2    1    2    0    0 -0.46522472670E-02 -0.21551836735E-01  0.88586489861E-02  0.10201686715E+01  0.10198919146E+01 0.  0.
     999903    2    3    3    0    0 -0.12798752346E+00 -0.91769514685E-02  0.19943474395E-01  0.13141246110E+00  0.20161105130E-01 0.  0.
         14    1    1    2    0    0  0.46522472670E-02  0.21551836735E-01 -0.88586489861E-02  0.23761328522E-01  0.00000000000E+00 0. -1.
     999901    1    3    3    0    0  0.12333527619E+00 -0.12374885266E-01 -0.11084825409E-01  0.88875621038E+00  0.88000000000E+00 0.  1.
        -11    1    4    4    0    0 -0.12123325510E+00 -0.46416582588E-02  0.16055054484E-01  0.12238085238E+00  0.51100000000E-03 0. -1.
         11    1    4    4    0    0 -0.67542683624E-02 -0.45352932097E-02  0.38884199112E-02  0.90316087169E-02  0.51100000000E-03 0.  1.
</event>
<event>
 8    1  0.1196210E+005  0.1043930E+01  0.7957747E-01            NaN
         13   -1    0    0    0    0  0.00000000000E+00  0.00000000000E+00  0.74505805969E-08  0.10566000000E+00  0.10566000000E+00 0.  1.
     999900   -1    0    0    0    0 -0.00000000000E+00 -0.00000000000E+00 -0.74505805969E-08  0.93827000000E+00  0.93827000000E+00 0. -1.
     999902    2    1    2    0    0 -0.23245468635E-01 -0.17359625285E-02  0.33669258970E-02  0.10203778967E+01  0.10201060487E+01 0.  0.
     999903    2    3    3    0    0  0.56461258134E-01 -0.11388955425E+00 -0.14323845255E-01  0.12951059247E+00  0.20226635461E-01 0.  0.
         14    1    1    2    0    0  0.23245468635E-01  0.17359625285E-02 -0.33669258970E-02  0.23552103260E-01  0.00000000000E+00 0.  1.
     999901    1    3    3    0    0 -0.79706726769E-01  0.11215359172E+00  0.17690771152E-01  0.89086730427E+00  0.88000000000E+00 0.  1.
        -11    1    4    4    0    0  0.52765302586E-01 -0.88712381427E-01 -0.10136569996E-01  0.10371631958E+00  0.51100000000E-03 0. -1.
         11    1    4    4    0    0  0.36959555480E-02 -0.25177172824E-01 -0.41872752591E-02  0.25794272890E-01  0.51100000000E-03 0.  1.
</event>
<event>
 8    1  0.1196210E+005  0.1043930E+01  0.7957747E-01            NaN
         13   -1    0    0    0    0  0.00000000000E+00  0.00000000000E+00  0.74505805969E-08  0.10566000000E+00  0.10566000000E+00 0. -1.
     999900   -1    0    0    0    0 -0.00000000000E+00 -0.00000000000E+00 -0.74505805969E-08  0.93827000000E+00  0.93827000000E+00 0.  1.
     999902    2    1    2    0    0  0.18445441133E-02  0.15493492033E-01 -0.16739953938E-01  0.10210460166E+01  0.10207895431E+01 0.  0.
     999903    2    3    3    0    0  0.11999185601E+00 -0.25405844838E-01  0.39336509106E-01  0.13044166406E+00  0.20595249770E-01 0.  0.
         14    1    1    2    0    0 -0.18445441133E-02 -0.15493492033E-01  0.16739953938E-01  0.22883983399E-01  0.00000000000E+00 0. -1.
     999901    1    3    3    0    0 -0.11814731189E+00  0.40899336871E-01 -0.56076463044E-01  0.89060435254E+00  0.88000000000E+00 0. -1.
        -11    1    4    4    0    0  0.41129011881E-01 -0.44231258631E-02  0.41697427683E-02  0.41578931401E-01  0.51100000000E-03 0.  1.
         11    1    4    4    0    0  0.78862844126E-01 -0.20982718974E-01  0.35166766338E-01  0.88862732655E-01  0.51100000000E-03 0. -1.
</event>
<event>
 8    1  0.1196210E+005  0.1043930E+01  0.7957747E-01            NaN
         13   -1    0    0    0    0  0.00000000000E+00  0.00000000000E+00  0.74505805969E-08  0.10566000000E+00  0.10566000000E+00 0.  1.
     999900   -1    0    0    0    0 -0.00000000000E+00 -0.00000000000E+00 -0.74505805969E-08  0.93827000000E+00  0.93827000000E+00 0.  1.
     999902    2    1    2    0    0  0.16210698150E-01 -0.23872874592E-02  0.17249788432E-01  0.10201383822E+01  0.10198609110E+01 0.  0.
     999903    2    3    3    0    0 -0.79735313763E-01 -0.87510116862E-01 -0.46160855028E-01  0.12858219050E+00  0.19667596742E-01 0.  0.
         14    1    1    2    0    0 -0.16210698150E-01  0.23872874592E-02 -0.17249788432E-01  0.23791617786E-01  0.00000000000E+00 0.  1.
     999901    1    3    3    0    0  0.95946011913E-01  0.85122829403E-01  0.63410643460E-01  0.89155619172E+00  0.88000000000E+00 0. -1.
        -11    1    4    4    0    0 -0.56186842662E-01 -0.70376746051E-01 -0.41213385195E-01  0.99038638487E-01  0.51100000000E-03 0.  1.
         11    1    4    4    0    0 -0.23548471101E-01 -0.17133370811E-01 -0.49474698327E-02  0.29543552009E-01  0.51100000000E-03 0. -1.
</event>
<event>
 8    1  0.1196210E+005  0.1043930E+01  0.7957747E-01            NaN
         13   -1    0    0    0    0  0.00000000000E+00  0.00000000000E+00  0.74505805969E-08  0.10566000000E+00  0.10566000000E+00 0. -1.
     999900   -1    0    0    0    0 -0.00000000000E+00 -0.00000000000E+00 -0.74505805969E-08  0.93827000000E+00  0.93827000000E+00 0. -1.
     999902    2    1    2    0    0  0.61655379539E-03  0.19800676870E-01 -0.20551379372E-01  0.10153851907E+01  0.10149838813E+01 0.  0.
     999903    2    3    3    0    0 -0.59934764279E-01  0.24930923288E-01  0.10439463057E+00  0.12448436181E+00  0.19605880176E-01 0.  0.
         14    1    1    2    0    0 -0.61655379539E-03 -0.19800676870E-01  0.20551379372E-01  0.28544809286E-01  0.00000000000E+00 0.  1.
     999901    1    3    3    0    0  0.60551318074E-01 -0.51302464185E-02 -0.12494600994E+00  0.89090082891E+00  0.88000000000E+00 0. -1.
        -11    1    4    4    0    0 -0.18695428455E-01  0.11348480315E-01  0.52140537026E-01  0.56543821704E-01  0.51100000000E-03 0. -1.
         11    1    4    4    0    0 -0.41239335824E-01  0.13582442974E-01  0.52254093543E-01  0.67940540102E-01  0.51100000000E-03 0.  1.
</event>
<event>
 8    1  0.1196210E+005  0.1043930E+01  0.7957747E-01            NaN
         13   -1    0    0    0    0  0.00000000000E+00  0.00000000000E+00  0.74505805969E-08  0.10566000000E+00  0.10566000000E+00 0. -1.
     999900   -1    0    0    0    0 -0.00000000000E+00 -0.00000000000E+00 -0.74505805969E-08  0.93827000000E+00  0.93827000000E+00 0.  1.
     999902    2    1    2    0    0 -0.99668798165E-02 -0.68212101798E-02  0.21187329743E-01  0.10195420820E+01  0.10192503552E+01 0.  0.
     999903    2    3    3    0    0  0.65719046346E-01  0.10609584005E+00 -0.22127471934E-01  0.12805187361E+00  0.18230112239E-01 0.  0.
         14    1    1    2    0    0  0.99668798165E-02  0.68212101798E-02 -0.21187329743E-01  0.24387917976E-01  0.00000000000E+00 0.  1.
     999901    1    3    3    0    0 -0.75685926163E-01 -0.11291705023E+00  0.43314801676E-01  0.89149020841E+00  0.88000000000E+00 0. -1.
        -11    1    4    4    0    0  0.19189772081E-01  0.19900623519E-01 -0.97529774972E-02  0.29320024898E-01  0.51100000000E-03 0.  1.
         11    1    4    4    0    0  0.46529274265E-01  0.86195216532E-01 -0.12374494436E-01  0.98731848712E-01  0.51100000000E-03 0. -1.
</event>
<event>
 8    1  0.1196210E+005  0.1043930E+01  0.7957747E-01            NaN
         13   -1    0    0    0    0  0.00000000000E+00  0.00000000000E+00  0.74505805969E-08  0.10566000000E+00  0.10566000000E+00 0. -1.
     999900   -1    0    0    0    0 -0.00000000000E+00 -0.00000000000E+00 -0.74505805969E-08  0.93827000000E+00  0.93827000000E+00 0.  1.
     999902    2    1    2    0    0  0.18519710996E-01  0.10825018274E-01 -0.90914332454E-02  0.10206316122E+01  0.10203656565E+01 0.  0.
     999903    2    3    3    0    0  0.53925286787E-01 -0.11673641068E+00  0.10400717674E-01  0.13051621692E+00  0.19773260169E-01 0.  0.
         14    1    1    2    0    0 -0.18519710996E-01 -0.10825018274E-01  0.90914332454E-02  0.23298387808E-01  0.00000000000E+00 0. -1.
     999901    1    3    3    0    0 -0.35405575791E-01  0.12756142895E+00 -0.19492150920E-01  0.89011539527E+00  0.88000000000E+00 0. -1.
        -11    1    4    4    0    0  0.49521895360E-01 -0.11521851673E+00  0.98288680233E-02  0.12579583652E+00  0.51100000000E-03 0.  1.
         11    1    4    4    0    0  0.44033914263E-02 -0.15178939444E-02  0.57184965101E-03  0.47203803981E-02  0.51100000000E-03 0. -1.
</event>
<event>
 8    1  0.1196210E+005  0.1043930E+01  0.7957747E-01            NaN
         13   -1    0    0    0    0  0.00000000000E+00  0.00000000000E+00  0.74505805969E-08  0.10566000000E+00  0.10566000000E+00 0. -1.
     999900   -1    0    0    0    0 -0.00000000000E+00 -0.00000000000E+00 -0.74505805969E-08  0.93827000000E+00  0.93827000000E+00 0.  1.
     999902    2    1    2    0    0 -0.23609236091E-01 -0.11647682820E-02  0.14971871670E-02  0.10202446821E+01  0.10199697138E+01 0.  0.
     999903    2    3    3    0    0 -0.33864090181E-01 -0.64512963117E-01  0.10778401383E+00  0.13152929160E+00  0.19335508712E-01 0.  0.
         14    1    1    2    0    0  0.23609236091E-01  0.11647682820E-02 -0.14971871670E-02  0.23685317886E-01  0.00000000000E+00 0. -1.
     999901    1    3    3    0    0  0.10254854090E-01  0.63348194834E-01 -0.10628682666E+00  0.88871539052E+00  0.88000000000E+00 0.  1.
        -11    1    4    4    0    0 -0.58390905707E-02 -0.25114549881E-01  0.26686143855E-01  0.37111278465E-01  0.51100000000E-03 0. -1.
         11    1    4    4    0    0 -0.28024999610E-01 -0.39398413235E-01  0.81097869973E-01  0.94418013132E-01  0.51100000000E-03 0.  1.
</event>
<event>
 8    1  0.1196210E+005  0.1043930E+01  0.7957747E-01            NaN
         13   -1    0    0    0    0  0.00000000000E+00  0.00000000000E+00  0.74505805969E-08  0.10566000000E+00  0.10566000000E+00 0. -1.
     999900   -1    0    0    0    0 -0.00000000000E+00 -0.00000000000E+00 -0.74505805969E-08  0.93827000000E+00  0.93827000000E+00 0.  1.
     999902    2    1    2    0    0  0.20937959000E-02 -0.12328878301E-01  0.20149684699E-01  0.10202151309E+01  0.10199394680E+01 0.  0.
     999903    2    3    3    0    0  0.99821114874E-02 -0.90097077247E-01 -0.90549922739E-01  0.12984188258E+00  0.21035686023E-01 0.  0.
         14    1    1    2    0    0 -0.20937959000E-02  0.12328878301E-01 -0.20149684699E-01  0.23714869068E-01  0.00000000000E+00 0.  1.
     999901    1    3    3    0    0 -0.78883155874E-02  0.77768198946E-01  0.11069960744E+00  0.89037324835E+00  0.88000000000E+00 0. -1.
        -11    1    4    4    0    0 -0.44304003514E-02 -0.52432162145E-01 -0.54291514823E-01  0.75608133010E-01  0.51100000000E-03 0.  1.
         11    1    4    4    0    0  0.14412511839E-01 -0.37664915102E-01 -0.36258407915E-01  0.54233749572E-01  0.51100000000E-03 0. -1.
</event>
<event>
 8    1  0.1196210E+005  0.1043930E+01  0.7957747E-01            NaN
         13   -1    0    0    0    0  0.00000000000E+00  0.00000000000E+00  0.74505805969E-08  0.10566000000E+00  0.10566000000E+00 0. -1.
     999900   -1    0    0    0    0 -0.00000000000E+00 -0.00000000000E+00 -0.74505805969E-08  0.93827000000E+00  0.93827000000E+00 0. -1.
     999902    2    1    2    0    0 -0.93643663209E-02  0.16505680492E-01 -0.13937668574E-01  0.10203845663E+01  0.10201128739E+01 0.  0.
     999903    2    3    3    0    0  0.65426036614E-04  0.11645812462E+00  0.58108269304E-01  0.13175076696E+00  0.20474241459E-01 0.  0.
         14    1    1    2    0    0  0.93643663209E-02 -0.16505680492E-01  0.13937668574E-01  0.23545433748E-01  0.00000000000E+00 0.  1.
     999901    1    3    3    0    0 -0.94297923575E-02 -0.99952444129E-01 -0.72045937878E-01  0.88863379929E+00  0.88000000000E+00 0.  1.
        -11    1    4    4    0    0 -0.82341374352E-03  0.41487368916E-01  0.10066950408E-01  0.42702276301E-01  0.51100000000E-03 0.  1.
         11    1    4    4    0    0  0.88883978013E-03  0.74970755705E-01  0.48041318896E-01  0.89048490663E-01  0.51100000000E-03 0. -1.
</event>
<event>
 8    1  0.1196210E+005  0.1043930E+01  0.7957747E-01            NaN
         13   -1    0    0    0    0  0.00000000000E+00  0.00000000000E+00  0.74505805969E-08  0.10566000000E+00  0.10566000000E+00 0.  1.
     999900   -1    0    0    0    0 -0.00000000000E+00 -0.00000000000E+00 -0.74505805969E-08  0.93827000000E+00  0.93827000000E+00 0.  1.
     999902    2    1    2    0    0  0.92828475633E-02 -0.15423630866E-01  0.14215703139E-01  0.10209921304E+01  0.10207344338E+01 0.  0.
     999903    2    3    3    0    0 -0.12123256830E+00  0.40208957508E-01 -0.41247615100E-02  0.12943975876E+00  0.20580126576E-01 0.  0.
         14    1    1    2    0    0 -0.92828475633E-02  0.15423630866E-01 -0.14215703139E-01  0.22937869642E-01  0.00000000000E+00 0. -1.
     999901    1    3    3    0    0  0.13051541586E+00 -0.55632588373E-01  0.18340464649E-01  0.89155237160E+00  0.88000000000E+00 0.  1.
        -11    1    4    4    0    0 -0.92906885149E-01  0.39071447824E-01 -0.64207134839E-02  0.10099383162E+00  0.51100000000E-03 0.  1.
         11    1    4    4    0    0 -0.28325683147E-01  0.11375096831E-02  0.22959519739E-02  0.28445927133E-01  0.51100000000E-03 0. -1.
</event>
<event>
 7    1  0.1196210E+005  0.1043930E+01  0.7957747E-01            NaN
         13   -1    0    0    0    0  0.00000000000E+00  0.00000000000E+00  0.74505805969E-08  0.10566000000E+00  0.10566000000E+00 0.  1.
     999900   -1    0    0    0    0 -0.00000000000E+00 -0.00000000000E+00 -0.74505805969E-08  0.93827000000E+00  0.93827000000E+00 0. -1.
     999902    2    1    2    0    0 -0.10579118807E-01  0.73306362961E-02 -0.19208082078E-01  0.10208084430E+01  0.10205465549E+01 0.  0.
         14    1    1    2    0    0  0.10579118807E-01 -0.73306362961E-02  0.19208082078E-01  0.23121557048E-01  0.00000000000E+00 0.  1.
     999901    1    3    3    0    0  0.12567834858E-01 -0.10392336845E+00 -0.67463517408E-01  0.88876844181E+00  0.88000000000E+00 0. -1.
        -11    1    3    3    0    0  0.72131188371E-02  0.55379395543E-01  0.38184767980E-01  0.67655333572E-01  0.51100000000E-03 0.  1.
         11    1    3    3    0    0 -0.30360072502E-01  0.55874609202E-01  0.10070667350E-01  0.64384667566E-01  0.51100000000E-03 0. -1.
</event>
<event>
 7    1  0.1196210E+005  0.1043930E+01  0.7957747E-01            NaN
         13   -1    0    0    0    0  0.00000000000E+00  0.00000000000E+00  0.74505805969E-08  0.10566000000E+00  0.10566000000E+00 0.  1.
     999900   -1    0    0    0    0 -0.00000000000E+00 -0.00000000000E+00 -0.74505805969E-08  0.93827000000E+00  0.93827000000E+00 0.  1.
     999903    2    1    2    0    0  0.66247679908E-01  0.87424158174E-01  0.30616134092E-01  0.11599933210E+00  0.22062612154E-01 0.  0.
         14    1    1    2    0    0 -0.20322280690E-01 -0.41843541671E-02  0.34671602183E-01  0.40405741055E-01  0.00000000000E+00 0.  1.
     999901    1    1    2    0    0 -0.45925399218E-01 -0.83239804007E-01 -0.65287736276E-01  0.88752492685E+00  0.88000000000E+00 0.  1.
        -11    1    3    3    0    0  0.65449685637E-01  0.83410688709E-01  0.33237905376E-01  0.11111266272E+00  0.51100000000E-03 0. -1.
         11    1    3    3    0    0  0.79799427097E-03  0.40134694653E-02 -0.26217712835E-02  0.48866693840E-02  0.51100000000E-03 0.  1.
</event>
<event>
 8    1  0.1196210E+005  0.1043930E+01  0.7957747E-01            NaN
         13   -1    0    0    0    0  0.00000000000E+00  0.00000000000E+00  0.74505805969E-08  0.10566000000E+00  0.10566000000E+00 0. -1.
     999900   -1    0    0    0    0 -0.00000000000E+00 -0.00000000000E+00 -0.74505805969E-08  0.93827000000E+00  0.93827000000E+00 0. -1.
     999902    2    1    2    0    0  0.82380634556E-02 -0.20555127372E-01 -0.15145661880E-01  0.10171014700E+01  0.10167475745E+01 0.  0.
     999903    2    3    3    0    0  0.86258276154E-01 -0.69835327616E-01 -0.66182509413E-01  0.13080555349E+00  0.20310221167E-01 0.  0.
         14    1    1    2    0    0 -0.82380634556E-02  0.20555127372E-01  0.15145661880E-01  0.26828530049E-01  0.00000000000E+00 0. -1.
     999901    1    3    3    0    0 -0.78020212699E-01  0.49280200244E-01  0.51036847533E-01  0.88629591646E+00  0.88000000000E+00 0. -1.
        -11    1    4    4    0    0  0.39591499858E-01 -0.24062815598E-01 -0.36642265809E-01  0.59071335858E-01  0.51100000000E-03 0.  1.
         11    1    4    4    0    0  0.46666776297E-01 -0.45772512018E-01 -0.29540243604E-01  0.71734217634E-01  0.51100000000E-03 0. -1.
</event>
<event>
 8    1  0.1196210E+005  0.1043930E+01  0.7957747E-01            NaN
         13   -1    0    0    0    0  0.00000000000E+00  0.00000000000E+00  0.74505805969E-08  0.10566000000E+00  0.10566000000E+00 0.  1.
     999900   -1    0    0    0    0 -0.00000000000E+00 -0.00000000000E+00 -0.74505805969E-08  0.93827000000E+00  0.93827000000E+00 0.  1.
     999902    2    1    2    0    0  0.52546694622E-02 -0.32383317330E-02 -0.23526894810E-01  0.10196069015E+01  0.10193167419E+01 0.  0.
     999903    2    3    3    0    0  0.20515555496E-01  0.12459157884E+00 -0.25121127125E-01  0.13023863001E+00  0.19674353429E-01 0.  0.
         14    1    1    2    0    0 -0.52546694622E-02  0.32383317330E-02  0.23526894810E-01  0.24323098548E-01  0.00000000000E+00 0.  1.
     999901    1    3    3    0    0 -0.15260886034E-01 -0.12782991057E+00  0.15942323149E-02  0.88936827145E+00  0.88000000000E+00 0.  1.
        -11    1    4    4    0    0  0.81155711237E-02  0.17502921221E-01  0.95905996662E-03  0.19323448526E-01  0.51100000000E-03 0. -1.
         11    1    4    4    0    0  0.12399984372E-01  0.10708865762E+00 -0.26080187092E-01  0.11091518148E+00  0.51100000000E-03 0.  1.
</event>
<event>
 8    1  0.1196210E+005  0.1043930E+01  0.7957747E-01            NaN
         13   -1    0    0    0    0  0.00000000000E+00  0.00000000000E+00  0.74505805969E-08  0.10566000000E+00  0.10566000000E+00 0.  1.
     999900   -1    0    0    0    0 -0.00000000000E+00 -0.00000000000E+00 -0.74505805969E-08  0.93827000000E+00  0.93827000000E+00 0. -1.
     999902    2    1    2    0    0 -0.13246129362E-01  0.19988745549E-01 -0.39558952953E-02  0.10196265229E+01  0.10193368370E+01 0.  0.
     999903    2    3    3    0    0 -0.29242725095E-01 -0.89396429285E-01 -0.85829448858E-01  0.12893898716E+00  0.20290627838E-01 0.  0.
         14    1    1    2    0    0  0.13246129362E-01 -0.19988745549E-01  0.39558952953E-02  0.24303477103E-01  0.00000000000E+00 0.  1.
     999901    1    3    3    0    0  0.15996595733E-01  0.10938517483E+00  0.81873553563E-01  0.89068753574E+00  0.88000000000E+00 0.  1.
        -11    1    4    4    0    0 -0.51074807664E-02 -0.48082300103E-01 -0.41968732713E-01  0.64028349889E-01  0.51100000000E-03 0. -1.
         11    1    4    4    0    0 -0.24135244329E-01 -0.41314129183E-01 -0.43860716145E-01  0.64910637269E-01  0.51100000000E-03 0.  1.
</event>
<event>
 8    1  0.1196210E+005  0.1043930E+01  0.7957747E-01            NaN
         13   -1    0    0    0    0  0.00000000000E+00  0.00000000000E+00  0.74505805969E-08  0.10566000000E+00  0.10566000000E+00 0. -1.
     999900   -1    0    0    0    0 -0.00000000000E+00 -0.00000000000E+00 -0.74505805969E-08  0.93827000000E+00  0.93827000000E+00 0.  1.
     999902    2    1    2    0    0 -0.19698152449E-01  0.88605976362E-02 -0.10435743425E-01  0.10199418333E+01  0.10196597036E+01 0.  0.
     999903    2    3    3    0    0 -0.97782119490E-01  0.77971792968E-02 -0.86914454255E-01  0.13317961604E+00  0.23675913349E-01 0.  0.
         14    1    1    2    0    0  0.19698152449E-01 -0.88605976362E-02  0.10435743425E-01  0.23988166691E-01  0.00000000000E+00 0. -1.
     999901    1    3    3    0    0  0.78083967041E-01  0.10634183394E-02  0.76478710830E-01  0.88676221727E+00  0.88000000000E+00 0. -1.
        -11    1    4    4    0    0 -0.36947336182E-01  0.83797147120E-02 -0.20379779180E-01  0.43022340593E-01  0.51100000000E-03 0.  1.
         11    1    4    4    0    0 -0.60834783307E-01 -0.58253541518E-03 -0.66534675075E-01  0.90157275446E-01  0.51100000000E-03 0. -1.
</event>
<event>
 8    1  0.1196210E+005  0.1043930E+01  0.7957747E-01            NaN
         13   -1    0    0    0    0  0.00000000000E+00  0.00000000000E+00  0.74505805969E-08  0.10566000000E+00  0.10566000000E+00 0.  1.
     999900   -1    0    0    0    0 -0.00000000000E+00 -0.00000000000E+00 -0.74505805969E-08  0.93827000000E+00  0.93827000000E+00 0.  1.
     999902    2    1    2    0    0 -0.53070297226E-02 -0.21645633072E-01  0.11131732405E-01  0.10190178852E+01  0.10187133242E+01 0.  0.
     999903    2    3    3    0    0 -0.78642674247E-01  0.60035818286E-01  0.81028025263E-01  0.12944750128E+00  0.20053553818E-01 0.  0.
         14    1    1    2    0    0  0.53070297226E-02  0.21645633072E-01 -0.11131732405E-01  0.24912114762E-01  0.00000000000E+00 0. -1.
     999901    1    3    3    0    0  0.73335644524E-01 -0.81681451358E-01 -0.69896292858E-01  0.88957038395E+00  0.88000000000E+00 0.  1.
        -11    1    4    4    0    0 -0.55373663907E-01  0.46378370447E-01  0.47685032012E-01  0.86552407816E-01  0.51100000000E-03 0.  1.
         11    1    4    4    0    0 -0.23269010340E-01  0.13657447839E-01  0.33342993251E-01  0.42895093468E-01  0.51100000000E-03 0. -1.
</event>
<event>
 8    1  0.1196210E+005  0.1043930E+01  0.7957747E-01            NaN
         13   -1    0    0    0    0  0.00000000000E+00  0.00000000000E+00  0.74505805969E-08  0.10566000000E+00  0.10566000000E+00 0. -1.
     999900   -1    0    0    0    0 -0.00000000000E+00 -0.00000000000E+00 -0.74505805969E-08  0.93827000000E+00  0.93827000000E+00 0. -1.
     999902    2    1    2    0    0  0.16131835035E-01  0.96855134880E-02 -0.14981910016E-01  0.10198779128E+01  0.10195942595E+01 0.  0.
     999903    2    3    3    0    0 -0.12126224275E+00  0.99911491475E-02 -0.38208491083E-01  0.12891399649E+00  0.18830165230E-01 0.  0.
         14    1    1    2    0    0 -0.16131835035E-01 -0.96855134880E-02  0.14981910016E-01  0.24052087245E-01  0.00000000000E+00 0.  1.
     999901    1    3    3    0    0  0.13739407778E+00 -0.30563565951E-03  0.23226581067E-01  0.89096391627E+00  0.88000000000E+00 0.  1.
        -11    1    4    4    0    0 -0.11082386813E+00  0.82770455614E-02 -0.28938801604E-01  0.11483969083E+00  0.51100000000E-03 0.  1.
         11    1    4    4    0    0 -0.10438374614E-01  0.17141035862E-02 -0.92696894787E-02  0.14074305657E-01  0.51100000000E-03 0. -1.
</event>
<event>
 8    1  0.1196210E+005  0.1043930E+01  0.7957747E-01            NaN
         13   -1    0    0    0    0  0.00000000000E+00  0.00000000000E+00  0.74505805969E-08  0.10566000000E+00  0.10566000000E+00 0. -1.
     999900   -1    0    0    0    0 -0.00000000000E+00 -0.00000000000E+00 -0.74505805969E-08  0.93827000000E+00  0.93827000000E+00 0.  1.
     999902    2    1    2    0    0  0.14329915997E-01  0.12762042805E-01  0.13435575013E-01  0.10205049940E+01  0.10202361060E+01 0.  0.
     999903    2    3    3    0    0 -0.52393117407E-01 -0.10147261741E+00  0.57691174149E-01  0.12951673437E+00  0.20114225617E-01 0.  0.
         14    1    1    2    0    0 -0.14329915997E-01 -0.12762042805E-01 -0.13435575013E-01  0.23425005976E-01  0.00000000000E+00 0.  1.
     999901    1    3    3    0    0  0.66723033404E-01  0.11423466022E+00 -0.44255599136E-01  0.89098825965E+00  0.88000000000E+00 0. -1.
        -11    1    4    4    0    0 -0.27825219337E-01 -0.41197973260E-01  0.16041748577E-01  0.52240928880E-01  0.51100000000E-03 0. -1.
         11    1    4    4    0    0 -0.24567898070E-01 -0.60274644151E-01  0.41649425572E-01  0.77275805493E-01  0.51100000000E-03 0.  1.
</event>
<event>
 8    1  0.1196210E+005  0.1043930E+01  0.7957747E-01            NaN
         13   -1    0    0    0    0  0.00000000000E+00  0.00000000000E+00  0.74505805969E-08  0.10566000000E+00  0.10566000000E+00 0.  1.
     999900   -1    0    0    0    0 -0.00000000000E+00 -0.00000000000E+00 -0.74505805969E-08  0.93827000000E+00  0.93827000000E+00 0. -1.
     999902    2    1    2    0    0 -0.79551121702E-02 -0.20527197933E-01  0.41939065362E-02  0.10215193214E+01  0.10212734626E+01 0.  0.
     999903    2    3    3    0    0  0.39247855413E-01  0.33611010832E-01  0.11892486179E+00  0.13116980692E+00  0.19806597138E-01 0.  0.
         14    1    1    2    0    0  0.79551121702E-02  0.20527197933E-01 -0.41939065362E-02  0.22410678630E-01  0.00000000000E+00 0. -1.
     999901    1    3    3    0    0 -0.47202967583E-01 -0.54138208765E-01 -0.11473095526E+00  0.89034951446E+00  0.88000000000E+00 0. -1.
        -11    1    4    4    0    0  0.28335412747E-01  0.22066736867E-01  0.58128348555E-01  0.68330099650E-01  0.51100000000E-03 0. -1.
         11    1    4    4    0    0  0.10912442666E-01  0.11544273964E-01  0.60796513237E-01  0.62839707265E-01  0.51100000000E-03 0.  1.
</event>
<event>
 8    1  0.1196210E+005  0.1043930E+01  0.7957747E-01            NaN
         13   -1    0    0    0    0  0.00000000000E+00  0.00000000000E+00  0.74505805969E-08  0.10566000000E+00  0.10566000000E+00 0. -1.
     999900   -1    0    0    0    0 -0.00000000000E+00 -0.00000000000E+00 -0.74505805969E-08  0.93827000000E+00  0.93827000000E+00 0.  1.
     999902    2    1    2    0    0  0.18202448899E-01 -0.66922935525E-02  0.17634431981E-01  0.10177176149E+01  0.10173799952E+01 0.  0.
     999903    2    3    3    0    0 -0.10139198813E+00 -0.36303868493E-01 -0.61540415259E-01  0.12561429628E+00  0.19834883301E-01 0.  0.
         14    1    1    2    0    0 -0.18202448899E-01  0.66922935525E-02 -0.17634431981E-01  0.26212385053E-01  0.00000000000E+00 0.  1.
     999901    1    3    3    0    0  0.11959443703E+00  0.29611574941E-01  0.79174847240E-01  0.89210331867E+00  0.88000000000E+00 0. -1.
        -11    1    4    4    0    0 -0.78898462125E-01 -0.30007712242E-01 -0.38424128847E-01  0.92747533220E-01  0.51100000000E-03 0. -1.
         11    1    4    4    0    0 -0.22493526004E-01 -0.62961562508E-02 -0.23116286412E-01  0.32866763061E-01  0.51100000000E-03 0.  1.
</event>
<event>
 8    1  0.1196210E+005  0.1043930E+01  0.7957747E-01            NaN
         13   -1    0    0    0    0  0.00000000000E+00  0.00000000000E+00  0.74505805969E-08  0.10566000000E+00  0.10566000000E+00 0. -1.
     999900   -1    0    0    0    0 -0.00000000000E+00 -0.00000000000E+00 -0.74505805969E-08  0.93827000000E+00  0.93827000000E+00 0.  1.
     999902    2    1    2    0    0 -0.56026868588E-02 -0.23445250455E-01 -0.66572158114E-02  0.10189222334E+01  0.10186152999E+01 0.  0.
     999903    2    3    3    0    0 -0.93880826864E-01 -0.90633017907E-01 -0.16707550024E-02  0.13194303921E+00  0.19447894133E-01 0.  0.
         14    1    1    2    0    0  0.56026868588E-02  0.23445250455E-01  0.66572158114E-02  0.25007766620E-01  0.00000000000E+00 0. -1.
     999901    1    3    3    0    0  0.88278140005E-01  0.67187767452E-01 -0.49864608090E-02  0.88697919417E+00  0.88000000000E+00 0. -1.
        -11    1    4    4    0    0 -0.53194215008E-01 -0.48321081315E-01 -0.10330875723E-01  0.72605368424E-01  0.51100000000E-03 0. -1.
         11    1    4    4    0    0 -0.40686611856E-01 -0.42311936592E-01  0.86601207203E-02  0.59337670787E-01  0.51100000000E-03 0.  1.
</event>
<event>
 8    1  0.1196210E+005  0.1043930E+01  0.7957747E-01            NaN
         13   -1    0    0    0    0  0.00000000000E+00  0.00000000000E+00  0.74505805969E-08  0.10566000000E+00  0.10566000000E+00 0. -1.
     999900   -1    0    0    0    0 -0.00000000000E+00 -0.00000000000E+00 -0.74505805969E-08  0.93827000000E+00  0.93827000000E+00 0. -1.
     999902    2    1    2    0    0 -0.16374966143E-02 -0.35456002151E-02 -0.23853171248E-01  0.10197592231E+01  0.10194727297E+01 0.  0.
     999903    2    3    3    0    0 -0.12398279485E+00 -0.32771772725E-01  0.10048915500E-01  0.13016836625E+00  0.19927377202E-01 0.  0.
         14    1    1    2    0    0  0.16374966143E-02  0.35456002151E-02  0.23853171248E-01  0.24170776873E-01  0.00000000000E+00 0. -1.
     999901    1    3    3    0    0  0.12234529824E+00  0.29226172510E-01 -0.33902086748E-01  0.88959085688E+00  0.88000000000E+00 0. -1.
        -11    1    4    4    0    0 -0.60019136626E-01 -0.18364174818E-01 -0.47619068832E-02  0.62948205345E-01  0.51100000000E-03 0.  1.
         11    1    4    4    0    0 -0.63963658224E-01 -0.14407597907E-01  0.14810822383E-01  0.67220160901E-01  0.51100000000E-03 0. -1.
</event>
<event>
 8    1  0.1196210E+005  0.1043930E+01  0.7957747E-01            NaN
         13   -1    0    0    0    0  0.00000000000E+00  0.00000000000E+00  0.74505805969E-08  0.10566000000E+00  0.10566000000E+00 0. -1.
     999900   -1    0    0    0    0 -0.00000000000E+00 -0.00000000000E+00 -0.74505805969E-08  0.93827000000E+00  0.93827000000E+00 0.  1.
     999902    2    1    2    0    0  0.16218759918E-01 -0.14252813978E-01 -0.77822660673E-02  0.10209788662E+01  0.10207208681E+01 0.  0.
     999903    2    3    3    0    0 -0.91836356275E-01  0.76864047050E-01  0.40959522881E-01  0.12836811533E+00  0.21417106623E-01 0.  0.
         14    1    1    2    0    0 -0.16218759918E-01  0.14252813978E-01  0.77822660673E-02  0.22951133844E-01  0.00000000000E+00 0. -1.
     999901    1    3    3    0    0  0.10805511619E+00 -0.91116861029E-01 -0.48741788948E-01  0.89261075083E+00  0.88000000000E+00 0.  1.
        -11    1    4    4    0    0 -0.70699360531E-02  0.70651618911E-03  0.55775524075E-02  0.90472853817E-02  0.51100000000E-03 0. -1.
         11    1    4    4    0    0 -0.84766420222E-01  0.76157530861E-01  0.35381970474E-01  0.11932082995E+00  0.51100000000E-03 0.  1.
</event>
<event>
 8    1  0.1196210E+005  0.1043930E+01  0.7957747E-01            NaN
         13   -1    0    0    0    0  0.00000000000E+00  0.00000000000E+00  0.74505805969E-08  0.10566000000E+00  0.10566000000E+00 0. -1.
     999900   -1    0    0    0    0 -0.00000000000E+00 -0.00000000000E+00 -0.74505805969E-08  0.93827000000E+00  0.93827000000E+00 0. -1.
     999902    2    1    2    0    0 -0.80481277410E-02  0.63366669784E-02 -0.24650993379E-01  0.10172354840E+01  0.10168851620E+01 0.  0.
     999903    2    3    3    0    0  0.56486010211E-02 -0.11851610178E+00  0.37877012374E-01  0.12612069583E+00  0.19844111847E-01 0.  0.
         14    1    1    2    0    0  0.80481277410E-02 -0.63366669784E-02  0.24650993379E-01  0.26694515975E-01  0.00000000000E+00 0. -1.
     999901    1    3    3    0    0 -0.13696728762E-01  0.12485276876E+00 -0.62528005753E-01  0.89111478820E+00  0.88000000000E+00 0. -1.
        -11    1    4    4    0    0  0.57120834178E-02 -0.51548543463E-01  0.26315421093E-01  0.58160491216E-01  0.51100000000E-03 0.  1.
         11    1    4    4    0    0 -0.63482396667E-04 -0.66967558315E-01  0.11561591281E-01  0.67960204610E-01  0.51100000000E-03 0. -1.
</event>
<event>
 8    1  0.1196210E+005  0.1043930E+01  0.7957747E-01            NaN
         13   -1    0    0    0    0  0.00000000000E+00  0.00000000000E+00  0.74505805969E-08  0.10566000000E+00  0.10566000000E+00 0. -1.
     999900   -1    0    0    0    0 -0.00000000000E+00 -0.00000000000E+00 -0.74505805969E-08  0.93827000000E+00  0.93827000000E+00 0. -1.
     999902    2    1    2    0    0 -0.62627609559E-02 -0.12724026937E-01  0.18146750794E-01  0.10208989861E+01  0.10206391685E+01 0.  0.
     999903    2    3    3    0    0 -0.23125839074E-01 -0.10860538684E+00  0.71828705327E-01  0.13390442535E+00  0.21002326930E-01 0.  0.
         14    1    1    2    0    0  0.62627609559E-02  0.12724026937E-01 -0.18146750794E-01  0.23031013887E-01  0.00000000000E+00 0. -1.
     999901    1    3    3    0    0  0.16863078118E-01  0.95881359901E-01 -0.53681954533E-01  0.88699456076E+00  0.88000000000E+00 0. -1.
        -11    1    4    4    0    0  0.21052181150E-02 -0.32756736828E-01  0.24972083568E-01  0.41246840238E-01  0.51100000000E-03 0.  1.
         11    1    4    4    0    0 -0.25231057189E-01 -0.75848650010E-01  0.46856621760E-01  0.92657585113E-01  0.51100000000E-03 0. -1.
</event>
<event>
 8    1  0.1196210E+005  0.1043930E+01  0.7957747E-01            NaN
         13   -1    0    0    0    0  0.00000000000E+00  0.00000000000E+00  0.74505805969E-08  0.10566000000E+00  0.10566000000E+00 0. -1.
     999900   -1    0    0    0    0 -0.00000000000E+00 -0.00000000000E+00 -0.74505805969E-08  0.93827000000E+00  0.93827000000E+00 0.  1.
     999902    2    1    2    0    0  0.15775802868E-01  0.12552221420E-01 -0.10187422352E-01  0.10213419989E+01  0.10210921902E+01 0.  0.
     999903    2    3    3    0    0 -0.75956764648E-01  0.10562802358E+00  0.24429132185E-02  0.13160187154E+00  0.19656431683E-01 0.  0.
         14    1    1    2    0    0 -0.15775802868E-01 -0.12552221420E-01  0.10187422352E-01  0.22588001082E-01  0.00000000000E+00 0. -1.
     999901    1    3    3    0    0  0.91732567515E-01 -0.93075802161E-01 -0.12630335571E-01  0.88974012738E+00  0.88000000000E+00 0.  1.
        -11    1    4    4    0    0 -0.36306029242E-01  0.64798732708E-01 -0.36008375193E-02  0.74365520719E-01  0.51100000000E-03 0.  1.
         11    1    4    4    0    0 -0.39650735406E-01  0.40829290872E-01  0.60437507378E-02  0.57236350821E-01  0.51100000000E-03 0. -1.
</event>
<event>
 8    1  0.1196210E+005  0.1043930E+01  0.7957747E-01            NaN
         13   -1    0    0    0    0  0.00000000000E+00  0.00000000000E+00  0.74505805969E-08  0.10566000000E+00  0.10566000000E+00 0. -1.
     999900   -1    0    0    0    0 -0.00000000000E+00 -0.00000000000E+00 -0.74505805969E-08  0.93827000000E+00  0.93827000000E+00 0. -1.
     999902    2    1    2    0    0 -0.16478056579E-01  0.14506682672E-01  0.27569788051E-02  0.10218037458E+01  0.10215641555E+01 0.  0.
     999903    2    3    3    0    0  0.28643563020E-01  0.21249601478E-01  0.12579775970E+00  0.13207319041E+00  0.18607848210E-01 0.  0.
         14    1    1    2    0    0  0.16478056579E-01 -0.14506682672E-01 -0.27569788051E-02  0.22126254154E-01  0.00000000000E+00 0.  1.
     999901    1    3    3    0    0 -0.45121619598E-01 -0.67429188061E-02 -0.12304078089E+00  0.88973055543E+00  0.88000000000E+00 0. -1.
        -11    1    4    4    0    0  0.20329947832E-01  0.36058646526E-02  0.60991848449E-01  0.64393910713E-01  0.51100000000E-03 0. -1.
         11    1    4    4    0    0  0.83136151881E-02  0.17643736825E-01  0.64805911250E-01  0.67679279699E-01  0.51100000000E-03 0.  1.
</event>
<event>
 8    1  0.1196210E+005  0.1043930E+01  0.7957747E-01            NaN
         13   -1    0    0    0    0  0.00000000000E+00  0.00000000000E+00  0.74505805969E-08  0.10566000000E+00  0.10566000000E+00 0. -1.
     999900   -1    0    0    0    0 -0.00000000000E+00 -0.00000000000E+00 -0.74505805969E-08  0.93827000000E+00  0.93827000000E+00 0. -1.
     999902    2    1    2    0    0 -0.12427341724E-01  0.18230379199E-02  0.19943613506E-01  0.10203607402E+01  0.10200884913E+01 0.  0.
     999903    2    3    3    0    0  0.38159148102E-01  0.70747632473E-01  0.10257546553E+00  0.13236433496E+00  0.23178502021E-01 0.  0.
         14    1    1    2    0    0  0.12427341724E-01 -0.18230379199E-02 -0.19943613506E-01  0.23569259837E-01  0.00000000000E+00 0.  1.
     999901    1    3    3    0    0 -0.50586489826E-01 -0.68924594553E-01 -0.82631852024E-01  0.88799640520E+00  0.88000000000E+00 0. -1.
        -11    1    4    4    0    0  0.20948090068E-01  0.35523088963E-01  0.34344180783E-01  0.53670254347E-01  0.51100000000E-03 0. -1.
         11    1    4    4    0    0  0.17211058034E-01  0.35224543509E-01  0.68231284747E-01  0.78694080612E-01  0.51100000000E-03 0.  1.
</event>
<event>
 8    1  0.1196210E+005  0.1043930E+01  0.7957747E-01            NaN
         13   -1    0    0    0    0  0.00000000000E+00  0.00000000000E+00  0.74505805969E-08  0.10566000000E+00  0.10566000000E+00 0.  1.
     999900   -1    0    0    0    0 -0.00000000000E+00 -0.00000000000E+00 -0.74505805969E-08  0.93827000000E+00  0.93827000000E+00 0. -1.
     999902    2    1    2    0    0 -0.15164355928E-01  0.17931610638E-01  0.91805327301E-02  0.10187152715E+01  0.10184031726E+01 0.  0.
     999903    2    3    3    0    0 -0.84482342370E-01  0.97184212646E-01  0.22830304355E-01  0.13233370897E+00  0.20222521447E-01 0.  0.
         14    1    1    2    0    0  0.15164355928E-01 -0.17931610638E-01 -0.91805327301E-02  0.25214728473E-01  0.00000000000E+00 0. -1.
     999901    1    3    3    0    0  0.69317986443E-01 -0.79252602008E-01 -0.13649771625E-01  0.88638156255E+00  0.88000000000E+00 0. -1.
        -11    1    4    4    0    0 -0.26111313061E-01  0.34567296665E-01 -0.14606295980E-02  0.43348508952E-01  0.51100000000E-03 0.  1.
         11    1    4    4    0    0 -0.58371029309E-01  0.62616915980E-01  0.24290933953E-01  0.88985200021E-01  0.51100000000E-03 0. -1.
</event>
<event>
 8    1  0.1196210E+005  0.1043930E+01  0.7957747E-01            NaN
         13   -1    0    0    0    0  0.00000000000E+00  0.00000000000E+00  0.74505805969E-08  0.10566000000E+00  0.10566000000E+00 0.  1.
     999900   -1    0    0    0    0 -0.00000000000E+00 -0.00000000000E+00 -0.74505805969E-08  0.93827000000E+00  0.93827000000E+00 0.  1.
     999902    2    1    2    0    0  0.20420320830E-01  0.55596226093E-02  0.13653127132E-01  0.10187445521E+01  0.10184331866E+01 0.  0.
     999903    2    3    3    0    0  0.25353091639E-01 -0.10144636952E+00 -0.71430531979E-01  0.12817515915E+00  0.19809224585E-01 0.  0.
         14    1    1    2    0    0 -0.20420320830E-01 -0.55596226093E-02 -0.13653127132E-01  0.25185447918E-01  0.00000000000E+00 0. -1.
     999901    1    3    3    0    0 -0.49327708094E-02  0.10700599213E+00  0.85083659111E-01  0.89056939293E+00  0.88000000000E+00 0. -1.
        -11    1    4    4    0    0  0.74414640233E-02 -0.64739683286E-01 -0.49326286825E-01  0.81730934607E-01  0.51100000000E-03 0.  1.
         11    1    4    4    0    0  0.17911627616E-01 -0.36706686239E-01 -0.22104245154E-01  0.46444224542E-01  0.51100000000E-03 0. -1.
</event>
<event>
 8    1  0.1196210E+005  0.1043930E+01  0.7957747E-01            NaN
         13   -1    0    0    0    0  0.00000000000E+00  0.00000000000E+00  0.74505805969E-08  0.10566000000E+00  0.10566000000E+00 0. -1.
     999900   -1    0    0    0    0 -0.00000000000E+00 -0.00000000000E+00 -0.74505805969E-08  0.93827000000E+00  0.93827000000E+00 0. -1.
     999902    2    1    2    0    0  0.12182415309E-01  0.22898624663E-01  0.22837052195E-02  0.10178920745E+01  0.10175589918E+01 0.  0.
     999903    2    3    3    0    0  0.82151908041E-01  0.44251447913E-01  0.89059703837E-01  0.13060308725E+00  0.20455046207E-01 0.  0.
         14    1    1    2    0    0 -0.12182415309E-01 -0.22898624663E-01 -0.22837052195E-02  0.26037925488E-01  0.00000000000E+00 0. -1.
     999901    1    3    3    0    0 -0.69969492733E-01 -0.21352823250E-01 -0.86775998618E-01  0.88728898726E+00  0.88000000000E+00 0. -1.
        -11    1    4    4    0    0  0.47307836663E-01  0.34443459531E-01  0.63073780270E-01  0.86040375364E-01  0.51100000000E-03 0. -1.
         11    1    4    4    0    0  0.34844071378E-01  0.98079883814E-02  0.25985923567E-01  0.44562711889E-01  0.51100000000E-03 0.  1.
</event>
<event>
 8    1  0.1196210E+005  0.1043930E+01  0.7957747E-01            NaN
         13   -1    0    0    0    0  0.00000000000E+00  0.00000000000E+00  0.74505805969E-08  0.10566000000E+00  0.10566000000E+00 0.  1.
     999900   -1    0    0    0    0 -0.00000000000E+00 -0.00000000000E+00 -0.74505805969E-08  0.93827000000E+00  0.93827000000E+00 0.  1.
     999902    2    1    2    0    0  0.15407604927E-01  0.16132251874E-01  0.36570581691E-02  0.10213242946E+01  0.10210740898E+01 0.  0.
     999903    2    3    3    0    0  0.12404724074E+00  0.46924323373E-01 -0.27952268505E-02  0.13408568293E+00  0.19533228490E-01 0.  0.
         14    1    1    2    0    0 -0.15407604927E-01 -0.16132251874E-01 -0.36570581691E-02  0.22605705354E-01  0.00000000000E+00 0.  1.
     999901    1    3    3    0    0 -0.10863963581E+00 -0.30792071499E-01  0.64522850196E-02  0.88723861172E+00  0.88000000000E+00 0. -1.
        -11    1    4    4    0    0  0.85313601331E-01  0.41430195731E-01 -0.42019599442E-02  0.94935711293E-01  0.51100000000E-03 0.  1.
         11    1    4    4    0    0  0.38733639407E-01  0.54941276421E-02  0.14067330937E-02  0.39149971638E-01  0.51100000000E-03 0. -1.
</event>
<event>
 8    1  0.1196210E+005  0.1043930E+01  0.7957747E-01            NaN
         13   -1    0    0    0    0  0.00000000000E+00  0.00000000000E+00  0.74505805969E-08  0.10566000000E+00  0.10566000000E+00 0. -1.
     999900   -1    0    0    0    0 -0.00000000000E+00 -0.00000000000E+00 -0.74505805969E-08  0.93827000000E+00  0.93827000000E+00 0. -1.
     999902    2    1    2    0    0 -0.16740962968E-01  0.72854977807E-02  0.15825343768E-01  0.10197684639E+01  0.10194821922E+01 0.  0.
     999903    2    3    3    0    0 -0.46504677393E-02 -0.94630742055E-01  0.88180156776E-01  0.13085434043E+00  0.19248744611E-01 0.  0.
         14    1    1    2    0    0  0.16740962968E-01 -0.72854977807E-02 -0.15825343768E-01  0.24161536052E-01  0.00000000000E+00 0.  1.
     999901    1    3    3    0    0 -0.12090495229E-01  0.10191623984E+00 -0.72354813008E-01  0.88891412351E+00  0.88000000000E+00 0. -1.
        -11    1    4    4    0    0  0.35151718961E-02 -0.34347149827E-01  0.42600906025E-01  0.54837773932E-01  0.51100000000E-03 0. -1.
         11    1    4    4    0    0 -0.81656396354E-02 -0.60283592228E-01  0.45579250752E-01  0.76016566502E-01  0.51100000000E-03 0.  1.
</event>
<event>
 8    1  0.1196210E+005  0.1043930E+01  0.7957747E-01            NaN
         13   -1    0    0    0    0  0.00000000000E+00  0.00000000000E+00  0.74505805969E-08  0.10566000000E+00  0.10566000000E+00 0.  1.
     999900   -1    0    0    0    0 -0.00000000000E+00 -0.00000000000E+00 -0.74505805969E-08  0.93827000000E+00  0.93827000000E+00 0.  1.
     999902    2    1    2    0    0 -0.46329148421E-02 -0.21006747569E-01  0.48292771412E-02  0.10218830215E+01  0.10216451636E+01 0.  0.
     999903    2    3    3    0    0 -0.11125030095E+00 -0.41789227827E-01 -0.56337318569E-01  0.13309703436E+00  0.20444022788E-01 0.  0.
         14    1    1    2    0    0  0.46329148421E-02  0.21006747569E-01 -0.48292771412E-02  0.22046978502E-01  0.00000000000E+00 0. -1.
     999901    1    3    3    0    0  0.10661738611E+00  0.20782480258E-01  0.61166595710E-01  0.88878598714E+00  0.88000000000E+00 0. -1.
        -11    1    4    4    0    0 -0.41632438680E-01 -0.19681493562E-01 -0.11786139739E-01  0.47537304828E-01  0.51100000000E-03 0. -1.
         11    1    4    4    0    0 -0.69617862269E-01 -0.22107734264E-01 -0.44551178830E-01  0.85559729531E-01  0.51100000000E-03 0.  1.
</event>
<event>
 8    1  0.1196210E+005  0.1043930E+01  0.7957747E-01            NaN
         13   -1    0    0    0    0  0.00000000000E+00  0.00000000000E+00  0.74505805969E-08  0.10566000000E+00  0.10566000000E+00 0. -1.
     999900   -1    0    0    0    0 -0.00000000000E+00 -0.00000000000E+00 -0.74505805969E-08  0.93827000000E+00  0.93827000000E+00 0. -1.
     999902    2    1    2    0    0  0.76921086616E-02  0.22199786058E-01  0.18382346206E-02  0.10203635377E+01  0.10200913543E+01 0.  0.
     999903    2    3    3    0    0 -0.13352485347E-02  0.12811927737E+00  0.30332365504E-01  0.13350822412E+00  0.22092111437E-01 0.  0.
         14    1    1    2    0    0 -0.76921086616E-02 -0.22199786058E-01 -0.18382346206E-02  0.23566462254E-01  0.00000000000E+00 0.  1.
     999901    1    3    3    0    0  0.90273571962E-02 -0.10591949131E+00 -0.28494130884E-01  0.88685531363E+00  0.88000000000E+00 0.  1.
        -11    1    4    4    0    0  0.16752236910E-02  0.76940787422E-03  0.24458691366E-02  0.31051183110E-02  0.51100000000E-03 0. -1.
         11    1    4    4    0    0 -0.30104722257E-02  0.12734986949E+00  0.27886496368E-01  0.13040310581E+00  0.51100000000E-03 0.  1.
</event>
<event>
 8    1  0.1196210E+005  0.1043930E+01  0.7957747E-01            NaN
         13   -1    0    0    0    0  0.00000000000E+00  0.00000000000E+00  0.74505805969E-08  0.10566000000E+00  0.10566000000E+00 0. -1.
     999900   -1    0    0    0    0 -0.00000000000E+00 -0.00000000000E+00 -0.74505805969E-08  0.93827000000E+00  0.93827000000E+00 0.  1.
     999902    2    1    2    0    0  0.24338293962E-01  0.11376762142E-02 -0.25054747430E-02  0.10194366486E+01  0.10191423631E+01 0.  0.
     999903    2    3    3    0    0  0.38149356642E-01 -0.29940564576E-01  0.11912077671E+00  0.13042059274E+00  0.21632400382E-01 0.  0.
         14    1    1    2    0    0 -0.24338293962E-01 -0.11376762142E-02  0.25054747430E-02  0.24493351421E-01  0.00000000000E+00 0. -1.
     999901    1    3    3    0    0 -0.13811062681E-01  0.31078240790E-01 -0.12162625145E+00  0.88901605584E+00  0.88000000000E+00 0.  1.
        -11    1    4    4    0    0  0.15254133807E-01 -0.18418855904E-01  0.81178950252E-01  0.84629935224E-01  0.51100000000E-03 0. -1.
         11    1    4    4    0    0  0.22895222836E-01 -0.11521708673E-01  0.37941826459E-01  0.45790657513E-01  0.51100000000E-03 0.  1.
</event>
<event>
 8    1  0.1196210E+005  0.1043930E+01  0.7957747E-01            NaN
         13   -1    0    0    0    0  0.00000000000E+00  0.00000000000E+00  0.74505805969E-08  0.10566000000E+00  0.10566000000E+00 0.  1.
     999900   -1    0    0    0    0 -0.00000000000E+00 -0.00000000000E+00 -0.74505805969E-08  0.93827000000E+00  0.93827000000E+00 0.  1.
     999902    2    1    2    0    0  0.99597895275E-02 -0.16554958304E-01 -0.13028427973E-01  0.10206275540E+01  0.10203615046E+01 0.  0.
     999903    2    3    3    0    0  0.87002125493E-01 -0.92802269211E-01  0.33242375783E-01  0.13277049279E+00  0.18474771882E-01 0.  0.
         14    1    1    2    0    0 -0.99597895275E-02  0.16554958304E-01  0.13028427973E-01  0.23302445952E-01  0.00000000000E+00 0.  1.
     999901    1    3    3    0    0 -0.77042335966E-01  0.76247310907E-01 -0.46270803757E-01  0.88785706126E+00  0.88000000000E+00 0. -1.
        -11    1    4    4    0    0  0.50637186822E-01 -0.60159957977E-01  0.12254080656E-01  0.79584978775E-01  0.51100000000E-03 0. -1.
         11    1    4    4    0    0  0.36364938671E-01 -0.32642311235E-01  0.20988295127E-01  0.53185514011E-01  0.51100000000E-03 0.  1.
</event>
<event>
 8    1  0.1196210E+005  0.1043930E+01  0.7957747E-01            NaN
         13   -1    0    0    0    0  0.00000000000E+00  0.00000000000E+00  0.74505805969E-08  0.10566000000E+00  0.10566000000E+00 0. -1.
     999900   -1    0    0    0    0 -0.00000000000E+00 -0.00000000000E+00 -0.74505805969E-08  0.93827000000E+00  0.93827000000E+00 0. -1.
     999902    2    1    2    0    0 -0.22202250123E-01  0.74734361667E-02 -0.30273927269E-02  0.10203088809E+01  0.10200354186E+01 0.  0.
     999903    2    3    3    0    0  0.95606379498E-01  0.82118856301E-01  0.19065370059E-01  0.12905195832E+00  0.20170107831E-01 0.  0.
         14    1    1    2    0    0  0.22202250123E-01 -0.74734361667E-02  0.30273927269E-02  0.23621119055E-01  0.00000000000E+00 0. -1.
     999901    1    3    3    0    0 -0.11780862962E+00 -0.74645420134E-01 -0.22092762786E-01  0.89125692263E+00  0.88000000000E+00 0. -1.
        -11    1    4    4    0    0  0.81490003980E-02  0.11060716472E-01 -0.33665294535E-02  0.14154161859E-01  0.51100000000E-03 0.  1.
         11    1    4    4    0    0  0.87457379100E-01  0.71058139829E-01  0.22431899513E-01  0.11489779646E+00  0.51100000000E-03 0. -1.
</event>
<event>
 8    1  0.1196210E+005  0.1043930E+01  0.7957747E-01            NaN
         13   -1    0    0    0    0  0.00000000000E+00  0.00000000000E+00  0.74505805969E-08  0.10566000000E+00  0.10566000000E+00 0. -1.
     999900   -1    0    0    0    0 -0.00000000000E+00 -0.00000000000E+00 -0.74505805969E-08  0.93827000000E+00  0.93827000000E+00 0. -1.
     999902    2    1    2    0    0 -0.63523007252E-02 -0.19109852760E-01  0.11550290737E-01  0.10207147590E+01  0.10204507200E+01 0.  0.
     999903    2    3    3    0    0  0.72651560091E-01 -0.85326236985E-01  0.68637211089E-01  0.13286052773E+00  0.19545771451E-01 0.  0.
         14    1    1    2    0    0  0.63523007252E-02  0.19109852760E-01 -0.11550290737E-01  0.23215240966E-01  0.00000000000E+00 0.  1.
     999901    1    3    3    0    0 -0.79003860817E-01  0.66216384226E-01 -0.57086920352E-01  0.88785423130E+00  0.88000000000E+00 0.  1.
        -11    1    4    4    0    0  0.21595169587E-01 -0.13778670363E-01  0.11974331966E-01  0.28281599203E-01  0.51100000000E-03 0.  1.
         11    1    4    4    0    0  0.51056390504E-01 -0.71547566622E-01  0.56662879123E-01  0.10457892853E+00  0.51100000000E-03 0. -1.
</event>
<event>
 8    1  0.1196210E+005  0.1043930E+01  0.7957747E-01            NaN
         13   -1    0    0    0    0  0.00000000000E+00  0.00000000000E+00  0.74505805969E-08  0.10566000000E+00  0.10566000000E+00 0. -1.
     999900   -1    0    0    0    0 -0.00000000000E+00 -0.00000000000E+00 -0.74505805969E-08  0.93827000000E+00  0.93827000000E+00 0.  1.
     999902    2    1    2    0    0  0.57223516271E-02 -0.86476662989E-03  0.23408161540E-01  0.10198170334E+01  0.10195319252E+01 0.  0.
     999903    2    3    3    0    0  0.66361851317E-01  0.63066593201E-01 -0.88097107052E-01  0.12841488367E+00  0.18654532671E-01 0.  0.
         14    1    1    2    0    0 -0.57223516271E-02  0.86476662989E-03 -0.23408161540E-01  0.24112966557E-01  0.00000000000E+00 0.  1.
     999901    1    3    3    0    0 -0.60639499690E-01 -0.63931359831E-01  0.11150526859E+00  0.89140214977E+00  0.88000000000E+00 0. -1.
        -11    1    4    4    0    0  0.26405693463E-01  0.35652069351E-01 -0.34859845449E-01  0.56425177377E-01  0.51100000000E-03 0. -1.
         11    1    4    4    0    0  0.39956157855E-01  0.27414523851E-01 -0.53237261603E-01  0.71989706295E-01  0.51100000000E-03 0.  1.
</event>
<event>
 8    1  0.1196210E+005  0.1043930E+01  0.7957747E-01            NaN
         13   -1    0    0    0    0  0.00000000000E+00  0.00000000000E+00  0.74505805969E-08  0.10566000000E+00  0.10566000000E+00 0.  1.
     999900   -1    0    0    0    0 -0.00000000000E+00 -0.00000000000E+00 -0.74505805969E-08  0.93827000000E+00  0.93827000000E+00 0.  1.
     999902    2    1    2    0    0  0.58167231829E-02 -0.72152444648E-02 -0.22654746179E-01  0.10194528362E+01  0.10191589443E+01 0.  0.
     999903    2    3    3    0    0 -0.67634670637E-01  0.83570044488E-01  0.65328210480E-01  0.12738889425E+00  0.20043809142E-01 0.  0.
         14    1    1    2    0    0 -0.58167231829E-02  0.72152444648E-02  0.22654746179E-01  0.24477163759E-01  0.00000000000E+00 0.  1.
     999901    1    3    3    0    0  0.73451393820E-01 -0.90785288953E-01 -0.87982956659E-01  0.89206394199E+00  0.88000000000E+00 0.  1.
        -11    1    4    4    0    0 -0.29157247873E-01  0.51566728256E-01  0.33115347903E-01  0.67868696424E-01  0.51100000000E-03 0. -1.
         11    1    4    4    0    0 -0.38477422764E-01  0.32003316232E-01  0.32212862577E-01  0.59520197822E-01  0.51100000000E-03 0.  1.
</event>
<event>
 8    1  0.1196210E+005  0.1043930E+01  0.7957747E-01            NaN
         13   -1    0    0    0    0  0.00000000000E+00  0.00000000000E+00  0.74505805969E-08  0.10566000000E+00  0.10566000000E+00 0.  1.
     999900   -1    0    0    0    0 -0.00000000000E+00 -0.00000000000E+00 -0.74505805969E-08  0.93827000000E+00  0.93827000000E+00 0. -1.
     999902    2    1    2    0    0 -0.10720804962E-01 -0.89770526745E-02 -0.18015582749E-01  0.10211246420E+01  0.10208699477E+01 0.  0.
     999903    2    3    3    0    0  0.56744748183E-01  0.11415789693E+00 -0.18141668222E-01  0.12999399352E+00  0.17813656216E-01 0.  0.
         14    1    1    2    0    0  0.10720804962E-01  0.89770526745E-02  0.18015582749E-01  0.22805358045E-01  0.00000000000E+00 0.  1.
     999901    1    3    3    0    0 -0.67465553146E-01 -0.12313494961E+00  0.12608547213E-03  0.89113064843E+00  0.88000000000E+00 0. -1.
        -11    1    4    4    0    0  0.69282867052E-02  0.69389676810E-02 -0.50557019431E-02  0.11044078607E-01  0.51100000000E-03 0.  1.
         11    1    4    4    0    0  0.49816461478E-01  0.10721892925E+00 -0.13085966278E-01  0.11894991492E+00  0.51100000000E-03 0. -1.
</event>
<event>
 8    1  0.1196210E+005  0.1043930E+01  0.7957747E-01            NaN
         13   -1    0    0    0    0  0.00000000000E+00  0.00000000000E+00  0.74505805969E-08  0.10566000000E+00  0.10566000000E+00 0.  1.
     999900   -1    0    0    0    0 -0.00000000000E+00 -0.00000000000E+00 -0.74505805969E-08  0.93827000000E+00  0.93827000000E+00 0.  1.
     999902    2    1    2    0    0 -0.53949092686E-02 -0.21788711044E-01  0.76947457160E-02  0.10202010707E+01  0.10199250769E+01 0.  0.
     999903    2    3    3    0    0  0.52643861343E-01 -0.91787304010E-01 -0.75537585691E-01  0.13160896915E+00  0.20462370201E-01 0.  0.
         14    1    1    2    0    0  0.53949092686E-02  0.21788711044E-01 -0.76947457160E-02  0.23728929319E-01  0.00000000000E+00 0.  1.
     999901    1    3    3    0    0 -0.58038770611E-01  0.69998592966E-01  0.83232331407E-01  0.88859210153E+00  0.88000000000E+00 0. -1.
        -11    1    4    4    0    0  0.45307071225E-01 -0.60712097345E-01 -0.55478538155E-01  0.93897916824E-01  0.51100000000E-03 0. -1.
         11    1    4    4    0    0  0.73367901172E-02 -0.31075206665E-01 -0.20059047537E-01  0.37711052326E-01  0.51100000000E-03 0.  1.
</event>
<event>
 8    1  0.1196210E+005  0.1043930E+01  0.7957747E-01            NaN
         13   -1    0    0    0    0  0.00000000000E+00  0.00000000000E+00  0.74505805969E-08  0.10566000000E+00  0.10566000000E+00 0. -1.
     999900   -1    0    0    0    0 -0.00000000000E+00 -0.00000000000E+00 -0.74505805969E-08  0.93827000000E+00  0.93827000000E+00 0. -1.
     999902    2    1    2    0    0 -0.20004869763E-01 -0.73879077795E-02 -0.97193494840E-02  0.10204940927E+01  0.10202249514E+01 0.  0.
     999903    2    3    3    0    0 -0.13150010142E-01 -0.93851948397E-01 -0.90757906446E-01  0.13252434823E+00  0.18563251502E-01 0.  0.
         14    1    1    2    0    0  0.20004869763E-01  0.73879077795E-02  0.97193494840E-02  0.23435907279E-01  0.00000000000E+00 0. -1.
     999901    1    3    3    0    0 -0.68548596206E-02  0.86464040617E-01  0.81038556962E-01  0.88796974449E+00  0.88000000000E+00 0.  1.
        -11    1    4    4    0    0 -0.23337050365E-02 -0.19335829873E-01 -0.29993505045E-01  0.35765793182E-01  0.51100000000E-03 0. -1.
         11    1    4    4    0    0 -0.10816305106E-01 -0.74516118524E-01 -0.60764401401E-01  0.96758555046E-01  0.51100000000E-03 0.  1.
</event>
<event>
 8    1  0.1196210E+005  0.1043930E+01  0.7957747E-01            NaN
         13   -1    0    0    0    0  0.00000000000E+00  0.00000000000E+00  0.74505805969E-08  0.10566000000E+00  0.10566000000E+00 0.  1.
     999900   -1    0    0    0    0 -0.00000000000E+00 -0.00000000000E+00 -0.74505805969E-08  0.93827000000E+00  0.93827000000E+00 0. -1.
     999902    2    1    2    0    0  0.87710084334E-02 -0.13480950941E-01 -0.17552093382E-01  0.10201236435E+01  0.10198458243E+01 0.  0.
     999903    2    3    3    0    0  0.11567115854E+00 -0.25916574405E-01  0.51952001042E-01  0.13084691157E+00  0.19246249205E-01 0.  0.
         14    1    1    2    0    0 -0.87710084334E-02  0.13480950941E-01  0.17552093382E-01  0.23806356490E-01  0.00000000000E+00 0. -1.
     999901    1    3    3    0    0 -0.10690015011E+00  0.12435623464E-01 -0.69504094424E-01  0.88927673194E+00  0.88000000000E+00 0. -1.
        -11    1    4    4    0    0  0.45679732959E-01 -0.52618864963E-02  0.28914601622E-01  0.54319800816E-01  0.51100000000E-03 0.  1.
         11    1    4    4    0    0  0.69991425583E-01 -0.20654687908E-01  0.23037399420E-01  0.76527110757E-01  0.51100000000E-03 0. -1.
</event>
<event>
 8    1  0.1196210E+005  0.1043930E+01  0.7957747E-01            NaN
         13   -1    0    0    0    0  0.00000000000E+00  0.00000000000E+00  0.74505805969E-08  0.10566000000E+00  0.10566000000E+00 0.  1.
     999900   -1    0    0    0    0 -0.00000000000E+00 -0.00000000000E+00 -0.74505805969E-08  0.93827000000E+00  0.93827000000E+00 0.  1.
     999902    2    1    2    0    0 -0.15858542774E-01  0.10712417295E-01 -0.13213467274E-01  0.10206739259E+01  0.10204089465E+01 0.  0.
     999903    2    3    3    0    0 -0.50509107127E-01 -0.10163257686E+00  0.59749547916E-01  0.12986212713E+00  0.20342394231E-01 0.  0.
         14    1    1    2    0    0  0.15858542774E-01 -0.10712417295E-01  0.13213467274E-01  0.23256074059E-01  0.00000000000E+00 0.  1.
     999901    1    3    3    0    0  0.34650564353E-01  0.11234499416E+00 -0.72963015190E-01  0.89081179881E+00  0.88000000000E+00 0.  1.
        -11    1    4    4    0    0 -0.33059179602E-01 -0.83017766740E-01  0.41740282235E-01  0.98627436509E-01  0.51100000000E-03 0.  1.
         11    1    4    4    0    0 -0.17449927526E-01 -0.18614810123E-01  0.18009265681E-01  0.31234690617E-01  0.51100000000E-03 0. -1.
</event>
<event>
 8    1  0.1196210E+005  0.1043930E+01  0.7957747E-01            NaN
         13   -1    0    0    0    0  0.00000000000E+00  0.00000000000E+00  0.74505805969E-08  0.10566000000E+00  0.10566000000E+00 0.  1.
     999900   -1    0    0    0    0 -0.00000000000E+00 -0.00000000000E+00 -0.74505805969E-08  0.93827000000E+00  0.93827000000E+00 0.  1.
     999902    2    1    2    0    0 -0.23439758543E-02  0.19541602300E-01 -0.11992096915E-01  0.10208826828E+01  0.10206224930E+01 0.  0.
     999903    2    3    3    0    0 -0.89193727872E-01  0.54746041027E-01  0.77085656967E-01  0.13143505746E+00  0.19501941411E-01 0.  0.
         14    1    1    2    0    0  0.23439758543E-02 -0.19541602300E-01  0.11992096915E-01  0.23047317234E-01  0.00000000000E+00 0. -1.
     999901    1    3    3    0    0  0.86849752017E-01 -0.35204438727E-01 -0.89077753882E-01  0.88944762531E+00  0.88000000000E+00 0.  1.
        -11    1    4    4    0    0 -0.54338555367E-01  0.29401884021E-01  0.56288758732E-01  0.83581306906E-01  0.51100000000E-03 0.  1.
         11    1    4    4    0    0 -0.34855172504E-01  0.25344157006E-01  0.20796898235E-01  0.47853750551E-01  0.51100000000E-03 0. -1.
</event>
<event>
 8    1  0.1196210E+005  0.1043930E+01  0.7957747E-01            NaN
         13   -1    0    0    0    0  0.00000000000E+00  0.00000000000E+00  0.74505805969E-08  0.10566000000E+00  0.10566000000E+00 0. -1.
     999900   -1    0    0    0    0 -0.00000000000E+00 -0.00000000000E+00 -0.74505805969E-08  0.93827000000E+00  0.93827000000E+00 0. -1.
     999902    2    1    2    0    0 -0.48290888712E-02  0.19234898789E-01  0.20065914672E-02  0.10239969159E+01  0.10238028892E+01 0.  0.
     999903    2    3    3    0    0 -0.53791226028E-01  0.34432483317E-01 -0.11667473876E+00  0.13455129332E+00  0.20296895494E-01 0.  0.
         14    1    1    2    0    0  0.48290888712E-02 -0.19234898789E-01 -0.20065914672E-02  0.19933084058E-01  0.00000000000E+00 0.  1.
     999901    1    3    3    0    0  0.48962137156E-01 -0.15197584528E-01  0.11868133022E+00  0.88944562262E+00  0.88000000000E+00 0.  1.
        -11    1    4    4    0    0 -0.18046563412E-01  0.22542872377E-01 -0.42930581245E-01  0.51741235712E-01  0.51100000000E-03 0. -1.
         11    1    4    4    0    0 -0.35744662616E-01  0.11889610940E-01 -0.73744157510E-01  0.82810057612E-01  0.51100000000E-03 0.  1.
</event>
<event>
 8    1  0.1196210E+005  0.1043930E+01  0.7957747E-01            NaN
         13   -1    0    0    0    0  0.00000000000E+00  0.00000000000E+00  0.74505805969E-08  0.10566000000E+00  0.10566000000E+00 0. -1.
     999900   -1    0    0    0    0 -0.00000000000E+00 -0.00000000000E+00 -0.74505805969E-08  0.93827000000E+00  0.93827000000E+00 0.  1.
     999902    2    1    2    0    0  0.14563026749E-01 -0.19554539286E-02  0.17383243361E-01  0.10211685699E+01  0.10209148669E+01 0.  0.
     999903    2    3    3    0    0  0.21595879639E-01 -0.70257030018E-01  0.10992366123E+00  0.13365615017E+00  0.19450524354E-01 0.  0.
         14    1    1    2    0    0 -0.14563026749E-01  0.19554539286E-02 -0.17383243361E-01  0.22761430050E-01  0.00000000000E+00 0. -1.
     999901    1    3    3    0    0 -0.70328528897E-02  0.68301576090E-01 -0.92540417866E-01  0.88751241977E+00  0.88000000000E+00 0.  1.
        -11    1    4    4    0    0  0.81076452093E-02 -0.34394008534E-01  0.69424819023E-01  0.77902171672E-01  0.51100000000E-03 0. -1.
         11    1    4    4    0    0  0.13488234430E-01 -0.35863021485E-01  0.40498842205E-01  0.55753978503E-01  0.51100000000E-03 0.  1.
</event>
<event>
 8    1  0.1196210E+005  0.1043930E+01  0.7957747E-01            NaN
         13   -1    0    0    0    0  0.00000000000E+00  0.00000000000E+00  0.74505805969E-08  0.10566000000E+00  0.10566000000E+00 0.  1.
     999900   -1    0    0    0    0 -0.00000000000E+00 -0.00000000000E+00 -0.74505805969E-08  0.93827000000E+00  0.93827000000E+00 0.  1.
     999902    2    1    2    0    0  0.63227839488E-02  0.14436765592E-01 -0.18927485355E-01  0.10192997848E+01  0.10190021609E+01 0.  0.
     999903    2    3    3    0    0 -0.50356951281E-01 -0.33300907833E-01 -0.11438546194E+00  0.13104098068E+00  0.21045942820E-01 0.  0.
         14    1    1    2    0    0 -0.63227839488E-02 -0.14436765592E-01  0.18927485355E-01  0.24630215174E-01  0.00000000000E+00 0.  1.
     999901    1    3    3    0    0  0.56679735230E-01  0.47737673425E-01  0.95457976586E-01  0.88825880415E+00  0.88000000000E+00 0. -1.
        -11    1    4    4    0    0 -0.20959932941E-01 -0.25274924290E-02 -0.32568677531E-01  0.38816064767E-01  0.51100000000E-03 0. -1.
         11    1    4    4    0    0 -0.29397018340E-01 -0.30773415404E-01 -0.81816784410E-01  0.92224915913E-01  0.51100000000E-03 0.  1.
</event>
<event>
 8    1  0.1196210E+005  0.1043930E+01  0.7957747E-01            NaN
         13   -1    0    0    0    0  0.00000000000E+00  0.00000000000E+00  0.74505805969E-08  0.10566000000E+00  0.10566000000E+00 0. -1.
     999900   -1    0    0    0    0 -0.00000000000E+00 -0.00000000000E+00 -0.74505805969E-08  0.93827000000E+00  0.93827000000E+00 0. -1.
     999902    2    1    2    0    0 -0.37719751808E-02  0.43547655946E-03  0.23007456171E-01  0.10206113277E+01  0.10203449034E+01 0.  0.
     999903    2    3    3    0    0 -0.84469799063E-01 -0.22259813025E-01 -0.92985732251E-01  0.12904998116E+00  0.19414041464E-01 0.  0.
         14    1    1    2    0    0  0.37719751808E-02 -0.43547655946E-03 -0.23007456171E-01  0.23318672262E-01  0.00000000000E+00 0.  1.
     999901    1    3    3    0    0  0.80697823882E-01  0.22695289585E-01  0.11599318842E+00  0.89156134658E+00  0.88000000000E+00 0. -1.
        -11    1    4    4    0    0 -0.52789352420E-01 -0.42778974954E-02 -0.52255455764E-01  0.74403695567E-01  0.51100000000E-03 0.  1.
         11    1    4    4    0    0 -0.31680446643E-01 -0.17981915530E-01 -0.40730276487E-01  0.54646285596E-01  0.51100000000E-03 0. -1.
</event>
<event>
 8    1  0.1196210E+005  0.1043930E+01  0.7957747E-01            NaN
         13   -1    0    0    0    0  0.00000000000E+00  0.00000000000E+00  0.74505805969E-08  0.10566000000E+00  0.10566000000E+00 0. -1.
     999900   -1    0    0    0    0 -0.00000000000E+00 -0.00000000000E+00 -0.74505805969E-08  0.93827000000E+00  0.93827000000E+00 0.  1.
     999902    2    1    2    0    0 -0.15202989077E-01 -0.81508423350E-02  0.14551333997E-01  0.10213621373E+01  0.10211127788E+01 0.  0.
     999903    2    3    3    0    0  0.77413209278E-01 -0.94061486069E-01 -0.42805592838E-01  0.13049277761E+00  0.18859429944E-01 0.  0.
         14    1    1    2    0    0  0.15202989077E-01  0.81508423350E-02 -0.14551333997E-01  0.22567862742E-01  0.00000000000E+00 0.  1.
     999901    1    3    3    0    0 -0.92616198356E-01  0.85910643734E-01  0.57356926835E-01  0.89086935965E+00  0.88000000000E+00 0. -1.
        -11    1    4    4    0    0  0.67083118806E-01 -0.73562779819E-01 -0.28976539353E-01  0.10368957690E+00  0.51100000000E-03 0.  1.
         11    1    4    4    0    0  0.10330090472E-01 -0.20498706249E-01 -0.13829053486E-01  0.26803200711E-01  0.51100000000E-03 0. -1.
</event>
<event>
 7    1  0.1196210E+005  0.1043930E+01  0.7957747E-01            NaN
         13   -1    0    0    0    0  0.00000000000E+00  0.00000000000E+00  0.74505805969E-08  0.10566000000E+00  0.10566000000E+00 0.  1.
     999900   -1    0    0    0    0 -0.00000000000E+00 -0.00000000000E+00 -0.74505805969E-08  0.93827000000E+00  0.93827000000E+00 0.  1.
     999903    2    1    2    0    0  0.13534840925E-01 -0.10526708354E+00  0.22413688897E-01  0.11028744331E+00  0.19914715829E-01 0.  0.
         14    1    1    2    0    0 -0.10335780401E-01 -0.40124226589E-01 -0.15545350460E-02  0.41463218581E-01  0.00000000000E+00 0.  1.
     999901    1    1    2    0    0 -0.31990605232E-02  0.14539131013E+00 -0.20859153851E-01  0.89217933811E+00  0.88000000000E+00 0. -1.
        -11    1    3    3    0    0 -0.41929846012E-02 -0.33684813106E-01  0.10846321538E-01  0.35639185818E-01  0.51100000000E-03 0.  1.
         11    1    3    3    0    0  0.17727825526E-01 -0.71582270431E-01  0.11567367359E-01  0.74648257492E-01  0.51100000000E-03 0. -1.
</event>
<event>
 8    1  0.1196210E+005  0.1043930E+01  0.7957747E-01            NaN
         13   -1    0    0    0    0  0.00000000000E+00  0.00000000000E+00  0.74505805969E-08  0.10566000000E+00  0.10566000000E+00 0.  1.
     999900   -1    0    0    0    0 -0.00000000000E+00 -0.00000000000E+00 -0.74505805969E-08  0.93827000000E+00  0.93827000000E+00 0. -1.
     999902    2    1    2    0    0  0.26135514822E-01  0.15967854267E-01  0.15937675199E-01  0.10094039664E+01  0.10088133229E+01 0.  0.
     999903    2    3    3    0    0  0.90171756647E-01  0.30100946121E-01 -0.74309864094E-01  0.12236112477E+00  0.20329198190E-01 0.  0.
         14    1    1    2    0    0 -0.26135514822E-01 -0.15967854267E-01 -0.15937675199E-01  0.34526033593E-01  0.00000000000E+00 0. -1.
     999901    1    3    3    0    0 -0.64036241825E-01 -0.14133091854E-01  0.90247539293E-01  0.88704284164E+00  0.88000000000E+00 0. -1.
        -11    1    4    4    0    0  0.70545011218E-01  0.30849699763E-01 -0.64277311816E-01  0.10030023190E+00  0.51100000000E-03 0. -1.
         11    1    4    4    0    0  0.19626745428E-01 -0.74875364219E-03 -0.10032552278E-01  0.22060892873E-01  0.51100000000E-03 0.  1.
</event>
<event>
 8    1  0.1196210E+005  0.1043930E+01  0.7957747E-01            NaN
         13   -1    0    0    0    0  0.00000000000E+00  0.00000000000E+00  0.74505805969E-08  0.10566000000E+00  0.10566000000E+00 0.  1.
     999900   -1    0    0    0    0 -0.00000000000E+00 -0.00000000000E+00 -0.74505805969E-08  0.93827000000E+00  0.93827000000E+00 0. -1.
     999902    2    1    2    0    0  0.13932729908E-02  0.23558961817E-01 -0.11308355521E-01  0.10177604605E+01  0.10174239580E+01 0.  0.
     999903    2    3    3    0    0  0.11795653903E+00 -0.19117904007E-01 -0.42813189432E-01  0.12849061148E+00  0.19940629269E-01 0.  0.
         14    1    1    2    0    0 -0.13932729908E-02 -0.23558961817E-01  0.11308355521E-01  0.26169539470E-01  0.00000000000E+00 0.  1.
     999901    1    3    3    0    0 -0.11656326604E+00  0.42676865824E-01  0.31504833911E-01  0.88926984905E+00  0.88000000000E+00 0.  1.
        -11    1    4    4    0    0  0.10578491174E+00 -0.22449637025E-01 -0.35118015191E-01  0.11370123072E+00  0.51100000000E-03 0. -1.
         11    1    4    4    0    0  0.12171627292E-01  0.33317330182E-02 -0.76951742407E-02  0.14789380765E-01  0.51100000000E-03 0.  1.
</event>
<event>
 8    1  0.1196210E+005  0.1043930E+01  0.7957747E-01            NaN
         13   -1    0    0    0    0  0.00000000000E+00  0.00000000000E+00  0.74505805969E-08  0.10566000000E+00  0.10566000000E+00 0. -1.
     999900   -1    0    0    0    0 -0.00000000000E+00 -0.00000000000E+00 -0.74505805969E-08  0.93827000000E+00  0.93827000000E+00 0. -1.
     999902    2    1    2    0    0 -0.38127286747E-02 -0.21385773029E-01 -0.26963769372E-02  0.10220403075E+01  0.10218058679E+01 0.  0.
     999903    2    3    3    0    0  0.56801736992E-01 -0.62052261113E-01 -0.10165993126E+00  0.13348999281E+00  0.20196933470E-01 0.  0.
         14    1    1    2    0    0  0.38127286747E-02  0.21385773029E-01  0.26963769372E-02  0.21889692473E-01  0.00000000000E+00 0. -1.
     999901    1    3    3    0    0 -0.60614465667E-01  0.40666488084E-01  0.98963554324E-01  0.88855031472E+00  0.88000000000E+00 0.  1.
        -11    1    4    4    0    0  0.44611567854E-01 -0.38605702136E-01 -0.79487219726E-01  0.98990259342E-01  0.51100000000E-03 0.  1.
         11    1    4    4    0    0  0.12190169138E-01 -0.23446558977E-01 -0.22172711535E-01  0.34499733467E-01  0.51100000000E-03 0. -1.
</event>
<event>
 8    1  0.1196210E+005  0.1043930E+01  0.7957747E-01            NaN
         13   -1    0    0    0    0  0.00000000000E+00  0.00000000000E+00  0.74505805969E-08  0.10566000000E+00  0.10566000000E+00 0. -1.
     999900   -1    0    0    0    0 -0.00000000000E+00 -0.00000000000E+00 -0.74505805969E-08  0.93827000000E+00  0.93827000000E+00 0.  1.
     999902    2    1    2    0    0  0.30958489724E-02 -0.20147462209E-01 -0.10589763517E-01  0.10209594187E+01  0.10207009783E+01 0.  0.
     999903    2    3    3    0    0 -0.62732173677E-01 -0.90722322561E-01  0.69842432329E-01  0.13203676873E+00  0.19745316379E-01 0.  0.
         14    1    1    2    0    0 -0.30958489724E-02  0.20147462209E-01  0.10589763517E-01  0.22970581308E-01  0.00000000000E+00 0. -1.
     999901    1    3    3    0    0  0.65828022649E-01  0.70574860353E-01 -0.80432195845E-01  0.88892264996E+00  0.88000000000E+00 0.  1.
        -11    1    4    4    0    0 -0.25446710990E-01 -0.52891572016E-01  0.32373538447E-01  0.67032533916E-01  0.51100000000E-03 0.  1.
         11    1    4    4    0    0 -0.37285462687E-01 -0.37830750545E-01  0.37468893882E-01  0.65004234818E-01  0.51100000000E-03 0. -1.
</event>
<event>
 8    1  0.1196210E+005  0.1043930E+01  0.7957747E-01            NaN
         13   -1    0    0    0    0  0.00000000000E+00  0.00000000000E+00  0.74505805969E-08  0.10566000000E+00  0.10566000000E+00 0.  1.
     999900   -1    0    0    0    0 -0.00000000000E+00 -0.00000000000E+00 -0.74505805969E-08  0.93827000000E+00  0.93827000000E+00 0.  1.
     999902    2    1    2    0    0  0.19689757873E-01 -0.78352904333E-02 -0.69716071275E-02  0.10216212204E+01  0.10213776169E+01 0.  0.
     999903    2    3    3    0    0 -0.77187184886E-01 -0.89624049605E-01 -0.53590053170E-01  0.13131350805E+00  0.19519524042E-01 0.  0.
         14    1    1    2    0    0 -0.19689757873E-01  0.78352904333E-02  0.69716071275E-02  0.22308779599E-01  0.00000000000E+00 0.  1.
     999901    1    3    3    0    0  0.96876942758E-01  0.81788759171E-01  0.46618446042E-01  0.89030771235E+00  0.88000000000E+00 0. -1.
        -11    1    4    4    0    0 -0.72330671971E-01 -0.75921580610E-01 -0.43075949973E-01  0.11336494651E+00  0.51100000000E-03 0. -1.
         11    1    4    4    0    0 -0.48565129151E-02 -0.13702468994E-01 -0.10514103197E-01  0.17948561537E-01  0.51100000000E-03 0.  1.
</event>
<event>
 8    1  0.1196210E+005  0.1043930E+01  0.7957747E-01            NaN
         13   -1    0    0    0    0  0.00000000000E+00  0.00000000000E+00  0.74505805969E-08  0.10566000000E+00  0.10566000000E+00 0.  1.
     999900   -1    0    0    0    0 -0.00000000000E+00 -0.00000000000E+00 -0.74505805969E-08  0.93827000000E+00  0.93827000000E+00 0.  1.
     999902    2    1    2    0    0  0.17173447868E-01  0.21898026995E-01  0.18907703975E-02  0.10160368842E+01  0.10156539391E+01 0.  0.
     999903    2    3    3    0    0  0.11514776839E+00  0.42283219083E-01  0.38094733023E-01  0.12962543882E+00  0.17454699238E-01 0.  0.
         14    1    1    2    0    0 -0.17173447868E-01 -0.21898026995E-01 -0.18907703975E-02  0.27893115829E-01  0.00000000000E+00 0. -1.
     999901    1    3    3    0    0 -0.97974320517E-01 -0.20385192088E-01 -0.36203962626E-01  0.88641144535E+00  0.88000000000E+00 0. -1.
        -11    1    4    4    0    0  0.63010963635E-01  0.16141994243E-01  0.14107679774E-01  0.66559997491E-01  0.51100000000E-03 0.  1.
         11    1    4    4    0    0  0.52136804750E-01  0.26141224840E-01  0.23987053249E-01  0.63065441330E-01  0.51100000000E-03 0. -1.
</event>
<event>
 8    1  0.1196210E+005  0.1043930E+01  0.7957747E-01            NaN
         13   -1    0    0    0    0  0.00000000000E+00  0.00000000000E+00  0.74505805969E-08  0.10566000000E+00  0.10566000000E+00 0.  1.
     999900   -1    0    0    0    0 -0.00000000000E+00 -0.00000000000E+00 -0.74505805969E-08  0.93827000000E+00  0.93827000000E+00 0. -1.
     999902    2    1    2    0    0 -0.16452878155E-01 -0.12500525094E-01 -0.12531031803E-01  0.10197641753E+01  0.10194778007E+01 0.  0.
     999903    2    3    3    0    0 -0.39408992255E-01 -0.71480696673E-01  0.99427990249E-01  0.13041583719E+00  0.21443103264E-01 0.  0.
         14    1    1    2    0    0  0.16452878155E-01  0.12500525094E-01  0.12531031803E-01  0.24165824738E-01  0.00000000000E+00 0.  1.
     999901    1    3    3    0    0  0.22956114100E-01  0.58980171579E-01 -0.11195902205E+00  0.88934833807E+00  0.88000000000E+00 0. -1.
        -11    1    4    4    0    0 -0.22062018823E-01 -0.58700927220E-01  0.70766083183E-01  0.94554910930E-01  0.51100000000E-03 0.  1.
         11    1    4    4    0    0 -0.17346973432E-01 -0.12779769453E-01  0.28661907066E-01  0.35860926259E-01  0.51100000000E-03 0. -1.
</event>
<event>
 8    1  0.1196210E+005  0.1043930E+01  0.7957747E-01            NaN
         13   -1    0    0    0    0  0.00000000000E+00  0.00000000000E+00  0.74505805969E-08  0.10566000000E+00  0.10566000000E+00 0. -1.
     999900   -1    0    0    0    0 -0.00000000000E+00 -0.00000000000E+00 -0.74505805969E-08  0.93827000000E+00  0.93827000000E+00 0.  1.
     999902    2    1    2    0    0  0.17137074293E-01 -0.11621105202E-01 -0.11756279348E-01  0.10201195085E+01  0.10198415917E+01 0.  0.
     999903    2    3    3    0    0  0.41249590621E-01 -0.40254866477E-02  0.12144209961E+00  0.12973705414E+00  0.19125542877E-01 0.  0.
         14    1    1    2    0    0 -0.17137074293E-01  0.11621105202E-01  0.11756279348E-01  0.23810491502E-01  0.00000000000E+00 0. -1.
     999901    1    3    3    0    0 -0.24112516328E-01 -0.75956185539E-02 -0.13319837896E+00  0.89038245435E+00  0.88000000000E+00 0.  1.
        -11    1    4    4    0    0  0.23212324738E-01 -0.58164012624E-02  0.42866189007E-01  0.49095965459E-01  0.51100000000E-03 0. -1.
         11    1    4    4    0    0  0.18037265883E-01  0.17909146146E-02  0.78575910606E-01  0.80641088685E-01  0.51100000000E-03 0.  1.
</event>
<event>
 8    1  0.1196210E+005  0.1043930E+01  0.7957747E-01            NaN
         13   -1    0    0    0    0  0.00000000000E+00  0.00000000000E+00  0.74505805969E-08  0.10566000000E+00  0.10566000000E+00 0. -1.
     999900   -1    0    0    0    0 -0.00000000000E+00 -0.00000000000E+00 -0.74505805969E-08  0.93827000000E+00  0.93827000000E+00 0. -1.
     999902    2    1    2    0    0  0.11944598348E-01  0.18596530599E-01 -0.10908437706E-01  0.10192825175E+01  0.10189844710E+01 0.  0.
     999903    2    3    3    0    0  0.92868072892E-01 -0.87097952231E-01 -0.10346943051E-01  0.12927114246E+00  0.19835241307E-01 0.  0.
         14    1    1    2    0    0 -0.11944598348E-01 -0.18596530599E-01  0.10908437706E-01  0.24647482492E-01  0.00000000000E+00 0. -1.
     999901    1    3    3    0    0 -0.80923474545E-01  0.10569448283E+00 -0.56149465510E-03  0.89001137504E+00  0.88000000000E+00 0. -1.
        -11    1    4    4    0    0  0.54899660917E-01 -0.64255183856E-01 -0.55253062566E-02  0.84696467171E-01  0.51100000000E-03 0.  1.
         11    1    4    4    0    0  0.37968411976E-01 -0.22842768376E-01 -0.48216367941E-02  0.44574675292E-01  0.51100000000E-03 0. -1.
</event>
<event>
 8    1  0.1196210E+005  0.1043930E+01  0.7957747E-01            NaN
         13   -1    0    0    0    0  0.00000000000E+00  0.00000000000E+00  0.74505805969E-08  0.10566000000E+00  0.10566000000E+00 0. -1.
     999900   -1    0    0    0    0 -0.00000000000E+00 -0.00000000000E+00 -0.74505805969E-08  0.93827000000E+00  0.93827000000E+00 0. -1.
     999902    2    1    2    0    0 -0.23480206946E-01 -0.53604068989E-02  0.37448527746E-03  0.10198427768E+01  0.10195582843E+01 0.  0.
     999903    2    3    3    0    0 -0.13089557462E+00  0.54038039698E-02 -0.13038448239E-01  0.13314449882E+00  0.19864638965E-01 0.  0.
         14    1    1    2    0    0  0.23480206946E-01  0.53604068989E-02 -0.37448527746E-03  0.24087223160E-01  0.00000000000E+00 0.  1.
     999901    1    3    3    0    0  0.10741536768E+00 -0.10764210869E-01  0.13412933517E-01  0.88669827801E+00  0.88000000000E+00 0. -1.
        -11    1    4    4    0    0 -0.79719917539E-01  0.12336754034E-01 -0.44823036237E-02  0.80794881764E-01  0.51100000000E-03 0.  1.
         11    1    4    4    0    0 -0.51175657086E-01 -0.69329500639E-02 -0.85561446154E-02  0.52349617061E-01  0.51100000000E-03 0. -1.
</event>
<event>
 8    1  0.1196210E+005  0.1043930E+01  0.7957747E-01            NaN
         13   -1    0    0    0    0  0.00000000000E+00  0.00000000000E+00  0.74505805969E-08  0.10566000000E+00  0.10566000000E+00 0. -1.
     999900   -1    0    0    0    0 -0.00000000000E+00 -0.00000000000E+00 -0.74505805969E-08  0.93827000000E+00  0.93827000000E+00 0.  1.
     999902    2    1    2    0    0  0.27126792625E-01  0.13284529465E-01  0.18805611107E-02  0.10136665218E+01  0.10132146561E+01 0.  0.
     999903    2    3    3    0    0  0.12470367597E+00 -0.12913925163E-01  0.14824961186E-01  0.12779115549E+00  0.19824824940E-01 0.  0.
         14    1    1    2    0    0 -0.27126792625E-01 -0.13284529465E-01 -0.18805611107E-02  0.30263478176E-01  0.00000000000E+00 0.  1.
     999901    1    3    3    0    0 -0.97576883342E-01  0.26198454628E-01 -0.12944400075E-01  0.88587536634E+00  0.88000000000E+00 0. -1.
        -11    1    4    4    0    0  0.81874726572E-01 -0.14125945452E-01  0.21775627188E-02  0.83114475794E-01  0.51100000000E-03 0.  1.
         11    1    4    4    0    0  0.42828949395E-01  0.12120202882E-02  0.12647398467E-01  0.44676679694E-01  0.51100000000E-03 0. -1.
</event>
<event>
 8    1  0.1196210E+005  0.1043930E+01  0.7957747E-01            NaN
         13   -1    0    0    0    0  0.00000000000E+00  0.00000000000E+00  0.74505805969E-08  0.10566000000E+00  0.10566000000E+00 0. -1.
     999900   -1    0    0    0    0 -0.00000000000E+00 -0.00000000000E+00 -0.74505805969E-08  0.93827000000E+00  0.93827000000E+00 0.  1.
     999902    2    1    2    0    0  0.20778247061E-01 -0.41855356810E-02  0.10304393576E-01  0.10203623360E+01  0.10200901244E+01 0.  0.
     999903    2    3    3    0    0 -0.28845515319E-02 -0.22622285190E-01 -0.12590263213E+00  0.12937850021E+00  0.19163379526E-01 0.  0.
         14    1    1    2    0    0 -0.20778247061E-01  0.41855356810E-02 -0.10304393576E-01  0.23567664009E-01  0.00000000000E+00 0.  1.
     999901    1    3    3    0    0  0.23662798593E-01  0.18436749509E-01  0.13620702571E+00  0.89098383578E+00  0.88000000000E+00 0. -1.
        -11    1    4    4    0    0  0.39520771622E-02  0.14632723083E-02 -0.11284306164E-01  0.12056399394E-01  0.51100000000E-03 0. -1.
         11    1    4    4    0    0 -0.68366286941E-02 -0.24085557499E-01 -0.11461832597E+00  0.11732210082E+00  0.51100000000E-03 0.  1.
</event>
<event>
 8    1  0.1196210E+005  0.1043930E+01  0.7957747E-01            NaN
         13   -1    0    0    0    0  0.00000000000E+00  0.00000000000E+00  0.74505805969E-08  0.10566000000E+00  0.10566000000E+00 0. -1.
     999900   -1    0    0    0    0 -0.00000000000E+00 -0.00000000000E+00 -0.74505805969E-08  0.93827000000E+00  0.93827000000E+00 0. -1.
     999902    2    1    2    0    0  0.18990439756E-01 -0.12532694638E-01 -0.79450268074E-02  0.10198296123E+01  0.10195448050E+01 0.  0.
     999903    2    3    3    0    0  0.92282250069E-01  0.53186778330E-02 -0.92810798456E-01  0.13253453163E+00  0.20180578605E-01 0.  0.
         14    1    1    2    0    0 -0.18990439756E-01  0.12532694638E-01  0.79450268074E-02  0.24100387714E-01  0.00000000000E+00 0. -1.
     999901    1    3    3    0    0 -0.73291810313E-01 -0.17851372471E-01  0.84865771648E-01  0.88729508066E+00  0.88000000000E+00 0. -1.
        -11    1    4    4    0    0  0.58416597657E-01  0.84444188826E-02 -0.46863275371E-01  0.75367332390E-01  0.51100000000E-03 0. -1.
         11    1    4    4    0    0  0.33865652412E-01 -0.31257410496E-02 -0.45947523084E-01  0.57167199240E-01  0.51100000000E-03 0.  1.
</event>
<event>
 8    1  0.1196210E+005  0.1043930E+01  0.7957747E-01            NaN
         13   -1    0    0    0    0  0.00000000000E+00  0.00000000000E+00  0.74505805969E-08  0.10566000000E+00  0.10566000000E+00 0.  1.
     999900   -1    0    0    0    0 -0.00000000000E+00 -0.00000000000E+00 -0.74505805969E-08  0.93827000000E+00  0.93827000000E+00 0.  1.
     999902    2    1    2    0    0 -0.14655290468E-01  0.75591844197E-02  0.16675269433E-01  0.10204782747E+01  0.10202087658E+01 0.  0.
     999903    2    3    3    0    0  0.29447708781E-01 -0.11181503491E+00 -0.52785825529E-01  0.12861498784E+00  0.19639300754E-01 0.  0.
         14    1    1    2    0    0  0.14655290468E-01 -0.75591844197E-02 -0.16675269433E-01  0.23451725276E-01  0.00000000000E+00 0. -1.
     999901    1    3    3    0    0 -0.44102999249E-01  0.11937421933E+00  0.69461094962E-01  0.89186328689E+00  0.88000000000E+00 0.  1.
        -11    1    4    4    0    0  0.21925621503E-01 -0.45162621736E-01 -0.22507863297E-01  0.55020544450E-01  0.51100000000E-03 0.  1.
         11    1    4    4    0    0  0.75220872786E-02 -0.66652413178E-01 -0.30277962232E-01  0.73594443387E-01  0.51100000000E-03 0. -1.
</event>
<event>
 8    1  0.1196210E+005  0.1043930E+01  0.7957747E-01            NaN
         13   -1    0    0    0    0  0.00000000000E+00  0.00000000000E+00  0.74505805969E-08  0.10566000000E+00  0.10566000000E+00 0. -1.
     999900   -1    0    0    0    0 -0.00000000000E+00 -0.00000000000E+00 -0.74505805969E-08  0.93827000000E+00  0.93827000000E+00 0. -1.
     999902    2    1    2    0    0  0.17021199908E-01  0.52520163966E-02  0.92122700787E-02  0.10238758024E+01  0.10236793872E+01 0.  0.
     999903    2    3    3    0    0 -0.74977155592E-01  0.89951011080E-01  0.60679123658E-01  0.13354639472E+00  0.20974394847E-01 0.  0.
         14    1    1    2    0    0 -0.17021199908E-01 -0.52520163966E-02 -0.92122700787E-02  0.20054197629E-01  0.00000000000E+00 0.  1.
     999901    1    3    3    0    0  0.91998355500E-01 -0.84698994684E-01 -0.51466853579E-01  0.89032940765E+00  0.88000000000E+00 0.  1.
        -11    1    4    4    0    0 -0.44167753344E-01  0.45769482682E-01  0.22285419193E-01  0.67398345752E-01  0.51100000000E-03 0.  1.
         11    1    4    4    0    0 -0.30809402248E-01  0.44181528398E-01  0.38393704465E-01  0.66148048966E-01  0.51100000000E-03 0. -1.
</event>
<event>
 8    1  0.1196210E+005  0.1043930E+01  0.7957747E-01            NaN
         13   -1    0    0    0    0  0.00000000000E+00  0.00000000000E+00  0.74505805969E-08  0.10566000000E+00  0.10566000000E+00 0. -1.
     999900   -1    0    0    0    0 -0.00000000000E+00 -0.00000000000E+00 -0.74505805969E-08  0.93827000000E+00  0.93827000000E+00 0. -1.
     999902    2    1    2    0    0  0.76836055750E-02 -0.96139922456E-02  0.19844929202E-01  0.10205786005E+01  0.10203114191E+01 0.  0.
     999903    2    3    3    0    0  0.55116692576E-01  0.80859385538E-01  0.86787010551E-01  0.13214370024E+00  0.18811759126E-01 0.  0.
         14    1    1    2    0    0 -0.76836055750E-02  0.96139922456E-02 -0.19844929202E-01  0.23351399457E-01  0.00000000000E+00 0. -1.
     999901    1    3    3    0    0 -0.47433087001E-01 -0.90473377784E-01 -0.66942081349E-01  0.88843490031E+00  0.88000000000E+00 0. -1.
        -11    1    4    4    0    0  0.44229414488E-01  0.75131915575E-01  0.73546968236E-01  0.11406341877E+00  0.51100000000E-03 0.  1.
         11    1    4    4    0    0  0.10887278088E-01  0.57274699631E-02  0.13240042316E-01  0.18080281465E-01  0.51100000000E-03 0. -1.
</event>
<event>
 8    1  0.1196210E+005  0.1043930E+01  0.7957747E-01            NaN
         13   -1    0    0    0    0  0.00000000000E+00  0.00000000000E+00  0.74505805969E-08  0.10566000000E+00  0.10566000000E+00 0.  1.
     999900   -1    0    0    0    0 -0.00000000000E+00 -0.00000000000E+00 -0.74505805969E-08  0.93827000000E+00  0.93827000000E+00 0. -1.
     999902    2    1    2    0    0  0.17566453896E-01 -0.16963867711E-02  0.17847696536E-01  0.10188302330E+01  0.10185210088E+01 0.  0.
     999903    2    3    3    0    0 -0.64116876478E-01  0.47061473477E-01 -0.96176103586E-01  0.12638924204E+00  0.19966007794E-01 0.  0.
         14    1    1    2    0    0 -0.17566453896E-01  0.16963867711E-02 -0.17847696536E-01  0.25099766975E-01  0.00000000000E+00 0. -1.
     999901    1    3    3    0    0  0.81683330374E-01 -0.48757860248E-01  0.11402380012E+00  0.89244099099E+00  0.88000000000E+00 0.  1.
        -11    1    4    4    0    0 -0.11241984268E-01  0.18463187987E-01 -0.30064821761E-01  0.37032771290E-01  0.51100000000E-03 0.  1.
         11    1    4    4    0    0 -0.52874892211E-01  0.28598285490E-01 -0.66111281825E-01  0.89356470750E-01  0.51100000000E-03 0. -1.
</event>
<event>
 8    1  0.1196210E+005  0.1043930E+01  0.7957747E-01            NaN
         13   -1    0    0    0    0  0.00000000000E+00  0.00000000000E+00  0.74505805969E-08  0.10566000000E+00  0.10566000000E+00 0.  1.
     999900   -1    0    0    0    0 -0.00000000000E+00 -0.00000000000E+00 -0.74505805969E-08  0.93827000000E+00  0.93827000000E+00 0. -1.
     999902    2    1    2    0    0  0.10018483156E-01  0.21745162322E-01 -0.34823665585E-02  0.10197360138E+01  0.10194489634E+01 0.  0.
     999903    2    3    3    0    0  0.16135298356E-02 -0.57951936973E-01  0.11293513697E+00  0.12845866868E+00  0.19653343706E-01 0.  0.
         14    1    1    2    0    0 -0.10018483156E-01 -0.21745162322E-01  0.34823665585E-02  0.24193986154E-01  0.00000000000E+00 0. -1.
     999901    1    3    3    0    0  0.84049533205E-02  0.79697099295E-01 -0.11641750353E+00  0.89127734517E+00  0.88000000000E+00 0. -1.
        -11    1    4    4    0    0 -0.64019434610E-02 -0.38751138432E-01  0.61517174617E-01  0.72988077819E-01  0.51100000000E-03 0.  1.
         11    1    4    4    0    0  0.80154732966E-02 -0.19200798541E-01  0.51417962355E-01  0.55470590862E-01  0.51100000000E-03 0. -1.
</event>
<event>
 8    1  0.1196210E+005  0.1043930E+01  0.7957747E-01            NaN
         13   -1    0    0    0    0  0.00000000000E+00  0.00000000000E+00  0.74505805969E-08  0.10566000000E+00  0.10566000000E+00 0. -1.
     999900   -1    0    0    0    0 -0.00000000000E+00 -0.00000000000E+00 -0.74505805969E-08  0.93827000000E+00  0.93827000000E+00 0. -1.
     999902    2    1    2    0    0 -0.21098370370E-01 -0.51481225617E-02  0.76903045534E-02  0.10208912244E+01  0.10206312296E+01 0.  0.
     999903    2    3    3    0    0  0.10835227947E+00 -0.15597508212E-01  0.66236651413E-01  0.12943492419E+00  0.19560339495E-01 0.  0.
         14    1    1    2    0    0  0.21098370370E-01  0.51481225617E-02 -0.76903045534E-02  0.23038775625E-01  0.00000000000E+00 0.  1.
     999901    1    3    3    0    0 -0.12945064984E+00  0.10449385651E-01 -0.58546346860E-01  0.89145630018E+00  0.88000000000E+00 0. -1.
        -11    1    4    4    0    0  0.17785586038E-01 -0.40663396723E-02  0.20066489751E-01  0.27125399922E-01  0.51100000000E-03 0. -1.
         11    1    4    4    0    0  0.90566693433E-01 -0.11531168540E-01  0.46170161663E-01  0.10230952427E+00  0.51100000000E-03 0.  1.
</event>
<event>
 8    1  0.1196210E+005  0.1043930E+01  0.7957747E-01            NaN
         13   -1    0    0    0    0  0.00000000000E+00  0.00000000000E+00  0.74505805969E-08  0.10566000000E+00  0.10566000000E+00 0.  1.
     999900   -1    0    0    0    0 -0.00000000000E+00 -0.00000000000E+00 -0.74505805969E-08  0.93827000000E+00  0.93827000000E+00 0. -1.
     999902    2    1    2    0    0  0.15717962258E-01  0.16597505494E-01 -0.30149346619E-02  0.10208730844E+01  0.10206126754E+01 0.  0.
     999903    2    3    3    0    0  0.96996490198E-01 -0.75414868586E-01  0.41809684314E-01  0.13122049908E+00  0.19366160241E-01 0.  0.
         14    1    1    2    0    0 -0.15717962258E-01 -0.16597505494E-01  0.30149346619E-02  0.23056915604E-01  0.00000000000E+00 0.  1.
     999901    1    3    3    0    0 -0.81278527940E-01  0.92012374080E-01 -0.44824618976E-01  0.88965258531E+00  0.88000000000E+00 0. -1.
        -11    1    4    4    0    0  0.76116157501E-01 -0.60215650318E-01  0.41043839951E-01  0.10537766317E+00  0.51100000000E-03 0.  1.
         11    1    4    4    0    0  0.20880332697E-01 -0.15199218268E-01  0.76584436302E-03  0.25842835914E-01  0.51100000000E-03 0. -1.
</event>
<event>
 8    1  0.1196210E+005  0.1043930E+01  0.7957747E-01            NaN
         13   -1    0    0    0    0  0.00000000000E+00  0.00000000000E+00  0.74505805969E-08  0.10566000000E+00  0.10566000000E+00 0. -1.
     999900   -1    0    0    0    0 -0.00000000000E+00 -0.00000000000E+00 -0.74505805969E-08  0.93827000000E+00  0.93827000000E+00 0. -1.
     999902    2    1    2    0    0  0.17925171203E-01 -0.98261018148E-02  0.89598896386E-02  0.10216108678E+01  0.10213670357E+01 0.  0.
     999903    2    3    3    0    0 -0.52944884798E-01  0.11003691711E+00  0.39293873820E-01  0.13014586079E+00  0.21969356113E-01 0.  0.
         14    1    1    2    0    0 -0.17925171203E-01  0.98261018148E-02 -0.89598896386E-02  0.22319132194E-01  0.00000000000E+00 0.  1.
     999901    1    3    3    0    0  0.70870056001E-01 -0.11986301892E+00 -0.30333984182E-01  0.89146500702E+00  0.88000000000E+00 0. -1.
        -11    1    4    4    0    0 -0.22273679837E-01  0.65099426176E-01  0.14328533769E-01  0.70282430969E-01  0.51100000000E-03 0.  1.
         11    1    4    4    0    0 -0.30671204961E-01  0.44937490930E-01  0.24965340051E-01  0.59863429819E-01  0.51100000000E-03 0. -1.
</event>
<event>
 8    1  0.1196210E+005  0.1043930E+01  0.7957747E-01            NaN
         13   -1    0    0    0    0  0.00000000000E+00  0.00000000000E+00  0.74505805969E-08  0.10566000000E+00  0.10566000000E+00 0.  1.
     999900   -1    0    0    0    0 -0.00000000000E+00 -0.00000000000E+00 -0.74505805969E-08  0.93827000000E+00  0.93827000000E+00 0. -1.
     999902    2    1    2    0    0  0.32485677715E-02  0.22769802435E-01 -0.20626690872E-02  0.10208373237E+01  0.10205760970E+01 0.  0.
     999903    2    3    3    0    0 -0.86972384885E-01  0.81319872871E-01  0.54537406168E-01  0.13248407212E+00  0.20014575654E-01 0.  0.
         14    1    1    2    0    0 -0.32485677715E-02 -0.22769802435E-01  0.20626690872E-02  0.23092676312E-01  0.00000000000E+00 0. -1.
     999901    1    3    3    0    0  0.90220952656E-01 -0.58550070436E-01 -0.56600075256E-01  0.88835325156E+00  0.88000000000E+00 0.  1.
        -11    1    4    4    0    0 -0.43096746944E-01  0.53800971894E-01  0.31912221659E-01  0.75963972949E-01  0.51100000000E-03 0.  1.
         11    1    4    4    0    0 -0.43875637941E-01  0.27518900976E-01  0.22625184509E-01  0.56520099175E-01  0.51100000000E-03 0. -1.
</event>
<event>
 8    1  0.1196210E+005  0.1043930E+01  0.7957747E-01            NaN
         13   -1    0    0    0    0  0.00000000000E+00  0.00000000000E+00  0.74505805969E-08  0.10566000000E+00  0.10566000000E+00 0.  1.
     999900   -1    0    0    0    0 -0.00000000000E+00 -0.00000000000E+00 -0.74505805969E-08  0.93827000000E+00  0.93827000000E+00 0. -1.
     999902    2    1    2    0    0 -0.21446760464E-01  0.75586952798E-02 -0.74697391051E-02  0.10199947872E+01  0.10197139165E+01 0.  0.
     999903    2    3    3    0    0  0.12464390838E+00 -0.90549625143E-02  0.16760920805E-01  0.12746712825E+00  0.18677367972E-01 0.  0.
         14    1    1    2    0    0  0.21446760464E-01 -0.75586952798E-02  0.74697391051E-02  0.23935212784E-01  0.00000000000E+00 0.  1.
     999901    1    3    3    0    0 -0.14609066884E+00  0.16613657794E-01 -0.24230659910E-01  0.89252765897E+00  0.88000000000E+00 0. -1.
        -11    1    4    4    0    0  0.86202016198E-01  0.24022653291E-02  0.10806668252E-01  0.86911470330E-01  0.51100000000E-03 0. -1.
         11    1    4    4    0    0  0.38441892183E-01 -0.11457227843E-01  0.59542525530E-02  0.40555657915E-01  0.51100000000E-03 0.  1.
</event>
<event>
 8    1  0.1196210E+005  0.1043930E+01  0.7957747E-01            NaN
         13   -1    0    0    0    0  0.00000000000E+00  0.00000000000E+00  0.74505805969E-08  0.10566000000E+00  0.10566000000E+00 0. -1.
     999900   -1    0    0    0    0 -0.00000000000E+00 -0.00000000000E+00 -0.74505805969E-08  0.93827000000E+00  0.93827000000E+00 0. -1.
     999902    2    1    2    0    0  0.28798762160E-02  0.22297336630E-01 -0.77002531416E-02  0.10201653454E+01  0.10198885102E+01 0.  0.
     999903    2    3    3    0    0  0.52081269118E-01  0.13762459900E-01 -0.11854601524E+00  0.13180708204E+00  0.20447133098E-01 0.  0.
         14    1    1    2    0    0 -0.28798762160E-02 -0.22297336630E-01  0.77002531416E-02  0.23764654557E-01  0.00000000000E+00 0. -1.
     999901    1    3    3    0    0 -0.49201392902E-01  0.85348767293E-02  0.11084576209E+00  0.88835826340E+00  0.88000000000E+00 0.  1.
        -11    1    4    4    0    0  0.45376725389E-01  0.18105596869E-01 -0.93243326865E-01  0.10526841393E+00  0.51100000000E-03 0. -1.
         11    1    4    4    0    0  0.67045437291E-02 -0.43431369686E-02 -0.25302688370E-01  0.26538668111E-01  0.51100000000E-03 0.  1.
</event>
<event>
 8    1  0.1196210E+005  0.1043930E+01  0.7957747E-01            NaN
         13   -1    0    0    0    0  0.00000000000E+00  0.00000000000E+00  0.74505805969E-08  0.10566000000E+00  0.10566000000E+00 0.  1.
     999900   -1    0    0    0    0 -0.00000000000E+00 -0.00000000000E+00 -0.74505805969E-08  0.93827000000E+00  0.93827000000E+00 0. -1.
     999902    2    1    2    0    0 -0.20109881225E-01 -0.11380464755E-01  0.60276278056E-02  0.10200499959E+01  0.10197704347E+01 0.  0.
     999903    2    3    3    0    0  0.98600218532E-01  0.15672340633E-01 -0.77125749519E-01  0.12778410150E+00  0.20316741938E-01 0.  0.
         14    1    1    2    0    0  0.20109881225E-01  0.11380464755E-01 -0.60276278056E-02  0.23880004144E-01  0.00000000000E+00 0.  1.
     999901    1    3    3    0    0 -0.11871009976E+00 -0.27052805388E-01  0.83153377324E-01  0.89226589435E+00  0.88000000000E+00 0.  1.
        -11    1    4    4    0    0  0.48126081263E-01 -0.24311481796E-02 -0.34157638212E-01  0.59068058614E-01  0.51100000000E-03 0. -1.
         11    1    4    4    0    0  0.50474137269E-01  0.18103488813E-01 -0.42968111306E-01  0.68716042890E-01  0.51100000000E-03 0.  1.
</event>
<event>
 8    1  0.1196210E+005  0.1043930E+01  0.7957747E-01            NaN
         13   -1    0    0    0    0  0.00000000000E+00  0.00000000000E+00  0.74505805969E-08  0.10566000000E+00  0.10566000000E+00 0.  1.
     999900   -1    0    0    0    0 -0.00000000000E+00 -0.00000000000E+00 -0.74505805969E-08  0.93827000000E+00  0.93827000000E+00 0. -1.
     999902    2    1    2    0    0  0.24360205910E-01 -0.30507902980E-02 -0.17792143577E-02  0.10193151151E+01  0.10190178661E+01 0.  0.
     999903    2    3    3    0    0 -0.84538372049E-01 -0.91673726727E-01 -0.20656056140E-01  0.12798506386E+00  0.20067271740E-01 0.  0.
         14    1    1    2    0    0 -0.24360205910E-01  0.30507902980E-02  0.17792143577E-02  0.24614884870E-01  0.00000000000E+00 0.  1.
     999901    1    3    3    0    0  0.10889857796E+00  0.88622936429E-01  0.18876841782E-01  0.89133005127E+00  0.88000000000E+00 0.  1.
        -11    1    4    4    0    0 -0.60220632248E-02 -0.11019270917E-01 -0.75532880856E-02  0.14662975787E-01  0.51100000000E-03 0.  1.
         11    1    4    4    0    0 -0.78516308824E-01 -0.80654455811E-01 -0.13102768054E-01  0.11332208807E+00  0.51100000000E-03 0. -1.
</event>
<event>
 8    1  0.1196210E+005  0.1043930E+01  0.7957747E-01            NaN
         13   -1    0    0    0    0  0.00000000000E+00  0.00000000000E+00  0.74505805969E-08  0.10566000000E+00  0.10566000000E+00 0.  1.
     999900   -1    0    0    0    0 -0.00000000000E+00 -0.00000000000E+00 -0.74505805969E-08  0.93827000000E+00  0.93827000000E+00 0.  1.
     999902    2    1    2    0    0 -0.12227251289E-01 -0.13436699387E-01 -0.15137226402E-01  0.10202828820E+01  0.10200088104E+01 0.  0.
     999903    2    3    3    0    0  0.85885078945E-01 -0.63885019375E-01  0.70252649273E-01  0.12929326751E+00  0.17993660226E-01 0.  0.
         14    1    1    2    0    0  0.12227251289E-01  0.13436699387E-01  0.15137226402E-01  0.23647117957E-01  0.00000000000E+00 0.  1.
     999901    1    3    3    0    0 -0.98112330234E-01  0.50448319988E-01 -0.85389875675E-01  0.89098961453E+00  0.88000000000E+00 0.  1.
        -11    1    4    4    0    0  0.24992111922E-01 -0.17006527458E-01  0.29782201086E-01  0.42438994534E-01  0.51100000000E-03 0.  1.
         11    1    4    4    0    0  0.60892967022E-01 -0.46878491918E-01  0.40470448187E-01  0.86854272979E-01  0.51100000000E-03 0. -1.
</event>
<event>
 8    1  0.1196210E+005  0.1043930E+01  0.7957747E-01            NaN
         13   -1    0    0    0    0  0.00000000000E+00  0.00000000000E+00  0.74505805969E-08  0.10566000000E+00  0.10566000000E+00 0. -1.
     999900   -1    0    0    0    0 -0.00000000000E+00 -0.00000000000E+00 -0.74505805969E-08  0.93827000000E+00  0.93827000000E+00 0.  1.
     999902    2    1    2    0    0  0.84821978909E-02  0.65210695017E-02  0.20478412778E-01  0.10208250780E+01  0.10205635710E+01 0.  0.
     999903    2    3    3    0    0  0.53274037278E-01  0.10846773671E+00  0.51630999738E-01  0.13326104345E+00  0.22121767842E-01 0.  0.
         14    1    1    2    0    0 -0.84821978909E-02 -0.65210695017E-02 -0.20478412778E-01  0.23104921952E-01  0.00000000000E+00 0.  1.
     999901    1    3    3    0    0 -0.44791839387E-01 -0.10194666721E+00 -0.31152586960E-01  0.88756403459E+00  0.88000000000E+00 0.  1.
        -11    1    4    4    0    0  0.32560570435E-01  0.48970250536E-01  0.16290726910E-01  0.61023971428E-01  0.51100000000E-03 0. -1.
         11    1    4    4    0    0  0.20713466843E-01  0.59497486178E-01  0.35340272828E-01  0.72237072025E-01  0.51100000000E-03 0.  1.
</event>
<event>
 8    1  0.1196210E+005  0.1043930E+01  0.7957747E-01            NaN
         13   -1    0    0    0    0  0.00000000000E+00  0.00000000000E+00  0.74505805969E-08  0.10566000000E+00  0.10566000000E+00 0. -1.
     999900   -1    0    0    0    0 -0.00000000000E+00 -0.00000000000E+00 -0.74505805969E-08  0.93827000000E+00  0.93827000000E+00 0.  1.
     999902    2    1    2    0    0  0.55497862199E-02  0.58645191650E-02 -0.23189420806E-01  0.10193751237E+01  0.10190793398E+01 0.  0.
     999903    2    3    3    0    0 -0.88209499335E-01 -0.64445762757E-01  0.62870812805E-01  0.12744423896E+00  0.18844702988E-01 0.  0.
         14    1    1    2    0    0 -0.55497862199E-02 -0.58645191650E-02  0.23189420806E-01  0.24554876286E-01  0.00000000000E+00 0. -1.
     999901    1    3    3    0    0  0.93759285555E-01  0.70310281922E-01 -0.86060233611E-01  0.89193088476E+00  0.88000000000E+00 0.  1.
        -11    1    4    4    0    0 -0.21387026383E-01 -0.13645902206E-01  0.24048869155E-01  0.34960331422E-01  0.51100000000E-03 0.  1.
         11    1    4    4    0    0 -0.66822472952E-01 -0.50799860551E-01  0.38821943650E-01  0.92483907536E-01  0.51100000000E-03 0. -1.
</event>
<event>
 8    1  0.1196210E+005  0.1043930E+01  0.7957747E-01            NaN
         13   -1    0    0    0    0  0.00000000000E+00  0.00000000000E+00  0.74505805969E-08  0.10566000000E+00  0.10566000000E+00 0.  1.
     999900   -1    0    0    0    0 -0.00000000000E+00 -0.00000000000E+00 -0.74505805969E-08  0.93827000000E+00  0.93827000000E+00 0. -1.
     999902    2    1    2    0    0  0.27811055449E-02 -0.19558513705E-01 -0.14791366627E-01  0.10192509698E+01  0.10189521504E+01 0.  0.
     999903    2    3    3    0    0  0.27836420711E-01 -0.21713887617E-01  0.12170356263E+00  0.12837315538E+00  0.20531698256E-01 0.  0.
         14    1    1    2    0    0 -0.27811055449E-02  0.19558513705E-01  0.14791366627E-01  0.24679030230E-01  0.00000000000E+00 0.  1.
     999901    1    3    3    0    0 -0.25055315166E-01  0.21553739125E-02 -0.13649492925E+00  0.89087781439E+00  0.88000000000E+00 0. -1.
        -11    1    4    4    0    0  0.86234705741E-02 -0.12013378069E-01  0.22997581427E-01  0.27346578760E-01  0.51100000000E-03 0. -1.
         11    1    4    4    0    0  0.19212950137E-01 -0.97005095483E-02  0.98705981200E-01  0.10102657662E+00  0.51100000000E-03 0.  1.
</event>
<event>
 8    1  0.1196210E+005  0.1043930E+01  0.7957747E-01            NaN
         13   -1    0    0    0    0  0.00000000000E+00  0.00000000000E+00  0.74505805969E-08  0.10566000000E+00  0.10566000000E+00 0. -1.
     999900   -1    0    0    0    0 -0.00000000000E+00 -0.00000000000E+00 -0.74505805969E-08  0.93827000000E+00  0.93827000000E+00 0.  1.
     999902    2    1    2    0    0 -0.11679824983E-01 -0.19476070156E-01 -0.54125411655E-02  0.10205840962E+01  0.10203170420E+01 0.  0.
     999903    2    3    3    0    0  0.16340335989E-01  0.14275453288E-01 -0.12765923820E+00  0.13105132580E+00  0.20168632774E-01 0.  0.
         14    1    1    2    0    0  0.11679824983E-01  0.19476070156E-01  0.54125411655E-02  0.23345903757E-01  0.00000000000E+00 0. -1.
     999901    1    3    3    0    0 -0.28020160972E-01 -0.33751523444E-01  0.12224669704E+00  0.88953277044E+00  0.88000000000E+00 0. -1.
        -11    1    4    4    0    0  0.19036713215E-02  0.15013571139E-01 -0.67497505219E-01  0.69175180626E-01  0.51100000000E-03 0. -1.
         11    1    4    4    0    0  0.14436664668E-01 -0.73811785063E-03 -0.60161732985E-01  0.61876145173E-01  0.51100000000E-03 0.  1.
</event>
<event>
 8    1  0.1196210E+005  0.1043930E+01  0.7957747E-01            NaN
         13   -1    0    0    0    0  0.00000000000E+00  0.00000000000E+00  0.74505805969E-08  0.10566000000E+00  0.10566000000E+00 0.  1.
     999900   -1    0    0    0    0 -0.00000000000E+00 -0.00000000000E+00 -0.74505805969E-08  0.93827000000E+00  0.93827000000E+00 0. -1.
     999902    2    1    2    0    0  0.24624879396E-02  0.23280028422E-01 -0.78576371356E-02  0.10192365589E+01  0.10189373862E+01 0.  0.
     999903    2    3    3    0    0  0.64838611154E-01  0.10896224454E+00 -0.31671086163E-01  0.13255775392E+00  0.22173953097E-01 0.  0.
         14    1    1    2    0    0 -0.24624879396E-02 -0.23280028422E-01  0.78576371356E-02  0.24693441063E-01  0.00000000000E+00 0. -1.
     999901    1    3    3    0    0 -0.62376123214E-01 -0.85682216113E-01  0.23813449027E-01  0.88667880501E+00  0.88000000000E+00 0.  1.
        -11    1    4    4    0    0  0.22698640681E-01  0.59632151743E-01 -0.14275588168E-01  0.65385589764E-01  0.51100000000E-03 0.  1.
         11    1    4    4    0    0  0.42139970473E-01  0.49330092792E-01 -0.17395497995E-01  0.67172164159E-01  0.51100000000E-03 0. -1.
</event>
<event>
 8    1  0.1196210E+005  0.1043930E+01  0.7957747E-01            NaN
         13   -1    0    0    0    0  0.00000000000E+00  0.00000000000E+00  0.74505805969E-08  0.10566000000E+00  0.10566000000E+00 0.  1.
     999900   -1    0    0    0    0 -0.00000000000E+00 -0.00000000000E+00 -0.74505805969E-08  0.93827000000E+00  0.93827000000E+00 0.  1.
     999902    2    1    2    0    0 -0.20023862473E-01 -0.36690371611E-02  0.13129721735E-01  0.10197059109E+01  0.10194181370E+01 0.  0.
     999903    2    3    3    0    0  0.26216386343E-01 -0.12168164424E+00  0.33803595226E-01  0.13038451502E+00  0.19071372507E-01 0.  0.
         14    1    1    2    0    0  0.20023862473E-01  0.36690371611E-02 -0.13129721735E-01  0.24224089145E-01  0.00000000000E+00 0. -1.
     999901    1    3    3    0    0 -0.46240248816E-01  0.11801260708E+00 -0.20673873491E-01  0.88932139583E+00  0.88000000000E+00 0. -1.
        -11    1    4    4    0    0  0.11751635232E-01 -0.57317109614E-01  0.25735098583E-01  0.63921110795E-01  0.51100000000E-03 0. -1.
         11    1    4    4    0    0  0.14464751111E-01 -0.64364534628E-01  0.80684966426E-02  0.66463404228E-01  0.51100000000E-03 0.  1.
</event>
<event>
 8    1  0.1196219E+005  0.1043930E+01  0.7957747E-01            NaN
         13   -1    0    0    0    0  0.00000000000E+00  0.00000000000E+00  0.74505805969E-08  0.10566000000E+00  0.10566000000E+00 0. -1.
     999900   -1    0    0    0    0 -0.00000000000E+00 -0.00000000000E+00 -0.74505805969E-08  0.93827000000E+00  0.93827000000E+00 0. -1.
     999902    2    1    2    0    0 -0.14038242824E-01 -0.14057409734E-01  0.13511112606E-01  0.10199043222E+01  0.10196212989E+01 0.  0.
     999903    2    3    3    0    0 -0.53393310571E-01 -0.66579469966E-01  0.10003542154E+00  0.13322859556E+00  0.21426658098E-01 0.  0.
         14    1    1    2    0    0  0.14038242824E-01  0.14057409734E-01 -0.13511112606E-01  0.24025677802E-01  0.00000000000E+00 0.  1.
     999901    1    3    3    0    0  0.39355067747E-01  0.52522060232E-01 -0.86524308937E-01  0.88667572664E+00  0.88000000000E+00 0. -1.
        -11    1    4    4    0    0 -0.19851137534E-01 -0.41747087479E-01  0.50933904718E-01  0.68785250928E-01  0.51100000000E-03 0.  1.
         11    1    4    4    0    0 -0.33542173037E-01 -0.24832382487E-01  0.49101516825E-01  0.64443344634E-01  0.51100000000E-03 0. -1.
</event>
<event>
 8    1  0.1196210E+005  0.1043930E+01  0.7957747E-01            NaN
         13   -1    0    0    0    0  0.00000000000E+00  0.00000000000E+00  0.74505805969E-08  0.10566000000E+00  0.10566000000E+00 0. -1.
     999900   -1    0    0    0    0 -0.00000000000E+00 -0.00000000000E+00 -0.74505805969E-08  0.93827000000E+00  0.93827000000E+00 0. -1.
     999902    2    1    2    0    0 -0.16696100691E-01 -0.87289121927E-02 -0.15155839736E-01  0.10197503978E+01  0.10194636926E+01 0.  0.
     999903    2    3    3    0    0 -0.87871398774E-01 -0.50900085926E-02 -0.97707324529E-01  0.13301824411E+00  0.19996026844E-01 0.  0.
         14    1    1    2    0    0  0.16696100691E-01  0.87289121927E-02  0.15155839736E-01  0.24179602239E-01  0.00000000000E+00 0. -1.
     999901    1    3    3    0    0  0.71175298082E-01 -0.36389036000E-02  0.82551484793E-01  0.88673215365E+00  0.88000000000E+00 0.  1.
        -11    1    4    4    0    0 -0.55088602231E-01  0.38164392294E-02 -0.50325049277E-01  0.74714061661E-01  0.51100000000E-03 0.  1.
         11    1    4    4    0    0 -0.32782796542E-01 -0.89064478220E-02 -0.47382275252E-01  0.58304182449E-01  0.51100000000E-03 0. -1.
</event>
<event>
 8    1  0.1196210E+005  0.1043930E+01  0.7957747E-01            NaN
         13   -1    0    0    0    0  0.00000000000E+00  0.00000000000E+00  0.74505805969E-08  0.10566000000E+00  0.10566000000E+00 0.  1.
     999900   -1    0    0    0    0 -0.00000000000E+00 -0.00000000000E+00 -0.74505805969E-08  0.93827000000E+00  0.93827000000E+00 0.  1.
     999902    2    1    2    0    0  0.40218078759E-02 -0.45017380530E-03 -0.17690534526E-01  0.10257824766E+01  0.10256219365E+01 0.  0.
     999903    2    3    3    0    0 -0.69242010647E-01  0.70099805288E-01 -0.92744518101E-01  0.13675042590E+00  0.19765996218E-01 0.  0.
         14    1    1    2    0    0 -0.40218078759E-02  0.45017380530E-03  0.17690534526E-01  0.18147523436E-01  0.00000000000E+00 0.  1.
     999901    1    3    3    0    0  0.73263818523E-01 -0.70549979093E-01  0.75053983575E-01  0.88903205066E+00  0.88000000000E+00 0. -1.
        -11    1    4    4    0    0 -0.49754128900E-01  0.61493095989E-01 -0.75283274835E-01  0.10920030580E+00  0.51100000000E-03 0. -1.
         11    1    4    4    0    0 -0.19487881747E-01  0.86067092991E-02 -0.17461243266E-01  0.27550120097E-01  0.51100000000E-03 0.  1.
</event>
<event>
 8    1  0.1196210E+005  0.1043930E+01  0.7957747E-01            NaN
         13   -1    0    0    0    0  0.00000000000E+00  0.00000000000E+00  0.74505805969E-08  0.10566000000E+00  0.10566000000E+00 0.  1.
     999900   -1    0    0    0    0 -0.00000000000E+00 -0.00000000000E+00 -0.74505805969E-08  0.93827000000E+00  0.93827000000E+00 0.  1.
     999902    2    1    2    0    0 -0.27262610269E-02 -0.43851641774E-02  0.24402849624E-01  0.10189868399E+01  0.10186815100E+01 0.  0.
     999903    2    3    3    0    0  0.80336831028E-01 -0.57141092409E-01  0.84570659619E-01  0.13146059774E+00  0.20262809025E-01 0.  0.
         14    1    1    2    0    0  0.27262610269E-02  0.43851641774E-02 -0.24402849624E-01  0.24943160061E-01  0.00000000000E+00 0. -1.
     999901    1    3    3    0    0 -0.83063092055E-01  0.52755928232E-01 -0.60167809995E-01  0.88752624220E+00  0.88000000000E+00 0.  1.
        -11    1    4    4    0    0  0.23660235536E-01 -0.23822464036E-01  0.39002943792E-01  0.51466564717E-01  0.51100000000E-03 0.  1.
         11    1    4    4    0    0  0.56676595492E-01 -0.33318628373E-01  0.45567715827E-01  0.79994033027E-01  0.51100000000E-03 0. -1.
</event>
<event>
 8    1  0.1196210E+005  0.1043930E+01  0.7957747E-01            NaN
         13   -1    0    0    0    0  0.00000000000E+00  0.00000000000E+00  0.74505805969E-08  0.10566000000E+00  0.10566000000E+00 0. -1.
     999900   -1    0    0    0    0 -0.00000000000E+00 -0.00000000000E+00 -0.74505805969E-08  0.93827000000E+00  0.93827000000E+00 0.  1.
     999902    2    1    2    0    0 -0.10378806122E-02 -0.15131626498E-01 -0.17675973751E-01  0.10206387277E+01  0.10203729363E+01 0.  0.
     999903    2    3    3    0    0  0.78924054208E-01  0.87697790229E-01 -0.50105103260E-01  0.13045928041E+00  0.24273313087E-01 0.  0.
         14    1    1    2    0    0  0.10378806122E-02  0.15131626498E-01  0.17675973751E-01  0.23291272286E-01  0.00000000000E+00 0. -1.
     999901    1    3    3    0    0 -0.79961934821E-01 -0.10282941673E+00  0.32429129509E-01  0.89017944731E+00  0.88000000000E+00 0. -1.
        -11    1    4    4    0    0  0.30429266969E-01  0.47149693845E-01 -0.32449517674E-01  0.64824889018E-01  0.51100000000E-03 0. -1.
         11    1    4    4    0    0  0.48494787240E-01  0.40548096385E-01 -0.17655585586E-01  0.65634391391E-01  0.51100000000E-03 0.  1.
</event>
<event>
 8    1  0.1196210E+005  0.1043930E+01  0.7957747E-01            NaN
         13   -1    0    0    0    0  0.00000000000E+00  0.00000000000E+00  0.74505805969E-08  0.10566000000E+00  0.10566000000E+00 0. -1.
     999900   -1    0    0    0    0 -0.00000000000E+00 -0.00000000000E+00 -0.74505805969E-08  0.93827000000E+00  0.93827000000E+00 0.  1.
     999902    2    1    2    0    0 -0.18763617133E-01 -0.35764154884E-02  0.13505076167E-01  0.10205366001E+01  0.10202684456E+01 0.  0.
     999903    2    3    3    0    0  0.26136202891E-01 -0.12605384685E+00  0.11068841174E-01  0.13091721506E+00  0.21074262648E-01 0.  0.
         14    1    1    2    0    0  0.18763617133E-01  0.35764154884E-02 -0.13505076167E-01  0.23393399880E-01  0.00000000000E+00 0.  1.
     999901    1    3    3    0    0 -0.44899820023E-01  0.12247743137E+00  0.24362349931E-02  0.88961938506E+00  0.88000000000E+00 0.  1.
        -11    1    4    4    0    0  0.17656606810E-01 -0.60388176670E-01  0.14671097682E-01  0.64606422852E-01  0.51100000000E-03 0.  1.
         11    1    4    4    0    0  0.84795960806E-02 -0.65665670184E-01 -0.36022565079E-02  0.66310792209E-01  0.51100000000E-03 0. -1.
</event>
<event>
 8    1  0.1196210E+005  0.1043930E+01  0.7957747E-01            NaN
         13   -1    0    0    0    0  0.00000000000E+00  0.00000000000E+00  0.74505805969E-08  0.10566000000E+00  0.10566000000E+00 0. -1.
     999900   -1    0    0    0    0 -0.00000000000E+00 -0.00000000000E+00 -0.74505805969E-08  0.93827000000E+00  0.93827000000E+00 0.  1.
     999902    2    1    2    0    0  0.68603387104E-02  0.22029686559E-01 -0.10549287936E-02  0.10208327228E+01  0.10205713909E+01 0.  0.
     999903    2    3    3    0    0 -0.80235296346E-01 -0.77038131116E-04  0.10056895031E+00  0.13043855748E+00  0.21503367094E-01 0.  0.
         14    1    1    2    0    0 -0.68603387104E-02 -0.22029686559E-01  0.10549287936E-02  0.23097277153E-01  0.00000000000E+00 0. -1.
     999901    1    3    3    0    0  0.87095635057E-01  0.22106724690E-01 -0.10162387910E+00  0.89039416537E+00  0.88000000000E+00 0.  1.
        -11    1    4    4    0    0 -0.19944538649E-01 -0.18142452020E-03  0.41427580786E-01  0.45981769296E-01  0.51100000000E-03 0. -1.
         11    1    4    4    0    0 -0.60290757697E-01  0.10438638908E-03  0.59141369520E-01  0.84456788181E-01  0.51100000000E-03 0.  1.
</event>
<event>
 8    1  0.1196210E+005  0.1043930E+01  0.7957747E-01            NaN
         13   -1    0    0    0    0  0.00000000000E+00  0.00000000000E+00  0.74505805969E-08  0.10566000000E+00  0.10566000000E+00 0.  1.
     999900   -1    0    0    0    0 -0.00000000000E+00 -0.00000000000E+00 -0.74505805969E-08  0.93827000000E+00  0.93827000000E+00 0.  1.
     999902    2    1    2    0    0  0.22494431562E-01 -0.12357753828E-01 -0.24227423962E-02  0.10181504885E+01  0.10178240683E+01 0.  0.
     999903    2    3    3    0    0  0.94066436675E-01  0.61589877665E-01 -0.62178052442E-01  0.13014063431E+00  0.20704273770E-01 0.  0.
         14    1    1    2    0    0 -0.22494431562E-01  0.12357753828E-01  0.24227423962E-02  0.25779511471E-01  0.00000000000E+00 0.  1.
     999901    1    3    3    0    0 -0.71572005113E-01 -0.73947631493E-01  0.59755310046E-01  0.88800985422E+00  0.88000000000E+00 0. -1.
        -11    1    4    4    0    0  0.40649497358E-01  0.27338663925E-01 -0.15565184726E-01  0.51403504523E-01  0.51100000000E-03 0.  1.
         11    1    4    4    0    0  0.53416939317E-01  0.34251213740E-01 -0.46612867716E-01  0.78737129782E-01  0.51100000000E-03 0. -1.
</event>
<event>
 8    1  0.1196210E+005  0.1043930E+01  0.7957747E-01            NaN
         13   -1    0    0    0    0  0.00000000000E+00  0.00000000000E+00  0.74505805969E-08  0.10566000000E+00  0.10566000000E+00 0. -1.
     999900   -1    0    0    0    0 -0.00000000000E+00 -0.00000000000E+00 -0.74505805969E-08  0.93827000000E+00  0.93827000000E+00 0. -1.
     999902    2    1    2    0    0 -0.64750298029E-02 -0.18858910053E-01  0.11258501427E-01  0.10210315644E+01  0.10207747632E+01 0.  0.
     999903    2    3    3    0    0  0.12619658652E-01  0.12640250173E+00 -0.83531533054E-03  0.12883666119E+00  0.21478810157E-01 0.  0.
         14    1    1    2    0    0  0.64750298029E-02  0.18858910053E-01 -0.11258501427E-01  0.22898435617E-01  0.00000000000E+00 0. -1.
     999901    1    3    3    0    0 -0.19094688455E-01 -0.14526141179E+00  0.12093816757E-01  0.89219490319E+00  0.88000000000E+00 0.  1.
        -11    1    4    4    0    0  0.13818882096E-01  0.99129454591E-01 -0.85770920216E-02  0.10045614913E+00  0.51100000000E-03 0. -1.
         11    1    4    4    0    0 -0.11992234442E-02  0.27273047142E-01  0.77417766911E-02  0.28380512057E-01  0.51100000000E-03 0.  1.
</event>
<event>
 8    1  0.1196210E+005  0.1043930E+01  0.7957747E-01            NaN
         13   -1    0    0    0    0  0.00000000000E+00  0.00000000000E+00  0.74505805969E-08  0.10566000000E+00  0.10566000000E+00 0. -1.
     999900   -1    0    0    0    0 -0.00000000000E+00 -0.00000000000E+00 -0.74505805969E-08  0.93827000000E+00  0.93827000000E+00 0. -1.
     999902    2    1    2    0    0 -0.14556824428E-01  0.43046734843E-02 -0.18413932719E-01  0.10200657114E+01  0.10197865224E+01 0.  0.
     999903    2    3    3    0    0 -0.88317333823E-01 -0.19649820305E-01 -0.96274576000E-01  0.13323048981E+00  0.17190187295E-01 0.  0.
         14    1    1    2    0    0  0.14556824428E-01 -0.43046734843E-02  0.18413932719E-01  0.23864288580E-01  0.00000000000E+00 0. -1.
     999901    1    3    3    0    0  0.73760509395E-01  0.23954493789E-01  0.77860643281E-01  0.88683522161E+00  0.88000000000E+00 0.  1.
        -11    1    4    4    0    0 -0.39218306971E-01 -0.17343140212E-01 -0.42572857667E-01  0.60428217292E-01  0.51100000000E-03 0. -1.
         11    1    4    4    0    0 -0.49099026851E-01 -0.23066800928E-02 -0.53701718333E-01  0.72802272517E-01  0.51100000000E-03 0.  1.
</event>
<event>
 8    1  0.1196210E+005  0.1043930E+01  0.7957747E-01            NaN
         13   -1    0    0    0    0  0.00000000000E+00  0.00000000000E+00  0.74505805969E-08  0.10566000000E+00  0.10566000000E+00 0. -1.
     999900   -1    0    0    0    0 -0.00000000000E+00 -0.00000000000E+00 -0.74505805969E-08  0.93827000000E+00  0.93827000000E+00 0. -1.
     999902    2    1    2    0    0  0.13755231268E-01  0.43700956469E-02  0.18691411980E-01  0.10203148988E+01  0.10200415774E+01 0.  0.
     999903    2    3    3    0    0 -0.53695919723E-02 -0.10833322204E+00 -0.67480064272E-01  0.12874699897E+00  0.16040921238E-01 0.  0.
         14    1    1    2    0    0 -0.13755231268E-01 -0.43700956469E-02 -0.18691411980E-01  0.23615101207E-01  0.00000000000E+00 0.  1.
     999901    1    3    3    0    0  0.19124823241E-01  0.11270331768E+00  0.86171476253E-01  0.89156789983E+00  0.88000000000E+00 0.  1.
        -11    1    4    4    0    0 -0.10678966895E-01 -0.65971615195E-01 -0.38252317212E-01  0.77005163713E-01  0.51100000000E-03 0. -1.
         11    1    4    4    0    0  0.53093749229E-02 -0.42361606841E-01 -0.29227747061E-01  0.51741835254E-01  0.51100000000E-03 0.  1.
</event>
<event>
 8    1  0.1196210E+005  0.1043930E+01  0.7957747E-01            NaN
         13   -1    0    0    0    0  0.00000000000E+00  0.00000000000E+00  0.74505805969E-08  0.10566000000E+00  0.10566000000E+00 0.  1.
     999900   -1    0    0    0    0 -0.00000000000E+00 -0.00000000000E+00 -0.74505805969E-08  0.93827000000E+00  0.93827000000E+00 0.  1.
     999902    2    1    2    0    0 -0.13699370918E-02 -0.23367030677E-01  0.61786844866E-02  0.10197210968E+01  0.10194336881E+01 0.  0.
     999903    2    3    3    0    0  0.32310495380E-01  0.35728087528E-01 -0.11728475716E+00  0.12850292717E+00  0.20900327234E-01 0.  0.
         14    1    1    2    0    0  0.13699370918E-02  0.23367030677E-01 -0.61786844866E-02  0.24208903161E-01  0.00000000000E+00 0.  1.
     999901    1    3    3    0    0 -0.33680432472E-01 -0.59095118205E-01  0.12346344165E+00  0.89121816967E+00  0.88000000000E+00 0. -1.
        -11    1    4    4    0    0  0.23569743724E-02  0.11933401796E-01 -0.46195402840E-01  0.47772772278E-01  0.51100000000E-03 0.  1.
         11    1    4    4    0    0  0.29953521007E-01  0.23794685733E-01 -0.71089354321E-01  0.80730154891E-01  0.51100000000E-03 0. -1.
</event>
<event>
 8    1  0.1196210E+005  0.1043930E+01  0.7957747E-01            NaN
         13   -1    0    0    0    0  0.00000000000E+00  0.00000000000E+00  0.74505805969E-08  0.10566000000E+00  0.10566000000E+00 0.  1.
     999900   -1    0    0    0    0 -0.00000000000E+00 -0.00000000000E+00 -0.74505805969E-08  0.93827000000E+00  0.93827000000E+00 0. -1.
     999902    2    1    2    0    0  0.67319809978E-03  0.16113862275E-01  0.18341901775E-01  0.10195059317E+01  0.10192133288E+01 0.  0.
     999903    2    3    3    0    0 -0.19115594787E-01 -0.11980397089E+00  0.37478990865E-01  0.12864596407E+00  0.20657006277E-01 0.  0.
         14    1    1    2    0    0 -0.67319809978E-03 -0.16113862275E-01 -0.18341901775E-01  0.24424068331E-01  0.00000000000E+00 0. -1.
     999901    1    3    3    0    0  0.19788792886E-01  0.13591783317E+00 -0.19137089090E-01  0.89085996760E+00  0.88000000000E+00 0. -1.
        -11    1    4    4    0    0 -0.99428019766E-02 -0.26966331279E-01  0.19262256755E-02  0.28809960086E-01  0.51100000000E-03 0.  1.
         11    1    4    4    0    0 -0.91727928101E-02 -0.92837639615E-01  0.35552765190E-01  0.99836003981E-01  0.51100000000E-03 0. -1.
</event>
<event>
 8    1  0.1196210E+005  0.1043930E+01  0.7957747E-01            NaN
         13   -1    0    0    0    0  0.00000000000E+00  0.00000000000E+00  0.74505805969E-08  0.10566000000E+00  0.10566000000E+00 0.  1.
     999900   -1    0    0    0    0 -0.00000000000E+00 -0.00000000000E+00 -0.74505805969E-08  0.93827000000E+00  0.93827000000E+00 0.  1.
     999902    2    1    2    0    0 -0.53666130261E-02 -0.22207594883E-01  0.90825684746E-02  0.10193440110E+01  0.10190474679E+01 0.  0.
     999903    2    3    3    0    0  0.45437499185E-01  0.10321277013E+00  0.56546479944E-01  0.12773639063E+00  0.20040929278E-01 0.  0.
         14    1    1    2    0    0  0.53666130261E-02  0.22207594883E-01 -0.90825684746E-02  0.24585989017E-01  0.00000000000E+00 0. -1.
     999901    1    3    3    0    0 -0.50804112211E-01 -0.12542036502E+00 -0.47463911470E-01  0.89160762035E+00  0.88000000000E+00 0. -1.
        -11    1    4    4    0    0  0.11891300003E-01  0.13919865707E-01  0.15085172043E-01  0.23727393739E-01  0.51100000000E-03 0. -1.
         11    1    4    4    0    0  0.33546199182E-01  0.89292904426E-01  0.41461307901E-01  0.10400899689E+00  0.51100000000E-03 0.  1.
</event>
<event>
 8    1  0.1196210E+005  0.1043930E+01  0.7957747E-01            NaN
         13   -1    0    0    0    0  0.00000000000E+00  0.00000000000E+00  0.74505805969E-08  0.10566000000E+00  0.10566000000E+00 0.  1.
     999900   -1    0    0    0    0 -0.00000000000E+00 -0.00000000000E+00 -0.74505805969E-08  0.93827000000E+00  0.93827000000E+00 0.  1.
     999902    2    1    2    0    0 -0.76738087026E-02 -0.17021527975E-01 -0.15098708411E-01  0.10199176959E+01  0.10196349913E+01 0.  0.
     999903    2    3    3    0    0  0.20260777210E-01  0.88052436089E-01  0.87411108150E-01  0.12732084312E+00  0.20153527522E-01 0.  0.
         14    1    1    2    0    0  0.76738087026E-02  0.17021527975E-01  0.15098708411E-01  0.24012304144E-01  0.00000000000E+00 0.  1.
     999901    1    3    3    0    0 -0.27934585913E-01 -0.10507396406E+00 -0.10250981656E+00  0.89259685273E+00  0.88000000000E+00 0.  1.
        -11    1    4    4    0    0  0.34286035605E-02  0.27046903795E-01  0.39250641784E-01  0.47792931786E-01  0.51100000000E-03 0.  1.
         11    1    4    4    0    0  0.16832173650E-01  0.61005532294E-01  0.48160466366E-01  0.79527911339E-01  0.51100000000E-03 0. -1.
</event>
<event>
 8    1  0.1196210E+005  0.1043930E+01  0.7957747E-01            NaN
         13   -1    0    0    0    0  0.00000000000E+00  0.00000000000E+00  0.74505805969E-08  0.10566000000E+00  0.10566000000E+00 0.  1.
     999900   -1    0    0    0    0 -0.00000000000E+00 -0.00000000000E+00 -0.74505805969E-08  0.93827000000E+00  0.93827000000E+00 0. -1.
     999902    2    1    2    0    0 -0.53022187809E-02  0.21781936435E-01  0.12930044571E-02  0.10214747525E+01  0.10212279040E+01 0.  0.
     999903    2    3    3    0    0  0.77657342862E-01  0.89292016725E-02  0.10354450085E+00  0.13158551774E+00  0.21974787386E-01 0.  0.
         14    1    1    2    0    0  0.53022187809E-02 -0.21781936435E-01 -0.12930044571E-02  0.22455247480E-01  0.00000000000E+00 0.  1.
     999901    1    3    3    0    0 -0.82959561643E-01  0.12852734763E-01 -0.10225149639E+00  0.88988923478E+00  0.88000000000E+00 0. -1.
        -11    1    4    4    0    0  0.36700408182E-01 -0.62025581170E-03  0.32519033867E-01  0.49041343402E-01  0.51100000000E-03 0. -1.
         11    1    4    4    0    0  0.40956934680E-01  0.95494574842E-02  0.71025466981E-01  0.82544174340E-01  0.51100000000E-03 0.  1.
</event>
<event>
 8    1  0.1196210E+005  0.1043930E+01  0.7957747E-01            NaN
         13   -1    0    0    0    0  0.00000000000E+00  0.00000000000E+00  0.74505805969E-08  0.10566000000E+00  0.10566000000E+00 0. -1.
     999900   -1    0    0    0    0 -0.00000000000E+00 -0.00000000000E+00 -0.74505805969E-08  0.93827000000E+00  0.93827000000E+00 0. -1.
     999902    2    1    2    0    0 -0.11822219086E-01  0.73857340031E-02 -0.19174894053E-01  0.10202236613E+01  0.10199481990E+01 0.  0.
     999903    2    3    3    0    0 -0.25658709216E-02 -0.10470715424E+00 -0.76141587921E-01  0.13123789104E+00  0.21346446804E-01 0.  0.
         14    1    1    2    0    0  0.11822219086E-01 -0.73857340031E-02  0.19174894053E-01  0.23706338663E-01  0.00000000000E+00 0. -1.
     999901    1    3    3    0    0 -0.92563481643E-02  0.11209288824E+00  0.56966693868E-01  0.88898577029E+00  0.88000000000E+00 0.  1.
        -11    1    4    4    0    0  0.79165041796E-02 -0.22489904123E-01 -0.14089749327E-01  0.27699259610E-01  0.51100000000E-03 0.  1.
         11    1    4    4    0    0 -0.10482375101E-01 -0.82217250119E-01 -0.62051838595E-01  0.10353863143E+00  0.51100000000E-03 0. -1.
</event>
<event>
 8    1  0.1196210E+005  0.1043930E+01  0.7957747E-01            NaN
         13   -1    0    0    0    0  0.00000000000E+00  0.00000000000E+00  0.74505805969E-08  0.10566000000E+00  0.10566000000E+00 0. -1.
     999900   -1    0    0    0    0 -0.00000000000E+00 -0.00000000000E+00 -0.74505805969E-08  0.93827000000E+00  0.93827000000E+00 0. -1.
     999902    2    1    2    0    0  0.12727639306E-01  0.80950675488E-02 -0.20412356459E-01  0.10185491565E+01  0.10182328795E+01 0.  0.
     999903    2    3    3    0    0 -0.97481383095E-01  0.60128589574E-01  0.51343601570E-01  0.12725659311E+00  0.20976361294E-01 0.  0.
         14    1    1    2    0    0 -0.12727639306E-01 -0.80950675488E-02  0.20412356459E-01  0.25380843507E-01  0.00000000000E+00 0. -1.
     999901    1    3    3    0    0  0.11020902240E+00 -0.52033522026E-01 -0.71755958028E-01  0.89129256339E+00  0.88000000000E+00 0. -1.
        -11    1    4    4    0    0 -0.29503224344E-01  0.11222350341E-01  0.63910512778E-02  0.32210061337E-01  0.51100000000E-03 0. -1.
         11    1    4    4    0    0 -0.67978158750E-01  0.48906239233E-01  0.44952550292E-01  0.95046531771E-01  0.51100000000E-03 0.  1.
</event>
<event>
 8    1  0.1196210E+005  0.1043930E+01  0.7957747E-01            NaN
         13   -1    0    0    0    0  0.00000000000E+00  0.00000000000E+00  0.74505805969E-08  0.10566000000E+00  0.10566000000E+00 0. -1.
     999900   -1    0    0    0    0 -0.00000000000E+00 -0.00000000000E+00 -0.74505805969E-08  0.93827000000E+00  0.93827000000E+00 0. -1.
     999902    2    1    2    0    0 -0.15015711473E-03 -0.37375275345E-02 -0.22883504879E-01  0.10207427955E+01  0.10204794011E+01 0.  0.
     999903    2    3    3    0    0 -0.24364420809E-01 -0.11935943258E+00 -0.43055207644E-01  0.13262025149E+00  0.29901188157E-01 0.  0.
         14    1    1    2    0    0  0.15015711473E-03  0.37375275345E-02  0.22883504879E-01  0.23187204548E-01  0.00000000000E+00 0. -1.
     999901    1    3    3    0    0  0.24214263694E-01  0.11562190505E+00  0.20171702765E-01  0.88812254396E+00  0.88000000000E+00 0.  1.
        -11    1    4    4    0    0 -0.31475981716E-02 -0.75717933487E-01 -0.34806753280E-01  0.83395947268E-01  0.51100000000E-03 0.  1.
         11    1    4    4    0    0 -0.21216822637E-01 -0.43641499096E-01 -0.82484543635E-02  0.49224304226E-01  0.51100000000E-03 0. -1.
</event>
<event>
 8    1  0.1196210E+005  0.1043930E+01  0.7957747E-01            NaN
         13   -1    0    0    0    0  0.00000000000E+00  0.00000000000E+00  0.74505805969E-08  0.10566000000E+00  0.10566000000E+00 0. -1.
     999900   -1    0    0    0    0 -0.00000000000E+00 -0.00000000000E+00 -0.74505805969E-08  0.93827000000E+00  0.93827000000E+00 0.  1.
     999902    2    1    2    0    0 -0.80120874361E-03  0.19314471690E-01 -0.13625228299E-01  0.10202796808E+01  0.10200055340E+01 0.  0.
     999903    2    3    3    0    0  0.58334307543E-01 -0.10821037181E+00  0.29697987181E-01  0.12807090703E+00  0.20194325420E-01 0.  0.
         14    1    1    2    0    0  0.80120874361E-03 -0.19314471690E-01  0.13625228299E-01  0.23650319201E-01  0.00000000000E+00 0. -1.
     999901    1    3    3    0    0 -0.59135516286E-01  0.12752484350E+00 -0.43323215480E-01  0.89220877377E+00  0.88000000000E+00 0. -1.
        -11    1    4    4    0    0  0.43812137822E-01 -0.72878739527E-01  0.29054591953E-01  0.89862364370E-01  0.51100000000E-03 0. -1.
         11    1    4    4    0    0  0.14522169721E-01 -0.35331632288E-01  0.64339522807E-03  0.38208542656E-01  0.51100000000E-03 0.  1.
</event>
<event>
 8    1  0.1196210E+005  0.1043930E+01  0.7957747E-01            NaN
         13   -1    0    0    0    0  0.00000000000E+00  0.00000000000E+00  0.74505805969E-08  0.10566000000E+00  0.10566000000E+00 0.  1.
     999900   -1    0    0    0    0 -0.00000000000E+00 -0.00000000000E+00 -0.74505805969E-08  0.93827000000E+00  0.93827000000E+00 0. -1.
     999902    2    1    2    0    0 -0.17070606052E-01  0.12955780544E-01  0.79406558645E-02  0.10210758569E+01  0.10208200594E+01 0.  0.
     999903    2    3    3    0    0 -0.12045194278E+00 -0.42882790254E-01  0.31033913368E-01  0.13296609719E+00  0.19216529449E-01 0.  0.
         14    1    1    2    0    0  0.17070606052E-01 -0.12955780544E-01 -0.79406558645E-02  0.22854143082E-01  0.00000000000E+00 0. -1.
     999901    1    3    3    0    0  0.10338133673E+00  0.55838570797E-01 -0.23093257504E-01  0.88810975972E+00  0.88000000000E+00 0. -1.
        -11    1    4    4    0    0 -0.63731604658E-01 -0.24670444393E-01  0.69024333367E-02  0.68689540440E-01  0.51100000000E-03 0. -1.
         11    1    4    4    0    0 -0.56720338125E-01 -0.18212345861E-01  0.24131480032E-01  0.64276556755E-01  0.51100000000E-03 0.  1.
</event>
<event>
 8    1  0.1196210E+005  0.1043930E+01  0.7957747E-01            NaN
         13   -1    0    0    0    0  0.00000000000E+00  0.00000000000E+00  0.74505805969E-08  0.10566000000E+00  0.10566000000E+00 0. -1.
     999900   -1    0    0    0    0 -0.00000000000E+00 -0.00000000000E+00 -0.74505805969E-08  0.93827000000E+00  0.93827000000E+00 0. -1.
     999902    2    1    2    0    0 -0.18184903651E-01  0.68380059989E-02 -0.13474830182E-01  0.10202863942E+01  0.10200124049E+01 0.  0.
     999903    2    3    3    0    0  0.99770084543E-01 -0.22245128807E-01 -0.77262444139E-01  0.12965287380E+00  0.19785522080E-01 0.  0.
         14    1    1    2    0    0  0.18184903651E-01 -0.68380059989E-02  0.13474830182E-01  0.23643605801E-01  0.00000000000E+00 0. -1.
     999901    1    3    3    0    0 -0.11795498819E+00  0.29083134806E-01  0.63787613957E-01  0.89063352040E+00  0.88000000000E+00 0.  1.
        -11    1    4    4    0    0  0.16971500497E-01 -0.44618392817E-03 -0.21807194113E-01  0.27641377413E-01  0.51100000000E-03 0. -1.
         11    1    4    4    0    0  0.82798584047E-01 -0.21798944879E-01 -0.55455250025E-01  0.10201149638E+00  0.51100000000E-03 0.  1.
</event>
<event>
 8    1  0.1196210E+005  0.1043930E+01  0.7957747E-01            NaN
         13   -1    0    0    0    0  0.00000000000E+00  0.00000000000E+00  0.74505805969E-08  0.10566000000E+00  0.10566000000E+00 0.  1.
     999900   -1    0    0    0    0 -0.00000000000E+00 -0.00000000000E+00 -0.74505805969E-08  0.93827000000E+00  0.93827000000E+00 0. -1.
     999902    2    1    2    0    0 -0.15056010397E-01 -0.17747734009E-01  0.20518597981E-02  0.10205660183E+01  0.10202985456E+01 0.  0.
     999903    2    3    3    0    0 -0.13685764402E-01  0.17119247438E-01  0.12763271053E+00  0.13096603291E+00  0.19535204087E-01 0.  0.
         14    1    1    2    0    0  0.15056010397E-01  0.17747734009E-01 -0.20518597981E-02  0.23363981685E-01  0.00000000000E+00 0.  1.
     999901    1    3    3    0    0 -0.13702459956E-02 -0.34866981446E-01 -0.12558085073E+00  0.88959998541E+00  0.88000000000E+00 0. -1.
        -11    1    4    4    0    0 -0.12439902641E-01  0.15902644577E-01  0.59981678895E-01  0.63290664449E-01  0.51100000000E-03 0. -1.
         11    1    4    4    0    0 -0.12458617607E-02  0.12166028601E-02  0.67651031632E-01  0.67675368458E-01  0.51100000000E-03 0.  1.
</event>
<event>
 8    1  0.1196210E+005  0.1043930E+01  0.7957747E-01            NaN
         13   -1    0    0    0    0  0.00000000000E+00  0.00000000000E+00  0.74505805969E-08  0.10566000000E+00  0.10566000000E+00 0. -1.
     999900   -1    0    0    0    0 -0.00000000000E+00 -0.00000000000E+00 -0.74505805969E-08  0.93827000000E+00  0.93827000000E+00 0. -1.
     999902    2    1    2    0    0 -0.33143425496E-02 -0.23687819247E-01  0.42401309113E-02  0.10196385127E+01  0.10193491159E+01 0.  0.
     999903    2    3    3    0    0 -0.50649032103E-02 -0.50468062296E-03  0.12897258124E+00  0.13053857084E+00  0.19505994423E-01 0.  0.
         14    1    1    2    0    0  0.33143425496E-02  0.23687819247E-01 -0.42401309113E-02  0.24291487344E-01  0.00000000000E+00 0.  1.
     999901    1    3    3    0    0  0.17505606607E-02 -0.23183138624E-01 -0.12473245032E+00  0.88909994182E+00  0.88000000000E+00 0. -1.
        -11    1    4    4    0    0 -0.12024597480E-01 -0.24161413587E-02  0.95986057981E-01  0.96767831078E-01  0.51100000000E-03 0. -1.
         11    1    4    4    0    0  0.69596942701E-02  0.19114607357E-02  0.32986523255E-01  0.33770739759E-01  0.51100000000E-03 0.  1.
</event>
<event>
 8    1  0.1196210E+005  0.1043930E+01  0.7957747E-01            NaN
         13   -1    0    0    0    0  0.00000000000E+00  0.00000000000E+00  0.74505805969E-08  0.10566000000E+00  0.10566000000E+00 0. -1.
     999900   -1    0    0    0    0 -0.00000000000E+00 -0.00000000000E+00 -0.74505805969E-08  0.93827000000E+00  0.93827000000E+00 0.  1.
     999902    2    1    2    0    0 -0.21273839991E-01  0.10065225622E-01  0.29650129934E-03  0.10203933701E+01  0.10201218833E+01 0.  0.
     999903    2    3    3    0    0  0.38908926365E-02  0.15403862310E-01  0.12830510928E+00  0.13075975531E+00  0.19583016176E-01 0.  0.
         14    1    1    2    0    0  0.21273839991E-01 -0.10065225622E-01 -0.29650129934E-03  0.23536629916E-01  0.00000000000E+00 0.  1.
     999901    1    3    3    0    0 -0.25164732627E-01 -0.53386366877E-02 -0.12800860798E+00  0.88963361477E+00  0.88000000000E+00 0.  1.
        -11    1    4    4    0    0 -0.72767750769E-02  0.16270773874E-02  0.37407959140E-01  0.38147285151E-01  0.51100000000E-03 0. -1.
         11    1    4    4    0    0  0.11167667713E-01  0.13776784923E-01  0.90897150141E-01  0.92612470164E-01  0.51100000000E-03 0.  1.
</event>
<event>
 8    1  0.1196210E+005  0.1043930E+01  0.7957747E-01            NaN
         13   -1    0    0    0    0  0.00000000000E+00  0.00000000000E+00  0.74505805969E-08  0.10566000000E+00  0.10566000000E+00 0. -1.
     999900   -1    0    0    0    0 -0.00000000000E+00 -0.00000000000E+00 -0.74505805969E-08  0.93827000000E+00  0.93827000000E+00 0.  1.
     999902    2    1    2    0    0  0.10700303669E-01 -0.23318769554E-01 -0.50723492824E-02  0.10177767929E+01  0.10174407157E+01 0.  0.
     999903    2    3    3    0    0 -0.47881533927E-01 -0.27195702255E-01 -0.11492992508E+00  0.12900485973E+00  0.20027946567E-01 0.  0.
         14    1    1    2    0    0 -0.10700303669E-01  0.23318769554E-01  0.50723492824E-02  0.26153207057E-01  0.00000000000E+00 0.  1.
     999901    1    3    3    0    0  0.58581837596E-01  0.38769327010E-02  0.10985757580E+00  0.88877193321E+00  0.88000000000E+00 0. -1.
        -11    1    4    4    0    0 -0.65100610613E-02 -0.79688136001E-02 -0.90479847867E-02  0.13711675132E-01  0.51100000000E-03 0.  1.
         11    1    4    4    0    0 -0.41371472866E-01 -0.19226888654E-01 -0.10588194029E+00  0.11529318460E+00  0.51100000000E-03 0. -1.
</event>
<event>
 8    1  0.1196210E+005  0.1043930E+01  0.7957747E-01            NaN
         13   -1    0    0    0    0  0.00000000000E+00  0.00000000000E+00  0.74505805969E-08  0.10566000000E+00  0.10566000000E+00 0.  1.
     999900   -1    0    0    0    0 -0.00000000000E+00 -0.00000000000E+00 -0.74505805969E-08  0.93827000000E+00  0.93827000000E+00 0.  1.
     999902    2    1    2    0    0  0.81504477371E-02  0.15461546515E-03  0.22087104510E-01  0.10203865531E+01  0.10201149072E+01 0.  0.
     999903    2    3    3    0    0  0.65741688050E-01 -0.11168409578E+00 -0.16612644612E-02  0.13112358117E+00  0.19882830333E-01 0.  0.
         14    1    1    2    0    0 -0.81504477371E-02 -0.15461546515E-03 -0.22087104510E-01  0.23543446857E-01  0.00000000000E+00 0. -1.
     999901    1    3    3    0    0 -0.57591240313E-01  0.11183871124E+00  0.23748368972E-01  0.88926297197E+00  0.88000000000E+00 0.  1.
        -11    1    4    4    0    0  0.56629668999E-01 -0.79594160640E-01  0.56531741688E-03  0.97686900472E-01  0.51100000000E-03 0. -1.
         11    1    4    4    0    0  0.91120190508E-02 -0.32089935137E-01 -0.22265818781E-02  0.33436680698E-01  0.51100000000E-03 0.  1.
</event>
<event>
 8    1  0.1196210E+005  0.1043930E+01  0.7957747E-01            NaN
         13   -1    0    0    0    0  0.00000000000E+00  0.00000000000E+00  0.74505805969E-08  0.10566000000E+00  0.10566000000E+00 0.  1.
     999900   -1    0    0    0    0 -0.00000000000E+00 -0.00000000000E+00 -0.74505805969E-08  0.93827000000E+00  0.93827000000E+00 0. -1.
     999902    2    1    2    0    0  0.10778391944E-01  0.67208117628E-02 -0.15816702561E-01  0.10236442631E+01  0.10234432403E+01 0.  0.
     999903    2    3    3    0    0  0.16299200804E-02  0.50425917168E-01  0.12027839199E+00  0.13206380929E+00  0.20700927088E-01 0.  0.
         14    1    1    2    0    0 -0.10778391944E-01 -0.67208117628E-02  0.15816702561E-01  0.20285736949E-01  0.00000000000E+00 0. -1.
     999901    1    3    3    0    0  0.91484718632E-02 -0.43705105405E-01 -0.13609509455E+00  0.89158045377E+00  0.88000000000E+00 0. -1.
        -11    1    4    4    0    0 -0.74515672575E-02  0.24505254230E-01  0.43057221418E-01  0.50102083557E-01  0.51100000000E-03 0.  1.
         11    1    4    4    0    0  0.90814873379E-02  0.25920662938E-01  0.77221170570E-01  0.81961725729E-01  0.51100000000E-03 0. -1.
</event>
<event>
 8    1  0.1196210E+005  0.1043930E+01  0.7957747E-01            NaN
         13   -1    0    0    0    0  0.00000000000E+00  0.00000000000E+00  0.74505805969E-08  0.10566000000E+00  0.10566000000E+00 0.  1.
     999900   -1    0    0    0    0 -0.00000000000E+00 -0.00000000000E+00 -0.74505805969E-08  0.93827000000E+00  0.93827000000E+00 0.  1.
     999902    2    1    2    0    0  0.56661249364E-02  0.20562229804E-01  0.12533583046E-01  0.10191913466E+01  0.10188910639E+01 0.  0.
     999903    2    3    3    0    0 -0.27480015269E-01  0.29947670839E-01  0.12391573126E+00  0.13150179727E+00  0.16899704200E-01 0.  0.
         14    1    1    2    0    0 -0.56661249364E-02 -0.20562229804E-01 -0.12533583046E-01  0.24738653365E-01  0.00000000000E+00 0.  1.
     999901    1    3    3    0    0  0.33146140205E-01 -0.93854410345E-02 -0.11138214822E+00  0.88768954937E+00  0.88000000000E+00 0.  1.
        -11    1    4    4    0    0 -0.33112592866E-02  0.10190786819E-02  0.31475051206E-01  0.31669274208E-01  0.51100000000E-03 0.  1.
         11    1    4    4    0    0 -0.24168755982E-01  0.28928592157E-01  0.92440680058E-01  0.99832523060E-01  0.51100000000E-03 0. -1.
</event>
<event>
 8    1  0.1196210E+005  0.1043930E+01  0.7957747E-01            NaN
         13   -1    0    0    0    0  0.00000000000E+00  0.00000000000E+00  0.74505805969E-08  0.10566000000E+00  0.10566000000E+00 0. -1.
     999900   -1    0    0    0    0 -0.00000000000E+00 -0.00000000000E+00 -0.74505805969E-08  0.93827000000E+00  0.93827000000E+00 0. -1.
     999902    2    1    2    0    0  0.26548856773E-01 -0.91956811674E-02 -0.19148257412E-02  0.10157685209E+01  0.10153780671E+01 0.  0.
     999903    2    3    3    0    0  0.91408648731E-01  0.29715627409E-01 -0.83719389560E-01  0.12874379225E+00  0.18096084679E-01 0.  0.
         14    1    1    2    0    0 -0.26548856773E-01  0.91956811674E-02  0.19148257412E-02  0.28161479111E-01  0.00000000000E+00 0.  1.
     999901    1    3    3    0    0 -0.64859791958E-01 -0.38911308576E-01  0.81804563818E-01  0.88702472863E+00  0.88000000000E+00 0.  1.
        -11    1    4    4    0    0  0.50179763741E-01  0.25245786645E-01 -0.44530776998E-01  0.71684096239E-01  0.51100000000E-03 0. -1.
         11    1    4    4    0    0  0.41228884990E-01  0.44698407635E-02 -0.39188612561E-01  0.57059696016E-01  0.51100000000E-03 0.  1.
</event>
<event>
 8    1  0.1196210E+005  0.1043930E+01  0.7957747E-01            NaN
         13   -1    0    0    0    0  0.00000000000E+00  0.00000000000E+00  0.74505805969E-08  0.10566000000E+00  0.10566000000E+00 0.  1.
     999900   -1    0    0    0    0 -0.00000000000E+00 -0.00000000000E+00 -0.74505805969E-08  0.93827000000E+00  0.93827000000E+00 0.  1.
     999902    2    1    2    0    0 -0.76148713522E-02  0.17007047798E-01 -0.13621738572E-01  0.10208480221E+01  0.10205870402E+01 0.  0.
     999903    2    3    3    0    0 -0.93793002458E-02 -0.64854671451E-01 -0.11249096673E+00  0.13153391645E+00  0.18784405767E-01 0.  0.
         14    1    1    2    0    0  0.76148713522E-02 -0.17007047798E-01  0.13621738572E-01  0.23081977866E-01  0.00000000000E+00 0.  1.
     999901    1    3    3    0    0  0.17644288935E-02  0.81861719249E-01  0.98869228155E-01  0.88931410568E+00  0.88000000000E+00 0. -1.
        -11    1    4    4    0    0 -0.40539657058E-02 -0.14397717951E-01 -0.42706415940E-01  0.45252933646E-01  0.51100000000E-03 0. -1.
         11    1    4    4    0    0 -0.53253345399E-02 -0.50456953501E-01 -0.69784550787E-01  0.86280982807E-01  0.51100000000E-03 0.  1.
</event>
<event>
 8    1  0.1196210E+005  0.1043930E+01  0.7957747E-01            NaN
         13   -1    0    0    0    0  0.00000000000E+00  0.00000000000E+00  0.74505805969E-08  0.10566000000E+00  0.10566000000E+00 0.  1.
     999900   -1    0    0    0    0 -0.00000000000E+00 -0.00000000000E+00 -0.74505805969E-08  0.93827000000E+00  0.93827000000E+00 0.  1.
     999902    2    1    2    0    0 -0.47808139271E-02 -0.11125155538E-01 -0.20941769896E-01  0.10197394441E+01  0.10194524760E+01 0.  0.
     999903    2    3    3    0    0  0.11237410307E+00 -0.12965383859E-01 -0.62859864335E-01  0.13098425417E+00  0.20235416376E-01 0.  0.
         14    1    1    2    0    0  0.47808139271E-02  0.11125155538E-01  0.20941769896E-01  0.24190555883E-01  0.00000000000E+00 0.  1.
     999901    1    3    3    0    0 -0.11715491700E+00  0.18402283204E-02  0.41918094439E-01  0.88875518995E+00  0.88000000000E+00 0. -1.
        -11    1    4    4    0    0  0.98155463811E-01 -0.15867850292E-01 -0.48756705783E-01  0.11074186755E+00  0.51100000000E-03 0. -1.
         11    1    4    4    0    0  0.14218639263E-01  0.29024664335E-02 -0.14103158552E-01  0.20242386619E-01  0.51100000000E-03 0.  1.
</event>
<event>
 8    1  0.1196210E+005  0.1043930E+01  0.7957747E-01            NaN
         13   -1    0    0    0    0  0.00000000000E+00  0.00000000000E+00  0.74505805969E-08  0.10566000000E+00  0.10566000000E+00 0. -1.
     999900   -1    0    0    0    0 -0.00000000000E+00 -0.00000000000E+00 -0.74505805969E-08  0.93827000000E+00  0.93827000000E+00 0.  1.
     999902    2    1    2    0    0 -0.20067193278E-01  0.24938897586E-02  0.12323695931E-01  0.10202490960E+01  0.10199742314E+01 0.  0.
     999903    2    3    3    0    0  0.54364432528E-01 -0.68242232431E-01  0.94802580962E-01  0.13044775168E+00  0.20410603862E-01 0.  0.
         14    1    1    2    0    0  0.20067193278E-01 -0.24938897586E-02 -0.12323695931E-01  0.23680903986E-01  0.00000000000E+00 0.  1.
     999901    1    3    3    0    0 -0.74431625806E-01  0.70736122190E-01 -0.82478885031E-01  0.88980134433E+00  0.88000000000E+00 0.  1.
        -11    1    4    4    0    0  0.27599168640E-01 -0.22555554095E-01  0.47912037121E-01  0.59718435614E-01  0.51100000000E-03 0.  1.
         11    1    4    4    0    0  0.26765263888E-01 -0.45686678337E-01  0.46890543841E-01  0.70729316066E-01  0.51100000000E-03 0. -1.
</event>
<event>
 8    1  0.1196210E+005  0.1043930E+01  0.7957747E-01            NaN
         13   -1    0    0    0    0  0.00000000000E+00  0.00000000000E+00  0.74505805969E-08  0.10566000000E+00  0.10566000000E+00 0.  1.
     999900   -1    0    0    0    0 -0.00000000000E+00 -0.00000000000E+00 -0.74505805969E-08  0.93827000000E+00  0.93827000000E+00 0. -1.
     999902    2    1    2    0    0  0.12122108545E-02  0.20281524610E-01  0.12581413143E-01  0.10200322668E+01  0.10197522854E+01 0.  0.
     999903    2    3    3    0    0 -0.86395445224E-01  0.90975164831E-01 -0.34555493643E-01  0.13160974336E+00  0.19656775779E-01 0.  0.
         14    1    1    2    0    0 -0.12122108545E-02 -0.20281524610E-01 -0.12581413143E-01  0.23897733205E-01  0.00000000000E+00 0. -1.
     999901    1    3    3    0    0  0.87607656079E-01 -0.70693640221E-01  0.47136906786E-01  0.88842252344E+00  0.88000000000E+00 0.  1.
        -11    1    4    4    0    0 -0.27844143317E-01  0.23510965813E-01 -0.18932528401E-02  0.36495305970E-01  0.51100000000E-03 0. -1.
         11    1    4    4    0    0 -0.58551301907E-01  0.67464199018E-01 -0.32662240803E-01  0.95114437387E-01  0.51100000000E-03 0.  1.
</event>
<event>
 8    1  0.1196210E+005  0.1043930E+01  0.7957747E-01            NaN
         13   -1    0    0    0    0  0.00000000000E+00  0.00000000000E+00  0.74505805969E-08  0.10566000000E+00  0.10566000000E+00 0. -1.
     999900   -1    0    0    0    0 -0.00000000000E+00 -0.00000000000E+00 -0.74505805969E-08  0.93827000000E+00  0.93827000000E+00 0. -1.
     999902    2    1    2    0    0 -0.17175384187E-01 -0.72202628285E-02 -0.14599674759E-01  0.10202598390E+01  0.10199852267E+01 0.  0.
     999903    2    3    3    0    0  0.87975249572E-01 -0.59034645837E-01 -0.73820808123E-01  0.13051351074E+00  0.18961298154E-01 0.  0.
         14    1    1    2    0    0  0.17175384187E-01  0.72202628285E-02  0.14599674759E-01  0.23670160970E-01  0.00000000000E+00 0. -1.
     999901    1    3    3    0    0 -0.10515063376E+00  0.51814383009E-01  0.59221133364E-01  0.88974632829E+00  0.88000000000E+00 0.  1.
        -11    1    4    4    0    0  0.40755697500E-01 -0.38071736174E-01 -0.42189833367E-01  0.69933733881E-01  0.51100000000E-03 0. -1.
         11    1    4    4    0    0  0.47219552072E-01 -0.20962909664E-01 -0.31630974756E-01  0.60579776860E-01  0.51100000000E-03 0.  1.
</event>
<event>
 8    1  0.1196210E+005  0.1043930E+01  0.7957747E-01            NaN
         13   -1    0    0    0    0  0.00000000000E+00  0.00000000000E+00  0.74505805969E-08  0.10566000000E+00  0.10566000000E+00 0.  1.
     999900   -1    0    0    0    0 -0.00000000000E+00 -0.00000000000E+00 -0.74505805969E-08  0.93827000000E+00  0.93827000000E+00 0.  1.
     999902    2    1    2    0    0  0.17506154177E-01 -0.54103768456E-02 -0.15607447927E-01  0.10198607241E+01  0.10195766604E+01 0.  0.
     999903    2    3    3    0    0 -0.46782981790E-01  0.15808948617E-01 -0.11985417838E+00  0.13112525525E+00  0.19754448787E-01 0.  0.
         14    1    1    2    0    0 -0.17506154177E-01  0.54103768456E-02  0.15607447927E-01  0.24069275903E-01  0.00000000000E+00 0.  1.
     999901    1    3    3    0    0  0.64289135967E-01 -0.21219325463E-01  0.10424673046E+00  0.88873546885E+00  0.88000000000E+00 0. -1.
        -11    1    4    4    0    0 -0.15547609949E-01  0.12715534034E-01 -0.63681858976E-01  0.66776142929E-01  0.51100000000E-03 0.  1.
         11    1    4    4    0    0 -0.31235371841E-01  0.30934145832E-02 -0.56172319407E-01  0.64349112321E-01  0.51100000000E-03 0. -1.
</event>
<event>
 8    1  0.1196210E+005  0.1043930E+01  0.7957747E-01            NaN
         13   -1    0    0    0    0  0.00000000000E+00  0.00000000000E+00  0.74505805969E-08  0.10566000000E+00  0.10566000000E+00 0. -1.
     999900   -1    0    0    0    0 -0.00000000000E+00 -0.00000000000E+00 -0.74505805969E-08  0.93827000000E+00  0.93827000000E+00 0.  1.
     999902    2    1    2    0    0  0.11135953547E-01 -0.18069516345E-01  0.99897983035E-02  0.10204712500E+01  0.10202015777E+01 0.  0.
     999903    2    3    3    0    0  0.12352159240E-01 -0.11282013235E+00 -0.65051017689E-01  0.13220874235E+00  0.19145718840E-01 0.  0.
         14    1    1    2    0    0 -0.11135953547E-01  0.18069516345E-01 -0.99897983035E-02  0.23458750020E-01  0.00000000000E+00 0.  1.
     999901    1    3    3    0    0 -0.12162056924E-02  0.94750616010E-01  0.75040815993E-01  0.88826250763E+00  0.88000000000E+00 0. -1.
        -11    1    4    4    0    0 -0.12610824120E-02 -0.59907223345E-01 -0.40381770056E-01  0.72259353800E-01  0.51100000000E-03 0. -1.
         11    1    4    4    0    0  0.13613241652E-01 -0.52912909010E-01 -0.24669247633E-01  0.59949388554E-01  0.51100000000E-03 0.  1.
</event>
<event>
 8    1  0.1196210E+005  0.1043930E+01  0.7957747E-01            NaN
         13   -1    0    0    0    0  0.00000000000E+00  0.00000000000E+00  0.74505805969E-08  0.10566000000E+00  0.10566000000E+00 0.  1.
     999900   -1    0    0    0    0 -0.00000000000E+00 -0.00000000000E+00 -0.74505805969E-08  0.93827000000E+00  0.93827000000E+00 0.  1.
     999902    2    1    2    0    0  0.22575180751E-02 -0.20884143995E-01  0.74274144795E-02  0.10216497320E+01  0.10214067576E+01 0.  0.
     999903    2    3    3    0    0  0.42979020355E-01 -0.10499526695E+00  0.69482924948E-01  0.13452865334E+00  0.19971966245E-01 0.  0.
         14    1    1    2    0    0 -0.22575180751E-02  0.20884143995E-01 -0.74274144795E-02  0.22280268044E-01  0.00000000000E+00 0. -1.
     999901    1    3    3    0    0 -0.40721502279E-01  0.84111122958E-01 -0.62055510469E-01  0.88712107862E+00  0.88000000000E+00 0.  1.
        -11    1    4    4    0    0  0.63035482599E-02 -0.40536592932E-01  0.24144200081E-01  0.47604134335E-01  0.51100000000E-03 0. -1.
         11    1    4    4    0    0  0.36675472095E-01 -0.64458674021E-01  0.45338724867E-01  0.86924519000E-01  0.51100000000E-03 0.  1.
</event>
<event>
 8    1  0.1196210E+005  0.1043930E+01  0.7957747E-01            NaN
         13   -1    0    0    0    0  0.00000000000E+00  0.00000000000E+00  0.74505805969E-08  0.10566000000E+00  0.10566000000E+00 0.  1.
     999900   -1    0    0    0    0 -0.00000000000E+00 -0.00000000000E+00 -0.74505805969E-08  0.93827000000E+00  0.93827000000E+00 0. -1.
     999902    2    1    2    0    0 -0.89014822832E-02  0.18061035048E-01  0.11636333025E-01  0.10206739982E+01  0.10204090204E+01 0.  0.
     999903    2    3    3    0    0 -0.67565556071E-01  0.31719064213E-01  0.10889865216E+00  0.13326880661E+00  0.18178420490E-01 0.  0.
         14    1    1    2    0    0  0.89014822832E-02 -0.18061035048E-01 -0.11636333025E-01  0.23256001808E-01  0.00000000000E+00 0. -1.
     999901    1    3    3    0    0  0.58664073788E-01 -0.13658029165E-01 -0.97262319140E-01  0.88740519158E+00  0.88000000000E+00 0. -1.
        -11    1    4    4    0    0 -0.42730984725E-01  0.24247642406E-01  0.57036355514E-01  0.75281419946E-01  0.51100000000E-03 0. -1.
         11    1    4    4    0    0 -0.24834571346E-01  0.74714218072E-02  0.51862296650E-01  0.57987386668E-01  0.51100000000E-03 0.  1.
</event>
<event>
 8    1  0.1196210E+005  0.1043930E+01  0.7957747E-01            NaN
         13   -1    0    0    0    0  0.00000000000E+00  0.00000000000E+00  0.74505805969E-08  0.10566000000E+00  0.10566000000E+00 0. -1.
     999900   -1    0    0    0    0 -0.00000000000E+00 -0.00000000000E+00 -0.74505805969E-08  0.93827000000E+00  0.93827000000E+00 0.  1.
     999902    2    1    2    0    0  0.10734884395E-01  0.19960391538E-01 -0.69232314792E-02  0.10202321919E+01  0.10199569301E+01 0.  0.
     999903    2    3    3    0    0  0.36048145928E-01  0.31679034281E-01 -0.12158868787E+00  0.13235480474E+00  0.20759462411E-01 0.  0.
         14    1    1    2    0    0 -0.10734884395E-01 -0.19960391538E-01  0.69232314792E-02  0.23697808072E-01  0.00000000000E+00 0. -1.
     999901    1    3    3    0    0 -0.25313261532E-01 -0.11718642743E-01  0.11466545640E+00  0.88787738719E+00  0.88000000000E+00 0. -1.
        -11    1    4    4    0    0  0.18630495680E-01  0.19644678493E-01 -0.41808530406E-01  0.49811877078E-01  0.51100000000E-03 0.  1.
         11    1    4    4    0    0  0.17417650248E-01  0.12034355788E-01 -0.79780157469E-01  0.82542927657E-01  0.51100000000E-03 0. -1.
</event>
<event>
 8    1  0.1196210E+005  0.1043930E+01  0.7957747E-01            NaN
         13   -1    0    0    0    0  0.00000000000E+00  0.00000000000E+00  0.74505805969E-08  0.10566000000E+00  0.10566000000E+00 0. -1.
     999900   -1    0    0    0    0 -0.00000000000E+00 -0.00000000000E+00 -0.74505805969E-08  0.93827000000E+00  0.93827000000E+00 0. -1.
     999902    2    1    2    0    0  0.22224589003E-01 -0.48890237227E-02  0.59384858784E-02  0.10204119107E+01  0.10201408564E+01 0.  0.
     999903    2    3    3    0    0 -0.61956252753E-01 -0.96190703048E-01  0.59001909433E-01  0.13010963750E+00  0.18869654082E-01 0.  0.
         14    1    1    2    0    0 -0.22224589003E-01  0.48890237227E-02 -0.59384858784E-02  0.23518089290E-01  0.00000000000E+00 0.  1.
     999901    1    3    3    0    0  0.84180841756E-01  0.91301679326E-01 -0.53063423555E-01  0.89030227321E+00  0.88000000000E+00 0.  1.
        -11    1    4    4    0    0 -0.14856191695E-01 -0.39805298461E-01  0.21346744476E-01  0.47551160217E-01  0.51100000000E-03 0. -1.
         11    1    4    4    0    0 -0.47100061058E-01 -0.56385404587E-01  0.37655164958E-01  0.82558477282E-01  0.51100000000E-03 0.  1.
</event>
<event>
 8    1  0.1196210E+005  0.1043930E+01  0.7957747E-01            NaN
         13   -1    0    0    0    0  0.00000000000E+00  0.00000000000E+00  0.74505805969E-08  0.10566000000E+00  0.10566000000E+00 0.  1.
     999900   -1    0    0    0    0 -0.00000000000E+00 -0.00000000000E+00 -0.74505805969E-08  0.93827000000E+00  0.93827000000E+00 0.  1.
     999902    2    1    2    0    0  0.13013021199E-01  0.14532947019E-02 -0.20708968130E-01  0.10194287317E+01  0.10191342536E+01 0.  0.
     999903    2    3    3    0    0  0.41593080012E-01 -0.85534817807E-01 -0.89401522380E-01  0.13201540159E+00  0.19729285139E-01 0.  0.
         14    1    1    2    0    0 -0.13013021199E-01 -0.14532947019E-02  0.20708968130E-01  0.24501268278E-01  0.00000000000E+00 0. -1.
     999901    1    3    3    0    0 -0.28580058813E-01  0.86988112509E-01  0.68692554250E-01  0.88741333013E+00  0.88000000000E+00 0. -1.
        -11    1    4    4    0    0  0.10514901550E-01 -0.29106127443E-01 -0.17828719054E-01  0.35719100680E-01  0.51100000000E-03 0.  1.
         11    1    4    4    0    0  0.31078178462E-01 -0.56428690365E-01 -0.71572803326E-01  0.96296300914E-01  0.51100000000E-03 0. -1.
</event>
<event>
 8    1  0.1196210E+005  0.1043930E+01  0.7957747E-01            NaN
         13   -1    0    0    0    0  0.00000000000E+00  0.00000000000E+00  0.74505805969E-08  0.10566000000E+00  0.10566000000E+00 0.  1.
     999900   -1    0    0    0    0 -0.00000000000E+00 -0.00000000000E+00 -0.74505805969E-08  0.93827000000E+00  0.93827000000E+00 0.  1.
     999902    2    1    2    0    0  0.43911792667E-02 -0.22912007236E-01 -0.35892498137E-02  0.10203264993E+01  0.10200534495E+01 0.  0.
     999903    2    3    3    0    0 -0.15684495931E-01  0.88551103903E-01 -0.90100360264E-01  0.12886072312E+00  0.19992739372E-01 0.  0.
         14    1    1    2    0    0 -0.43911792667E-02  0.22912007236E-01  0.35892498137E-02  0.23603500697E-01  0.00000000000E+00 0.  1.
     999901    1    3    3    0    0  0.20075675198E-01 -0.11146311114E+00  0.86511110451E-01  0.89146577619E+00  0.88000000000E+00 0. -1.
        -11    1    4    4    0    0 -0.50390175039E-02  0.70168567794E-01 -0.74737847779E-01  0.10264027774E+00  0.51100000000E-03 0. -1.
         11    1    4    4    0    0 -0.10645478427E-01  0.18382536109E-01 -0.15362512485E-01  0.26220445374E-01  0.51100000000E-03 0.  1.
</event>
<event>
 8    1  0.1196210E+005  0.1043930E+01  0.7957747E-01            NaN
         13   -1    0    0    0    0  0.00000000000E+00  0.00000000000E+00  0.74505805969E-08  0.10566000000E+00  0.10566000000E+00 0. -1.
     999900   -1    0    0    0    0 -0.00000000000E+00 -0.00000000000E+00 -0.74505805969E-08  0.93827000000E+00  0.93827000000E+00 0.  1.
     999902    2    1    2    0    0  0.19336452202E-02  0.53479519733E-03  0.23410766768E-01  0.10204334260E+01  0.10201628732E+01 0.  0.
     999903    2    3    3    0    0  0.45789805077E-01  0.11578447044E+00  0.36594627821E-01  0.13173794125E+00  0.22648808662E-01 0.  0.
         14    1    1    2    0    0 -0.19336452202E-02 -0.53479519733E-03 -0.23410766768E-01  0.23496574014E-01  0.00000000000E+00 0.  1.
     999901    1    3    3    0    0 -0.43856159857E-01 -0.11524967525E+00 -0.13183861053E-01  0.88869548474E+00  0.88000000000E+00 0. -1.
        -11    1    4    4    0    0  0.31294894621E-01  0.55743961857E-01  0.26254463446E-01  0.69110908579E-01  0.51100000000E-03 0. -1.
         11    1    4    4    0    0  0.14494910457E-01  0.60040508587E-01  0.10340164375E-01  0.62627032668E-01  0.51100000000E-03 0.  1.
</event>
<event>
 8    1  0.1196210E+005  0.1043930E+01  0.7957747E-01            NaN
         13   -1    0    0    0    0  0.00000000000E+00  0.00000000000E+00  0.74505805969E-08  0.10566000000E+00  0.10566000000E+00 0. -1.
     999900   -1    0    0    0    0 -0.00000000000E+00 -0.00000000000E+00 -0.74505805969E-08  0.93827000000E+00  0.93827000000E+00 0.  1.
     999902    2    1    2    0    0  0.24244001792E-01  0.48298923177E-02 -0.18599098772E-02  0.10191397046E+01  0.10188381514E+01 0.  0.
     999903    2    3    3    0    0 -0.49639547796E-01  0.11520999648E+00 -0.21597912143E-01  0.12895313141E+00  0.20615826373E-01 0.  0.
         14    1    1    2    0    0 -0.24244001792E-01 -0.48298923177E-02  0.18599098772E-02  0.24790295429E-01  0.00000000000E+00 0.  1.
     999901    1    3    3    0    0  0.73883549589E-01 -0.11038010417E+00  0.19738002266E-01  0.89018657316E+00  0.88000000000E+00 0.  1.
        -11    1    4    4    0    0 -0.29366809426E-02  0.28385076699E-01 -0.47073129039E-02  0.28926745236E-01  0.51100000000E-03 0.  1.
         11    1    4    4    0    0 -0.46702866853E-01  0.86824919786E-01 -0.16890599239E-01  0.10002638618E+00  0.51100000000E-03 0. -1.
</event>
<event>
 8    1  0.1196210E+005  0.1043930E+01  0.7957747E-01            NaN
         13   -1    0    0    0    0  0.00000000000E+00  0.00000000000E+00  0.74505805969E-08  0.10566000000E+00  0.10566000000E+00 0. -1.
     999900   -1    0    0    0    0 -0.00000000000E+00 -0.00000000000E+00 -0.74505805969E-08  0.93827000000E+00  0.93827000000E+00 0.  1.
     999902    2    1    2    0    0 -0.33910900475E-02 -0.17041533779E-01  0.17672570821E-01  0.10191462730E+01  0.10188448815E+01 0.  0.
     999903    2    3    3    0    0  0.12244019612E+00 -0.36705473267E-01 -0.80055529484E-02  0.12960731986E+00  0.19876495912E-01 0.  0.
         14    1    1    2    0    0  0.33910900475E-02  0.17041533779E-01 -0.17672570821E-01  0.24783727013E-01  0.00000000000E+00 0.  1.
     999901    1    3    3    0    0 -0.12583128616E+00  0.19663939488E-01  0.25678123770E-01  0.88953895313E+00  0.88000000000E+00 0. -1.
        -11    1    4    4    0    0  0.40156230279E-01 -0.35646075637E-02  0.18053155567E-02  0.40357769297E-01  0.51100000000E-03 0. -1.
         11    1    4    4    0    0  0.82283965837E-01 -0.33140865703E-01 -0.98108685051E-02  0.89249550561E-01  0.51100000000E-03 0.  1.
</event>
<event>
 8    1  0.1196210E+005  0.1043930E+01  0.7957747E-01            NaN
         13   -1    0    0    0    0  0.00000000000E+00  0.00000000000E+00  0.74505805969E-08  0.10566000000E+00  0.10566000000E+00 0. -1.
     999900   -1    0    0    0    0 -0.00000000000E+00 -0.00000000000E+00 -0.74505805969E-08  0.93827000000E+00  0.93827000000E+00 0.  1.
     999902    2    1    2    0    0 -0.10538805371E-01  0.85597245505E-02  0.13901452254E-01  0.10244984360E+01  0.10243141412E+01 0.  0.
     999903    2    3    3    0    0  0.63987486865E-01  0.61786519447E-02 -0.11374608823E+00  0.13216792982E+00  0.19940282625E-01 0.  0.
         14    1    1    2    0    0  0.10538805371E-01 -0.85597245505E-02 -0.13901452254E-01  0.19431563956E-01  0.00000000000E+00 0.  1.
     999901    1    3    3    0    0 -0.74526292237E-01  0.23810726058E-02  0.12764754048E+00  0.89233050622E+00  0.88000000000E+00 0. -1.
        -11    1    4    4    0    0  0.41882431604E-01 -0.10456612442E-02 -0.56209067593E-01  0.70106717832E-01  0.51100000000E-03 0.  1.
         11    1    4    4    0    0  0.22105055261E-01  0.72243131889E-02 -0.57537020636E-01  0.62061211991E-01  0.51100000000E-03 0. -1.
</event>
<event>
 8    1  0.1196210E+005  0.1043930E+01  0.7957747E-01            NaN
         13   -1    0    0    0    0  0.00000000000E+00  0.00000000000E+00  0.74505805969E-08  0.10566000000E+00  0.10566000000E+00 0. -1.
     999900   -1    0    0    0    0 -0.00000000000E+00 -0.00000000000E+00 -0.74505805969E-08  0.93827000000E+00  0.93827000000E+00 0. -1.
     999902    2    1    2    0    0 -0.50944413830E-03  0.80885662767E-02 -0.65820004921E-02  0.10334893502E+01  0.10334366114E+01 0.  0.
     999903    2    3    3    0    0 -0.17947473291E-01  0.64082199188E-01  0.12369504894E+00  0.14196734745E+00  0.20630621878E-01 0.  0.
         14    1    1    2    0    0  0.50944413830E-03 -0.80885662767E-02  0.65820004921E-02  0.10440649799E-01  0.00000000000E+00 0. -1.
     999901    1    3    3    0    0  0.17438029153E-01 -0.55993632911E-01 -0.13027704943E+00  0.89152200275E+00  0.88000000000E+00 0. -1.
        -11    1    4    4    0    0 -0.90570333089E-02  0.10132476213E-01  0.37517150194E-01  0.39906072298E-01  0.51100000000E-03 0. -1.
         11    1    4    4    0    0 -0.88904399823E-02  0.53949722975E-01  0.86177898743E-01  0.10206127515E+00  0.51100000000E-03 0.  1.
</event>
<event>
 8    1  0.1196210E+005  0.1043930E+01  0.7957747E-01            NaN
         13   -1    0    0    0    0  0.00000000000E+00  0.00000000000E+00  0.74505805969E-08  0.10566000000E+00  0.10566000000E+00 0. -1.
     999900   -1    0    0    0    0 -0.00000000000E+00 -0.00000000000E+00 -0.74505805969E-08  0.93827000000E+00  0.93827000000E+00 0. -1.
     999902    2    1    2    0    0 -0.19932247884E-01 -0.80800492608E-02  0.86501728344E-02  0.10207479554E+01  0.10204846796E+01 0.  0.
     999903    2    3    3    0    0  0.73032068035E-01  0.86514746606E-01 -0.57541888536E-01  0.12835122276E+00  0.18560256085E-01 0.  0.
         14    1    1    2    0    0  0.19932247884E-01  0.80800492608E-02 -0.86501728344E-02  0.23182044600E-01  0.00000000000E+00 0. -1.
     999901    1    3    3    0    0 -0.92964315918E-01 -0.94594795867E-01  0.66192061370E-01  0.89239673264E+00  0.88000000000E+00 0.  1.
        -11    1    4    4    0    0  0.44336133834E-01  0.41644918643E-01 -0.37394160455E-01  0.71404316181E-01  0.51100000000E-03 0.  1.
         11    1    4    4    0    0  0.28695934201E-01  0.44869827963E-01 -0.20147728081E-01  0.56946906579E-01  0.51100000000E-03 0. -1.
</event>
<event>
 8    1  0.1196210E+005  0.1043930E+01  0.7957747E-01            NaN
         13   -1    0    0    0    0  0.00000000000E+00  0.00000000000E+00  0.74505805969E-08  0.10566000000E+00  0.10566000000E+00 0.  1.
     999900   -1    0    0    0    0 -0.00000000000E+00 -0.00000000000E+00 -0.74505805969E-08  0.93827000000E+00  0.93827000000E+00 0. -1.
     999902    2    1    2    0    0 -0.76430294636E-02  0.17158937888E-01  0.15248326804E-01  0.10197358578E+01  0.10194488036E+01 0.  0.
     999903    2    3    3    0    0 -0.43475531638E-01  0.32971217958E-02  0.12323499276E+00  0.13230290920E+00  0.20401065638E-01 0.  0.
         14    1    1    2    0    0  0.76430294636E-02 -0.17158937888E-01 -0.15248326804E-01  0.24194142249E-01  0.00000000000E+00 0. -1.
     999901    1    3    3    0    0  0.35832502174E-01  0.13861816093E-01 -0.10798666595E+00  0.88743294855E+00  0.88000000000E+00 0. -1.
        -11    1    4    4    0    0 -0.37907635201E-01  0.71220823513E-02  0.83307078331E-01  0.91804375085E-01  0.51100000000E-03 0.  1.
         11    1    4    4    0    0 -0.55678964363E-02 -0.38249605555E-02  0.39927914424E-01  0.40498534112E-01  0.51100000000E-03 0. -1.
</event>
<event>
 8    1  0.1196210E+005  0.1043930E+01  0.7957747E-01            NaN
         13   -1    0    0    0    0  0.00000000000E+00  0.00000000000E+00  0.74505805969E-08  0.10566000000E+00  0.10566000000E+00 0. -1.
     999900   -1    0    0    0    0 -0.00000000000E+00 -0.00000000000E+00 -0.74505805969E-08  0.93827000000E+00  0.93827000000E+00 0.  1.
     999902    2    1    2    0    0 -0.17195312052E-01  0.30839804842E-02 -0.16175567264E-01  0.10201216261E+01  0.10198437593E+01 0.  0.
     999903    2    3    3    0    0 -0.91921899725E-01 -0.20232112246E-02  0.90431724002E-01  0.13052887608E+00  0.20153455073E-01 0.  0.
         14    1    1    2    0    0  0.17195312052E-01 -0.30839804842E-02  0.16175567264E-01  0.23808373916E-01  0.00000000000E+00 0. -1.
     999901    1    3    3    0    0  0.74726587673E-01  0.51071917088E-02 -0.10660729127E+00  0.88959275001E+00  0.88000000000E+00 0.  1.
        -11    1    4    4    0    0 -0.25158404520E-01  0.69695006230E-03  0.13273922829E-01  0.28458552416E-01  0.51100000000E-03 0. -1.
         11    1    4    4    0    0 -0.66763495206E-01 -0.27201612869E-02  0.77157801173E-01  0.10207032366E+00  0.51100000000E-03 0.  1.
</event>
<event>
 8    1  0.1196210E+005  0.1043930E+01  0.7957747E-01            NaN
         13   -1    0    0    0    0  0.00000000000E+00  0.00000000000E+00  0.74505805969E-08  0.10566000000E+00  0.10566000000E+00 0.  1.
     999900   -1    0    0    0    0 -0.00000000000E+00 -0.00000000000E+00 -0.74505805969E-08  0.93827000000E+00  0.93827000000E+00 0.  1.
     999902    2    1    2    0    0 -0.13727849200E-01  0.72006462674E-02  0.15815123329E-01  0.10217845428E+01  0.10215445319E+01 0.  0.
     999903    2    3    3    0    0 -0.37545049560E-02  0.11058318194E+00  0.72586533291E-01  0.13385976596E+00  0.20171655640E-01 0.  0.
         14    1    1    2    0    0  0.13727849200E-01 -0.72006462674E-02 -0.15815123329E-01  0.22145457237E-01  0.00000000000E+00 0. -1.
     999901    1    3    3    0    0 -0.99733442441E-02 -0.10338253567E+00 -0.56771409962E-01  0.88792477681E+00  0.88000000000E+00 0.  1.
        -11    1    4    4    0    0  0.98470176994E-03  0.33372283050E-01  0.11584070011E-01  0.35343043340E-01  0.51100000000E-03 0.  1.
         11    1    4    4    0    0 -0.47392067259E-02  0.77210898891E-01  0.61002463280E-01  0.98516722616E-01  0.51100000000E-03 0. -1.
</event>
<event>
 8    1  0.1196210E+005  0.1043930E+01  0.7957747E-01            NaN
         13   -1    0    0    0    0  0.00000000000E+00  0.00000000000E+00  0.74505805969E-08  0.10566000000E+00  0.10566000000E+00 0. -1.
     999900   -1    0    0    0    0 -0.00000000000E+00 -0.00000000000E+00 -0.74505805969E-08  0.93827000000E+00  0.93827000000E+00 0.  1.
     999902    2    1    2    0    0  0.10694758892E-01  0.13569834349E-01 -0.17079880260E-01  0.10196351326E+01  0.10193456544E+01 0.  0.
     999903    2    3    3    0    0  0.55744824102E-01 -0.10883464410E+00 -0.38759905964E-01  0.12975739480E+00  0.19549578643E-01 0.  0.
         14    1    1    2    0    0 -0.10694758892E-01 -0.13569834349E-01  0.17079880260E-01  0.24294867395E-01  0.00000000000E+00 0. -1.
     999901    1    3    3    0    0 -0.45050065210E-01  0.12240447845E+00  0.21680025704E-01  0.88987773780E+00  0.88000000000E+00 0.  1.
        -11    1    4    4    0    0  0.15149358956E-01 -0.46647745741E-01 -0.96445719189E-02  0.49987940026E-01  0.51100000000E-03 0.  1.
         11    1    4    4    0    0  0.40595465145E-01 -0.62186898360E-01 -0.29115334045E-01  0.79769454778E-01  0.51100000000E-03 0. -1.
</event>
<event>
 8    1  0.1196210E+005  0.1043930E+01  0.7957747E-01            NaN
         13   -1    0    0    0    0  0.00000000000E+00  0.00000000000E+00  0.74505805969E-08  0.10566000000E+00  0.10566000000E+00 0.  1.
     999900   -1    0    0    0    0 -0.00000000000E+00 -0.00000000000E+00 -0.74505805969E-08  0.93827000000E+00  0.93827000000E+00 0. -1.
     999902    2    1    2    0    0 -0.42342792563E-02 -0.24116622024E-01  0.87475212497E-03  0.10194288619E+01  0.10191343869E+01 0.  0.
     999903    2    3    3    0    0 -0.66833640101E-02 -0.11645949130E+00  0.60896141578E-01  0.13256034246E+00  0.16013240344E-01 0.  0.
         14    1    1    2    0    0  0.42342792563E-02  0.24116622024E-01 -0.87475212497E-03  0.24501138135E-01  0.00000000000E+00 0.  1.
     999901    1    3    3    0    0  0.24490847538E-02  0.92342869272E-01 -0.60021389453E-01  0.88686851941E+00  0.88000000000E+00 0. -1.
        -11    1    4    4    0    0 -0.42127603056E-02 -0.10241800334E+00  0.47448041724E-01  0.11295473669E+00  0.51100000000E-03 0.  1.
         11    1    4    4    0    0 -0.24706037046E-02 -0.14041487960E-01  0.13448099855E-01  0.19605605767E-01  0.51100000000E-03 0. -1.
</event>
<event>
 8    1  0.1196210E+005  0.1043930E+01  0.7957747E-01            NaN
         13   -1    0    0    0    0  0.00000000000E+00  0.00000000000E+00  0.74505805969E-08  0.10566000000E+00  0.10566000000E+00 0. -1.
     999900   -1    0    0    0    0 -0.00000000000E+00 -0.00000000000E+00 -0.74505805969E-08  0.93827000000E+00  0.93827000000E+00 0.  1.
     999902    2    1    2    0    0 -0.17795295024E-01 -0.18960737277E-01 -0.84632412468E-02  0.10165839119E+01  0.10162160407E+01 0.  0.
     999903    2    3    3    0    0 -0.11411575545E+00  0.39244224890E-01 -0.40897467588E-01  0.12882413145E+00  0.18987868734E-01 0.  0.
         14    1    1    2    0    0  0.17795295024E-01  0.18960737277E-01  0.84632412468E-02  0.27346088120E-01  0.00000000000E+00 0.  1.
     999901    1    3    3    0    0  0.96320460424E-01 -0.58204962167E-01  0.32434226341E-01  0.88775978043E+00  0.88000000000E+00 0.  1.
        -11    1    4    4    0    0 -0.58768899506E-01  0.28290390789E-01 -0.16042892808E-01  0.67169675381E-01  0.51100000000E-03 0. -1.
         11    1    4    4    0    0 -0.55346855942E-01  0.10953834100E-01 -0.24854574780E-01  0.61654456065E-01  0.51100000000E-03 0.  1.
</event>
<event>
 8    1  0.1196210E+005  0.1043930E+01  0.7957747E-01            NaN
         13   -1    0    0    0    0  0.00000000000E+00  0.00000000000E+00  0.74505805969E-08  0.10566000000E+00  0.10566000000E+00 0.  1.
     999900   -1    0    0    0    0 -0.00000000000E+00 -0.00000000000E+00 -0.74505805969E-08  0.93827000000E+00  0.93827000000E+00 0.  1.
     999902    2    1    2    0    0  0.62765527070E-02 -0.23674108316E-01  0.17935992798E-02  0.10193724041E+01  0.10190765539E+01 0.  0.
     999903    2    3    3    0    0 -0.46696857644E-01 -0.10953677888E+00  0.52602013759E-01  0.13215198312E+00  0.22765595779E-01 0.  0.
         14    1    1    2    0    0 -0.62765527070E-02  0.23674108316E-01 -0.17935992798E-02  0.24557595909E-01  0.00000000000E+00 0. -1.
     999901    1    3    3    0    0  0.52973410351E-01  0.85862670562E-01 -0.50808414479E-01  0.88722042097E+00  0.88000000000E+00 0.  1.
        -11    1    4    4    0    0 -0.11881601502E-01 -0.55986296142E-01  0.21909867285E-01  0.61285734192E-01  0.51100000000E-03 0. -1.
         11    1    4    4    0    0 -0.34815256142E-01 -0.53550482736E-01  0.30692146473E-01  0.70866248932E-01  0.51100000000E-03 0.  1.
</event>
<event>
 8    1  0.1196210E+005  0.1043930E+01  0.7957747E-01            NaN
         13   -1    0    0    0    0  0.00000000000E+00  0.00000000000E+00  0.74505805969E-08  0.10566000000E+00  0.10566000000E+00 0. -1.
     999900   -1    0    0    0    0 -0.00000000000E+00 -0.00000000000E+00 -0.74505805969E-08  0.93827000000E+00  0.93827000000E+00 0. -1.
     999902    2    1    2    0    0  0.24341156283E-01 -0.11623694855E-01 -0.13196934373E-01  0.10139006602E+01  0.10134558636E+01 0.  0.
     999903    2    3    3    0    0  0.31281302716E-01  0.71999722788E-01 -0.97485061321E-01  0.12589979875E+00  0.13599344230E-01 0.  0.
         14    1    1    2    0    0 -0.24341156283E-01  0.11623694855E-01  0.13196934373E-01  0.30029339789E-01  0.00000000000E+00 0. -1.
     999901    1    3    3    0    0 -0.69401464324E-02 -0.83623417643E-01  0.84288126949E-01  0.88800086146E+00  0.88000000000E+00 0. -1.
        -11    1    4    4    0    0  0.11788293620E-01  0.27795165309E-01 -0.48243152561E-01  0.56913952340E-01  0.51100000000E-03 0. -1.
         11    1    4    4    0    0  0.19493009096E-01  0.44204557479E-01 -0.49241908760E-01  0.68985846410E-01  0.51100000000E-03 0.  1.
</event>
<event>
 8    1  0.1196210E+005  0.1043930E+01  0.7957747E-01            NaN
         13   -1    0    0    0    0  0.00000000000E+00  0.00000000000E+00  0.74505805969E-08  0.10566000000E+00  0.10566000000E+00 0.  1.
     999900   -1    0    0    0    0 -0.00000000000E+00 -0.00000000000E+00 -0.74505805969E-08  0.93827000000E+00  0.93827000000E+00 0.  1.
     999902    2    1    2    0    0  0.24054896571E-01  0.67840778794E-03 -0.81456248189E-03  0.10198517567E+01  0.10195674789E+01 0.  0.
     999903    2    3    3    0    0  0.51371495511E-02 -0.10214563719E+00 -0.78093269576E-01  0.13029981113E+00  0.20478293975E-01 0.  0.
         14    1    1    2    0    0 -0.24054896571E-01 -0.67840778794E-03  0.81456248189E-03  0.24078243254E-01  0.00000000000E+00 0. -1.
     999901    1    3    3    0    0  0.18917747020E-01  0.10282404498E+00  0.77278707095E-01  0.88955194562E+00  0.88000000000E+00 0. -1.
        -11    1    4    4    0    0  0.11470807732E-01 -0.52702202253E-01 -0.47038076022E-01  0.71567752998E-01  0.51100000000E-03 0.  1.
         11    1    4    4    0    0 -0.63336581811E-02 -0.49443434941E-01 -0.31055193554E-01  0.58732058132E-01  0.51100000000E-03 0. -1.
</event>
<event>
 8    1  0.1196210E+005  0.1043930E+01  0.7957747E-01            NaN
         13   -1    0    0    0    0  0.00000000000E+00  0.00000000000E+00  0.74505805969E-08  0.10566000000E+00  0.10566000000E+00 0. -1.
     999900   -1    0    0    0    0 -0.00000000000E+00 -0.00000000000E+00 -0.74505805969E-08  0.93827000000E+00  0.93827000000E+00 0.  1.
     999902    2    1    2    0    0  0.47918195849E-02  0.72699447159E-02  0.23879098118E-01  0.10185129790E+01  0.10181957883E+01 0.  0.
     999903    2    3    3    0    0 -0.96790572104E-01 -0.56340479373E-01 -0.55926519405E-01  0.12680999875E+00  0.20256745662E-01 0.  0.
         14    1    1    2    0    0 -0.47918195849E-02 -0.72699447159E-02 -0.23879098118E-01  0.25417021030E-01  0.00000000000E+00 0.  1.
     999901    1    3    3    0    0  0.10158239169E+00  0.63610424089E-01  0.79805617523E-01  0.89170298023E+00  0.88000000000E+00 0.  1.
        -11    1    4    4    0    0 -0.14814558775E-01 -0.11181375333E-01 -0.17887363827E-01  0.25782032730E-01  0.51100000000E-03 0. -1.
         11    1    4    4    0    0 -0.81976013329E-01 -0.45159104040E-01 -0.38039155578E-01  0.10102796601E+00  0.51100000000E-03 0.  1.
</event>
<event>
 8    1  0.1196210E+005  0.1043930E+01  0.7957747E-01            NaN
         13   -1    0    0    0    0  0.00000000000E+00  0.00000000000E+00  0.74505805969E-08  0.10566000000E+00  0.10566000000E+00 0. -1.
     999900   -1    0    0    0    0 -0.00000000000E+00 -0.00000000000E+00 -0.74505805969E-08  0.93827000000E+00  0.93827000000E+00 0. -1.
     999902    2    1    2    0    0  0.79587811425E-03  0.21444604035E-01 -0.12717737776E-01  0.10189851545E+01  0.10186797827E+01 0.  0.
     999903    2    3    3    0    0  0.48834044100E-01 -0.80628881625E-01 -0.85167901736E-01  0.12883028698E+00  0.21398386431E-01 0.  0.
         14    1    1    2    0    0 -0.79587811425E-03 -0.21444604035E-01  0.12717737776E-01  0.24944845526E-01  0.00000000000E+00 0. -1.
     999901    1    3    3    0    0 -0.48038165986E-01  0.10207348566E+00  0.72450163959E-01  0.89015486749E+00  0.88000000000E+00 0.  1.
        -11    1    4    4    0    0  0.28429568954E-01 -0.63821923662E-01 -0.56731841500E-01  0.90001340500E-01  0.51100000000E-03 0.  1.
         11    1    4    4    0    0  0.20404475146E-01 -0.16806957963E-01 -0.28436060235E-01  0.38828946479E-01  0.51100000000E-03 0. -1.
</event>
<event>
 8    1  0.1196210E+005  0.1043930E+01  0.7957747E-01            NaN
         13   -1    0    0    0    0  0.00000000000E+00  0.00000000000E+00  0.74505805969E-08  0.10566000000E+00  0.10566000000E+00 0. -1.
     999900   -1    0    0    0    0 -0.00000000000E+00 -0.00000000000E+00 -0.74505805969E-08  0.93827000000E+00  0.93827000000E+00 0. -1.
     999902    2    1    2    0    0  0.51537144187E-02 -0.23904086240E-01 -0.32914326536E-02  0.10192561345E+01  0.10189574417E+01 0.  0.
     999903    2    3    3    0    0 -0.74399531756E-01  0.83371787179E-01 -0.58295822975E-01  0.12748132268E+00  0.19155663193E-01 0.  0.
         14    1    1    2    0    0 -0.51537144187E-02  0.23904086240E-01  0.32914326536E-02  0.24673865530E-01  0.00000000000E+00 0. -1.
     999901    1    3    3    0    0  0.79553246175E-01 -0.10727587342E+00  0.55004390321E-01  0.89177481179E+00  0.88000000000E+00 0. -1.
        -11    1    4    4    0    0 -0.51805493942E-01  0.66495708283E-01 -0.50308353820E-01  0.98166593135E-01  0.51100000000E-03 0.  1.
         11    1    4    4    0    0 -0.22594037814E-01  0.16876078896E-01 -0.79874691542E-02  0.29314729542E-01  0.51100000000E-03 0. -1.
</event>
<event>
 8    1  0.1196210E+005  0.1043930E+01  0.7957747E-01            NaN
         13   -1    0    0    0    0  0.00000000000E+00  0.00000000000E+00  0.74505805969E-08  0.10566000000E+00  0.10566000000E+00 0. -1.
     999900   -1    0    0    0    0 -0.00000000000E+00 -0.00000000000E+00 -0.74505805969E-08  0.93827000000E+00  0.93827000000E+00 0. -1.
     999902    2    1    2    0    0  0.12512721893E-01 -0.95411834820E-02  0.16584169209E-01  0.10210687433E+01  0.10208127847E+01 0.  0.
     999903    2    3    3    0    0 -0.65635006605E-01 -0.10974726420E+00 -0.21389609298E-01  0.13113035554E+00  0.19627497734E-01 0.  0.
         14    1    1    2    0    0 -0.12512721893E-01  0.95411834820E-02 -0.16584169209E-01  0.22861256741E-01  0.00000000000E+00 0.  1.
     999901    1    3    3    0    0  0.78147728498E-01  0.10020608072E+00  0.37973778507E-01  0.88993838772E+00  0.88000000000E+00 0.  1.
        -11    1    4    4    0    0 -0.37479449653E-01 -0.63779403153E-01 -0.22130711035E-01  0.77217555677E-01  0.51100000000E-03 0. -1.
         11    1    4    4    0    0 -0.28155556951E-01 -0.45967861045E-01  0.74110173698E-03  0.53912799863E-01  0.51100000000E-03 0.  1.
</event>
<event>
 8    1  0.1196210E+005  0.1043930E+01  0.7957747E-01            NaN
         13   -1    0    0    0    0  0.00000000000E+00  0.00000000000E+00  0.74505805969E-08  0.10566000000E+00  0.10566000000E+00 0. -1.
     999900   -1    0    0    0    0 -0.00000000000E+00 -0.00000000000E+00 -0.74505805969E-08  0.93827000000E+00  0.93827000000E+00 0.  1.
     999902    2    1    2    0    0  0.18360736491E-01  0.97053050755E-02 -0.11941495634E-01  0.10199736040E+01  0.10196922300E+01 0.  0.
     999903    2    3    3    0    0 -0.43541616646E-01 -0.47431887095E-01 -0.11028886844E+00  0.13049692315E+00  0.26835725365E-01 0.  0.
         14    1    1    2    0    0 -0.18360736491E-01 -0.97053050755E-02  0.11941495634E-01  0.23956395996E-01  0.00000000000E+00 0. -1.
     999901    1    3    3    0    0  0.61902353138E-01  0.57137192171E-01  0.98347372803E-01  0.88947668086E+00  0.88000000000E+00 0. -1.
        -11    1    4    4    0    0 -0.36482590654E-01 -0.22396616987E-01 -0.57954462690E-01  0.72052541524E-01  0.51100000000E-03 0.  1.
         11    1    4    4    0    0 -0.70590259922E-02 -0.25035270109E-01 -0.52334405747E-01  0.58444381623E-01  0.51100000000E-03 0. -1.
</event>
<event>
 8    1  0.1196210E+005  0.1043930E+01  0.7957747E-01            NaN
         13   -1    0    0    0    0  0.00000000000E+00  0.00000000000E+00  0.74505805969E-08  0.10566000000E+00  0.10566000000E+00 0.  1.
     999900   -1    0    0    0    0 -0.00000000000E+00 -0.00000000000E+00 -0.74505805969E-08  0.93827000000E+00  0.93827000000E+00 0. -1.
     999902    2    1    2    0    0  0.13559921982E-01  0.19340499009E-01 -0.35204464911E-02  0.10200486280E+01  0.10197690344E+01 0.  0.
     999903    2    3    3    0    0 -0.86744773197E-01 -0.45118940548E-01  0.80142611682E-01  0.12807578169E+00  0.20498613957E-01 0.  0.
         14    1    1    2    0    0 -0.13559921982E-01 -0.19340499009E-01  0.35204464911E-02  0.23881372020E-01  0.00000000000E+00 0. -1.
     999901    1    3    3    0    0  0.10030469518E+00  0.64459439557E-01 -0.83663058173E-01  0.89197284629E+00  0.88000000000E+00 0.  1.
        -11    1    4    4    0    0 -0.76912768883E-02 -0.10366530144E-01  0.15660535153E-01  0.20301087894E-01  0.51100000000E-03 0. -1.
         11    1    4    4    0    0 -0.79053496309E-01 -0.34752410404E-01  0.64482076528E-01  0.10777469379E+00  0.51100000000E-03 0.  1.
</event>
<event>
 8    1  0.1196210E+005  0.1043930E+01  0.7957747E-01            NaN
         13   -1    0    0    0    0  0.00000000000E+00  0.00000000000E+00  0.74505805969E-08  0.10566000000E+00  0.10566000000E+00 0. -1.
     999900   -1    0    0    0    0 -0.00000000000E+00 -0.00000000000E+00 -0.74505805969E-08  0.93827000000E+00  0.93827000000E+00 0. -1.
     999902    2    1    2    0    0  0.85382824654E-02 -0.14871661808E-02 -0.22025825772E-01  0.10202603796E+01  0.10199857799E+01 0.  0.
     999903    2    3    3    0    0 -0.12211702070E+00  0.18147436105E-01 -0.36000577902E-01  0.13028756001E+00  0.20902404226E-01 0.  0.
         14    1    1    2    0    0 -0.85382824654E-02  0.14871661808E-02  0.22025825772E-01  0.23669620437E-01  0.00000000000E+00 0. -1.
     999901    1    3    3    0    0  0.13065530316E+00 -0.19634602286E-01  0.13974752130E-01  0.88997281956E+00  0.88000000000E+00 0.  1.
        -11    1    4    4    0    0 -0.72966911997E-01  0.15660708040E-01 -0.31020722485E-01  0.80820630826E-01  0.51100000000E-03 0. -1.
         11    1    4    4    0    0 -0.49150108699E-01  0.24867280650E-02 -0.49798554174E-02  0.49466929180E-01  0.51100000000E-03 0.  1.
</event>
<event>
 8    1  0.1196210E+005  0.1043930E+01  0.7957747E-01            NaN
         13   -1    0    0    0    0  0.00000000000E+00  0.00000000000E+00  0.74505805969E-08  0.10566000000E+00  0.10566000000E+00 0.  1.
     999900   -1    0    0    0    0 -0.00000000000E+00 -0.00000000000E+00 -0.74505805969E-08  0.93827000000E+00  0.93827000000E+00 0. -1.
     999902    2    1    2    0    0  0.13421405358E-01 -0.18204656669E-01  0.26891652080E-02  0.10211533616E+01  0.10208993157E+01 0.  0.
     999903    2    3    3    0    0  0.59717001294E-01 -0.80667468058E-01  0.86210751854E-01  0.13378605298E+00  0.19825579202E-01 0.  0.
         14    1    1    2    0    0 -0.13421405358E-01  0.18204656669E-01 -0.26891652080E-02  0.22776638377E-01  0.00000000000E+00 0. -1.
     999901    1    3    3    0    0 -0.46295595936E-01  0.62462811389E-01 -0.83521586646E-01  0.88736730864E+00  0.88000000000E+00 0. -1.
        -11    1    4    4    0    0  0.54044143691E-01 -0.68236542326E-01  0.81713954466E-01  0.11939190363E+00  0.51100000000E-03 0. -1.
         11    1    4    4    0    0  0.56728576037E-02 -0.12430925732E-01  0.44967973886E-02  0.14394149356E-01  0.51100000000E-03 0.  1.
</event>
<event>
 8    1  0.1196210E+005  0.1043930E+01  0.7957747E-01            NaN
         13   -1    0    0    0    0  0.00000000000E+00  0.00000000000E+00  0.74505805969E-08  0.10566000000E+00  0.10566000000E+00 0. -1.
     999900   -1    0    0    0    0 -0.00000000000E+00 -0.00000000000E+00 -0.74505805969E-08  0.93827000000E+00  0.93827000000E+00 0.  1.
     999902    2    1    2    0    0 -0.12116706418E-01 -0.13281263065E-01  0.15723085124E-01  0.10200464925E+01  0.10197668484E+01 0.  0.
     999903    2    3    3    0    0 -0.91955532314E-01  0.89579916237E-01 -0.76626797615E-02  0.13015798585E+00  0.20050020037E-01 0.  0.
         14    1    1    2    0    0  0.12116706418E-01  0.13281263065E-01 -0.15723085124E-01  0.23883507465E-01  0.00000000000E+00 0.  1.
     999901    1    3    3    0    0  0.79838825896E-01 -0.10286117930E+00  0.23385764885E-01  0.88988850668E+00  0.88000000000E+00 0. -1.
        -11    1    4    4    0    0 -0.40009950227E-01  0.42363612538E-01 -0.13170186612E-01  0.59742670855E-01  0.51100000000E-03 0.  1.
         11    1    4    4    0    0 -0.51945582087E-01  0.47216303699E-01  0.55075068503E-02  0.70415314996E-01  0.51100000000E-03 0. -1.
</event>
<event>
 8    1  0.1196210E+005  0.1043930E+01  0.7957747E-01            NaN
         13   -1    0    0    0    0  0.00000000000E+00  0.00000000000E+00  0.74505805969E-08  0.10566000000E+00  0.10566000000E+00 0. -1.
     999900   -1    0    0    0    0 -0.00000000000E+00 -0.00000000000E+00 -0.74505805969E-08  0.93827000000E+00  0.93827000000E+00 0. -1.
     999902    2    1    2    0    0  0.11695802775E-01 -0.18566388643E-01 -0.12363877705E-01  0.10187433356E+01  0.10184319397E+01 0.  0.
     999903    2    3    3    0    0 -0.56996958415E-01 -0.37895534841E-01  0.10622715750E+00  0.12792565229E+00  0.19900720913E-01 0.  0.
         14    1    1    2    0    0 -0.11695802775E-01  0.18566388643E-01  0.12363877705E-01  0.25186664363E-01  0.00000000000E+00 0. -1.
     999901    1    3    3    0    0  0.68692761190E-01  0.19329146197E-01 -0.11859103521E+00  0.89081768335E+00  0.88000000000E+00 0. -1.
        -11    1    4    4    0    0 -0.41853950208E-01 -0.29753407208E-01  0.62217424556E-01  0.80673957557E-01  0.51100000000E-03 0. -1.
         11    1    4    4    0    0 -0.15143008207E-01 -0.81421276325E-02  0.44009732948E-01  0.47251694733E-01  0.51100000000E-03 0.  1.
</event>
<event>
 8    1  0.1196210E+005  0.1043930E+01  0.7957747E-01            NaN
         13   -1    0    0    0    0  0.00000000000E+00  0.00000000000E+00  0.74505805969E-08  0.10566000000E+00  0.10566000000E+00 0.  1.
     999900   -1    0    0    0    0 -0.00000000000E+00 -0.00000000000E+00 -0.74505805969E-08  0.93827000000E+00  0.93827000000E+00 0.  1.
     999902    2    1    2    0    0 -0.78670351683E-02  0.98020941154E-03  0.19100345167E-01  0.10232497138E+01  0.10230407140E+01 0.  0.
     999903    2    3    3    0    0  0.11575159133E+00  0.30662408353E-01 -0.52738557475E-01  0.13121640404E+00  0.98881272932E-02 0.  0.
         14    1    1    2    0    0  0.78670351683E-02 -0.98020941154E-03 -0.19100345167E-01  0.20680286225E-01  0.00000000000E+00 0. -1.
     999901    1    3    3    0    0 -0.12361862650E+00 -0.29682198941E-01  0.71838902642E-01  0.89203330974E+00  0.88000000000E+00 0. -1.
        -11    1    4    4    0    0  0.85689350496E-01  0.25514727600E-01 -0.35668580218E-01  0.96260972614E-01  0.51100000000E-03 0. -1.
         11    1    4    4    0    0  0.30062240837E-01  0.51476807527E-02 -0.17069977257E-01  0.34955431421E-01  0.51100000000E-03 0.  1.
</event>
<event>
 8    1  0.1196210E+005  0.1043930E+01  0.7957747E-01            NaN
         13   -1    0    0    0    0  0.00000000000E+00  0.00000000000E+00  0.74505805969E-08  0.10566000000E+00  0.10566000000E+00 0.  1.
     999900   -1    0    0    0    0 -0.00000000000E+00 -0.00000000000E+00 -0.74505805969E-08  0.93827000000E+00  0.93827000000E+00 0.  1.
     999902    2    1    2    0    0 -0.10127164086E-01  0.12241071175E-01  0.14993444255E-01  0.10220849400E+01  0.10218514657E+01 0.  0.
     999903    2    3    3    0    0 -0.22749119976E-01 -0.11571711475E+00 -0.51584700762E-01  0.13025241059E+00  0.19918232979E-01 0.  0.
         14    1    1    2    0    0  0.10127164086E-01 -0.12241071175E-01 -0.14993444255E-01  0.21845060004E-01  0.00000000000E+00 0. -1.
     999901    1    3    3    0    0  0.12621955889E-01  0.12795818593E+00  0.66578145017E-01  0.89183252941E+00  0.88000000000E+00 0. -1.
        -11    1    4    4    0    0 -0.19803072905E-01 -0.60548263731E-01 -0.20863357079E-01  0.67035771995E-01  0.51100000000E-03 0.  1.
         11    1    4    4    0    0 -0.29460470709E-02 -0.55168851022E-01 -0.30721343683E-01  0.63216638594E-01  0.51100000000E-03 0. -1.
</event>
<event>
 8    1  0.1196210E+005  0.1043930E+01  0.7957747E-01            NaN
         13   -1    0    0    0    0  0.00000000000E+00  0.00000000000E+00  0.74505805969E-08  0.10566000000E+00  0.10566000000E+00 0. -1.
     999900   -1    0    0    0    0 -0.00000000000E+00 -0.00000000000E+00 -0.74505805969E-08  0.93827000000E+00  0.93827000000E+00 0.  1.
     999902    2    1    2    0    0  0.16625914008E-01  0.16630405456E-02  0.16167530905E-01  0.10206797145E+01  0.10204148685E+01 0.  0.
     999903    2    3    3    0    0 -0.90664849046E-01  0.66123968949E-01 -0.59977384574E-01  0.12856729597E+00  0.18432818873E-01 0.  0.
         14    1    1    2    0    0 -0.16625914008E-01 -0.16630405456E-02 -0.16167530905E-01  0.23250285504E-01  0.00000000000E+00 0.  1.
     999901    1    3    3    0    0  0.10729076305E+00 -0.64460928404E-01  0.76144915478E-01  0.89211241852E+00  0.88000000000E+00 0. -1.
        -11    1    4    4    0    0 -0.70220011586E-02  0.12472986928E-01 -0.84625286562E-02  0.16636087744E-01  0.51100000000E-03 0.  1.
         11    1    4    4    0    0 -0.83642847888E-01  0.53650982022E-01 -0.51514855917E-01  0.11193120823E+00  0.51100000000E-03 0. -1.
</event>
<event>
 8    1  0.1196210E+005  0.1043930E+01  0.7957747E-01            NaN
         13   -1    0    0    0    0  0.00000000000E+00  0.00000000000E+00  0.74505805969E-08  0.10566000000E+00  0.10566000000E+00 0. -1.
     999900   -1    0    0    0    0 -0.00000000000E+00 -0.00000000000E+00 -0.74505805969E-08  0.93827000000E+00  0.93827000000E+00 0. -1.
     999902    2    1    2    0    0  0.71393632444E-02  0.23578261835E-01 -0.86137551740E-02  0.10178320745E+01  0.10174974349E+01 0.  0.
     999903    2    3    3    0    0  0.84962895428E-01 -0.48908639345E-01 -0.80515334737E-01  0.12851734382E+00  0.20572795957E-01 0.  0.
         14    1    1    2    0    0 -0.71393632444E-02 -0.23578261835E-01  0.86137551740E-02  0.26097925528E-01  0.00000000000E+00 0.  1.
     999901    1    3    3    0    0 -0.77823532184E-01  0.72486901180E-01  0.71901579563E-01  0.88931473065E+00  0.88000000000E+00 0.  1.
        -11    1    4    4    0    0  0.20526977295E-01 -0.47667922872E-02 -0.24946661133E-01  0.32660008087E-01  0.51100000000E-03 0.  1.
         11    1    4    4    0    0  0.64435918133E-01 -0.44141847058E-01 -0.55568673605E-01  0.95857335736E-01  0.51100000000E-03 0. -1.
</event>
<event>
 8    1  0.1196210E+005  0.1043930E+01  0.7957747E-01            NaN
         13   -1    0    0    0    0  0.00000000000E+00  0.00000000000E+00  0.74505805969E-08  0.10566000000E+00  0.10566000000E+00 0. -1.
     999900   -1    0    0    0    0 -0.00000000000E+00 -0.00000000000E+00 -0.74505805969E-08  0.93827000000E+00  0.93827000000E+00 0. -1.
     999902    2    1    2    0    0  0.22725420545E-01 -0.87237852297E-02 -0.57444602731E-02  0.10189190426E+01  0.10186120298E+01 0.  0.
     999903    2    3    3    0    0 -0.48851619604E-01 -0.81352074383E-01  0.83711699837E-01  0.12852556458E+00  0.22506250630E-01 0.  0.
         14    1    1    2    0    0 -0.22725420545E-01  0.87237852297E-02  0.57444602731E-02  0.25010957429E-01  0.00000000000E+00 0.  1.
     999901    1    3    3    0    0  0.71577040149E-01  0.72628289153E-01 -0.89456160110E-01  0.89039347799E+00  0.88000000000E+00 0. -1.
        -11    1    4    4    0    0 -0.39365578016E-01 -0.74075653712E-01  0.80194975145E-01  0.11605320489E+00  0.51100000000E-03 0. -1.
         11    1    4    4    0    0 -0.94860415885E-02 -0.72764206713E-02  0.35167246925E-02  0.12472359695E-01  0.51100000000E-03 0.  1.
</event>
<event>
 8    1  0.1196210E+005  0.1043930E+01  0.7957747E-01            NaN
         13   -1    0    0    0    0  0.00000000000E+00  0.00000000000E+00  0.74505805969E-08  0.10566000000E+00  0.10566000000E+00 0. -1.
     999900   -1    0    0    0    0 -0.00000000000E+00 -0.00000000000E+00 -0.74505805969E-08  0.93827000000E+00  0.93827000000E+00 0. -1.
     999902    2    1    2    0    0  0.16467907315E-01 -0.17486193040E-01 -0.25577766125E-02  0.10197742318E+01  0.10194880983E+01 0.  0.
     999903    2    3    3    0    0  0.12365690545E+00  0.36357380088E-01 -0.17408643288E-01  0.13151235599E+00  0.19482031861E-01 0.  0.
         14    1    1    2    0    0 -0.16467907315E-01  0.17486193040E-01  0.25577766125E-02  0.24155768246E-01  0.00000000000E+00 0. -1.
     999901    1    3    3    0    0 -0.10718899814E+00 -0.53843573128E-01  0.14850866675E-01  0.88826187576E+00  0.88000000000E+00 0.  1.
        -11    1    4    4    0    0  0.94702945367E-01  0.20047833427E-01 -0.89400658710E-02  0.97214964820E-01  0.51100000000E-03 0. -1.
         11    1    4    4    0    0  0.28953960084E-01  0.16309546661E-01 -0.84685774170E-02  0.34297391173E-01  0.51100000000E-03 0.  1.
</event>
<event>
 8    1  0.1196210E+005  0.1043930E+01  0.7957747E-01            NaN
         13   -1    0    0    0    0  0.00000000000E+00  0.00000000000E+00  0.74505805969E-08  0.10566000000E+00  0.10566000000E+00 0.  1.
     999900   -1    0    0    0    0 -0.00000000000E+00 -0.00000000000E+00 -0.74505805969E-08  0.93827000000E+00  0.93827000000E+00 0.  1.
     999902    2    1    2    0    0  0.14051379344E-01  0.19389299510E-01  0.13599058248E-02  0.10199459315E+01  0.10196638994E+01 0.  0.
     999903    2    3    3    0    0 -0.11714025152E+00 -0.45890553780E-01  0.10673581567E-01  0.12778033713E+00  0.19649625003E-01 0.  0.
         14    1    1    2    0    0 -0.14051379344E-01 -0.19389299510E-01 -0.13599058248E-02  0.23984068479E-01  0.00000000000E+00 0.  1.
     999901    1    3    3    0    0  0.13119163086E+00  0.65279853290E-01 -0.93136757417E-02  0.89216559439E+00  0.88000000000E+00 0. -1.
        -11    1    4    4    0    0 -0.52903687760E-01 -0.16871716492E-01 -0.43738039319E-02  0.55703198093E-01  0.51100000000E-03 0. -1.
         11    1    4    4    0    0 -0.64236563757E-01 -0.29018837288E-01  0.15047385498E-01  0.72077139040E-01  0.51100000000E-03 0.  1.
</event>
<event>
 8    1  0.1196210E+005  0.1043930E+01  0.7957747E-01            NaN
         13   -1    0    0    0    0  0.00000000000E+00  0.00000000000E+00  0.74505805969E-08  0.10566000000E+00  0.10566000000E+00 0. -1.
     999900   -1    0    0    0    0 -0.00000000000E+00 -0.00000000000E+00 -0.74505805969E-08  0.93827000000E+00  0.93827000000E+00 0. -1.
     999902    2    1    2    0    0  0.14607927553E-01 -0.12703720734E-01 -0.27567735519E-02  0.10243755665E+01  0.10241889110E+01 0.  0.
     999903    2    3    3    0    0  0.75382073804E-01  0.33300677268E-01 -0.10541647552E+00  0.13513492649E+00  0.18905631156E-01 0.  0.
         14    1    1    2    0    0 -0.14607927553E-01  0.12703720734E-01  0.27567735519E-02  0.19554433469E-01  0.00000000000E+00 0.  1.
     999901    1    3    3    0    0 -0.60774146251E-01 -0.46004398002E-01  0.10265970197E+00  0.88924064004E+00  0.88000000000E+00 0. -1.
        -11    1    4    4    0    0  0.37629661439E-01  0.70368836528E-02 -0.53321793039E-01  0.65642850985E-01  0.51100000000E-03 0. -1.
         11    1    4    4    0    0  0.37752412365E-01  0.26263793615E-01 -0.52094682482E-01  0.69492075507E-01  0.51100000000E-03 0.  1.
</event>
<event>
 8    1  0.1196210E+005  0.1043930E+01  0.7957747E-01            NaN
         13   -1    0    0    0    0  0.00000000000E+00  0.00000000000E+00  0.74505805969E-08  0.10566000000E+00  0.10566000000E+00 0. -1.
     999900   -1    0    0    0    0 -0.00000000000E+00 -0.00000000000E+00 -0.74505805969E-08  0.93827000000E+00  0.93827000000E+00 0.  1.
     999902    2    1    2    0    0 -0.83221446049E-02  0.11032696697E-01 -0.18518048187E-01  0.10208237975E+01  0.10205622611E+01 0.  0.
     999903    2    3    3    0    0  0.96934820980E-01 -0.68057909646E-01  0.46381268019E-01  0.12866558612E+00  0.19374530824E-01 0.  0.
         14    1    1    2    0    0  0.83221446049E-02 -0.11032696697E-01  0.18518048187E-01  0.23106202542E-01  0.00000000000E+00 0. -1.
     999901    1    3    3    0    0 -0.10525696558E+00  0.79090606342E-01 -0.64899316206E-01  0.89215821134E+00  0.88000000000E+00 0.  1.
        -11    1    4    4    0    0  0.56568421351E-01 -0.47261158461E-01  0.21025059833E-01  0.76654534473E-01  0.51100000000E-03 0. -1.
         11    1    4    4    0    0  0.40366399628E-01 -0.20796751185E-01  0.25356208186E-01  0.52011051646E-01  0.51100000000E-03 0.  1.
</event>
<event>
 8    1  0.1196210E+005  0.1043930E+01  0.7957747E-01            NaN
         13   -1    0    0    0    0  0.00000000000E+00  0.00000000000E+00  0.74505805969E-08  0.10566000000E+00  0.10566000000E+00 0.  1.
     999900   -1    0    0    0    0 -0.00000000000E+00 -0.00000000000E+00 -0.74505805969E-08  0.93827000000E+00  0.93827000000E+00 0. -1.
     999902    2    1    2    0    0  0.20923132107E-01  0.32869013721E-03  0.10590519581E-01  0.10204769704E+01  0.10202074311E+01 0.  0.
     999903    2    3    3    0    0  0.68961298492E-01 -0.11087868849E+00 -0.54057384775E-02  0.13203416029E+00  0.18816302091E-01 0.  0.
         14    1    1    2    0    0 -0.20923132107E-01 -0.32869013721E-03 -0.10590519581E-01  0.23453029641E-01  0.00000000000E+00 0. -1.
     999901    1    3    3    0    0 -0.48038166385E-01  0.11120737863E+00  0.15996258058E-01  0.88844281007E+00  0.88000000000E+00 0. -1.
        -11    1    4    4    0    0  0.17803927858E-01 -0.45438776865E-01 -0.17820462412E-03  0.48805278076E-01  0.51100000000E-03 0. -1.
         11    1    4    4    0    0  0.51157370633E-01 -0.65439911624E-01 -0.52275338533E-02  0.83228882214E-01  0.51100000000E-03 0.  1.
</event>
<event>
 8    1  0.1196210E+005  0.1043930E+01  0.7957747E-01            NaN
         13   -1    0    0    0    0  0.00000000000E+00  0.00000000000E+00  0.74505805969E-08  0.10566000000E+00  0.10566000000E+00 0.  1.
     999900   -1    0    0    0    0 -0.00000000000E+00 -0.00000000000E+00 -0.74505805969E-08  0.93827000000E+00  0.93827000000E+00 0.  1.
     999902    2    1    2    0    0 -0.11605975729E-01  0.15139686725E-01  0.13572558939E-01  0.10205179701E+01  0.10202493833E+01 0.  0.
     999903    2    3    3    0    0  0.40101372423E-01 -0.87029854491E-01 -0.82411366596E-01  0.12792333706E+00  0.19759331431E-01 0.  0.
         14    1    1    2    0    0  0.11605975729E-01 -0.15139686725E-01 -0.13572558939E-01  0.23412029876E-01  0.00000000000E+00 0. -1.
     999901    1    3    3    0    0 -0.51707348152E-01  0.10216954122E+00  0.95983925535E-01  0.89259463306E+00  0.88000000000E+00 0. -1.
        -11    1    4    4    0    0  0.21148762885E-01 -0.51793913118E-01 -0.35476465054E-01  0.66247417318E-01  0.51100000000E-03 0. -1.
         11    1    4    4    0    0  0.18952609538E-01 -0.35235941373E-01 -0.46934901543E-01  0.61675919746E-01  0.51100000000E-03 0.  1.
</event>
<event>
 8    1  0.1196210E+005  0.1043930E+01  0.7957747E-01            NaN
         13   -1    0    0    0    0  0.00000000000E+00  0.00000000000E+00  0.74505805969E-08  0.10566000000E+00  0.10566000000E+00 0. -1.
     999900   -1    0    0    0    0 -0.00000000000E+00 -0.00000000000E+00 -0.74505805969E-08  0.93827000000E+00  0.93827000000E+00 0. -1.
     999902    2    1    2    0    0  0.12811987329E-01 -0.21857623943E-01 -0.34936976376E-02  0.10183544518E+01  0.10180332415E+01 0.  0.
     999903    2    3    3    0    0 -0.19223831686E-01  0.90304231837E-01 -0.84618511941E-01  0.12695790080E+00  0.20823208708E-01 0.  0.
         14    1    1    2    0    0 -0.12811987329E-01  0.21857623943E-01  0.34936976376E-02  0.25575548223E-01  0.00000000000E+00 0.  1.
     999901    1    3    3    0    0  0.32035819015E-01 -0.11216185578E+00  0.81124814303E-01  0.89139655097E+00  0.88000000000E+00 0.  1.
        -11    1    4    4    0    0 -0.21563038336E-01  0.87393754038E-01 -0.76992438623E-01  0.11845138071E+00  0.51100000000E-03 0.  1.
         11    1    4    4    0    0  0.23392066493E-02  0.29104777988E-02 -0.76260733174E-02  0.85065200880E-02  0.51100000000E-03 0. -1.
</event>
<event>
 8    1  0.1196210E+005  0.1043930E+01  0.7957747E-01            NaN
         13   -1    0    0    0    0  0.00000000000E+00  0.00000000000E+00  0.74505805969E-08  0.10566000000E+00  0.10566000000E+00 0. -1.
     999900   -1    0    0    0    0 -0.00000000000E+00 -0.00000000000E+00 -0.74505805969E-08  0.93827000000E+00  0.93827000000E+00 0. -1.
     999902    2    1    2    0    0 -0.14980117470E-01  0.18612552478E-01 -0.33797956163E-02  0.10198000591E+01  0.10195145445E+01 0.  0.
     999903    2    3    3    0    0  0.48072942498E-02  0.12625726380E+00  0.33345228717E-01  0.13225983300E+00  0.20414514648E-01 0.  0.
         14    1    1    2    0    0  0.14980117470E-01 -0.18612552478E-01  0.33797956163E-02  0.24129940894E-01  0.00000000000E+00 0.  1.
     999901    1    3    3    0    0 -0.19787411720E-01 -0.10764471132E+00 -0.36725024333E-01  0.88754022610E+00  0.88000000000E+00 0. -1.
        -11    1    4    4    0    0  0.11687312162E-01  0.86098458982E-01  0.27229976826E-01  0.91056414730E-01  0.51100000000E-03 0.  1.
         11    1    4    4    0    0 -0.68800179122E-02  0.40158804816E-01  0.61152518908E-02  0.41203418273E-01  0.51100000000E-03 0. -1.
</event>
<event>
 8    1  0.1196210E+005  0.1043930E+01  0.7957747E-01            NaN
         13   -1    0    0    0    0  0.00000000000E+00  0.00000000000E+00  0.74505805969E-08  0.10566000000E+00  0.10566000000E+00 0. -1.
     999900   -1    0    0    0    0 -0.00000000000E+00 -0.00000000000E+00 -0.74505805969E-08  0.93827000000E+00  0.93827000000E+00 0.  1.
     999902    2    1    2    0    0  0.83345147001E-02  0.95684236812E-02 -0.20361430683E-01  0.10199381946E+01  0.10196559783E+01 0.  0.
     999903    2    3    3    0    0 -0.81541803620E-01  0.46569441917E-03 -0.10139257070E+00  0.13161018202E+00  0.19786460243E-01 0.  0.
         14    1    1    2    0    0 -0.83345147001E-02 -0.95684236812E-02  0.20361430683E-01  0.23991805403E-01  0.00000000000E+00 0. -1.
     999901    1    3    3    0    0  0.89876318320E-01  0.91027292620E-02  0.81031140019E-01  0.88832801258E+00  0.88000000000E+00 0. -1.
        -11    1    4    4    0    0 -0.17707274445E-01  0.83500155373E-02 -0.23136979819E-01  0.30312559837E-01  0.51100000000E-03 0.  1.
         11    1    4    4    0    0 -0.63834529175E-01 -0.78843211181E-02 -0.78255590884E-01  0.10129762218E+00  0.51100000000E-03 0. -1.
</event>
<event>
 8    1  0.1196210E+005  0.1043930E+01  0.7957747E-01            NaN
         13   -1    0    0    0    0  0.00000000000E+00  0.00000000000E+00  0.74505805969E-08  0.10566000000E+00  0.10566000000E+00 0. -1.
     999900   -1    0    0    0    0 -0.00000000000E+00 -0.00000000000E+00 -0.74505805969E-08  0.93827000000E+00  0.93827000000E+00 0.  1.
     999902    2    1    2    0    0  0.27459499142E-03  0.17521891995E-01  0.16383944566E-01  0.10199398824E+01  0.10196577063E+01 0.  0.
     999903    2    3    3    0    0  0.75616813804E-01 -0.73918836914E-01  0.73425920918E-01  0.13016932554E+00  0.19255920356E-01 0.  0.
         14    1    1    2    0    0 -0.27459499142E-03 -0.17521891995E-01 -0.16383944566E-01  0.23990117570E-01  0.00000000000E+00 0.  1.
     999901    1    3    3    0    0 -0.75342218813E-01  0.91440728909E-01 -0.57041976352E-01  0.88977055689E+00  0.88000000000E+00 0.  1.
        -11    1    4    4    0    0  0.17956258513E-01 -0.26081047033E-01  0.14402394208E-01  0.34789916845E-01  0.51100000000E-03 0. -1.
         11    1    4    4    0    0  0.57660555291E-01 -0.47837789881E-01  0.59023526710E-01  0.95379408697E-01  0.51100000000E-03 0.  1.
</event>
<event>
 8    1  0.1196210E+005  0.1043930E+01  0.7957747E-01            NaN
         13   -1    0    0    0    0  0.00000000000E+00  0.00000000000E+00  0.74505805969E-08  0.10566000000E+00  0.10566000000E+00 0.  1.
     999900   -1    0    0    0    0 -0.00000000000E+00 -0.00000000000E+00 -0.74505805969E-08  0.93827000000E+00  0.93827000000E+00 0.  1.
     999902    2    1    2    0    0 -0.27749068862E-01  0.11550608312E-01 -0.20695524552E-01  0.10074370951E+01  0.10067759276E+01 0.  0.
     999903    2    3    3    0    0 -0.82898630074E-01  0.97158861408E-03  0.83942619866E-01  0.11946044501E+00  0.18743202459E-01 0.  0.
         14    1    1    2    0    0  0.27749068862E-01 -0.11550608312E-01  0.20695524552E-01  0.36492904949E-01  0.00000000000E+00 0.  1.
     999901    1    3    3    0    0  0.55149561212E-01  0.10579019698E-01 -0.10463814442E+00  0.88797665005E+00  0.88000000000E+00 0.  1.
        -11    1    4    4    0    0 -0.74880442846E-01  0.44693249078E-02  0.67905031750E-01  0.10118502875E+00  0.51100000000E-03 0.  1.
         11    1    4    4    0    0 -0.80181872278E-02 -0.34977362937E-02  0.16037588116E-01  0.18275416252E-01  0.51100000000E-03 0. -1.
</event>
<event>
 8    1  0.1196210E+005  0.1043930E+01  0.7957747E-01            NaN
         13   -1    0    0    0    0  0.00000000000E+00  0.00000000000E+00  0.74505805969E-08  0.10566000000E+00  0.10566000000E+00 0.  1.
     999900   -1    0    0    0    0 -0.00000000000E+00 -0.00000000000E+00 -0.74505805969E-08  0.93827000000E+00  0.93827000000E+00 0. -1.
     999902    2    1    2    0    0 -0.12057710745E-01  0.18859049173E-01  0.78070673312E-02  0.10202234097E+01  0.10199479414E+01 0.  0.
     999903    2    3    3    0    0  0.84469742286E-02  0.99368973315E-01  0.85636550271E-01  0.13289048546E+00  0.19512000228E-01 0.  0.
         14    1    1    2    0    0  0.12057710745E-01 -0.18859049173E-01 -0.78070673312E-02  0.23706590317E-01  0.00000000000E+00 0. -1.
     999901    1    3    3    0    0 -0.20504684973E-01 -0.80509924142E-01 -0.77829482940E-01  0.88733292422E+00  0.88000000000E+00 0. -1.
        -11    1    4    4    0    0  0.14365460670E-01  0.61309572516E-01  0.56317398048E-01  0.84481599099E-01  0.51100000000E-03 0. -1.
         11    1    4    4    0    0 -0.59184864413E-02  0.38059400799E-01  0.29319152223E-01  0.48408886364E-01  0.51100000000E-03 0.  1.
</event>
<event>
 8    1  0.1196210E+005  0.1043930E+01  0.7957747E-01            NaN
         13   -1    0    0    0    0  0.00000000000E+00  0.00000000000E+00  0.74505805969E-08  0.10566000000E+00  0.10566000000E+00 0. -1.
     999900   -1    0    0    0    0 -0.00000000000E+00 -0.00000000000E+00 -0.74505805969E-08  0.93827000000E+00  0.93827000000E+00 0. -1.
     999902    2    1    2    0    0 -0.53109419161E-02 -0.14622589581E-01 -0.17750526935E-01  0.10203268766E+01  0.10200538356E+01 0.  0.
     999903    2    3    3    0    0 -0.72941465307E-01 -0.55193018890E-01 -0.95496663693E-01  0.13338589249E+00  0.17477323683E-01 0.  0.
         14    1    1    2    0    0  0.53109419161E-02  0.14622589581E-01  0.17750526935E-01  0.23603123449E-01  0.00000000000E+00 0. -1.
     999901    1    3    3    0    0  0.67630523391E-01  0.40570429309E-01  0.77746136758E-01  0.88694098406E+00  0.88000000000E+00 0.  1.
        -11    1    4    4    0    0 -0.31852993750E-01 -0.27104059962E-01 -0.55707993781E-01  0.69662651180E-01  0.51100000000E-03 0.  1.
         11    1    4    4    0    0 -0.41088471557E-01 -0.28088958927E-01 -0.39788669912E-01  0.63723241309E-01  0.51100000000E-03 0. -1.
</event>
<event>
 8    1  0.1196210E+005  0.1043930E+01  0.7957747E-01            NaN
         13   -1    0    0    0    0  0.00000000000E+00  0.00000000000E+00  0.74505805969E-08  0.10566000000E+00  0.10566000000E+00 0.  1.
     999900   -1    0    0    0    0 -0.00000000000E+00 -0.00000000000E+00 -0.74505805969E-08  0.93827000000E+00  0.93827000000E+00 0.  1.
     999902    2    1    2    0    0  0.18576867608E-01 -0.97944611496E-02  0.12162193110E-01  0.10196616993E+01  0.10193728614E+01 0.  0.
     999903    2    3    3    0    0 -0.90737388563E-01  0.82638760634E-01  0.29593849324E-01  0.12792330168E+00  0.20643080002E-01 0.  0.
         14    1    1    2    0    0 -0.18576867608E-01  0.97944611496E-02 -0.12162193110E-01  0.24268300735E-01  0.00000000000E+00 0. -1.
     999901    1    3    3    0    0  0.10931425617E+00 -0.92433221784E-01 -0.17431656215E-01  0.89173839759E+00  0.88000000000E+00 0. -1.
        -11    1    4    4    0    0 -0.60598477326E-01  0.50436215206E-01  0.28386453726E-01  0.83797608168E-01  0.51100000000E-03 0. -1.
         11    1    4    4    0    0 -0.30138911237E-01  0.32202545429E-01  0.12073955987E-02  0.44125693510E-01  0.51100000000E-03 0.  1.
</event>
<event>
 8    1  0.1196210E+005  0.1043930E+01  0.7957747E-01            NaN
         13   -1    0    0    0    0  0.00000000000E+00  0.00000000000E+00  0.74505805969E-08  0.10566000000E+00  0.10566000000E+00 0. -1.
     999900   -1    0    0    0    0 -0.00000000000E+00 -0.00000000000E+00 -0.74505805969E-08  0.93827000000E+00  0.93827000000E+00 0. -1.
     999902    2    1    2    0    0  0.55519763766E-02 -0.22007236195E-01  0.46855677349E-02  0.10207546374E+01  0.10204915151E+01 0.  0.
     999903    2    3    3    0    0 -0.40007502800E-01 -0.11113933245E+00  0.58637860698E-01  0.13343786947E+00  0.20364547759E-01 0.  0.
         14    1    1    2    0    0 -0.55519763766E-02  0.22007236195E-01 -0.46855677349E-02  0.23175362600E-01  0.00000000000E+00 0. -1.
     999901    1    3    3    0    0  0.45559479177E-01  0.89132096253E-01 -0.53952292963E-01  0.88731676793E+00  0.88000000000E+00 0. -1.
        -11    1    4    4    0    0 -0.38892530651E-01 -0.84051591067E-01  0.47953268006E-01  0.10429322094E+00  0.51100000000E-03 0.  1.
         11    1    4    4    0    0 -0.11149721497E-02 -0.27087741381E-01  0.10684592692E-01  0.29144648532E-01  0.51100000000E-03 0. -1.
</event>
<event>
 8    1  0.1196210E+005  0.1043930E+01  0.7957747E-01            NaN
         13   -1    0    0    0    0  0.00000000000E+00  0.00000000000E+00  0.74505805969E-08  0.10566000000E+00  0.10566000000E+00 0.  1.
     999900   -1    0    0    0    0 -0.00000000000E+00 -0.00000000000E+00 -0.74505805969E-08  0.93827000000E+00  0.93827000000E+00 0. -1.
     999902    2    1    2    0    0  0.19343828597E-02 -0.16330808725E-01  0.16367430090E-01  0.10207280622E+01  0.10204643291E+01 0.  0.
     999903    2    3    3    0    0  0.40213460738E-01 -0.73859926629E-01  0.10202401033E+00  0.13387297991E+00  0.20992019450E-01 0.  0.
         14    1    1    2    0    0 -0.19343828597E-02  0.16330808725E-01 -0.16367430090E-01  0.23201937815E-01  0.00000000000E+00 0. -1.
     999901    1    3    3    0    0 -0.38279077878E-01  0.57529117905E-01 -0.85656580243E-01  0.88685508227E+00  0.88000000000E+00 0.  1.
        -11    1    4    4    0    0  0.15655954062E-01 -0.37809851823E-01  0.64201630710E-01  0.76136747365E-01  0.51100000000E-03 0. -1.
         11    1    4    4    0    0  0.24557506676E-01 -0.36050074806E-01  0.37822379622E-01  0.57736232549E-01  0.51100000000E-03 0.  1.
</event>
<event>
 8    1  0.1196210E+005  0.1043930E+01  0.7957747E-01            NaN
         13   -1    0    0    0    0  0.00000000000E+00  0.00000000000E+00  0.74505805969E-08  0.10566000000E+00  0.10566000000E+00 0.  1.
     999900   -1    0    0    0    0 -0.00000000000E+00 -0.00000000000E+00 -0.74505805969E-08  0.93827000000E+00  0.93827000000E+00 0.  1.
     999902    2    1    2    0    0  0.87927958740E-02  0.21351792523E-01 -0.75298089377E-02  0.10196419304E+01  0.10193526161E+01 0.  0.
     999903    2    3    3    0    0  0.31680283859E-02 -0.14854141725E-01  0.12524221833E+00  0.12892821717E+00  0.26574235614E-01 0.  0.
         14    1    1    2    0    0 -0.87927958740E-02 -0.21351792523E-01  0.75298089377E-02  0.24288069620E-01  0.00000000000E+00 0.  1.
     999901    1    3    3    0    0  0.56247674881E-02  0.36205934247E-01 -0.13277202727E+00  0.89071371322E+00  0.88000000000E+00 0.  1.
        -11    1    4    4    0    0  0.41469226743E-02 -0.12490731772E-01  0.21917368317E-01  0.25570441975E-01  0.51100000000E-03 0.  1.
         11    1    4    4    0    0 -0.97889428839E-03 -0.23634099527E-02  0.10332485001E+00  0.10335777519E+00  0.51100000000E-03 0. -1.
</event>
<event>
 8    1  0.1196210E+005  0.1043930E+01  0.7957747E-01            NaN
         13   -1    0    0    0    0  0.00000000000E+00  0.00000000000E+00  0.74505805969E-08  0.10566000000E+00  0.10566000000E+00 0.  1.
     999900   -1    0    0    0    0 -0.00000000000E+00 -0.00000000000E+00 -0.74505805969E-08  0.93827000000E+00  0.93827000000E+00 0. -1.
     999902    2    1    2    0    0 -0.22683096198E-01  0.48156259727E-02  0.54715868141E-02  0.10201045647E+01  0.10198262948E+01 0.  0.
     999903    2    3    3    0    0  0.10010507537E+00 -0.66510469278E-01  0.38428648030E-01  0.12811212365E+00  0.22164985864E-01 0.  0.
         14    1    1    2    0    0  0.22683096198E-01 -0.48156259727E-02 -0.54715868141E-02  0.23825435335E-01  0.00000000000E+00 0. -1.
     999901    1    3    3    0    0 -0.12278817157E+00  0.71326095251E-01 -0.32957061216E-01  0.89199244101E+00  0.88000000000E+00 0.  1.
        -11    1    4    4    0    0  0.93967404045E-02 -0.12888377185E-01  0.10490824611E-01  0.19097840682E-01  0.51100000000E-03 0.  1.
         11    1    4    4    0    0  0.90708334967E-01 -0.53622092093E-01  0.27937823418E-01  0.10901428297E+00  0.51100000000E-03 0. -1.
</event>
<event>
 8    1  0.1196210E+005  0.1043930E+01  0.7957747E-01            NaN
         13   -1    0    0    0    0  0.00000000000E+00  0.00000000000E+00  0.74505805969E-08  0.10566000000E+00  0.10566000000E+00 0. -1.
     999900   -1    0    0    0    0 -0.00000000000E+00 -0.00000000000E+00 -0.74505805969E-08  0.93827000000E+00  0.93827000000E+00 0. -1.
     999902    2    1    2    0    0 -0.13046210983E-02  0.21153944173E-01 -0.99782636871E-02  0.10205044341E+01  0.10202355331E+01 0.  0.
     999903    2    3    3    0    0 -0.62861071062E-01  0.10942300566E+00 -0.38874746186E-01  0.13347814903E+00  0.19500306542E-01 0.  0.
         14    1    1    2    0    0  0.13046210983E-02 -0.21153944173E-01  0.99782636871E-02  0.23425565874E-01  0.00000000000E+00 0. -1.
     999901    1    3    3    0    0  0.61556449963E-01 -0.88269061487E-01  0.28896482499E-01  0.88702628509E+00  0.88000000000E+00 0.  1.
        -11    1    4    4    0    0 -0.35850344058E-01  0.57313288459E-01 -0.30579338114E-01  0.74198498931E-01  0.51100000000E-03 0.  1.
         11    1    4    4    0    0 -0.27010727003E-01  0.52109717201E-01 -0.82954080717E-02  0.59279650101E-01  0.51100000000E-03 0. -1.
</event>
<event>
 8    1  0.1196210E+005  0.1043930E+01  0.7957747E-01            NaN
         13   -1    0    0    0    0  0.00000000000E+00  0.00000000000E+00  0.74505805969E-08  0.10566000000E+00  0.10566000000E+00 0. -1.
     999900   -1    0    0    0    0 -0.00000000000E+00 -0.00000000000E+00 -0.74505805969E-08  0.93827000000E+00  0.93827000000E+00 0.  1.
     999902    2    1    2    0    0 -0.14415489970E-01 -0.12068527935E-01  0.14319188518E-01  0.10202975038E+01  0.10200237749E+01 0.  0.
     999903    2    3    3    0    0 -0.93274414361E-01 -0.92569915096E-01  0.38754174738E-02  0.13304991960E+00  0.20443989068E-01 0.  0.
         14    1    1    2    0    0  0.14415489970E-01  0.12068527935E-01 -0.14319188518E-01  0.23632496216E-01  0.00000000000E+00 0.  1.
     999901    1    3    3    0    0  0.78858924391E-01  0.80501387161E-01  0.10443771044E-01  0.88724758419E+00  0.88000000000E+00 0.  1.
        -11    1    4    4    0    0 -0.15319879236E-01 -0.19955362619E-01  0.80856550311E-02  0.26430174713E-01  0.51100000000E-03 0. -1.
         11    1    4    4    0    0 -0.77954535125E-01 -0.72614552477E-01 -0.42102375573E-02  0.10661974488E+00  0.51100000000E-03 0.  1.
</event>
<event>
 8    1  0.1196210E+005  0.1043930E+01  0.7957747E-01            NaN
         13   -1    0    0    0    0  0.00000000000E+00  0.00000000000E+00  0.74505805969E-08  0.10566000000E+00  0.10566000000E+00 0. -1.
     999900   -1    0    0    0    0 -0.00000000000E+00 -0.00000000000E+00 -0.74505805969E-08  0.93827000000E+00  0.93827000000E+00 0.  1.
     999902    2    1    2    0    0  0.18937138702E-01 -0.11395078236E-01 -0.80194527156E-02  0.10204188398E+01  0.10201479471E+01 0.  0.
     999903    2    3    3    0    0  0.23901234763E-01 -0.34774723164E-01  0.12196506278E+00  0.13054962231E+00  0.19676812491E-01 0.  0.
         14    1    1    2    0    0 -0.18937138702E-01  0.11395078236E-01  0.80194527156E-02  0.23511160160E-01  0.00000000000E+00 0. -1.
     999901    1    3    3    0    0 -0.49640960612E-02  0.23379644928E-01 -0.12998451550E+00  0.88986921753E+00  0.88000000000E+00 0.  1.
        -11    1    4    4    0    0  0.26113299806E-01 -0.25508718224E-01  0.88060886405E-01  0.95328799256E-01  0.51100000000E-03 0. -1.
         11    1    4    4    0    0 -0.22120650434E-02 -0.92660049403E-02  0.33904176379E-01  0.35220823049E-01  0.51100000000E-03 0.  1.
</event>
<event>
 8    1  0.1196210E+005  0.1043930E+01  0.7957747E-01            NaN
         13   -1    0    0    0    0  0.00000000000E+00  0.00000000000E+00  0.74505805969E-08  0.10566000000E+00  0.10566000000E+00 0. -1.
     999900   -1    0    0    0    0 -0.00000000000E+00 -0.00000000000E+00 -0.74505805969E-08  0.93827000000E+00  0.93827000000E+00 0. -1.
     999902    2    1    2    0    0 -0.12519051050E-01 -0.11409507409E-01  0.16776126094E-01  0.10200900775E+01  0.10198114651E+01 0.  0.
     999903    2    3    3    0    0 -0.39377267755E-01  0.71100560460E-01  0.10169824781E+00  0.13175396888E+00  0.20266124310E-01 0.  0.
         14    1    1    2    0    0  0.12519051050E-01  0.11409507409E-01 -0.16776126094E-01  0.23839922509E-01  0.00000000000E+00 0.  1.
     999901    1    3    3    0    0  0.26858216706E-01 -0.82510067869E-01 -0.84922121717E-01  0.88833610861E+00  0.88000000000E+00 0. -1.
        -11    1    4    4    0    0 -0.10983342927E-01  0.25282803789E-01  0.49822045785E-01  0.56941648698E-01  0.51100000000E-03 0. -1.
         11    1    4    4    0    0 -0.28393924828E-01  0.45817756671E-01  0.51876202026E-01  0.74812320183E-01  0.51100000000E-03 0.  1.
</event>
<event>
 8    1  0.1196210E+005  0.1043930E+01  0.7957747E-01            NaN
         13   -1    0    0    0    0  0.00000000000E+00  0.00000000000E+00  0.74505805969E-08  0.10566000000E+00  0.10566000000E+00 0.  1.
     999900   -1    0    0    0    0 -0.00000000000E+00 -0.00000000000E+00 -0.74505805969E-08  0.93827000000E+00  0.93827000000E+00 0. -1.
     999902    2    1    2    0    0  0.19304554047E-01  0.96335105188E-02 -0.84958579513E-02  0.10207427204E+01  0.10204793243E+01 0.  0.
     999903    2    3    3    0    0  0.50576317667E-01  0.84726259567E-01  0.85316965736E-01  0.13202584197E+00  0.20379777633E-01 0.  0.
         14    1    1    2    0    0 -0.19304554047E-01 -0.96335105188E-02  0.84958579513E-02  0.23187279578E-01  0.00000000000E+00 0.  1.
     999901    1    3    3    0    0 -0.31271763620E-01 -0.75092749048E-01 -0.93812823687E-01  0.88871687845E+00  0.88000000000E+00 0. -1.
        -11    1    4    4    0    0  0.44363758078E-01  0.58550679317E-01  0.57164678178E-01  0.93082687066E-01  0.51100000000E-03 0.  1.
         11    1    4    4    0    0  0.62125595891E-02  0.26175580250E-01  0.28152287557E-01  0.38943154903E-01  0.51100000000E-03 0. -1.
</event>
<event>
 8    1  0.1196210E+005  0.1043930E+01  0.7957747E-01            NaN
         13   -1    0    0    0    0  0.00000000000E+00  0.00000000000E+00  0.74505805969E-08  0.10566000000E+00  0.10566000000E+00 0. -1.
     999900   -1    0    0    0    0 -0.00000000000E+00 -0.00000000000E+00 -0.74505805969E-08  0.93827000000E+00  0.93827000000E+00 0.  1.
     999902    2    1    2    0    0  0.20297796905E-01  0.12407589023E-01  0.87598659935E-02  0.10185787855E+01  0.10182632558E+01 0.  0.
     999903    2    3    3    0    0 -0.60914289063E-01 -0.31063268961E-01 -0.10440854875E+00  0.12656297370E+00  0.21013423520E-01 0.  0.
         14    1    1    2    0    0 -0.20297796905E-01 -0.12407589023E-01 -0.87598659935E-02  0.25351214503E-01  0.00000000000E+00 0. -1.
     999901    1    3    3    0    0  0.81212085968E-01  0.43470857984E-01  0.11316841475E+00  0.89201581180E+00  0.88000000000E+00 0. -1.
        -11    1    4    4    0    0 -0.30402670580E-01 -0.19320298137E-01 -0.36993493161E-01  0.51636963076E-01  0.51100000000E-03 0.  1.
         11    1    4    4    0    0 -0.30511618483E-01 -0.11742970824E-01 -0.67415055593E-01  0.74926010623E-01  0.51100000000E-03 0. -1.
</event>
<event>
 8    1  0.1196210E+005  0.1043930E+01  0.7957747E-01            NaN
         13   -1    0    0    0    0  0.00000000000E+00  0.00000000000E+00  0.74505805969E-08  0.10566000000E+00  0.10566000000E+00 0. -1.
     999900   -1    0    0    0    0 -0.00000000000E+00 -0.00000000000E+00 -0.74505805969E-08  0.93827000000E+00  0.93827000000E+00 0. -1.
     999902    2    1    2    0    0  0.10227049026E-01 -0.19486425077E-01 -0.51944105669E-02  0.10213181625E+01  0.10210678204E+01 0.  0.
     999903    2    3    3    0    0  0.88301451083E-01 -0.80101420795E-01 -0.60068726850E-01  0.13408596034E+00  0.12546271866E-01 0.  0.
         14    1    1    2    0    0 -0.10227049026E-01  0.19486425077E-01  0.51944105669E-02  0.22611837501E-01  0.00000000000E+00 0. -1.
     999901    1    3    3    0    0 -0.78074402057E-01  0.60614995718E-01  0.54874316283E-01  0.88723220216E+00  0.88000000000E+00 0.  1.
        -11    1    4    4    0    0  0.24156443720E-01 -0.29534887132E-01 -0.17558678013E-01  0.42004900020E-01  0.51100000000E-03 0. -1.
         11    1    4    4    0    0  0.64145007363E-01 -0.50566533663E-01 -0.42510048837E-01  0.92081060318E-01  0.51100000000E-03 0.  1.
</event>
<event>
 8    1  0.1196210E+005  0.1043930E+01  0.7957747E-01            NaN
         13   -1    0    0    0    0  0.00000000000E+00  0.00000000000E+00  0.74505805969E-08  0.10566000000E+00  0.10566000000E+00 0. -1.
     999900   -1    0    0    0    0 -0.00000000000E+00 -0.00000000000E+00 -0.74505805969E-08  0.93827000000E+00  0.93827000000E+00 0.  1.
     999902    2    1    2    0    0 -0.93564208784E-02  0.10484424689E-02  0.21609404563E-01  0.10203586570E+01  0.10200863595E+01 0.  0.
     999903    2    3    3    0    0 -0.30650413795E-01  0.19949741929E-01 -0.12113214094E+00  0.12840246862E+00  0.21834795853E-01 0.  0.
         14    1    1    2    0    0  0.93564208784E-02 -0.10484424689E-02 -0.21609404563E-01  0.23571342958E-01  0.00000000000E+00 0.  1.
     999901    1    3    3    0    0  0.21293992916E-01 -0.18901299460E-01  0.14274154550E+00  0.89195618842E+00  0.88000000000E+00 0. -1.
        -11    1    4    4    0    0 -0.16494997638E-01  0.20001914009E-01 -0.55497966427E-01  0.61257219245E-01  0.51100000000E-03 0. -1.
         11    1    4    4    0    0 -0.14155416157E-01 -0.52172080053E-04 -0.65634174512E-01  0.67145249373E-01  0.51100000000E-03 0.  1.
</event>
<event>
 8    1  0.1196210E+005  0.1043930E+01  0.7957747E-01            NaN
         13   -1    0    0    0    0  0.00000000000E+00  0.00000000000E+00  0.74505805969E-08  0.10566000000E+00  0.10566000000E+00 0. -1.
     999900   -1    0    0    0    0 -0.00000000000E+00 -0.00000000000E+00 -0.74505805969E-08  0.93827000000E+00  0.93827000000E+00 0.  1.
     999902    2    1    2    0    0 -0.12536576780E-01  0.19758755694E-01  0.11185690822E-01  0.10179936575E+01  0.10176632021E+01 0.  0.
     999903    2    3    3    0    0  0.89173564464E-01 -0.19265226069E-03 -0.87281284380E-01  0.12645635781E+00  0.20523793812E-01 0.  0.
         14    1    1    2    0    0  0.12536576780E-01 -0.19758755694E-01 -0.11185690822E-01  0.25936342516E-01  0.00000000000E+00 0. -1.
     999901    1    3    3    0    0 -0.10171014124E+00  0.19951407955E-01  0.98466975202E-01  0.89153729968E+00  0.88000000000E+00 0.  1.
        -11    1    4    4    0    0  0.81604118601E-01 -0.61465128321E-02 -0.78956883155E-01  0.11371658767E+00  0.51100000000E-03 0. -1.
         11    1    4    4    0    0  0.75694458626E-02  0.59538605714E-02 -0.83244012250E-02  0.12739770136E-01  0.51100000000E-03 0.  1.
</event>
<event>
 8    1  0.1196210E+005  0.1043930E+01  0.7957747E-01            NaN
         13   -1    0    0    0    0  0.00000000000E+00  0.00000000000E+00  0.74505805969E-08  0.10566000000E+00  0.10566000000E+00 0.  1.
     999900   -1    0    0    0    0 -0.00000000000E+00 -0.00000000000E+00 -0.74505805969E-08  0.93827000000E+00  0.93827000000E+00 0.  1.
     999902    2    1    2    0    0 -0.16704958002E-01 -0.17725712176E-01  0.35022134293E-02  0.10193226435E+01  0.10190255785E+01 0.  0.
     999903    2    3    3    0    0  0.75424269017E-02  0.12401307968E+00 -0.19581145928E-01  0.12735254185E+00  0.19977900430E-01 0.  0.
         14    1    1    2    0    0  0.16704958002E-01  0.17725712176E-01 -0.35022134293E-02  0.24607356479E-01  0.00000000000E+00 0. -1.
     999901    1    3    3    0    0 -0.24247384903E-01 -0.14173879185E+00  0.23083359358E-01  0.89197010167E+00  0.88000000000E+00 0. -1.
        -11    1    4    4    0    0 -0.67700926753E-02  0.34747030407E-01 -0.66863055410E-02  0.36029960862E-01  0.51100000000E-03 0.  1.
         11    1    4    4    0    0  0.14312519577E-01  0.89266049271E-01 -0.12894840387E-01  0.91322580991E-01  0.51100000000E-03 0. -1.
</event>
<event>
 8    1  0.1196210E+005  0.1043930E+01  0.7957747E-01            NaN
         13   -1    0    0    0    0  0.00000000000E+00  0.00000000000E+00  0.74505805969E-08  0.10566000000E+00  0.10566000000E+00 0. -1.
     999900   -1    0    0    0    0 -0.00000000000E+00 -0.00000000000E+00 -0.74505805969E-08  0.93827000000E+00  0.93827000000E+00 0. -1.
     999902    2    1    2    0    0 -0.12263626166E-01  0.17174196445E-01  0.11653334030E-01  0.10198229524E+01  0.10195379858E+01 0.  0.
     999903    2    3    3    0    0  0.91465861999E-01 -0.16753885788E-01 -0.85357965122E-01  0.12779037808E+00  0.19942465221E-01 0.  0.
         14    1    1    2    0    0  0.12263626166E-01 -0.17174196445E-01 -0.11653334030E-01  0.24107047606E-01  0.00000000000E+00 0.  1.
     999901    1    3    3    0    0 -0.10372948817E+00  0.33928082233E-01  0.97011299152E-01  0.89203257432E+00  0.88000000000E+00 0.  1.
        -11    1    4    4    0    0  0.79178468020E-01 -0.20368974896E-01 -0.68825068296E-01  0.10687037046E+00  0.51100000000E-03 0.  1.
         11    1    4    4    0    0  0.12287393980E-01  0.36150891077E-02 -0.16532896826E-01  0.20920007613E-01  0.51100000000E-03 0. -1.
</event>
<event>
 8    1  0.1196210E+005  0.1043930E+01  0.7957747E-01            NaN
         13   -1    0    0    0    0  0.00000000000E+00  0.00000000000E+00  0.74505805969E-08  0.10566000000E+00  0.10566000000E+00 0. -1.
     999900   -1    0    0    0    0 -0.00000000000E+00 -0.00000000000E+00 -0.74505805969E-08  0.93827000000E+00  0.93827000000E+00 0.  1.
     999902    2    1    2    0    0  0.33154062318E-03  0.23039827408E-01  0.16908863634E-02  0.10208258302E+01  0.10205643404E+01 0.  0.
     999903    2    3    3    0    0  0.10433803232E+00  0.77765045213E-01  0.17505562029E-01  0.13287183152E+00  0.20362997408E-01 0.  0.
         14    1    1    2    0    0 -0.33154062318E-03 -0.23039827408E-01 -0.16908863634E-02  0.23104169816E-01  0.00000000000E+00 0. -1.
     999901    1    3    3    0    0 -0.10400649170E+00 -0.54725217804E-01 -0.15814675666E-01  0.88795399867E+00  0.88000000000E+00 0. -1.
        -11    1    4    4    0    0  0.19490489653E-01  0.81175986363E-02  0.83755137639E-02  0.22719703923E-01  0.51100000000E-03 0. -1.
         11    1    4    4    0    0  0.84847542669E-01  0.69647446576E-01  0.91300482655E-02  0.11015212760E+00  0.51100000000E-03 0.  1.
</event>
<event>
 8    1  0.1196210E+005  0.1043930E+01  0.7957747E-01            NaN
         13   -1    0    0    0    0  0.00000000000E+00  0.00000000000E+00  0.74505805969E-08  0.10566000000E+00  0.10566000000E+00 0. -1.
     999900   -1    0    0    0    0 -0.00000000000E+00 -0.00000000000E+00 -0.74505805969E-08  0.93827000000E+00  0.93827000000E+00 0.  1.
     999902    2    1    2    0    0  0.15209455883E-01 -0.72479510094E-03  0.19461433442E-01  0.10192196729E+01  0.10189200858E+01 0.  0.
     999903    2    3    3    0    0  0.70472571436E-01  0.16815231029E-01 -0.10434888855E+00  0.12866329603E+00  0.20406319765E-01 0.  0.
         14    1    1    2    0    0 -0.15209455883E-01  0.72479510094E-03 -0.19461433442E-01  0.24710327149E-01  0.00000000000E+00 0.  1.
     999901    1    3    3    0    0 -0.55263115553E-01 -0.17540026130E-01  0.12381032199E+00  0.89055637682E+00  0.88000000000E+00 0. -1.
        -11    1    4    4    0    0  0.35799309703E-01  0.10613300337E-01 -0.70656412063E-01  0.79917597598E-01  0.51100000000E-03 0. -1.
         11    1    4    4    0    0  0.34673261733E-01  0.62019306915E-02 -0.33692476483E-01  0.48745698436E-01  0.51100000000E-03 0.  1.
</event>
<event>
 8    1  0.1196210E+005  0.1043930E+01  0.7957747E-01            NaN
         13   -1    0    0    0    0  0.00000000000E+00  0.00000000000E+00  0.74505805969E-08  0.10566000000E+00  0.10566000000E+00 0.  1.
     999900   -1    0    0    0    0 -0.00000000000E+00 -0.00000000000E+00 -0.74505805969E-08  0.93827000000E+00  0.93827000000E+00 0.  1.
     999902    2    1    2    0    0  0.57904757121E-02 -0.13585538590E-01 -0.17879653975E-01  0.10207399484E+01  0.10204764886E+01 0.  0.
     999903    2    3    3    0    0 -0.11188093440E+00 -0.33768555302E-01  0.53115037432E-01  0.12984480240E+00  0.19514269139E-01 0.  0.
         14    1    1    2    0    0 -0.57904757121E-02  0.13585538590E-01  0.17879653975E-01  0.23190051618E-01  0.00000000000E+00 0.  1.
     999901    1    3    3    0    0  0.11767141011E+00  0.20183016712E-01 -0.70994691407E-01  0.89089514598E+00  0.88000000000E+00 0.  1.
        -11    1    4    4    0    0 -0.28637563145E-01 -0.14266017139E-01  0.22126144275E-01  0.38903170171E-01  0.51100000000E-03 0.  1.
         11    1    4    4    0    0 -0.83243371256E-01 -0.19502538163E-01  0.30988893157E-01  0.90941632232E-01  0.51100000000E-03 0. -1.
</event>
<event>
 8    1  0.1196210E+005  0.1043930E+01  0.7957747E-01            NaN
         13   -1    0    0    0    0  0.00000000000E+00  0.00000000000E+00  0.74505805969E-08  0.10566000000E+00  0.10566000000E+00 0. -1.
     999900   -1    0    0    0    0 -0.00000000000E+00 -0.00000000000E+00 -0.74505805969E-08  0.93827000000E+00  0.93827000000E+00 0.  1.
     999902    2    1    2    0    0 -0.17011199107E-01  0.16756749835E-01  0.14745675638E-02  0.10200062898E+01  0.10197256922E+01 0.  0.
     999903    2    3    3    0    0  0.47222010223E-01  0.11365881851E+00 -0.41320736355E-01  0.13132898384E+00  0.19790236696E-01 0.  0.
         14    1    1    2    0    0  0.17011199107E-01 -0.16756749835E-01 -0.14745675638E-02  0.23923710197E-01  0.00000000000E+00 0.  1.
     999901    1    3    3    0    0 -0.64233209331E-01 -0.96902068678E-01  0.42795303919E-01  0.88867730596E+00  0.88000000000E+00 0. -1.
        -11    1    4    4    0    0  0.37176854086E-02  0.30844295047E-01 -0.11746904605E-01  0.33218106667E-01  0.51100000000E-03 0.  1.
         11    1    4    4    0    0  0.43504324815E-01  0.82814523466E-01 -0.29573831751E-01  0.98110877174E-01  0.51100000000E-03 0. -1.
</event>
<event>
 8    1  0.1196210E+005  0.1043930E+01  0.7957747E-01            NaN
         13   -1    0    0    0    0  0.00000000000E+00  0.00000000000E+00  0.74505805969E-08  0.10566000000E+00  0.10566000000E+00 0. -1.
     999900   -1    0    0    0    0 -0.00000000000E+00 -0.00000000000E+00 -0.74505805969E-08  0.93827000000E+00  0.93827000000E+00 0.  1.
     999902    2    1    2    0    0  0.19360416747E-01  0.57037883002E-02  0.11662564839E-01  0.10206196084E+01  0.10203533754E+01 0.  0.
     999903    2    3    3    0    0  0.10746305295E+00 -0.74045346002E-01 -0.94258742851E-02  0.13238162161E+00  0.20125248296E-01 0.  0.
         14    1    1    2    0    0 -0.19360416747E-01 -0.57037883002E-02 -0.11662564839E-01  0.23310391593E-01  0.00000000000E+00 0.  1.
     999901    1    3    3    0    0 -0.88102636206E-01  0.79749134302E-01  0.21088439124E-01  0.88823798680E+00  0.88000000000E+00 0. -1.
        -11    1    4    4    0    0  0.61043244117E-01 -0.34014480745E-01 -0.12563968271E-01  0.71002654686E-01  0.51100000000E-03 0.  1.
         11    1    4    4    0    0  0.46419808836E-01 -0.40030865257E-01  0.31380939855E-02  0.61378966922E-01  0.51100000000E-03 0. -1.
</event>
<event>
 8    1  0.1196210E+005  0.1043930E+01  0.7957747E-01            NaN
         13   -1    0    0    0    0  0.00000000000E+00  0.00000000000E+00  0.74505805969E-08  0.10566000000E+00  0.10566000000E+00 0.  1.
     999900   -1    0    0    0    0 -0.00000000000E+00 -0.00000000000E+00 -0.74505805969E-08  0.93827000000E+00  0.93827000000E+00 0.  1.
     999902    2    1    2    0    0  0.18387746928E-01 -0.10207595830E-01  0.10379253177E-01  0.10204772145E+01  0.10202076809E+01 0.  0.
     999903    2    3    3    0    0 -0.65456398922E-01 -0.43684793916E-01 -0.99758201756E-01  0.12902849331E+00  0.22444417774E-01 0.  0.
         14    1    1    2    0    0 -0.18387746928E-01  0.10207595830E-01 -0.10379253177E-01  0.23452785469E-01  0.00000000000E+00 0.  1.
     999901    1    3    3    0    0  0.83844145851E-01  0.33477198085E-01  0.11013745493E+00  0.89144872122E+00  0.88000000000E+00 0. -1.
        -11    1    4    4    0    0 -0.32411882984E-01 -0.34093838169E-01 -0.51435307234E-01  0.69704891585E-01  0.51100000000E-03 0.  1.
         11    1    4    4    0    0 -0.33044515939E-01 -0.95909557465E-02 -0.48322894522E-01  0.59323601726E-01  0.51100000000E-03 0. -1.
</event>
<event>
 8    1  0.1196210E+005  0.1043930E+01  0.7957747E-01            NaN
         13   -1    0    0    0    0  0.00000000000E+00  0.00000000000E+00  0.74505805969E-08  0.10566000000E+00  0.10566000000E+00 0. -1.
     999900   -1    0    0    0    0 -0.00000000000E+00 -0.00000000000E+00 -0.74505805969E-08  0.93827000000E+00  0.93827000000E+00 0. -1.
     999902    2    1    2    0    0 -0.22827801666E-01  0.85194318909E-02  0.97884465202E-03  0.10195446071E+01  0.10192529414E+01 0.  0.
     999903    2    3    3    0    0 -0.75788796792E-01  0.80900607416E-02  0.10544521100E+00  0.13178435061E+00  0.20953084254E-01 0.  0.
         14    1    1    2    0    0  0.22827801666E-01 -0.85194318909E-02 -0.97884465202E-03  0.24385392872E-01  0.00000000000E+00 0.  1.
     999901    1    3    3    0    0  0.52960995126E-01  0.42937114930E-03 -0.10446636635E+00  0.88776025652E+00  0.88000000000E+00 0. -1.
        -11    1    4    4    0    0 -0.11071856640E-01  0.67350475899E-02  0.27929637637E-01  0.30794036030E-01  0.51100000000E-03 0. -1.
         11    1    4    4    0    0 -0.64716940151E-01  0.13550131517E-02  0.77515573363E-01  0.10099031457E+00  0.51100000000E-03 0.  1.
</event>
<event>
 8    1  0.1196210E+005  0.1043930E+01  0.7957747E-01            NaN
         13   -1    0    0    0    0  0.00000000000E+00  0.00000000000E+00  0.74505805969E-08  0.10566000000E+00  0.10566000000E+00 0. -1.
     999900   -1    0    0    0    0 -0.00000000000E+00 -0.00000000000E+00 -0.74505805969E-08  0.93827000000E+00  0.93827000000E+00 0.  1.
     999902    2    1    2    0    0  0.14001904631E-01 -0.10758812563E-01  0.21609886567E-01  0.10160231446E+01  0.10156398170E+01 0.  0.
     999903    2    3    3    0    0 -0.29648377257E-01 -0.96603657529E-01 -0.72414654573E-01  0.12578986121E+00  0.19181086101E-01 0.  0.
         14    1    1    2    0    0 -0.14001904631E-01  0.10758812563E-01 -0.21609886567E-01  0.27906855403E-01  0.00000000000E+00 0.  1.
     999901    1    3    3    0    0  0.43650281888E-01  0.85844844966E-01  0.94024541140E-01  0.89023328339E+00  0.88000000000E+00 0. -1.
        -11    1    4    4    0    0 -0.31308481873E-01 -0.88588905837E-01 -0.62164276797E-01  0.11266265444E+00  0.51100000000E-03 0.  1.
         11    1    4    4    0    0  0.16601046157E-02 -0.80147516918E-02 -0.10250377776E-01  0.13127206769E-01  0.51100000000E-03 0. -1.
</event>
<event>
 8    1  0.1196210E+005  0.1043930E+01  0.7957747E-01            NaN
         13   -1    0    0    0    0  0.00000000000E+00  0.00000000000E+00  0.74505805969E-08  0.10566000000E+00  0.10566000000E+00 0.  1.
     999900   -1    0    0    0    0 -0.00000000000E+00 -0.00000000000E+00 -0.74505805969E-08  0.93827000000E+00  0.93827000000E+00 0.  1.
     999902    2    1    2    0    0  0.33586011127E-02 -0.23797730976E-01  0.21270910255E-02  0.10198024904E+01  0.10195170341E+01 0.  0.
     999903    2    3    3    0    0 -0.20083614724E-01 -0.11437636446E+00  0.61335456786E-01  0.13286412906E+00  0.20137879812E-01 0.  0.
         14    1    1    2    0    0 -0.33586011127E-02  0.23797730976E-01 -0.21270910255E-02  0.24127509554E-01  0.00000000000E+00 0. -1.
     999901    1    3    3    0    0  0.23442215837E-01  0.90578633485E-01 -0.59208365761E-01  0.88693836139E+00  0.88000000000E+00 0.  1.
        -11    1    4    4    0    0 -0.17765674522E-01 -0.87634551980E-01  0.37502084127E-01  0.96964433309E-01  0.51100000000E-03 0. -1.
         11    1    4    4    0    0 -0.23179402015E-02 -0.26741812481E-01  0.23833372659E-01  0.35899695749E-01  0.51100000000E-03 0.  1.
</event>
<event>
 8    1  0.1196210E+005  0.1043930E+01  0.7957747E-01            NaN
         13   -1    0    0    0    0  0.00000000000E+00  0.00000000000E+00  0.74505805969E-08  0.10566000000E+00  0.10566000000E+00 0. -1.
     999900   -1    0    0    0    0 -0.00000000000E+00 -0.00000000000E+00 -0.74505805969E-08  0.93827000000E+00  0.93827000000E+00 0.  1.
     999902    2    1    2    0    0 -0.15702426726E-01  0.17362181913E-01 -0.15447255904E-02  0.10204694428E+01  0.10201997285E+01 0.  0.
     999903    2    3    3    0    0 -0.54633592123E-01 -0.10760038310E+00  0.43637877318E-01  0.12964244172E+00  0.18445230464E-01 0.  0.
         14    1    1    2    0    0  0.15702426726E-01 -0.17362181913E-01  0.15447255904E-02  0.23460557176E-01  0.00000000000E+00 0.  1.
     999901    1    3    3    0    0  0.38931165398E-01  0.12496256501E+00 -0.45182602909E-01  0.89082700111E+00  0.88000000000E+00 0.  1.
        -11    1    4    4    0    0 -0.31395032318E-01 -0.57019314859E-01  0.14014425488E-01  0.66584649612E-01  0.51100000000E-03 0. -1.
         11    1    4    4    0    0 -0.23238559806E-01 -0.50581068239E-01  0.29623451830E-01  0.63057792107E-01  0.51100000000E-03 0.  1.
</event>
<event>
 8    1  0.1196210E+005  0.1043930E+01  0.7957747E-01            NaN
         13   -1    0    0    0    0  0.00000000000E+00  0.00000000000E+00  0.74505805969E-08  0.10566000000E+00  0.10566000000E+00 0. -1.
     999900   -1    0    0    0    0 -0.00000000000E+00 -0.00000000000E+00 -0.74505805969E-08  0.93827000000E+00  0.93827000000E+00 0. -1.
     999902    2    1    2    0    0 -0.18963955441E-01 -0.14691633308E-01 -0.11393116214E-02  0.10199138861E+01  0.10196310908E+01 0.  0.
     999903    2    3    3    0    0  0.11793744074E+00 -0.40615756248E-01  0.24152562541E-01  0.12859254601E+00  0.19844823694E-01 0.  0.
         14    1    1    2    0    0  0.18963955441E-01  0.14691633308E-01  0.11393116214E-02  0.24016113887E-01  0.00000000000E+00 0.  1.
     999901    1    3    3    0    0 -0.13690139618E+00  0.25924122939E-01 -0.25291874162E-01  0.89132134010E+00  0.88000000000E+00 0. -1.
        -11    1    4    4    0    0  0.34424432885E-01 -0.36580016966E-02  0.10976221949E-01  0.36320257779E-01  0.51100000000E-03 0.  1.
         11    1    4    4    0    0  0.83513007857E-01 -0.36957754551E-01  0.13176340591E-01  0.92272288230E-01  0.51100000000E-03 0. -1.
</event>
<event>
 8    1  0.1196210E+005  0.1043930E+01  0.7957747E-01            NaN
         13   -1    0    0    0    0  0.00000000000E+00  0.00000000000E+00  0.74505805969E-08  0.10566000000E+00  0.10566000000E+00 0. -1.
     999900   -1    0    0    0    0 -0.00000000000E+00 -0.00000000000E+00 -0.74505805969E-08  0.93827000000E+00  0.93827000000E+00 0.  1.
     999902    2    1    2    0    0  0.49039500295E-02 -0.23294834832E-01  0.28381076254E-02  0.10199559951E+01  0.10196742024E+01 0.  0.
     999903    2    3    3    0    0 -0.51081662487E-01  0.71559940522E-01  0.91792981504E-01  0.12863967258E+00  0.19800317623E-01 0.  0.
         14    1    1    2    0    0 -0.49039500295E-02  0.23294834832E-01 -0.28381076254E-02  0.23974004894E-01  0.00000000000E+00 0. -1.
     999901    1    3    3    0    0  0.55985612517E-01 -0.94854775354E-01 -0.88954873879E-01  0.89131632253E+00  0.88000000000E+00 0.  1.
        -11    1    4    4    0    0 -0.30712531742E-01  0.46307275870E-01  0.70759216953E-01  0.89970835882E-01  0.51100000000E-03 0. -1.
         11    1    4    4    0    0 -0.20369130745E-01  0.25252664652E-01  0.21033764551E-01  0.38668836697E-01  0.51100000000E-03 0.  1.
</event>
<event>
 8    1  0.1196210E+005  0.1043930E+01  0.7957747E-01            NaN
         13   -1    0    0    0    0  0.00000000000E+00  0.00000000000E+00  0.74505805969E-08  0.10566000000E+00  0.10566000000E+00 0.  1.
     999900   -1    0    0    0    0 -0.00000000000E+00 -0.00000000000E+00 -0.74505805969E-08  0.93827000000E+00  0.93827000000E+00 0.  1.
     999902    2    1    2    0    0 -0.25450561627E-01  0.44896154233E-02  0.44215140698E-02  0.10177109703E+01  0.10173731771E+01 0.  0.
     999903    2    3    3    0    0  0.12014428766E+00  0.27830105546E-01 -0.96634842255E-02  0.12533155219E+00  0.20135799343E-01 0.  0.
         14    1    1    2    0    0  0.25450561627E-01 -0.44896154233E-02 -0.44215140698E-02  0.26219029739E-01  0.00000000000E+00 0. -1.
     999901    1    3    3    0    0 -0.14559484929E+00 -0.23340490123E-01  0.14084998295E-01  0.89237941807E+00  0.88000000000E+00 0. -1.
        -11    1    4    4    0    0  0.59579885785E-01  0.10232414364E-01  0.47288624378E-02  0.60639000279E-01  0.51100000000E-03 0.  1.
         11    1    4    4    0    0  0.60564401875E-01  0.17597691182E-01 -0.14392346663E-01  0.64692551912E-01  0.51100000000E-03 0. -1.
</event>
<event>
 8    1  0.1196210E+005  0.1043930E+01  0.7957747E-01            NaN
         13   -1    0    0    0    0  0.00000000000E+00  0.00000000000E+00  0.74505805969E-08  0.10566000000E+00  0.10566000000E+00 0.  1.
     999900   -1    0    0    0    0 -0.00000000000E+00 -0.00000000000E+00 -0.74505805969E-08  0.93827000000E+00  0.93827000000E+00 0.  1.
     999902    2    1    2    0    0  0.14652377687E-01  0.39410894752E-02 -0.18600619533E-01  0.10199256794E+01  0.10196431651E+01 0.  0.
     999903    2    3    3    0    0  0.22802951603E-01 -0.27415292600E-02  0.12433577670E+00  0.12833053443E+00  0.21951084597E-01 0.  0.
         14    1    1    2    0    0 -0.14652377687E-01 -0.39410894752E-02  0.18600619533E-01  0.24004320551E-01  0.00000000000E+00 0.  1.
     999901    1    3    3    0    0 -0.81505739160E-02  0.66826187352E-02 -0.14293639624E+00  0.89159514502E+00  0.88000000000E+00 0.  1.
        -11    1    4    4    0    0  0.17259702301E-01 -0.51256942372E-02  0.41086018565E-01  0.44860808145E-01  0.51100000000E-03 0. -1.
         11    1    4    4    0    0  0.55432493015E-02  0.23841649772E-02  0.83249758137E-01  0.83469726287E-01  0.51100000000E-03 0.  1.
</event>
<event>
 8    1  0.1196210E+005  0.1043930E+01  0.7957747E-01            NaN
         13   -1    0    0    0    0  0.00000000000E+00  0.00000000000E+00  0.74505805969E-08  0.10566000000E+00  0.10566000000E+00 0. -1.
     999900   -1    0    0    0    0 -0.00000000000E+00 -0.00000000000E+00 -0.74505805969E-08  0.93827000000E+00  0.93827000000E+00 0.  1.
     999902    2    1    2    0    0 -0.17095948584E-01  0.15544838450E-01  0.11507155562E-01  0.10181166684E+01  0.10177893801E+01 0.  0.
     999903    2    3    3    0    0  0.41973668832E-01 -0.10542257704E+00 -0.50080239386E-01  0.12575164075E+00  0.20730078388E-01 0.  0.
         14    1    1    2    0    0  0.17095948584E-01 -0.15544838450E-01 -0.11507155562E-01  0.25813331625E-01  0.00000000000E+00 0.  1.
     999901    1    3    3    0    0 -0.59069617416E-01  0.12096741549E+00  0.61587394947E-01  0.89236502762E+00  0.88000000000E+00 0.  1.
        -11    1    4    4    0    0  0.26951226530E-01 -0.47436114082E-01 -0.31659280610E-01  0.63080303585E-01  0.51100000000E-03 0.  1.
         11    1    4    4    0    0  0.15022442301E-01 -0.57986462956E-01 -0.18420958776E-01  0.62671337166E-01  0.51100000000E-03 0. -1.
</event>
<event>
 8    1  0.1196210E+005  0.1043930E+01  0.7957747E-01            NaN
         13   -1    0    0    0    0  0.00000000000E+00  0.00000000000E+00  0.74505805969E-08  0.10566000000E+00  0.10566000000E+00 0.  1.
     999900   -1    0    0    0    0 -0.00000000000E+00 -0.00000000000E+00 -0.74505805969E-08  0.93827000000E+00  0.93827000000E+00 0.  1.
     999902    2    1    2    0    0  0.21999021573E-01  0.25940842262E-03 -0.10078534751E-01  0.10197308036E+01  0.10194436280E+01 0.  0.
     999903    2    3    3    0    0 -0.30359349574E-01 -0.36330763711E-02  0.12280853471E+00  0.12820653379E+00  0.20496091277E-01 0.  0.
         14    1    1    2    0    0 -0.21999021573E-01 -0.25940842262E-03  0.10078534751E-01  0.24199196384E-01  0.00000000000E+00 0.  1.
     999901    1    3    3    0    0  0.52358371147E-01  0.38924847937E-02 -0.13288706946E+00  0.89152426983E+00  0.88000000000E+00 0.  1.
        -11    1    4    4    0    0 -0.18708415802E-01  0.61621834026E-02  0.48431685442E-01  0.52286390216E-01  0.51100000000E-03 0.  1.
         11    1    4    4    0    0 -0.11650933772E-01 -0.97952597737E-02  0.74376849267E-01  0.75920143570E-01  0.51100000000E-03 0. -1.
</event>
<event>
 8    1  0.1196210E+005  0.1043930E+01  0.7957747E-01            NaN
         13   -1    0    0    0    0  0.00000000000E+00  0.00000000000E+00  0.74505805969E-08  0.10566000000E+00  0.10566000000E+00 0.  1.
     999900   -1    0    0    0    0 -0.00000000000E+00 -0.00000000000E+00 -0.74505805969E-08  0.93827000000E+00  0.93827000000E+00 0. -1.
     999902    2    1    2    0    0 -0.17018932092E-01 -0.22015272078E-01  0.10459570120E-01  0.10142025907E+01  0.10137668254E+01 0.  0.
     999903    2    3    3    0    0  0.10953394760E+00  0.41950273107E-01 -0.26385540089E-01  0.12209005049E+00  0.21266701948E-01 0.  0.
         14    1    1    2    0    0  0.17018932092E-01  0.22015272078E-01 -0.10459570120E-01  0.29727409260E-01  0.00000000000E+00 0.  1.
     999901    1    3    3    0    0 -0.12655287969E+00 -0.63965545185E-01  0.36845110209E-01  0.89211254025E+00  0.88000000000E+00 0.  1.
        -11    1    4    4    0    0  0.40450181710E-01  0.12196244152E-01 -0.19561847807E-01  0.46560633398E-01  0.51100000000E-03 0.  1.
         11    1    4    4    0    0  0.69083765890E-01  0.29754028954E-01 -0.68236922817E-02  0.75529417089E-01  0.51100000000E-03 0. -1.
</event>
<event>
 8    1  0.1196210E+005  0.1043930E+01  0.7957747E-01            NaN
         13   -1    0    0    0    0  0.00000000000E+00  0.00000000000E+00  0.74505805969E-08  0.10566000000E+00  0.10566000000E+00 0.  1.
     999900   -1    0    0    0    0 -0.00000000000E+00 -0.00000000000E+00 -0.74505805969E-08  0.93827000000E+00  0.93827000000E+00 0.  1.
     999902    2    1    2    0    0  0.17505496220E-01 -0.37656464209E-02  0.16099976410E-01  0.10198503046E+01  0.10195659920E+01 0.  0.
     999903    2    3    3    0    0  0.11299056582E+00 -0.14497150330E-01 -0.61592618050E-01  0.13121725156E+00  0.21149023050E-01 0.  0.
         14    1    1    2    0    0 -0.17505496220E-01  0.37656464209E-02 -0.16099976410E-01  0.24079695415E-01  0.00000000000E+00 0.  1.
     999901    1    3    3    0    0 -0.95485069604E-01  0.10731503909E-01  0.77692594461E-01  0.88863305302E+00  0.88000000000E+00 0. -1.
        -11    1    4    4    0    0  0.62603593533E-01 -0.16979646015E-01 -0.28301932969E-01  0.70772726617E-01  0.51100000000E-03 0.  1.
         11    1    4    4    0    0  0.50386972290E-01  0.24824956853E-02 -0.33290685081E-01  0.60444524943E-01  0.51100000000E-03 0. -1.
</event>
<event>
 8    1  0.1196210E+005  0.1043930E+01  0.7957747E-01            NaN
         13   -1    0    0    0    0  0.00000000000E+00  0.00000000000E+00  0.74505805969E-08  0.10566000000E+00  0.10566000000E+00 0.  1.
     999900   -1    0    0    0    0 -0.00000000000E+00 -0.00000000000E+00 -0.74505805969E-08  0.93827000000E+00  0.93827000000E+00 0. -1.
     999902    2    1    2    0    0  0.13251253444E-01  0.10576627728E-01 -0.16063629086E-01  0.10205740382E+01  0.10203067512E+01 0.  0.
     999903    2    3    3    0    0  0.25134235851E-01  0.93378983206E-01  0.85799439838E-01  0.13075747275E+00  0.19611437680E-01 0.  0.
         14    1    1    2    0    0 -0.13251253444E-01 -0.10576627728E-01  0.16063629086E-01  0.23355961794E-01  0.00000000000E+00 0.  1.
     999901    1    3    3    0    0 -0.11882982407E-01 -0.82802355478E-01 -0.10186306892E+00  0.88981656545E+00  0.88000000000E+00 0. -1.
        -11    1    4    4    0    0 -0.28673393097E-02  0.11953303434E-01  0.14047666712E-01  0.18673541677E-01  0.51100000000E-03 0. -1.
         11    1    4    4    0    0  0.28001575161E-01  0.81425679772E-01  0.71751773126E-01  0.11208393108E+00  0.51100000000E-03 0.  1.
</event>
<event>
 8    1  0.1196210E+005  0.1043930E+01  0.7957747E-01            NaN
         13   -1    0    0    0    0  0.00000000000E+00  0.00000000000E+00  0.74505805969E-08  0.10566000000E+00  0.10566000000E+00 0. -1.
     999900   -1    0    0    0    0 -0.00000000000E+00 -0.00000000000E+00 -0.74505805969E-08  0.93827000000E+00  0.93827000000E+00 0.  1.
     999902    2    1    2    0    0  0.84625043401E-02 -0.11475020199E-01 -0.22295985402E-01  0.10174649092E+01  0.10171206616E+01 0.  0.
     999903    2    3    3    0    0  0.63905408214E-01  0.96876196951E-01 -0.51608545202E-01  0.12860433066E+00  0.20167627311E-01 0.  0.
         14    1    1    2    0    0 -0.84625043401E-02  0.11475020199E-01  0.22295985402E-01  0.26465090843E-01  0.00000000000E+00 0. -1.
     999901    1    3    3    0    0 -0.55442903874E-01 -0.10835121715E+00  0.29312559800E-01  0.88886057850E+00  0.88000000000E+00 0. -1.
        -11    1    4    4    0    0  0.55710507882E-01  0.68725353995E-01 -0.38851924249E-01  0.96625918413E-01  0.51100000000E-03 0.  1.
         11    1    4    4    0    0  0.81949003319E-02  0.28150842956E-01 -0.12756620953E-01  0.31978412245E-01  0.51100000000E-03 0. -1.
</event>
<event>
 8    1  0.1196210E+005  0.1043930E+01  0.7957747E-01            NaN
         13   -1    0    0    0    0  0.00000000000E+00  0.00000000000E+00  0.74505805969E-08  0.10566000000E+00  0.10566000000E+00 0. -1.
     999900   -1    0    0    0    0 -0.00000000000E+00 -0.00000000000E+00 -0.74505805969E-08  0.93827000000E+00  0.93827000000E+00 0.  1.
     999902    2    1    2    0    0  0.56254431399E-02 -0.20214380382E-01  0.96596192706E-02  0.10208307570E+01  0.10205693800E+01 0.  0.
     999903    2    3    3    0    0 -0.16072122524E-01 -0.11009953560E+00  0.71652821334E-01  0.13381706902E+00  0.19815657823E-01 0.  0.
         14    1    1    2    0    0 -0.56254431399E-02  0.20214380382E-01 -0.96596192706E-02  0.23099243044E-01  0.00000000000E+00 0.  1.
     999901    1    3    3    0    0  0.21697565664E-01  0.89885155214E-01 -0.61993202064E-01  0.88701368794E+00  0.88000000000E+00 0. -1.
        -11    1    4    4    0    0  0.12911053159E-02 -0.59496651175E-01  0.37247844843E-01  0.70208130016E-01  0.51100000000E-03 0. -1.
         11    1    4    4    0    0 -0.17363227840E-01 -0.50602884422E-01  0.34404976491E-01  0.63608939004E-01  0.51100000000E-03 0.  1.
</event>
<event>
 8    1  0.1196210E+005  0.1043930E+01  0.7957747E-01            NaN
         13   -1    0    0    0    0  0.00000000000E+00  0.00000000000E+00  0.74505805969E-08  0.10566000000E+00  0.10566000000E+00 0.  1.
     999900   -1    0    0    0    0 -0.00000000000E+00 -0.00000000000E+00 -0.74505805969E-08  0.93827000000E+00  0.93827000000E+00 0.  1.
     999902    2    1    2    0    0  0.87050592051E-02 -0.76557156246E-02  0.20931318920E-01  0.10200028575E+01  0.10197221784E+01 0.  0.
     999903    2    3    3    0    0  0.11832120242E+00  0.40096382335E-01  0.36968459437E-01  0.13177250921E+00  0.19740830041E-01 0.  0.
         14    1    1    2    0    0 -0.87050592051E-02  0.76557156246E-02 -0.20931318920E-01  0.23927142521E-01  0.00000000000E+00 0. -1.
     999901    1    3    3    0    0 -0.10961614322E+00 -0.47752097960E-01 -0.16037140517E-01  0.88823034827E+00  0.88000000000E+00 0. -1.
        -11    1    4    4    0    0  0.35632256319E-01  0.16901621817E-01  0.34867113096E-02  0.39594706555E-01  0.51100000000E-03 0.  1.
         11    1    4    4    0    0  0.82688946103E-01  0.23194760518E-01  0.33481748128E-01  0.92177802653E-01  0.51100000000E-03 0. -1.
</event>
<event>
 8    1  0.1196210E+005  0.1043930E+01  0.7957747E-01            NaN
         13   -1    0    0    0    0  0.00000000000E+00  0.00000000000E+00  0.74505805969E-08  0.10566000000E+00  0.10566000000E+00 0.  1.
     999900   -1    0    0    0    0 -0.00000000000E+00 -0.00000000000E+00 -0.74505805969E-08  0.93827000000E+00  0.93827000000E+00 0. -1.
     999902    2    1    2    0    0 -0.15460563578E-01 -0.13216610016E-01  0.13460133651E-01  0.10195397765E+01  0.10192479938E+01 0.  0.
     999903    2    3    3    0    0 -0.62544861792E-01  0.24641533482E-01 -0.10822688495E+00  0.12911409137E+00  0.20936213959E-01 0.  0.
         14    1    1    2    0    0  0.15460563578E-01  0.13216610016E-01 -0.13460133651E-01  0.24390223541E-01  0.00000000000E+00 0. -1.
     999901    1    3    3    0    0  0.47084298214E-01 -0.37858143498E-01  0.12168701860E+00  0.89042568509E+00  0.88000000000E+00 0.  1.
        -11    1    4    4    0    0 -0.19958338885E-01  0.18674396562E-01 -0.44803649216E-01  0.52485202506E-01  0.51100000000E-03 0. -1.
         11    1    4    4    0    0 -0.42586522907E-01  0.59671369200E-02 -0.63423235737E-01  0.76628888865E-01  0.51100000000E-03 0.  1.
</event>
<event>
 8    1  0.1196210E+005  0.1043930E+01  0.7957747E-01            NaN
         13   -1    0    0    0    0  0.00000000000E+00  0.00000000000E+00  0.74505805969E-08  0.10566000000E+00  0.10566000000E+00 0. -1.
     999900   -1    0    0    0    0 -0.00000000000E+00 -0.00000000000E+00 -0.74505805969E-08  0.93827000000E+00  0.93827000000E+00 0.  1.
     999902    2    1    2    0    0  0.68040924855E-02  0.40942846158E-02  0.22207569846E-01  0.10203453652E+01  0.10200727568E+01 0.  0.
     999903    2    3    3    0    0  0.64457454809E-01 -0.95980340720E-01  0.60549879224E-01  0.13197102206E+00  0.19572263671E-01 0.  0.
         14    1    1    2    0    0 -0.68040924855E-02 -0.40942846158E-02 -0.22207569846E-01  0.23584634818E-01  0.00000000000E+00 0.  1.
     999901    1    3    3    0    0 -0.57653362323E-01  0.10007462534E+00 -0.38342309378E-01  0.88837434312E+00  0.88000000000E+00 0.  1.
        -11    1    4    4    0    0  0.18045426888E-01 -0.13767781389E-01  0.14399528124E-01  0.26884879899E-01  0.51100000000E-03 0. -1.
         11    1    4    4    0    0  0.46412027920E-01 -0.82212559331E-01  0.46150351099E-01  0.10508614216E+00  0.51100000000E-03 0.  1.
</event>
<event>
 8    1  0.1196210E+005  0.1043930E+01  0.7957747E-01            NaN
         13   -1    0    0    0    0  0.00000000000E+00  0.00000000000E+00  0.74505805969E-08  0.10566000000E+00  0.10566000000E+00 0. -1.
     999900   -1    0    0    0    0 -0.00000000000E+00 -0.00000000000E+00 -0.74505805969E-08  0.93827000000E+00  0.93827000000E+00 0. -1.
     999902    2    1    2    0    0 -0.93672234158E-02  0.16463529558E-01 -0.14044298029E-01  0.10203496059E+01  0.10200770967E+01 0.  0.
     999903    2    3    3    0    0 -0.12599693540E+00 -0.25128025179E-01  0.16918045944E-01  0.13114152343E+00  0.20130412559E-01 0.  0.
         14    1    1    2    0    0  0.93672234158E-02 -0.16463529558E-01  0.14044298029E-01  0.23580394126E-01  0.00000000000E+00 0. -1.
     999901    1    3    3    0    0  0.11662971198E+00  0.41591554737E-01 -0.30962343973E-01  0.88920808245E+00  0.88000000000E+00 0.  1.
        -11    1    4    4    0    0 -0.11323530842E+00 -0.16044730216E-01  0.15277746829E-01  0.11538344383E+00  0.51100000000E-03 0. -1.
         11    1    4    4    0    0 -0.12761626979E-01 -0.90832949635E-02  0.16402991142E-02  0.15758079601E-01  0.51100000000E-03 0.  1.
</event>
<event>
 8    1  0.1196210E+005  0.1043930E+01  0.7957747E-01            NaN
         13   -1    0    0    0    0  0.00000000000E+00  0.00000000000E+00  0.74505805969E-08  0.10566000000E+00  0.10566000000E+00 0.  1.
     999900   -1    0    0    0    0 -0.00000000000E+00 -0.00000000000E+00 -0.74505805969E-08  0.93827000000E+00  0.93827000000E+00 0. -1.
     999902    2    1    2    0    0 -0.23620330903E-01 -0.63092269996E-03  0.16243315088E-02  0.10202454787E+01  0.10199705291E+01 0.  0.
     999903    2    3    3    0    0 -0.11389850277E+00 -0.40510092972E-01  0.52840596599E-01  0.13324852137E+00  0.18684304473E-01 0.  0.
         14    1    1    2    0    0  0.23620330903E-01  0.63092269996E-03 -0.16243315088E-02  0.23684521280E-01  0.00000000000E+00 0.  1.
     999901    1    3    3    0    0  0.90278171863E-01  0.39879170272E-01 -0.51216265091E-01  0.88699695735E+00  0.88000000000E+00 0.  1.
        -11    1    4    4    0    0 -0.98119158265E-01 -0.27976463748E-01  0.41762234501E-01  0.11024698224E+00  0.51100000000E-03 0.  1.
         11    1    4    4    0    0 -0.15779344501E-01 -0.12533629224E-01  0.11078362099E-01  0.23001539127E-01  0.51100000000E-03 0. -1.
</event>
<event>
 8    1  0.1196210E+005  0.1043930E+01  0.7957747E-01            NaN
         13   -1    0    0    0    0  0.00000000000E+00  0.00000000000E+00  0.74505805969E-08  0.10566000000E+00  0.10566000000E+00 0.  1.
     999900   -1    0    0    0    0 -0.00000000000E+00 -0.00000000000E+00 -0.74505805969E-08  0.93827000000E+00  0.93827000000E+00 0.  1.
     999902    2    1    2    0    0  0.24926023806E-01  0.94573991356E-02  0.48542057724E-02  0.10168318013E+01  0.10164706585E+01 0.  0.
     999903    2    3    3    0    0 -0.53320781605E-01  0.11303848804E+00 -0.12310292418E-01  0.12714296547E+00  0.19823845219E-01 0.  0.
         14    1    1    2    0    0 -0.24926023806E-01 -0.94573991356E-02 -0.48542057724E-02  0.27098198738E-01  0.00000000000E+00 0. -1.
     999901    1    3    3    0    0  0.78246805410E-01 -0.10358108891E+00  0.17164498191E-01  0.88968883579E+00  0.88000000000E+00 0.  1.
        -11    1    4    4    0    0 -0.34647568639E-01  0.53258580755E-01 -0.11096958499E-01  0.64500651512E-01  0.51100000000E-03 0. -1.
         11    1    4    4    0    0 -0.18673212966E-01  0.59779907287E-01 -0.12133339189E-02  0.62642313957E-01  0.51100000000E-03 0.  1.
</event>
<event>
 8    1  0.1196210E+005  0.1043930E+01  0.7957747E-01            NaN
         13   -1    0    0    0    0  0.00000000000E+00  0.00000000000E+00  0.74505805969E-08  0.10566000000E+00  0.10566000000E+00 0. -1.
     999900   -1    0    0    0    0 -0.00000000000E+00 -0.00000000000E+00 -0.74505805969E-08  0.93827000000E+00  0.93827000000E+00 0.  1.
     999902    2    1    2    0    0 -0.71839784365E-02  0.11656711766E-01  0.17872866103E-01  0.10214149424E+01  0.10211667625E+01 0.  0.
     999903    2    3    3    0    0  0.24037834515E-01  0.81622190120E-01 -0.97158986943E-01  0.13062748349E+00  0.19587528944E-01 0.  0.
         14    1    1    2    0    0  0.71839784365E-02 -0.11656711766E-01 -0.17872866103E-01  0.22515057587E-01  0.00000000000E+00 0.  1.
     999901    1    3    3    0    0 -0.31221812952E-01 -0.69965478354E-01  0.11503185305E+00  0.89078745893E+00  0.88000000000E+00 0. -1.
        -11    1    4    4    0    0  0.11780798531E-01  0.13532672927E-01 -0.23509814202E-01  0.29578589139E-01  0.51100000000E-03 0. -1.
         11    1    4    4    0    0  0.12257035984E-01  0.68089517193E-01 -0.73649172741E-01  0.10104889435E+00  0.51100000000E-03 0.  1.
</event>
<event>
 8    1  0.1196210E+005  0.1043930E+01  0.7957747E-01            NaN
         13   -1    0    0    0    0  0.00000000000E+00  0.00000000000E+00  0.74505805969E-08  0.10566000000E+00  0.10566000000E+00 0.  1.
     999900   -1    0    0    0    0 -0.00000000000E+00 -0.00000000000E+00 -0.74505805969E-08  0.93827000000E+00  0.93827000000E+00 0. -1.
     999902    2    1    2    0    0  0.69847136489E-02 -0.29993239504E-02  0.23093359123E-01  0.10196177520E+01  0.10193278544E+01 0.  0.
     999903    2    3    3    0    0 -0.38948074830E-01  0.11523139935E+00  0.42256317313E-01  0.13031715939E+00  0.20043396671E-01 0.  0.
         14    1    1    2    0    0 -0.69847136489E-02  0.29993239504E-02 -0.23093359123E-01  0.24312248034E-01  0.00000000000E+00 0. -1.
     999901    1    3    3    0    0  0.45932788479E-01 -0.11823072330E+00 -0.19162958190E-01  0.88930059258E+00  0.88000000000E+00 0. -1.
        -11    1    4    4    0    0 -0.30548522436E-01  0.67508895561E-01  0.18636132579E-01  0.76408309505E-01  0.51100000000E-03 0.  1.
         11    1    4    4    0    0 -0.83995523936E-02  0.47722503786E-01  0.23620184734E-01  0.53908849885E-01  0.51100000000E-03 0. -1.
</event>
<event>
 8    1  0.1196210E+005  0.1043930E+01  0.7957747E-01            NaN
         13   -1    0    0    0    0  0.00000000000E+00  0.00000000000E+00  0.74505805969E-08  0.10566000000E+00  0.10566000000E+00 0.  1.
     999900   -1    0    0    0    0 -0.00000000000E+00 -0.00000000000E+00 -0.74505805969E-08  0.93827000000E+00  0.93827000000E+00 0.  1.
     999902    2    1    2    0    0 -0.21430653058E-02 -0.19761560038E-02  0.28509931918E-01  0.10152714212E+01  0.10148668605E+01 0.  0.
     999903    2    3    3    0    0 -0.98620525157E-01 -0.44280597027E-01  0.65936473476E-01  0.12819853129E+00  0.20011637467E-01 0.  0.
         14    1    1    2    0    0  0.21430653058E-02  0.19761560038E-02 -0.28509931918E-01  0.28658578810E-01  0.00000000000E+00 0. -1.
     999901    1    3    3    0    0  0.96477459851E-01  0.42304441023E-01 -0.37426541558E-01  0.88707288990E+00  0.88000000000E+00 0.  1.
        -11    1    4    4    0    0 -0.78320502047E-01 -0.43457681183E-01  0.55196415804E-01  0.10521205508E+00  0.51100000000E-03 0. -1.
         11    1    4    4    0    0 -0.20300023110E-01 -0.82291584384E-03  0.10740057671E-01  0.22986476210E-01  0.51100000000E-03 0.  1.
</event>
<event>
 8    1  0.1196210E+005  0.1043930E+01  0.7957747E-01            NaN
         13   -1    0    0    0    0  0.00000000000E+00  0.00000000000E+00  0.74505805969E-08  0.10566000000E+00  0.10566000000E+00 0. -1.
     999900   -1    0    0    0    0 -0.00000000000E+00 -0.00000000000E+00 -0.74505805969E-08  0.93827000000E+00  0.93827000000E+00 0.  1.
     999902    2    1    2    0    0  0.12882836791E-01  0.19487222008E-01 -0.90210079924E-02  0.10188880773E+01  0.10185802945E+01 0.  0.
     999903    2    3    3    0    0  0.69605319188E-01  0.90744911629E-01  0.61433889641E-01  0.13138653315E+00  0.20217785499E-01 0.  0.
         14    1    1    2    0    0 -0.12882836791E-01 -0.19487222008E-01  0.90210079924E-02  0.25041922661E-01  0.00000000000E+00 0. -1.
     999901    1    3    3    0    0 -0.56722482398E-01 -0.71257689621E-01 -0.70454897633E-01  0.88750154419E+00  0.88000000000E+00 0.  1.
        -11    1    4    4    0    0  0.58894331227E-01  0.71715062357E-01  0.57562499427E-01  0.10920299850E+00  0.51100000000E-03 0.  1.
         11    1    4    4    0    0  0.10710987961E-01  0.19029849272E-01  0.38713902137E-02  0.22183534651E-01  0.51100000000E-03 0. -1.
</event>
<event>
 8    1  0.1196210E+005  0.1043930E+01  0.7957747E-01            NaN
         13   -1    0    0    0    0  0.00000000000E+00  0.00000000000E+00  0.74505805969E-08  0.10566000000E+00  0.10566000000E+00 0.  1.
     999900   -1    0    0    0    0 -0.00000000000E+00 -0.00000000000E+00 -0.74505805969E-08  0.93827000000E+00  0.93827000000E+00 0.  1.
     999902    2    1    2    0    0 -0.17476993893E-01  0.30749016725E-02 -0.15370884478E-01  0.10204531087E+01  0.10201830143E+01 0.  0.
     999903    2    3    3    0    0 -0.95826855642E-01 -0.51332403819E-01  0.70757360963E-01  0.13111800290E+00  0.19170931397E-01 0.  0.
         14    1    1    2    0    0  0.17476993893E-01 -0.30749016725E-02  0.15370884478E-01  0.23476891308E-01  0.00000000000E+00 0.  1.
     999901    1    3    3    0    0  0.78349861749E-01  0.54407305492E-01 -0.86128245442E-01  0.88933510579E+00  0.88000000000E+00 0.  1.
        -11    1    4    4    0    0 -0.43382380555E-01 -0.20302192359E-01  0.42121114926E-01  0.63786043935E-01  0.51100000000E-03 0. -1.
         11    1    4    4    0    0 -0.52444475086E-01 -0.31030211460E-01  0.28636246038E-01  0.67331958968E-01  0.51100000000E-03 0.  1.
</event>
<event>
 8    1  0.1196210E+005  0.1043930E+01  0.7957747E-01            NaN
         13   -1    0    0    0    0  0.00000000000E+00  0.00000000000E+00  0.74505805969E-08  0.10566000000E+00  0.10566000000E+00 0. -1.
     999900   -1    0    0    0    0 -0.00000000000E+00 -0.00000000000E+00 -0.74505805969E-08  0.93827000000E+00  0.93827000000E+00 0. -1.
     999902    2    1    2    0    0  0.18245493652E-01  0.13787868250E-02 -0.14709514171E-01  0.10204530134E+01  0.10201829168E+01 0.  0.
     999903    2    3    3    0    0  0.94697709393E-01 -0.54035025348E-01 -0.73944912580E-01  0.13342174887E+00  0.21120436677E-01 0.  0.
         14    1    1    2    0    0 -0.18245493652E-01 -0.13787868250E-02  0.14709514171E-01  0.23476986580E-01  0.00000000000E+00 0. -1.
     999901    1    3    3    0    0 -0.76452215741E-01  0.55413812173E-01  0.59235398408E-01  0.88703126455E+00  0.88000000000E+00 0.  1.
        -11    1    4    4    0    0  0.69321280669E-01 -0.48989926551E-01 -0.60659474492E-01  0.10433257317E+00  0.51100000000E-03 0. -1.
         11    1    4    4    0    0  0.25376428724E-01 -0.50450987969E-02 -0.13285438088E-01  0.29089175699E-01  0.51100000000E-03 0.  1.
</event>
<event>
 8    1  0.1196210E+005  0.1043930E+01  0.7957747E-01            NaN
         13   -1    0    0    0    0  0.00000000000E+00  0.00000000000E+00  0.74505805969E-08  0.10566000000E+00  0.10566000000E+00 0. -1.
     999900   -1    0    0    0    0 -0.00000000000E+00 -0.00000000000E+00 -0.74505805969E-08  0.93827000000E+00  0.93827000000E+00 0. -1.
     999902    2    1    2    0    0 -0.16218428727E-01  0.17459102671E-01 -0.49800247762E-02  0.10195854248E+01  0.10192947464E+01 0.  0.
     999903    2    3    3    0    0 -0.21157980077E-01 -0.26346693544E-01  0.12302968926E+00  0.12923165584E+00  0.20559865034E-01 0.  0.
         14    1    1    2    0    0  0.16218428727E-01 -0.17459102671E-01  0.49800247762E-02  0.24344575231E-01  0.00000000000E+00 0.  1.
     999901    1    3    3    0    0  0.49395513504E-02  0.43805796214E-01 -0.12800971404E+00  0.89035376892E+00  0.88000000000E+00 0. -1.
        -11    1    4    4    0    0 -0.11815774771E-01 -0.26707060272E-01  0.10399150368E+00  0.10801561721E+00  0.51100000000E-03 0. -1.
         11    1    4    4    0    0 -0.93422053065E-02  0.36036672773E-03  0.19038185583E-01  0.21216038638E-01  0.51100000000E-03 0.  1.
</event>
<event>
 8    1  0.1196210E+005  0.1043930E+01  0.7957747E-01            NaN
         13   -1    0    0    0    0  0.00000000000E+00  0.00000000000E+00  0.74505805969E-08  0.10566000000E+00  0.10566000000E+00 0.  1.
     999900   -1    0    0    0    0 -0.00000000000E+00 -0.00000000000E+00 -0.74505805969E-08  0.93827000000E+00  0.93827000000E+00 0.  1.
     999902    2    1    2    0    0  0.79858979441E-02 -0.27566347994E-02 -0.21964689990E-01  0.10203965938E+01  0.10201251822E+01 0.  0.
     999903    2    3    3    0    0 -0.78431346670E-01 -0.77513432466E-01 -0.69647522761E-01  0.13172895541E+00  0.18491401083E-01 0.  0.
         14    1    1    2    0    0 -0.79858979441E-02  0.27566347994E-02  0.21964689990E-01  0.23533406208E-01  0.00000000000E+00 0.  1.
     999901    1    3    3    0    0  0.86417244614E-01  0.74756797667E-01  0.47682832771E-01  0.88866763838E+00  0.88000000000E+00 0.  1.
        -11    1    4    4    0    0 -0.48128770891E-01 -0.58417798966E-01 -0.51698824650E-01  0.91662682781E-01  0.51100000000E-03 0.  1.
         11    1    4    4    0    0 -0.30302575779E-01 -0.19095633501E-01 -0.17948698111E-01  0.40066272630E-01  0.51100000000E-03 0. -1.
</event>
<event>
 8    1  0.1196210E+005  0.1043930E+01  0.7957747E-01            NaN
         13   -1    0    0    0    0  0.00000000000E+00  0.00000000000E+00  0.74505805969E-08  0.10566000000E+00  0.10566000000E+00 0.  1.
     999900   -1    0    0    0    0 -0.00000000000E+00 -0.00000000000E+00 -0.74505805969E-08  0.93827000000E+00  0.93827000000E+00 0. -1.
     999902    2    1    2    0    0  0.28585778144E-02  0.19514273063E-01  0.13462078928E-01  0.10200510157E+01  0.10197714787E+01 0.  0.
     999903    2    3    3    0    0 -0.83133616234E-01 -0.29832948586E-01 -0.90409450829E-01  0.12841257982E+00  0.22687416911E-01 0.  0.
         14    1    1    2    0    0 -0.28585778144E-02 -0.19514273063E-01 -0.13462078928E-01  0.23878984262E-01  0.00000000000E+00 0. -1.
     999901    1    3    3    0    0  0.85992194049E-01  0.49347221649E-01  0.10387152976E+00  0.89163843592E+00  0.88000000000E+00 0.  1.
        -11    1    4    4    0    0 -0.26164929033E-01 -0.16023981506E-01 -0.19280643677E-01  0.36240527537E-01  0.51100000000E-03 0.  1.
         11    1    4    4    0    0 -0.56968687201E-01 -0.13808967080E-01 -0.71128807152E-01  0.92172052278E-01  0.51100000000E-03 0. -1.
</event>
<event>
 8    1  0.1196210E+005  0.1043930E+01  0.7957747E-01            NaN
         13   -1    0    0    0    0  0.00000000000E+00  0.00000000000E+00  0.74505805969E-08  0.10566000000E+00  0.10566000000E+00 0.  1.
     999900   -1    0    0    0    0 -0.00000000000E+00 -0.00000000000E+00 -0.74505805969E-08  0.93827000000E+00  0.93827000000E+00 0. -1.
     999902    2    1    2    0    0  0.63271006994E-02 -0.17815042056E-01  0.13986804940E-01  0.10204132264E+01  0.10201422028E+01 0.  0.
     999903    2    3    3    0    0  0.23586092550E-01  0.88423075227E-01 -0.87531207782E-01  0.12806222079E+00  0.19059802276E-01 0.  0.
         14    1    1    2    0    0 -0.63271006994E-02  0.17815042056E-01 -0.13986804940E-01  0.23516773570E-01  0.00000000000E+00 0. -1.
     999901    1    3    3    0    0 -0.17258991850E-01 -0.10623811728E+00  0.10151801272E+00  0.89235100564E+00  0.88000000000E+00 0.  1.
        -11    1    4    4    0    0  0.12222579476E-01  0.22719086565E-01 -0.33204797322E-01  0.42051968201E-01  0.51100000000E-03 0.  1.
         11    1    4    4    0    0  0.11363513074E-01  0.65703988662E-01 -0.54326410461E-01  0.86010252587E-01  0.51100000000E-03 0. -1.
</event>
<event>
 8    1  0.1196210E+005  0.1043930E+01  0.7957747E-01            NaN
         13   -1    0    0    0    0  0.00000000000E+00  0.00000000000E+00  0.74505805969E-08  0.10566000000E+00  0.10566000000E+00 0. -1.
     999900   -1    0    0    0    0 -0.00000000000E+00 -0.00000000000E+00 -0.74505805969E-08  0.93827000000E+00  0.93827000000E+00 0.  1.
     999902    2    1    2    0    0 -0.24884830296E-01 -0.34234285737E-02  0.32576433153E-02  0.10186004346E+01  0.10182854504E+01 0.  0.
     999903    2    3    3    0    0  0.12179069369E+00 -0.73182406918E-03 -0.25474114542E-01  0.12599387629E+00  0.19799437268E-01 0.  0.
         14    1    1    2    0    0  0.24884830296E-01  0.34234285737E-02 -0.32576433153E-02  0.25329565374E-01  0.00000000000E+00 0. -1.
     999901    1    3    3    0    0 -0.14667552398E+00 -0.26916045045E-02  0.28731757857E-01  0.89260655833E+00  0.88000000000E+00 0. -1.
        -11    1    4    4    0    0  0.77241050319E-02 -0.42971021764E-02  0.78479373403E-03  0.88884142491E-02  0.51100000000E-03 0.  1.
         11    1    4    4    0    0  0.11406658866E+00  0.35652781073E-02 -0.26258908276E-01  0.11710546204E+00  0.51100000000E-03 0. -1.
</event>
<event>
 8    1  0.1196210E+005  0.1043930E+01  0.7957747E-01            NaN
         13   -1    0    0    0    0  0.00000000000E+00  0.00000000000E+00  0.74505805969E-08  0.10566000000E+00  0.10566000000E+00 0. -1.
     999900   -1    0    0    0    0 -0.00000000000E+00 -0.00000000000E+00 -0.74505805969E-08  0.93827000000E+00  0.93827000000E+00 0. -1.
     999902    2    1    2    0    0  0.12685495157E-01 -0.23322798926E-01  0.14108611582E-01  0.10138646103E+01  0.10134187290E+01 0.  0.
     999903    2    3    3    0    0 -0.83688902114E-01 -0.87866277993E-01  0.28342918398E-01  0.12613914563E+00  0.19581825512E-01 0.  0.
         14    1    1    2    0    0 -0.12685495157E-01  0.23322798926E-01 -0.14108611582E-01  0.30065389701E-01  0.00000000000E+00 0.  1.
     999901    1    3    3    0    0  0.96374397271E-01  0.64543479068E-01 -0.14234306816E-01  0.88772546467E+00  0.88000000000E+00 0. -1.
        -11    1    4    4    0    0 -0.44347850659E-01 -0.49370836795E-01  0.56693912906E-02  0.66607916215E-01  0.51100000000E-03 0. -1.
         11    1    4    4    0    0 -0.39341051455E-01 -0.38495441199E-01  0.22673527107E-01  0.59531229411E-01  0.51100000000E-03 0.  1.
</event>
<event>
 8    1  0.1196210E+005  0.1043930E+01  0.7957747E-01            NaN
         13   -1    0    0    0    0  0.00000000000E+00  0.00000000000E+00  0.74505805969E-08  0.10566000000E+00  0.10566000000E+00 0.  1.
     999900   -1    0    0    0    0 -0.00000000000E+00 -0.00000000000E+00 -0.74505805969E-08  0.93827000000E+00  0.93827000000E+00 0.  1.
     999902    2    1    2    0    0 -0.22419698218E-01 -0.20421149536E-02  0.51956903223E-02  0.10208257082E+01  0.10205642156E+01 0.  0.
     999903    2    3    3    0    0  0.10565692748E+00  0.40556080401E-02  0.71331583387E-01  0.12907755955E+00  0.19823907487E-01 0.  0.
         14    1    1    2    0    0  0.22419698218E-01  0.20421149536E-02 -0.51956903223E-02  0.23104291800E-01  0.00000000000E+00 0. -1.
     999901    1    3    3    0    0 -0.12807662570E+00 -0.60977229936E-02 -0.66135893065E-01  0.89174814865E+00  0.88000000000E+00 0.  1.
        -11    1    4    4    0    0  0.40262315677E-01  0.21581201760E-02  0.15960509441E-01  0.43367159568E-01  0.51100000000E-03 0. -1.
         11    1    4    4    0    0  0.65394611806E-01  0.18974878640E-02  0.55371073946E-01  0.85710399978E-01  0.51100000000E-03 0.  1.
</event>
<event>
 8    1  0.1196210E+005  0.1043930E+01  0.7957747E-01            NaN
         13   -1    0    0    0    0  0.00000000000E+00  0.00000000000E+00  0.74505805969E-08  0.10566000000E+00  0.10566000000E+00 0. -1.
     999900   -1    0    0    0    0 -0.00000000000E+00 -0.00000000000E+00 -0.74505805969E-08  0.93827000000E+00  0.93827000000E+00 0. -1.
     999902    2    1    2    0    0  0.25243793965E-01 -0.12519672696E-01 -0.19436180889E-01  0.10096990715E+01  0.10091186543E+01 0.  0.
     999903    2    3    3    0    0  0.11358087142E+00 -0.27811243534E-01  0.32002573150E-01  0.12364985345E+00  0.24311354384E-01 0.  0.
         14    1    1    2    0    0 -0.25243793965E-01  0.12519672696E-01  0.19436180889E-01  0.34230928496E-01  0.00000000000E+00 0. -1.
     999901    1    3    3    0    0 -0.88337077452E-01  0.15291570838E-01 -0.51438754039E-01  0.88604921805E+00  0.88000000000E+00 0.  1.
        -11    1    4    4    0    0  0.30376773755E-01 -0.17867897233E-01  0.49388007537E-02  0.35590209457E-01  0.51100000000E-03 0. -1.
         11    1    4    4    0    0  0.83204097662E-01 -0.99433463005E-02  0.27063772396E-01  0.88059643996E-01  0.51100000000E-03 0.  1.
</event>
<event>
 8    1  0.1196210E+005  0.1043930E+01  0.7957747E-01            NaN
         13   -1    0    0    0    0  0.00000000000E+00  0.00000000000E+00  0.74505805969E-08  0.10566000000E+00  0.10566000000E+00 0. -1.
     999900   -1    0    0    0    0 -0.00000000000E+00 -0.00000000000E+00 -0.74505805969E-08  0.93827000000E+00  0.93827000000E+00 0. -1.
     999902    2    1    2    0    0 -0.86371919574E-02  0.14139733070E-01 -0.18021977965E-01  0.10194488884E+01  0.10191549005E+01 0.  0.
     999903    2    3    3    0    0 -0.13440206333E-01  0.13415530379E-02  0.12536142984E+00  0.12773948281E+00  0.20480441067E-01 0.  0.
         14    1    1    2    0    0  0.86371919574E-02 -0.14139733070E-01  0.18021977965E-01  0.24481111617E-01  0.00000000000E+00 0. -1.
     999901    1    3    3    0    0  0.48030143751E-02  0.12798180032E-01 -0.14338340780E+00  0.89170940558E+00  0.88000000000E+00 0. -1.
        -11    1    4    4    0    0 -0.93221040551E-02 -0.82160586776E-02  0.90613403807E-01  0.91462863036E-01  0.51100000000E-03 0.  1.
         11    1    4    4    0    0 -0.41181022774E-02  0.95576117155E-02  0.34748026031E-01  0.36276619772E-01  0.51100000000E-03 0. -1.
</event>
<event>
 8    1  0.1196210E+005  0.1043930E+01  0.7957747E-01            NaN
         13   -1    0    0    0    0  0.00000000000E+00  0.00000000000E+00  0.74505805969E-08  0.10566000000E+00  0.10566000000E+00 0. -1.
     999900   -1    0    0    0    0 -0.00000000000E+00 -0.00000000000E+00 -0.74505805969E-08  0.93827000000E+00  0.93827000000E+00 0.  1.
     999902    2    1    2    0    0 -0.14118874708E-01 -0.75144402741E-03 -0.19563567965E-01  0.10197920531E+01  0.10195063467E+01 0.  0.
     999903    2    3    3    0    0 -0.27540035168E-01  0.98450871036E-01  0.75781699041E-01  0.12899917769E+00  0.21139876782E-01 0.  0.
         14    1    1    2    0    0  0.14118874708E-01  0.75144402741E-03  0.19563567965E-01  0.24137946944E-01  0.00000000000E+00 0.  1.
     999901    1    3    3    0    0  0.13421160460E-01 -0.99202315064E-01 -0.95345267006E-01  0.89079287537E+00  0.88000000000E+00 0. -1.
        -11    1    4    4    0    0 -0.23515386211E-01  0.46507220196E-01  0.41624242576E-01  0.66698827651E-01  0.51100000000E-03 0.  1.
         11    1    4    4    0    0 -0.40246489571E-02  0.51943650840E-01  0.34157456465E-01  0.62300350039E-01  0.51100000000E-03 0. -1.
</event>
<event>
 8    1  0.1196210E+005  0.1043930E+01  0.7957747E-01            NaN
         13   -1    0    0    0    0  0.00000000000E+00  0.00000000000E+00  0.74505805969E-08  0.10566000000E+00  0.10566000000E+00 0.  1.
     999900   -1    0    0    0    0 -0.00000000000E+00 -0.00000000000E+00 -0.74505805969E-08  0.93827000000E+00  0.93827000000E+00 0. -1.
     999902    2    1    2    0    0  0.21816048458E-01  0.14409946676E-01  0.23080950321E-02  0.10176828318E+01  0.10173443038E+01 0.  0.
     999903    2    3    3    0    0  0.76538625604E-01 -0.94839514708E-01 -0.35163187118E-01  0.12845052123E+00  0.20258132081E-01 0.  0.
         14    1    1    2    0    0 -0.21816048458E-01 -0.14409946676E-01 -0.23080950321E-02  0.26247168156E-01  0.00000000000E+00 0.  1.
     999901    1    3    3    0    0 -0.54722577146E-01  0.10924946138E+00  0.37471282150E-01  0.88923231062E+00  0.88000000000E+00 0.  1.
        -11    1    4    4    0    0  0.54543519757E-01 -0.55858913650E-01 -0.28913780202E-01  0.83255519866E-01  0.51100000000E-03 0.  1.
         11    1    4    4    0    0  0.21995105847E-01 -0.38980601057E-01 -0.62494069158E-02  0.45195001359E-01  0.51100000000E-03 0. -1.
</event>
<event>
 8    1  0.1196210E+005  0.1043930E+01  0.7957747E-01            NaN
         13   -1    0    0    0    0  0.00000000000E+00  0.00000000000E+00  0.74505805969E-08  0.10566000000E+00  0.10566000000E+00 0.  1.
     999900   -1    0    0    0    0 -0.00000000000E+00 -0.00000000000E+00 -0.74505805969E-08  0.93827000000E+00  0.93827000000E+00 0.  1.
     999902    2    1    2    0    0 -0.19388316387E-01 -0.73418434443E-02 -0.10427966270E-01  0.10207232777E+01  0.10204594346E+01 0.  0.
     999903    2    3    3    0    0 -0.45603086188E-01  0.48643860402E-02 -0.12321710087E+00  0.13305352210E+00  0.20432378109E-01 0.  0.
         14    1    1    2    0    0  0.19388316387E-01  0.73418434443E-02  0.10427966270E-01  0.23206722259E-01  0.00000000000E+00 0.  1.
     999901    1    3    3    0    0  0.26214769801E-01 -0.12206229484E-01  0.11278913460E+00  0.88766975564E+00  0.88000000000E+00 0. -1.
        -11    1    4    4    0    0 -0.23371920638E-01 -0.68175260879E-02 -0.49322437744E-01  0.55006266209E-01  0.51100000000E-03 0. -1.
         11    1    4    4    0    0 -0.22231165550E-01  0.11681912128E-01 -0.73894663127E-01  0.78047255892E-01  0.51100000000E-03 0.  1.
</event>
<event>
 8    1  0.1196210E+005  0.1043930E+01  0.7957747E-01            NaN
         13   -1    0    0    0    0  0.00000000000E+00  0.00000000000E+00  0.74505805969E-08  0.10566000000E+00  0.10566000000E+00 0.  1.
     999900   -1    0    0    0    0 -0.00000000000E+00 -0.00000000000E+00 -0.74505805969E-08  0.93827000000E+00  0.93827000000E+00 0.  1.
     999902    2    1    2    0    0  0.66668205217E-02 -0.18948673162E-01  0.12951529290E-01  0.10200293552E+01  0.10197493048E+01 0.  0.
     999903    2    3    3    0    0  0.98256779930E-01  0.79841123154E-01  0.18877241382E-01  0.12975790302E+00  0.21254726653E-01 0.  0.
         14    1    1    2    0    0 -0.66668205217E-02  0.18948673162E-01 -0.12951529290E-01  0.23900644791E-01  0.00000000000E+00 0. -1.
     999901    1    3    3    0    0 -0.91589959409E-01 -0.98789796315E-01 -0.59257120916E-02  0.89027145219E+00  0.88000000000E+00 0.  1.
        -11    1    4    4    0    0  0.70578968549E-01  0.49695507583E-01  0.47165724478E-02  0.86449646916E-01  0.51100000000E-03 0. -1.
         11    1    4    4    0    0  0.27677811382E-01  0.30145615571E-01  0.14160668934E-01  0.43308256103E-01  0.51100000000E-03 0.  1.
</event>
<event>
 8    1  0.1196210E+005  0.1043930E+01  0.7957747E-01            NaN
         13   -1    0    0    0    0  0.00000000000E+00  0.00000000000E+00  0.74505805969E-08  0.10566000000E+00  0.10566000000E+00 0.  1.
     999900   -1    0    0    0    0 -0.00000000000E+00 -0.00000000000E+00 -0.74505805969E-08  0.93827000000E+00  0.93827000000E+00 0. -1.
     999902    2    1    2    0    0 -0.72563132603E-02  0.15851456099E-01 -0.50681990009E-02  0.10257748524E+01  0.10256141762E+01 0.  0.
     999903    2    3    3    0    0  0.10972674023E+00  0.75003531658E-01 -0.20981911496E-01  0.13592247753E+00  0.19214369785E-01 0.  0.
         14    1    1    2    0    0  0.72563132603E-02 -0.15851456099E-01  0.50681990009E-02  0.18155147581E-01  0.00000000000E+00 0.  1.
     999901    1    3    3    0    0 -0.11698305349E+00 -0.59152075559E-01  0.15913712495E-01  0.88985237489E+00  0.88000000000E+00 0.  1.
        -11    1    4    4    0    0  0.35505714239E-01  0.19080042102E-01  0.13908002794E-02  0.40334838498E-01  0.51100000000E-03 0. -1.
         11    1    4    4    0    0  0.74221025988E-01  0.55923489556E-01 -0.22372711775E-01  0.95587639034E-01  0.51100000000E-03 0.  1.
</event>
<event>
 8    1  0.1196210E+005  0.1043930E+01  0.7957747E-01            NaN
         13   -1    0    0    0    0  0.00000000000E+00  0.00000000000E+00  0.74505805969E-08  0.10566000000E+00  0.10566000000E+00 0.  1.
     999900   -1    0    0    0    0 -0.00000000000E+00 -0.00000000000E+00 -0.74505805969E-08  0.93827000000E+00  0.93827000000E+00 0.  1.
     999902    2    1    2    0    0 -0.39137908038E-02  0.79435912540E-02  0.22152664597E-01  0.10200729476E+01  0.10197939299E+01 0.  0.
     999903    2    3    3    0    0  0.94538822990E-01  0.93407550164E-02 -0.83860637723E-01  0.12825811845E+00  0.19816650364E-01 0.  0.
         14    1    1    2    0    0  0.39137908038E-02 -0.79435912540E-02 -0.22152664597E-01  0.23857052400E-01  0.00000000000E+00 0. -1.
     999901    1    3    3    0    0 -0.98452613793E-01 -0.13971637624E-02  0.10601330232E+00  0.89181482915E+00  0.88000000000E+00 0. -1.
        -11    1    4    4    0    0  0.76621844167E-01  0.34218420040E-02 -0.75460266885E-01  0.10759706783E+00  0.51100000000E-03 0.  1.
         11    1    4    4    0    0  0.17916978823E-01  0.59189130124E-02 -0.84003708388E-02  0.20661050618E-01  0.51100000000E-03 0. -1.
</event>
<event>
 8    1  0.1196210E+005  0.1043930E+01  0.7957747E-01            NaN
         13   -1    0    0    0    0  0.00000000000E+00  0.00000000000E+00  0.74505805969E-08  0.10566000000E+00  0.10566000000E+00 0. -1.
     999900   -1    0    0    0    0 -0.00000000000E+00 -0.00000000000E+00 -0.74505805969E-08  0.93827000000E+00  0.93827000000E+00 0. -1.
     999902    2    1    2    0    0  0.19448386750E-01  0.26320354216E-02 -0.12628286854E-01  0.10205924554E+01  0.10203255946E+01 0.  0.
     999903    2    3    3    0    0  0.19839393088E-02  0.12966161049E+00 -0.25104172490E-03  0.13121361823E+00  0.20022021324E-01 0.  0.
         14    1    1    2    0    0 -0.19448386750E-01 -0.26320354216E-02  0.12628286854E-01  0.23337544569E-01  0.00000000000E+00 0. -1.
     999901    1    3    3    0    0  0.17464447441E-01 -0.12702957506E+00 -0.12377245129E-01  0.88937883720E+00  0.88000000000E+00 0. -1.
        -11    1    4    4    0    0  0.71815297187E-03  0.10859092560E+00  0.71742166880E-02  0.10883122425E+00  0.51100000000E-03 0.  1.
         11    1    4    4    0    0  0.12657863369E-02  0.21070684888E-01 -0.74252584129E-02  0.22382393978E-01  0.51100000000E-03 0. -1.
</event>
<event>
 8    1  0.1196210E+005  0.1043930E+01  0.7957747E-01            NaN
         13   -1    0    0    0    0  0.00000000000E+00  0.00000000000E+00  0.74505805969E-08  0.10566000000E+00  0.10566000000E+00 0. -1.
     999900   -1    0    0    0    0 -0.00000000000E+00 -0.00000000000E+00 -0.74505805969E-08  0.93827000000E+00  0.93827000000E+00 0.  1.
     999902    2    1    2    0    0 -0.16342196724E-03  0.76243993649E-02 -0.27426325312E-01  0.10154631510E+01  0.10150640618E+01 0.  0.
     999903    2    3    3    0    0  0.23102513354E-01  0.90849080206E-01  0.79523058507E-01  0.12478598055E+00  0.21455596231E-01 0.  0.
         14    1    1    2    0    0  0.16342196724E-03 -0.76243993649E-02  0.27426325312E-01  0.28466849009E-01  0.00000000000E+00 0. -1.
     999901    1    3    3    0    0 -0.23265935321E-01 -0.83224680841E-01 -0.10694938382E+00  0.89067717044E+00  0.88000000000E+00 0.  1.
        -11    1    4    4    0    0  0.19208759198E-01  0.46900815435E-01  0.52855098880E-01  0.73229676477E-01  0.51100000000E-03 0. -1.
         11    1    4    4    0    0  0.38937541558E-02  0.43948264771E-01  0.26667959627E-01  0.51556304071E-01  0.51100000000E-03 0.  1.
</event>
<event>
 8    1  0.1196210E+005  0.1043930E+01  0.7957747E-01            NaN
         13   -1    0    0    0    0  0.00000000000E+00  0.00000000000E+00  0.74505805969E-08  0.10566000000E+00  0.10566000000E+00 0.  1.
     999900   -1    0    0    0    0 -0.00000000000E+00 -0.00000000000E+00 -0.74505805969E-08  0.93827000000E+00  0.93827000000E+00 0. -1.
     999902    2    1    2    0    0  0.49192195194E-02  0.21370393352E-01 -0.49123923570E-02  0.10214572603E+01  0.10212100227E+01 0.  0.
     999903    2    3    3    0    0  0.11029429044E+00  0.70927158681E-01 -0.11671467010E-01  0.13376054198E+00  0.23667849597E-01 0.  0.
         14    1    1    2    0    0 -0.49192195194E-02 -0.21370393352E-01  0.49123923570E-02  0.22472739739E-01  0.00000000000E+00 0. -1.
     999901    1    3    3    0    0 -0.10537507092E+00 -0.49556765329E-01  0.67590746534E-02  0.88769671828E+00  0.88000000000E+00 0.  1.
        -11    1    4    4    0    0  0.79188586725E-01  0.43868952397E-01  0.12959674635E-02  0.90538709426E-01  0.51100000000E-03 0. -1.
         11    1    4    4    0    0  0.31105703719E-01  0.27058206284E-01 -0.12967434474E-01  0.43221832551E-01  0.51100000000E-03 0.  1.
</event>
<event>
 7    1  0.1196210E+005  0.1043930E+01  0.7957747E-01            NaN
         13   -1    0    0    0    0  0.00000000000E+00  0.00000000000E+00  0.74505805969E-08  0.10566000000E+00  0.10566000000E+00 0. -1.
     999900   -1    0    0    0    0 -0.00000000000E+00 -0.00000000000E+00 -0.74505805969E-08  0.93827000000E+00  0.93827000000E+00 0. -1.
     999903    2    1    2    0    0  0.34799595323E-02 -0.65406437877E-01 -0.90236188441E-01  0.11323987196E+00  0.19763265491E-01 0.  0.
         14    1    1    2    0    0  0.25426224805E-01  0.35345971153E-01 -0.79051134504E-02  0.44252925364E-01  0.00000000000E+00 0. -1.
     999901    1    1    2    0    0 -0.28906184337E-01  0.30060466724E-01  0.98141301892E-01  0.88643720268E+00  0.88000000000E+00 0.  1.
        -11    1    3    3    0    0  0.81371097322E-02 -0.28707257224E-01 -0.28491990269E-01  0.41259832799E-01  0.51100000000E-03 0. -1.
         11    1    3    3    0    0 -0.46571501999E-02 -0.36699180653E-01 -0.61744198172E-01  0.71980039160E-01  0.51100000000E-03 0.  1.
</event>
<event>
 8    1  0.1196210E+005  0.1043930E+01  0.7957747E-01            NaN
         13   -1    0    0    0    0  0.00000000000E+00  0.00000000000E+00  0.74505805969E-08  0.10566000000E+00  0.10566000000E+00 0. -1.
     999900   -1    0    0    0    0 -0.00000000000E+00 -0.00000000000E+00 -0.74505805969E-08  0.93827000000E+00  0.93827000000E+00 0.  1.
     999902    2    1    2    0    0  0.11543135625E-01  0.15794192037E-01  0.14057246118E-01  0.10198404452E+01  0.10195558970E+01 0.  0.
     999903    2    3    3    0    0  0.93148462100E-01  0.88390075599E-01 -0.24579940078E-01  0.13224683111E+00  0.19889932812E-01 0.  0.
         14    1    1    2    0    0 -0.11543135625E-01 -0.15794192037E-01 -0.14057246118E-01  0.24089554802E-01  0.00000000000E+00 0.  1.
     999901    1    3    3    0    0 -0.81605326475E-01 -0.72595883562E-01  0.38637186196E-01  0.88759361409E+00  0.88000000000E+00 0. -1.
        -11    1    4    4    0    0  0.68417378905E-01  0.75143065354E-01 -0.15806445548E-01  0.10284708479E+00  0.51100000000E-03 0. -1.
         11    1    4    4    0    0  0.24731083195E-01  0.13247010245E-01 -0.87734945293E-02  0.29399746320E-01  0.51100000000E-03 0.  1.
</event>
<event>
 8    1  0.1196210E+005  0.1043930E+01  0.7957747E-01            NaN
         13   -1    0    0    0    0  0.00000000000E+00  0.00000000000E+00  0.74505805969E-08  0.10566000000E+00  0.10566000000E+00 0. -1.
     999900   -1    0    0    0    0 -0.00000000000E+00 -0.00000000000E+00 -0.74505805969E-08  0.93827000000E+00  0.93827000000E+00 0.  1.
     999902    2    1    2    0    0  0.43332476734E-02 -0.67905082834E-03  0.23850345872E-01  0.10196796981E+01  0.10193912936E+01 0.  0.
     999903    2    3    3    0    0 -0.12972225382E-01  0.35645307957E-01  0.12573975848E+00  0.13288750661E+00  0.20241935155E-01 0.  0.
         14    1    1    2    0    0 -0.43332476734E-02  0.67905082834E-03 -0.23850345872E-01  0.24250301928E-01  0.00000000000E+00 0.  1.
     999901    1    3    3    0    0  0.17305473055E-01 -0.36324358785E-01 -0.10188941261E+00  0.88679219146E+00  0.88000000000E+00 0.  1.
        -11    1    4    4    0    0 -0.12777742201E-01  0.31342300695E-01  0.79000054012E-01  0.85946961340E-01  0.51100000000E-03 0. -1.
         11    1    4    4    0    0 -0.19448318005E-03  0.43030072620E-02  0.46739704470E-01  0.46940545268E-01  0.51100000000E-03 0.  1.
</event>
<event>
 8    1  0.1196210E+005  0.1043930E+01  0.7957747E-01            NaN
         13   -1    0    0    0    0  0.00000000000E+00  0.00000000000E+00  0.74505805969E-08  0.10566000000E+00  0.10566000000E+00 0.  1.
     999900   -1    0    0    0    0 -0.00000000000E+00 -0.00000000000E+00 -0.74505805969E-08  0.93827000000E+00  0.93827000000E+00 0. -1.
     999902    2    1    2    0    0  0.86524338855E-02  0.63328067422E-02 -0.21523632711E-01  0.10198834656E+01  0.10195999448E+01 0.  0.
     999903    2    3    3    0    0  0.12605431777E+00 -0.24871600106E-01  0.14426528771E-01  0.13081129107E+00  0.19879175513E-01 0.  0.
         14    1    1    2    0    0 -0.86524338855E-02 -0.63328067422E-02  0.21523632711E-01  0.24046534438E-01  0.00000000000E+00 0.  1.
     999901    1    3    3    0    0 -0.11740188388E+00  0.31204406848E-01 -0.35950161483E-01  0.88907217449E+00  0.88000000000E+00 0. -1.
        -11    1    4    4    0    0  0.47077367708E-01  0.23974536790E-03  0.33504744156E-02  0.47199818092E-01  0.51100000000E-03 0.  1.
         11    1    4    4    0    0  0.78976950061E-01 -0.25111345474E-01  0.11076054356E-01  0.83611472977E-01  0.51100000000E-03 0. -1.
</event>
<event>
 8    1  0.1196210E+005  0.1043930E+01  0.7957747E-01            NaN
         13   -1    0    0    0    0  0.00000000000E+00  0.00000000000E+00  0.74505805969E-08  0.10566000000E+00  0.10566000000E+00 0. -1.
     999900   -1    0    0    0    0 -0.00000000000E+00 -0.00000000000E+00 -0.74505805969E-08  0.93827000000E+00  0.93827000000E+00 0.  1.
     999902    2    1    2    0    0  0.14375748930E-01  0.86253638450E-02  0.16664516172E-01  0.10202917861E+01  0.10200179232E+01 0.  0.
     999903    2    3    3    0    0  0.10145751664E+00 -0.32003866889E-01  0.77298824591E-01  0.13298660293E+00  0.19810429015E-01 0.  0.
         14    1    1    2    0    0 -0.14375748930E-01 -0.86253638450E-02 -0.16664516172E-01  0.23638213934E-01  0.00000000000E+00 0.  1.
     999901    1    3    3    0    0 -0.87081767711E-01  0.40629230734E-01 -0.60634308419E-01  0.88730518313E+00  0.88000000000E+00 0. -1.
        -11    1    4    4    0    0  0.18386751624E-01 -0.47599205585E-02  0.23942359422E-01  0.30565130045E-01  0.51100000000E-03 0.  1.
         11    1    4    4    0    0  0.83070765017E-01 -0.27243946330E-01  0.53356465169E-01  0.10242147289E+00  0.51100000000E-03 0. -1.
</event>
<event>
 8    1  0.1196210E+005  0.1043930E+01  0.7957747E-01            NaN
         13   -1    0    0    0    0  0.00000000000E+00  0.00000000000E+00  0.74505805969E-08  0.10566000000E+00  0.10566000000E+00 0. -1.
     999900   -1    0    0    0    0 -0.00000000000E+00 -0.00000000000E+00 -0.74505805969E-08  0.93827000000E+00  0.93827000000E+00 0.  1.
     999902    2    1    2    0    0  0.11972758801E-01 -0.58052500835E-02 -0.19663737828E-01  0.10201874124E+01  0.10199110971E+01 0.  0.
     999903    2    3    3    0    0 -0.37805970624E-01  0.11481415302E+00 -0.43923981370E-01  0.13023487334E+00  0.20499388945E-01 0.  0.
         14    1    1    2    0    0 -0.11972758801E-01  0.58052500835E-02  0.19663737828E-01  0.23742587626E-01  0.00000000000E+00 0. -1.
     999901    1    3    3    0    0  0.49778729425E-01 -0.12061940310E+00  0.24260243542E-01  0.88995253903E+00  0.88000000000E+00 0.  1.
        -11    1    4    4    0    0 -0.13664251539E-01  0.51517418687E-01 -0.29679295705E-01  0.61007195583E-01  0.51100000000E-03 0. -1.
         11    1    4    4    0    0 -0.24141719085E-01  0.63296734333E-01 -0.14244685664E-01  0.69227677761E-01  0.51100000000E-03 0.  1.
</event>
<event>
 8    1  0.1196210E+005  0.1043930E+01  0.7957747E-01            NaN
         13   -1    0    0    0    0  0.00000000000E+00  0.00000000000E+00  0.74505805969E-08  0.10566000000E+00  0.10566000000E+00 0.  1.
     999900   -1    0    0    0    0 -0.00000000000E+00 -0.00000000000E+00 -0.74505805969E-08  0.93827000000E+00  0.93827000000E+00 0.  1.
     999902    2    1    2    0    0  0.13640756430E-01 -0.17513048886E-01  0.66038708176E-02  0.10207699433E+01  0.10205071724E+01 0.  0.
     999903    2    3    3    0    0 -0.19288627194E-01  0.10032708615E+00 -0.76080266263E-01  0.12846545027E+00  0.16661021722E-01 0.  0.
         14    1    1    2    0    0 -0.13640756430E-01  0.17513048886E-01 -0.66038708176E-02  0.23160056715E-01  0.00000000000E+00 0. -1.
     999901    1    3    3    0    0  0.32929383625E-01 -0.11784013503E+00  0.82684137081E-01  0.89230449302E+00  0.88000000000E+00 0.  1.
        -11    1    4    4    0    0 -0.17375047760E-01  0.65427574629E-01 -0.42128614059E-01  0.79735444127E-01  0.51100000000E-03 0.  1.
         11    1    4    4    0    0 -0.19135794345E-02  0.34899511517E-01 -0.33951652204E-01  0.48730006143E-01  0.51100000000E-03 0. -1.
</event>
<event>
 8    1  0.1196210E+005  0.1043930E+01  0.7957747E-01            NaN
         13   -1    0    0    0    0  0.00000000000E+00  0.00000000000E+00  0.74505805969E-08  0.10566000000E+00  0.10566000000E+00 0. -1.
     999900   -1    0    0    0    0 -0.00000000000E+00 -0.00000000000E+00 -0.74505805969E-08  0.93827000000E+00  0.93827000000E+00 0. -1.
     999902    2    1    2    0    0  0.22664295256E-01  0.75114321432E-02 -0.16848998701E-02  0.10199940275E+01  0.10197131388E+01 0.  0.
     999903    2    3    3    0    0  0.79651262743E-01 -0.99655237495E-01  0.24427840939E-01  0.13127917740E+00  0.19026638924E-01 0.  0.
         14    1    1    2    0    0 -0.22664295256E-01 -0.75114321432E-02  0.16848998701E-02  0.23935972507E-01  0.00000000000E+00 0. -1.
     999901    1    3    3    0    0 -0.56986967487E-01  0.10716666964E+00 -0.26112740809E-01  0.88871485009E+00  0.88000000000E+00 0.  1.
        -11    1    4    4    0    0  0.26664099333E-01 -0.48078227767E-01  0.12404890450E-01  0.56361623526E-01  0.51100000000E-03 0.  1.
         11    1    4    4    0    0  0.52987163410E-01 -0.51577009728E-01  0.12022950490E-01  0.74917553872E-01  0.51100000000E-03 0. -1.
</event>
<event>
 8    1  0.1196210E+005  0.1043930E+01  0.7957747E-01            NaN
         13   -1    0    0    0    0  0.00000000000E+00  0.00000000000E+00  0.74505805969E-08  0.10566000000E+00  0.10566000000E+00 0.  1.
     999900   -1    0    0    0    0 -0.00000000000E+00 -0.00000000000E+00 -0.74505805969E-08  0.93827000000E+00  0.93827000000E+00 0.  1.
     999902    2    1    2    0    0 -0.11048601753E-01  0.13442255583E-01 -0.15801636551E-01  0.10204255844E+01  0.10201548489E+01 0.  0.
     999903    2    3    3    0    0  0.18509574794E-01  0.11269981457E+00  0.59367106061E-01  0.13116966583E+00  0.25242333262E-01 0.  0.
         14    1    1    2    0    0  0.11048601753E-01 -0.13442255583E-01  0.15801636551E-01  0.23504415618E-01  0.00000000000E+00 0.  1.
     999901    1    3    3    0    0 -0.29558176546E-01 -0.99257558987E-01 -0.75168742611E-01  0.88925591855E+00  0.88000000000E+00 0.  1.
        -11    1    4    4    0    0  0.52517924015E-02  0.87999318316E-01  0.38394179186E-01  0.96155267479E-01  0.51100000000E-03 0. -1.
         11    1    4    4    0    0  0.13257782392E-01  0.24700496254E-01  0.20972926874E-01  0.35014398350E-01  0.51100000000E-03 0.  1.
</event>
<event>
 8    1  0.1196210E+005  0.1043930E+01  0.7957747E-01            NaN
         13   -1    0    0    0    0  0.00000000000E+00  0.00000000000E+00  0.74505805969E-08  0.10566000000E+00  0.10566000000E+00 0.  1.
     999900   -1    0    0    0    0 -0.00000000000E+00 -0.00000000000E+00 -0.74505805969E-08  0.93827000000E+00  0.93827000000E+00 0.  1.
     999902    2    1    2    0    0 -0.96875591327E-02  0.64868412277E-02 -0.20920401008E-01  0.10199802382E+01  0.10196990219E+01 0.  0.
     999903    2    3    3    0    0  0.68893884974E-01  0.73790734075E-01 -0.82616184353E-01  0.13177349031E+00  0.18638106360E-01 0.  0.
         14    1    1    2    0    0  0.96875591327E-02 -0.64868412277E-02  0.20920401008E-01  0.23949761782E-01  0.00000000000E+00 0.  1.
     999901    1    3    3    0    0 -0.78581444107E-01 -0.67303892848E-01  0.61695783345E-01  0.88820674791E+00  0.88000000000E+00 0. -1.
        -11    1    4    4    0    0  0.25444475749E-01  0.15865225666E-01 -0.28524520831E-01  0.41388840781E-01  0.51100000000E-03 0.  1.
         11    1    4    4    0    0  0.43449409225E-01  0.57925508410E-01 -0.54091663522E-01  0.90384649527E-01  0.51100000000E-03 0. -1.
</event>
<event>
 8    1  0.1196210E+005  0.1043930E+01  0.7957747E-01            NaN
         13   -1    0    0    0    0  0.00000000000E+00  0.00000000000E+00  0.74505805969E-08  0.10566000000E+00  0.10566000000E+00 0. -1.
     999900   -1    0    0    0    0 -0.00000000000E+00 -0.00000000000E+00 -0.74505805969E-08  0.93827000000E+00  0.93827000000E+00 0. -1.
     999902    2    1    2    0    0  0.20728824268E-01 -0.47405121166E-02  0.71921935231E-02  0.10214826336E+01  0.10212359602E+01 0.  0.
     999903    2    3    3    0    0 -0.37664329005E-01  0.10640611167E+00 -0.61478981734E-01  0.12992272948E+00  0.18957535673E-01 0.  0.
         14    1    1    2    0    0 -0.20728824268E-01  0.47405121166E-02 -0.71921935231E-02  0.22447366401E-01  0.00000000000E+00 0. -1.
     999901    1    3    3    0    0  0.58393153273E-01 -0.11114662379E+00  0.68671175257E-01  0.89155990412E+00  0.88000000000E+00 0. -1.
        -11    1    4    4    0    0 -0.30037869391E-02  0.33489769240E-01 -0.15729802336E-01  0.37125128717E-01  0.51100000000E-03 0.  1.
         11    1    4    4    0    0 -0.34660542066E-01  0.72916342431E-01 -0.45749179398E-01  0.92797600758E-01  0.51100000000E-03 0. -1.
</event>
<event>
 8    1  0.1196210E+005  0.1043930E+01  0.7957747E-01            NaN
         13   -1    0    0    0    0  0.00000000000E+00  0.00000000000E+00  0.74505805969E-08  0.10566000000E+00  0.10566000000E+00 0. -1.
     999900   -1    0    0    0    0 -0.00000000000E+00 -0.00000000000E+00 -0.74505805969E-08  0.93827000000E+00  0.93827000000E+00 0.  1.
     999902    2    1    2    0    0 -0.24155266682E-02 -0.21819334124E-01 -0.10512780969E-01  0.10195899779E+01  0.10192994096E+01 0.  0.
     999903    2    3    3    0    0 -0.43572781587E-01 -0.46926648568E-02 -0.12222378493E+00  0.13140835752E+00  0.20221138055E-01 0.  0.
         14    1    1    2    0    0  0.24155266682E-02  0.21819334124E-01  0.10512780969E-01  0.24340022071E-01  0.00000000000E+00 0. -1.
     999901    1    3    3    0    0  0.41157254919E-01 -0.17126669267E-01  0.11171100396E+00  0.88818162041E+00  0.88000000000E+00 0. -1.
        -11    1    4    4    0    0 -0.16238278851E-01  0.70832800475E-02 -0.57455385967E-01  0.60126841376E-01  0.51100000000E-03 0.  1.
         11    1    4    4    0    0 -0.27334502736E-01 -0.11775944904E-01 -0.64768398962E-01  0.71281516141E-01  0.51100000000E-03 0. -1.
</event>
<event>
 8    1  0.1196210E+005  0.1043930E+01  0.7957747E-01            NaN
         13   -1    0    0    0    0  0.00000000000E+00  0.00000000000E+00  0.74505805969E-08  0.10566000000E+00  0.10566000000E+00 0.  1.
     999900   -1    0    0    0    0 -0.00000000000E+00 -0.00000000000E+00 -0.74505805969E-08  0.93827000000E+00  0.93827000000E+00 0. -1.
     999902    2    1    2    0    0 -0.20957637459E-02  0.11595741550E-02  0.23696443032E-01  0.10201128161E+01  0.10198347412E+01 0.  0.
     999903    2    3    3    0    0 -0.61160637731E-01 -0.96046085405E-01  0.63424956087E-01  0.13190340701E+00  0.20256100264E-01 0.  0.
         14    1    1    2    0    0  0.20957637459E-02 -0.11595741550E-02 -0.23696443032E-01  0.23817183928E-01  0.00000000000E+00 0. -1.
     999901    1    3    3    0    0  0.59064873985E-01  0.97205659560E-01 -0.39728513055E-01  0.88820940906E+00  0.88000000000E+00 0. -1.
        -11    1    4    4    0    0 -0.45843051166E-02 -0.21880825809E-01  0.11601046314E-01  0.25191899255E-01  0.51100000000E-03 0.  1.
         11    1    4    4    0    0 -0.56576332614E-01 -0.74165259597E-01  0.51823909773E-01  0.10671150776E+00  0.51100000000E-03 0. -1.
</event>
<event>
 8    1  0.1196210E+005  0.1043930E+01  0.7957747E-01            NaN
         13   -1    0    0    0    0  0.00000000000E+00  0.00000000000E+00  0.74505805969E-08  0.10566000000E+00  0.10566000000E+00 0.  1.
     999900   -1    0    0    0    0 -0.00000000000E+00 -0.00000000000E+00 -0.74505805969E-08  0.93827000000E+00  0.93827000000E+00 0.  1.
     999902    2    1    2    0    0 -0.12799814343E-04  0.17687476244E-01 -0.14820059819E-01  0.10208544469E+01  0.10205936118E+01 0.  0.
     999903    2    3    3    0    0  0.40662159506E-01  0.12487296791E+00 -0.14907647073E-01  0.13341814514E+00  0.18206981668E-01 0.  0.
         14    1    1    2    0    0  0.12799814343E-04 -0.17687476244E-01  0.14820059819E-01  0.23075553141E-01  0.00000000000E+00 0.  1.
     999901    1    3    3    0    0 -0.40674959320E-01 -0.10718549166E+00  0.87587254036E-04  0.88743630172E+00  0.88000000000E+00 0. -1.
        -11    1    4    4    0    0  0.28659931375E-01  0.83256685490E-01 -0.14666646906E-02  0.88065200684E-01  0.51100000000E-03 0. -1.
         11    1    4    4    0    0  0.12002228131E-01  0.41616282417E-01 -0.13440982382E-01  0.45352944455E-01  0.51100000000E-03 0.  1.
</event>
<event>
 8    1  0.1196210E+005  0.1043930E+01  0.7957747E-01            NaN
         13   -1    0    0    0    0  0.00000000000E+00  0.00000000000E+00  0.74505805969E-08  0.10566000000E+00  0.10566000000E+00 0.  1.
     999900   -1    0    0    0    0 -0.00000000000E+00 -0.00000000000E+00 -0.74505805969E-08  0.93827000000E+00  0.93827000000E+00 0. -1.
     999902    2    1    2    0    0 -0.16361576221E-02 -0.57224817927E-02 -0.22832528887E-01  0.10203344880E+01  0.10200616252E+01 0.  0.
     999903    2    3    3    0    0 -0.31911435193E-01  0.10690072393E+00  0.61161355435E-01  0.12867561183E+00  0.19250901525E-01 0.  0.
         14    1    1    2    0    0  0.16361576221E-02  0.57224817927E-02  0.22832528887E-01  0.23595511968E-01  0.00000000000E+00 0.  1.
     999901    1    3    3    0    0  0.30275277570E-01 -0.11262320572E+00 -0.83993884322E-01  0.89165887620E+00  0.88000000000E+00 0. -1.
        -11    1    4    4    0    0  0.19170329615E-02  0.82688125882E-02  0.18081768761E-02  0.86936126903E-02  0.51100000000E-03 0. -1.
         11    1    4    4    0    0 -0.33828468154E-01  0.98631911342E-01  0.59353178559E-01  0.11998199914E+00  0.51100000000E-03 0.  1.
</event>
<event>
 8    1  0.1196210E+005  0.1043930E+01  0.7957747E-01            NaN
         13   -1    0    0    0    0  0.00000000000E+00  0.00000000000E+00  0.74505805969E-08  0.10566000000E+00  0.10566000000E+00 0. -1.
     999900   -1    0    0    0    0 -0.00000000000E+00 -0.00000000000E+00 -0.74505805969E-08  0.93827000000E+00  0.93827000000E+00 0. -1.
     999902    2    1    2    0    0  0.14423585710E-02  0.21491444069E-01 -0.28245435910E-03  0.10223883578E+01  0.10221613923E+01 0.  0.
     999903    2    3    3    0    0  0.11570413919E+00  0.46442138964E-01  0.43404183017E-01  0.13357633386E+00  0.20356663946E-01 0.  0.
         14    1    1    2    0    0 -0.14423585710E-02 -0.21491444069E-01  0.28245435910E-03  0.21541642158E-01  0.00000000000E+00 0.  1.
     999901    1    3    3    0    0 -0.11426178062E+00 -0.24950694895E-01 -0.43686637376E-01  0.88881202398E+00  0.88000000000E+00 0. -1.
        -11    1    4    4    0    0  0.43814985638E-01  0.26765367532E-01  0.23249273337E-01  0.56364241300E-01  0.51100000000E-03 0. -1.
         11    1    4    4    0    0  0.71889153553E-01  0.19676771432E-01  0.20154909679E-01  0.77212092561E-01  0.51100000000E-03 0.  1.
</event>
<event>
 8    1  0.1196210E+005  0.1043930E+01  0.7957747E-01            NaN
         13   -1    0    0    0    0  0.00000000000E+00  0.00000000000E+00  0.74505805969E-08  0.10566000000E+00  0.10566000000E+00 0.  1.
     999900   -1    0    0    0    0 -0.00000000000E+00 -0.00000000000E+00 -0.74505805969E-08  0.93827000000E+00  0.93827000000E+00 0.  1.
     999902    2    1    2    0    0 -0.10369334146E-01  0.86123900265E-02 -0.18619642994E-01  0.10209433200E+01  0.10206845130E+01 0.  0.
     999903    2    3    3    0    0  0.97566187585E-01  0.73259880245E-01 -0.44644693032E-01  0.13161397826E+00  0.21045656153E-01 0.  0.
         14    1    1    2    0    0  0.10369334146E-01 -0.86123900265E-02  0.18619642994E-01  0.22986680009E-01  0.00000000000E+00 0.  1.
     999901    1    3    3    0    0 -0.10793552173E+00 -0.64647490218E-01  0.26025050038E-01  0.88932934174E+00  0.88000000000E+00 0.  1.
        -11    1    4    4    0    0  0.31767444688E-01  0.23782017399E-01 -0.25233421192E-01  0.47029156484E-01  0.51100000000E-03 0. -1.
         11    1    4    4    0    0  0.65798742897E-01  0.49477862845E-01 -0.19411271840E-01  0.84584821771E-01  0.51100000000E-03 0.  1.
</event>
<event>
 8    1  0.1196210E+005  0.1043930E+01  0.7957747E-01            NaN
         13   -1    0    0    0    0  0.00000000000E+00  0.00000000000E+00  0.74505805969E-08  0.10566000000E+00  0.10566000000E+00 0.  1.
     999900   -1    0    0    0    0 -0.00000000000E+00 -0.00000000000E+00 -0.74505805969E-08  0.93827000000E+00  0.93827000000E+00 0. -1.
     999902    2    1    2    0    0  0.11004211661E-02 -0.60661354173E-02  0.23460214095E-01  0.10196732366E+01  0.10193846766E+01 0.  0.
     999903    2    3    3    0    0 -0.45757924717E-01 -0.11295028959E+00  0.45485961532E-01  0.13169516223E+00  0.20569090046E-01 0.  0.
         14    1    1    2    0    0 -0.11004211661E-02  0.60661354173E-02 -0.23460214095E-01  0.24256763408E-01  0.00000000000E+00 0. -1.
     999901    1    3    3    0    0  0.46858345884E-01  0.10688415418E+00 -0.22025747437E-01  0.88797807436E+00  0.88000000000E+00 0. -1.
        -11    1    4    4    0    0 -0.39903296201E-01 -0.78909319955E-01  0.26681274740E-01  0.92363983057E-01  0.51100000000E-03 0.  1.
         11    1    4    4    0    0 -0.58546285169E-02 -0.34040969638E-01  0.18804686792E-01  0.39331179175E-01  0.51100000000E-03 0. -1.
</event>
<event>
 8    1  0.1196210E+005  0.1043930E+01  0.7957747E-01            NaN
         13   -1    0    0    0    0  0.00000000000E+00  0.00000000000E+00  0.74505805969E-08  0.10566000000E+00  0.10566000000E+00 0.  1.
     999900   -1    0    0    0    0 -0.00000000000E+00 -0.00000000000E+00 -0.74505805969E-08  0.93827000000E+00  0.93827000000E+00 0.  1.
     999902    2    1    2    0    0 -0.19134116627E-01  0.11766258716E-01  0.10370196870E-01  0.10191893402E+01  0.10188890082E+01 0.  0.
     999903    2    3    3    0    0  0.30467895366E-01 -0.68775989085E-01 -0.10043813532E+00  0.12721069711E+00  0.20888109340E-01 0.  0.
         14    1    1    2    0    0  0.19134116627E-01 -0.11766258716E-01 -0.10370196870E-01  0.24740659781E-01  0.00000000000E+00 0. -1.
     999901    1    3    3    0    0 -0.49602011993E-01  0.80542247802E-01  0.11080833219E+00  0.89197864311E+00  0.88000000000E+00 0. -1.
        -11    1    4    4    0    0  0.78419928769E-02 -0.42275614256E-01 -0.60191517056E-01  0.73972996827E-01  0.51100000000E-03 0.  1.
         11    1    4    4    0    0  0.22625902489E-01 -0.26500374829E-01 -0.40246618259E-01  0.53237700287E-01  0.51100000000E-03 0. -1.
</event>
<event>
 8    1  0.1196210E+005  0.1043930E+01  0.7957747E-01            NaN
         13   -1    0    0    0    0  0.00000000000E+00  0.00000000000E+00  0.74505805969E-08  0.10566000000E+00  0.10566000000E+00 0.  1.
     999900   -1    0    0    0    0 -0.00000000000E+00 -0.00000000000E+00 -0.74505805969E-08  0.93827000000E+00  0.93827000000E+00 0.  1.
     999902    2    1    2    0    0 -0.78733476668E-02  0.16594034235E-01 -0.13760614190E-01  0.10209799220E+01  0.10207219480E+01 0.  0.
     999903    2    3    3    0    0  0.10157789796E+00  0.36843531536E-01 -0.73921773948E-01  0.13193043947E+00  0.16300215509E-01 0.  0.
         14    1    1    2    0    0  0.78733476668E-02 -0.16594034235E-01  0.13760614190E-01  0.22950077964E-01  0.00000000000E+00 0.  1.
     999901    1    3    3    0    0 -0.10945124562E+00 -0.20249497300E-01  0.60161159758E-01  0.88904948257E+00  0.88000000000E+00 0. -1.
        -11    1    4    4    0    0  0.94219553490E-01  0.29188630997E-01 -0.66284262844E-01  0.11884092334E+00  0.51100000000E-03 0. -1.
         11    1    4    4    0    0  0.73583444659E-02  0.76549005383E-02 -0.76375111042E-02  0.13089516125E-01  0.51100000000E-03 0.  1.
</event>
<event>
 8    1  0.1196210E+005  0.1043930E+01  0.7957747E-01            NaN
         13   -1    0    0    0    0  0.00000000000E+00  0.00000000000E+00  0.74505805969E-08  0.10566000000E+00  0.10566000000E+00 0. -1.
     999900   -1    0    0    0    0 -0.00000000000E+00 -0.00000000000E+00 -0.74505805969E-08  0.93827000000E+00  0.93827000000E+00 0. -1.
     999902    2    1    2    0    0 -0.21910956664E-01  0.88427342482E-02  0.81980280892E-03  0.10202877487E+01  0.10200137911E+01 0.  0.
     999903    2    3    3    0    0 -0.11035279077E+00 -0.64640955034E-01  0.27442065659E-01  0.13240793953E+00  0.20557334076E-01 0.  0.
         14    1    1    2    0    0  0.21910956664E-01 -0.88427342482E-02 -0.81980280892E-03  0.23642251321E-01  0.00000000000E+00 0.  1.
     999901    1    3    3    0    0  0.88441834110E-01  0.73483689282E-01 -0.26622262850E-01  0.88787980915E+00  0.88000000000E+00 0.  1.
        -11    1    4    4    0    0 -0.92040366585E-01 -0.60908256453E-01  0.27365526269E-01  0.11371181968E+00  0.51100000000E-03 0.  1.
         11    1    4    4    0    0 -0.18312424189E-01 -0.37326985803E-02  0.76539390083E-04  0.18696119855E-01  0.51100000000E-03 0. -1.
</event>
<event>
 8    1  0.1196210E+005  0.1043930E+01  0.7957747E-01            NaN
         13   -1    0    0    0    0  0.00000000000E+00  0.00000000000E+00  0.74505805969E-08  0.10566000000E+00  0.10566000000E+00 0. -1.
     999900   -1    0    0    0    0 -0.00000000000E+00 -0.00000000000E+00 -0.74505805969E-08  0.93827000000E+00  0.93827000000E+00 0.  1.
     999902    2    1    2    0    0  0.13287095472E-01  0.17728273732E-01  0.93066106994E-02  0.10198997774E+01  0.10196166458E+01 0.  0.
     999903    2    3    3    0    0 -0.11831862883E+00  0.29186824843E-02 -0.45100859390E-01  0.12832837618E+00  0.20646258290E-01 0.  0.
         14    1    1    2    0    0 -0.13287095472E-01 -0.17728273732E-01 -0.93066106994E-02  0.24030222602E-01  0.00000000000E+00 0. -1.
     999901    1    3    3    0    0  0.13160572430E+00  0.14809591248E-01  0.54407470090E-01  0.89157140121E+00  0.88000000000E+00 0. -1.
        -11    1    4    4    0    0 -0.18666214051E-01 -0.69775100909E-02 -0.90597096616E-02  0.21896407336E-01  0.51100000000E-03 0.  1.
         11    1    4    4    0    0 -0.99652414775E-01  0.98961925753E-02 -0.36041149729E-01  0.10643196885E+00  0.51100000000E-03 0. -1.
</event>
<event>
 8    1  0.1196210E+005  0.1043930E+01  0.7957747E-01            NaN
         13   -1    0    0    0    0  0.00000000000E+00  0.00000000000E+00  0.74505805969E-08  0.10566000000E+00  0.10566000000E+00 0. -1.
     999900   -1    0    0    0    0 -0.00000000000E+00 -0.00000000000E+00 -0.74505805969E-08  0.93827000000E+00  0.93827000000E+00 0. -1.
     999902    2    1    2    0    0 -0.38823222808E-02 -0.22585286526E-01 -0.63844629703E-02  0.10201407385E+01  0.10198633229E+01 0.  0.
     999903    2    3    3    0    0  0.12479289074E+00  0.27497540125E-01 -0.53755202519E-03  0.12935468883E+00  0.20074019778E-01 0.  0.
         14    1    1    2    0    0  0.38823222808E-02  0.22585286526E-01  0.63844629703E-02  0.23789261468E-01  0.00000000000E+00 0.  1.
     999901    1    3    3    0    0 -0.12867521302E+00 -0.50082826652E-01 -0.58469109451E-02  0.89078604970E+00  0.88000000000E+00 0. -1.
        -11    1    4    4    0    0  0.40717943579E-01  0.18575421596E-03 -0.37590029815E-02  0.40894702082E-01  0.51100000000E-03 0. -1.
         11    1    4    4    0    0  0.84074947156E-01  0.27311785909E-01  0.32214509563E-02  0.88459986752E-01  0.51100000000E-03 0.  1.
</event>
<event>
 8    1  0.1196210E+005  0.1043930E+01  0.7957747E-01            NaN
         13   -1    0    0    0    0  0.00000000000E+00  0.00000000000E+00  0.74505805969E-08  0.10566000000E+00  0.10566000000E+00 0.  1.
     999900   -1    0    0    0    0 -0.00000000000E+00 -0.00000000000E+00 -0.74505805969E-08  0.93827000000E+00  0.93827000000E+00 0.  1.
     999902    2    1    2    0    0 -0.14449528223E-01  0.16838786079E-01  0.30331669393E-02  0.10215350523E+01  0.10212895424E+01 0.  0.
     999903    2    3    3    0    0  0.45506371936E-01 -0.85020460102E-01 -0.83846881653E-01  0.12939259792E+00  0.20318373726E-01 0.  0.
         14    1    1    2    0    0  0.14449528223E-01 -0.16838786079E-01 -0.30331669393E-02  0.22394947738E-01  0.00000000000E+00 0. -1.
     999901    1    3    3    0    0 -0.59955900159E-01  0.10185924618E+00  0.86880048592E-01  0.89214245434E+00  0.88000000000E+00 0. -1.
        -11    1    4    4    0    0  0.26851931767E-01 -0.68541526817E-01 -0.64221275531E-01  0.97691353199E-01  0.51100000000E-03 0.  1.
         11    1    4    4    0    0  0.18654440169E-01 -0.16478933286E-01 -0.19625606121E-01  0.31701244721E-01  0.51100000000E-03 0. -1.
</event>
<event>
 8    1  0.1196210E+005  0.1043930E+01  0.7957747E-01            NaN
         13   -1    0    0    0    0  0.00000000000E+00  0.00000000000E+00  0.74505805969E-08  0.10566000000E+00  0.10566000000E+00 0. -1.
     999900   -1    0    0    0    0 -0.00000000000E+00 -0.00000000000E+00 -0.74505805969E-08  0.93827000000E+00  0.93827000000E+00 0.  1.
     999902    2    1    2    0    0 -0.15824591197E-01  0.12960992373E-04 -0.18195515114E-01  0.10198158003E+01  0.10195306626E+01 0.  0.
     999903    2    3    3    0    0  0.86178911276E-01  0.26774020853E-01 -0.91971754885E-01  0.13045434268E+00  0.20393108762E-01 0.  0.
         14    1    1    2    0    0  0.15824591197E-01 -0.12960992373E-04  0.18195515114E-01  0.24114199651E-01  0.00000000000E+00 0. -1.
     999901    1    3    3    0    0 -0.10200350247E+00 -0.26761059860E-01  0.73776239771E-01  0.88936145767E+00  0.88000000000E+00 0. -1.
        -11    1    4    4    0    0  0.27066284559E-01  0.15984170673E-01 -0.22854257000E-01  0.38867153947E-01  0.51100000000E-03 0.  1.
         11    1    4    4    0    0  0.59112626717E-01  0.10789850179E-01 -0.69117497885E-01  0.91587188728E-01  0.51100000000E-03 0. -1.
</event>
<event>
 8    1  0.1196210E+005  0.1043930E+01  0.7957747E-01            NaN
         13   -1    0    0    0    0  0.00000000000E+00  0.00000000000E+00  0.74505805969E-08  0.10566000000E+00  0.10566000000E+00 0. -1.
     999900   -1    0    0    0    0 -0.00000000000E+00 -0.00000000000E+00 -0.74505805969E-08  0.93827000000E+00  0.93827000000E+00 0. -1.
     999902    2    1    2    0    0  0.86259116675E-02  0.22306637762E-01  0.23281677038E-02  0.10199005846E+01  0.10196174722E+01 0.  0.
     999903    2    3    3    0    0 -0.86705683597E-01  0.61351719930E-01 -0.73395267645E-01  0.13066120728E+00  0.20089217695E-01 0.  0.
         14    1    1    2    0    0 -0.86259116675E-02 -0.22306637762E-01 -0.23281677038E-02  0.24029415415E-01  0.00000000000E+00 0. -1.
     999901    1    3    3    0    0  0.95331595264E-01 -0.39045082168E-01  0.75723435349E-01  0.88923937731E+00  0.88000000000E+00 0.  1.
        -11    1    4    4    0    0 -0.32003151423E-01  0.17861903052E-01 -0.15055852595E-01  0.39625611667E-01  0.51100000000E-03 0.  1.
         11    1    4    4    0    0 -0.54702532174E-01  0.43489816877E-01 -0.58339415051E-01  0.91035595608E-01  0.51100000000E-03 0. -1.
</event>
<event>
 8    1  0.1196210E+005  0.1043930E+01  0.7957747E-01            NaN
         13   -1    0    0    0    0  0.00000000000E+00  0.00000000000E+00  0.74505805969E-08  0.10566000000E+00  0.10566000000E+00 0.  1.
     999900   -1    0    0    0    0 -0.00000000000E+00 -0.00000000000E+00 -0.74505805969E-08  0.93827000000E+00  0.93827000000E+00 0. -1.
     999902    2    1    2    0    0  0.36718749927E-02  0.18039560090E-01  0.14596063592E-01  0.10204363101E+01  0.10201658245E+01 0.  0.
     999903    2    3    3    0    0  0.87692054638E-01 -0.80612508552E-01  0.48567865656E-01  0.13029828450E+00  0.20749274364E-01 0.  0.
         14    1    1    2    0    0 -0.36718749927E-02 -0.18039560090E-01 -0.14596063592E-01  0.23493689931E-01  0.00000000000E+00 0. -1.
     999901    1    3    3    0    0 -0.84020179645E-01  0.98652068642E-01 -0.33971802064E-01  0.89013802557E+00  0.88000000000E+00 0. -1.
        -11    1    4    4    0    0  0.58029702951E-01 -0.50904545390E-01  0.20750468632E-01  0.79934737352E-01  0.51100000000E-03 0. -1.
         11    1    4    4    0    0  0.29662351687E-01 -0.29707963162E-01  0.27817397024E-01  0.50363547145E-01  0.51100000000E-03 0.  1.
</event>
<event>
 8    1  0.1196210E+005  0.1043930E+01  0.7957747E-01            NaN
         13   -1    0    0    0    0  0.00000000000E+00  0.00000000000E+00  0.74505805969E-08  0.10566000000E+00  0.10566000000E+00 0. -1.
     999900   -1    0    0    0    0 -0.00000000000E+00 -0.00000000000E+00 -0.74505805969E-08  0.93827000000E+00  0.93827000000E+00 0. -1.
     999902    2    1    2    0    0  0.18982328856E-01  0.83740440623E-02 -0.11005930838E-01  0.10204441758E+01  0.10201738735E+01 0.  0.
     999903    2    3    3    0    0 -0.14935853925E-01  0.10981658101E+00 -0.69114000524E-01  0.13206498924E+00  0.19535995445E-01 0.  0.
         14    1    1    2    0    0 -0.18982328856E-01 -0.83740440623E-02  0.11005930838E-01  0.23485824158E-01  0.00000000000E+00 0. -1.
     999901    1    3    3    0    0  0.33918182781E-01 -0.10144253694E+00  0.58108069685E-01  0.88837918660E+00  0.88000000000E+00 0.  1.
        -11    1    4    4    0    0 -0.41598693748E-02  0.84641108129E-01 -0.47309070429E-01  0.97055813656E-01  0.51100000000E-03 0.  1.
         11    1    4    4    0    0 -0.10775984550E-01  0.25175472878E-01 -0.21804930094E-01  0.35009175584E-01  0.51100000000E-03 0. -1.
</event>
<event>
 8    1  0.1196210E+005  0.1043930E+01  0.7957747E-01            NaN
         13   -1    0    0    0    0  0.00000000000E+00  0.00000000000E+00  0.74505805969E-08  0.10566000000E+00  0.10566000000E+00 0.  1.
     999900   -1    0    0    0    0 -0.00000000000E+00 -0.00000000000E+00 -0.74505805969E-08  0.93827000000E+00  0.93827000000E+00 0. -1.
     999902    2    1    2    0    0 -0.41059566188E-02 -0.12036775459E-01  0.22656736720E-01  0.10179478800E+01  0.10176162419E+01 0.  0.
     999903    2    3    3    0    0  0.48497177478E-01  0.11551444066E+00  0.91640865802E-02  0.12709522432E+00  0.19330114770E-01 0.  0.
         14    1    1    2    0    0  0.41059566188E-02  0.12036775459E-01 -0.22656736720E-01  0.25982120044E-01  0.00000000000E+00 0.  1.
     999901    1    3    3    0    0 -0.52603134097E-01 -0.12755121612E+00  0.13492650140E-01  0.89085265564E+00  0.88000000000E+00 0.  1.
        -11    1    4    4    0    0  0.77039449292E-02  0.41304293780E-01  0.11994674205E-02  0.42036832603E-01  0.51100000000E-03 0. -1.
         11    1    4    4    0    0  0.40793232549E-01  0.74210146880E-01  0.79646191597E-02  0.85058391715E-01  0.51100000000E-03 0.  1.
</event>
<event>
 8    1  0.1196210E+005  0.1043930E+01  0.7957747E-01            NaN
         13   -1    0    0    0    0  0.00000000000E+00  0.00000000000E+00  0.74505805969E-08  0.10566000000E+00  0.10566000000E+00 0. -1.
     999900   -1    0    0    0    0 -0.00000000000E+00 -0.00000000000E+00 -0.74505805969E-08  0.93827000000E+00  0.93827000000E+00 0.  1.
     999902    2    1    2    0    0  0.14871915858E-01 -0.80971743994E-02  0.18134162150E-01  0.10191189954E+01  0.10188169319E+01 0.  0.
     999903    2    3    3    0    0 -0.10030345918E+00 -0.74306602828E-01 -0.21410654643E-01  0.12826948620E+00  0.20307383147E-01 0.  0.
         14    1    1    2    0    0 -0.14871915858E-01  0.80971743994E-02 -0.18134162150E-01  0.24811004644E-01  0.00000000000E+00 0.  1.
     999901    1    3    3    0    0  0.11517537504E+00  0.66209428429E-01  0.39544816793E-01  0.89084950916E+00  0.88000000000E+00 0. -1.
        -11    1    4    4    0    0 -0.76983412311E-02 -0.13343571153E-01 -0.49119450134E-02  0.16177257915E-01  0.51100000000E-03 0.  1.
         11    1    4    4    0    0 -0.92605117950E-01 -0.60963031675E-01 -0.16498709629E-01  0.11209222829E+00  0.51100000000E-03 0. -1.
</event>
<event>
 8    1  0.1196210E+005  0.1043930E+01  0.7957747E-01            NaN
         13   -1    0    0    0    0  0.00000000000E+00  0.00000000000E+00  0.74505805969E-08  0.10566000000E+00  0.10566000000E+00 0. -1.
     999900   -1    0    0    0    0 -0.00000000000E+00 -0.00000000000E+00 -0.74505805969E-08  0.93827000000E+00  0.93827000000E+00 0.  1.
     999902    2    1    2    0    0 -0.21445499113E-01  0.73486994302E-02 -0.40562876477E-02  0.10209003173E+01  0.10206405301E+01 0.  0.
     999903    2    3    3    0    0  0.22032133837E-01  0.60524626896E-01 -0.11301206971E+00  0.13152449895E+00  0.19450463803E-01 0.  0.
         14    1    1    2    0    0  0.21445499113E-01 -0.73486994302E-02  0.40562876477E-02  0.23029682694E-01  0.00000000000E+00 0.  1.
     999901    1    3    3    0    0 -0.43477632950E-01 -0.53175927466E-01  0.10895578206E+00  0.88937581835E+00  0.88000000000E+00 0. -1.
        -11    1    4    4    0    0  0.63645747988E-02  0.41100146432E-02 -0.22294455967E-01  0.23552153206E-01  0.51100000000E-03 0.  1.
         11    1    4    4    0    0  0.15667559038E-01  0.56414612253E-01 -0.90717613742E-01  0.10797234575E+00  0.51100000000E-03 0. -1.
</event>
<event>
 8    1  0.1196210E+005  0.1043930E+01  0.7957747E-01            NaN
         13   -1    0    0    0    0  0.00000000000E+00  0.00000000000E+00  0.74505805969E-08  0.10566000000E+00  0.10566000000E+00 0. -1.
     999900   -1    0    0    0    0 -0.00000000000E+00 -0.00000000000E+00 -0.74505805969E-08  0.93827000000E+00  0.93827000000E+00 0. -1.
     999902    2    1    2    0    0  0.11135470026E-01  0.20170935748E-01 -0.38721893197E-02  0.10205663703E+01  0.10202989057E+01 0.  0.
     999903    2    3    3    0    0 -0.96344631726E-01 -0.76801786164E-01  0.29722289365E-01  0.12810669613E+00  0.18630853088E-01 0.  0.
         14    1    1    2    0    0 -0.11135470026E-01 -0.20170935748E-01  0.38721893197E-02  0.23363629678E-01  0.00000000000E+00 0.  1.
     999901    1    3    3    0    0  0.10748010175E+00  0.96972721912E-01 -0.33594478684E-01  0.89245967420E+00  0.88000000000E+00 0. -1.
        -11    1    4    4    0    0 -0.78035482407E-01 -0.65112903092E-01  0.31236007154E-01  0.10632580085E+00  0.51100000000E-03 0. -1.
         11    1    4    4    0    0 -0.18309149319E-01 -0.11688883072E-01 -0.15137177889E-02  0.21780895271E-01  0.51100000000E-03 0.  1.
</event>
<event>
 8    1  0.1196210E+005  0.1043930E+01  0.7957747E-01            NaN
         13   -1    0    0    0    0  0.00000000000E+00  0.00000000000E+00  0.74505805969E-08  0.10566000000E+00  0.10566000000E+00 0. -1.
     999900   -1    0    0    0    0 -0.00000000000E+00 -0.00000000000E+00 -0.74505805969E-08  0.93827000000E+00  0.93827000000E+00 0.  1.
     999902    2    1    2    0    0 -0.43846942213E-02 -0.22155560056E-01 -0.46880499903E-02  0.10208633098E+01  0.10206026774E+01 0.  0.
     999903    2    3    3    0    0 -0.96271888495E-01  0.11942504809E-01  0.85473129371E-01  0.13084366238E+00  0.20087513670E-01 0.  0.
         14    1    1    2    0    0  0.43846942213E-02  0.22155560056E-01  0.46880499903E-02  0.23066690216E-01  0.00000000000E+00 0.  1.
     999901    1    3    3    0    0  0.91887194274E-01 -0.34098064865E-01 -0.90161179361E-01  0.89001964740E+00  0.88000000000E+00 0.  1.
        -11    1    4    4    0    0 -0.80194033515E-01  0.11544816338E-01  0.60428428167E-01  0.10107532759E+00  0.51100000000E-03 0. -1.
         11    1    4    4    0    0 -0.16077854981E-01  0.39768847158E-03  0.25044701204E-01  0.29768334792E-01  0.51100000000E-03 0.  1.
</event>
<event>
 8    1  0.1196210E+005  0.1043930E+01  0.7957747E-01            NaN
         13   -1    0    0    0    0  0.00000000000E+00  0.00000000000E+00  0.74505805969E-08  0.10566000000E+00  0.10566000000E+00 0.  1.
     999900   -1    0    0    0    0 -0.00000000000E+00 -0.00000000000E+00 -0.74505805969E-08  0.93827000000E+00  0.93827000000E+00 0. -1.
     999902    2    1    2    0    0  0.56848768198E-02  0.13322792095E-01  0.18968866005E-01  0.10200630251E+01  0.10197837725E+01 0.  0.
     999903    2    3    3    0    0 -0.10770088522E+00  0.42790519084E-01 -0.53914444480E-01  0.12931241189E+00  0.19606716855E-01 0.  0.
         14    1    1    2    0    0 -0.56848768198E-02 -0.13322792095E-01 -0.18968866005E-01  0.23866974906E-01  0.00000000000E+00 0. -1.
     999901    1    3    3    0    0  0.11338576204E+00 -0.29467726989E-01  0.72883310485E-01  0.89075061320E+00  0.88000000000E+00 0. -1.
        -11    1    4    4    0    0 -0.57511776755E-01  0.21748682696E-01 -0.17862968861E-01  0.64030902243E-01  0.51100000000E-03 0. -1.
         11    1    4    4    0    0 -0.50189108464E-01  0.21041836388E-01 -0.36051475619E-01  0.65281509651E-01  0.51100000000E-03 0.  1.
</event>
<event>
 8    1  0.1196210E+005  0.1043930E+01  0.7957747E-01            NaN
         13   -1    0    0    0    0  0.00000000000E+00  0.00000000000E+00  0.74505805969E-08  0.10566000000E+00  0.10566000000E+00 0. -1.
     999900   -1    0    0    0    0 -0.00000000000E+00 -0.00000000000E+00 -0.74505805969E-08  0.93827000000E+00  0.93827000000E+00 0. -1.
     999902    2    1    2    0    0 -0.98541844898E-02  0.14869157384E-01  0.15663275758E-01  0.10201911078E+01  0.10199148795E+01 0.  0.
     999903    2    3    3    0    0  0.86088698512E-02  0.10599845264E+00 -0.73459928717E-01  0.13081583362E+00  0.20165232388E-01 0.  0.
         14    1    1    2    0    0  0.98541844898E-02 -0.14869157384E-01 -0.15663275758E-01  0.23738892155E-01  0.00000000000E+00 0. -1.
     999901    1    3    3    0    0 -0.18463054341E-01 -0.91129295251E-01  0.89123204475E-01  0.88937527423E+00  0.88000000000E+00 0.  1.
        -11    1    4    4    0    0 -0.61770790812E-02  0.46435161307E-01 -0.33114598200E-01  0.57369140194E-01  0.51100000000E-03 0.  1.
         11    1    4    4    0    0  0.14785948932E-01  0.59563291328E-01 -0.40345330517E-01  0.73446693426E-01  0.51100000000E-03 0. -1.
</event>
<event>
 8    1  0.1196210E+005  0.1043930E+01  0.7957747E-01            NaN
         13   -1    0    0    0    0  0.00000000000E+00  0.00000000000E+00  0.74505805969E-08  0.10566000000E+00  0.10566000000E+00 0.  1.
     999900   -1    0    0    0    0 -0.00000000000E+00 -0.00000000000E+00 -0.74505805969E-08  0.93827000000E+00  0.93827000000E+00 0. -1.
     999902    2    1    2    0    0  0.39226942078E-02 -0.24118088540E-01 -0.68954221779E-03  0.10194852625E+01  0.10191921581E+01 0.  0.
     999903    2    3    3    0    0 -0.70954840741E-01 -0.31286122927E-02  0.10645547291E+00  0.12958231404E+00  0.20357572524E-01 0.  0.
         14    1    1    2    0    0 -0.39226942078E-02  0.24118088540E-01  0.68954221779E-03  0.24444737535E-01  0.00000000000E+00 0. -1.
     999901    1    3    3    0    0  0.74877534949E-01 -0.20989476248E-01 -0.10714501513E+00  0.88990294843E+00  0.88000000000E+00 0. -1.
        -11    1    4    4    0    0 -0.29363589076E-01  0.85336319135E-02  0.40788370697E-01  0.50980344665E-01  0.51100000000E-03 0. -1.
         11    1    4    4    0    0 -0.41591251665E-01 -0.11662244206E-01  0.65667102215E-01  0.78601969372E-01  0.51100000000E-03 0.  1.
</event>
<event>
 8    1  0.1196210E+005  0.1043930E+01  0.7957747E-01            NaN
         13   -1    0    0    0    0  0.00000000000E+00  0.00000000000E+00  0.74505805969E-08  0.10566000000E+00  0.10566000000E+00 0.  1.
     999900   -1    0    0    0    0 -0.00000000000E+00 -0.00000000000E+00 -0.74505805969E-08  0.93827000000E+00  0.93827000000E+00 0. -1.
     999902    2    1    2    0    0 -0.16753480097E-01 -0.15769357434E-01  0.46940611636E-02  0.10204483915E+01  0.10201781872E+01 0.  0.
     999903    2    3    3    0    0  0.19223729587E-01 -0.56048449390E-01  0.11609722014E+00  0.13178229630E+00  0.19417225233E-01 0.  0.
         14    1    1    2    0    0  0.16753480097E-01  0.15769357434E-01 -0.46940611636E-02  0.23481608536E-01  0.00000000000E+00 0. -1.
     999901    1    3    3    0    0 -0.35977209684E-01  0.40279091956E-01 -0.11140315898E+00  0.88866609516E+00  0.88000000000E+00 0. -1.
        -11    1    4    4    0    0  0.23011713696E-01 -0.47106360346E-01  0.93833858450E-01  0.10748768425E+00  0.51100000000E-03 0. -1.
         11    1    4    4    0    0 -0.37879841085E-02 -0.89420890437E-02  0.22263361688E-01  0.24294612052E-01  0.51100000000E-03 0.  1.
</event>
<event>
 8    1  0.1196210E+005  0.1043930E+01  0.7957747E-01            NaN
         13   -1    0    0    0    0  0.00000000000E+00  0.00000000000E+00  0.74505805969E-08  0.10566000000E+00  0.10566000000E+00 0.  1.
     999900   -1    0    0    0    0 -0.00000000000E+00 -0.00000000000E+00 -0.74505805969E-08  0.93827000000E+00  0.93827000000E+00 0.  1.
     999902    2    1    2    0    0  0.13042147238E-01  0.10257330591E-01 -0.18672695529E-01  0.10189504085E+01  0.10186441748E+01 0.  0.
     999903    2    3    3    0    0  0.89421185257E-01 -0.74428035054E-01  0.51514906482E-01  0.12882026736E+00  0.20129454016E-01 0.  0.
         14    1    1    2    0    0 -0.13042147238E-01 -0.10257330591E-01  0.18672695529E-01  0.24979591545E-01  0.00000000000E+00 0.  1.
     999901    1    3    3    0    0 -0.76379038019E-01  0.84685365646E-01 -0.70187602011E-01  0.89013014109E+00  0.88000000000E+00 0.  1.
        -11    1    4    4    0    0  0.76916156970E-01 -0.65599300824E-01  0.36802920379E-01  0.10758289614E+00  0.51100000000E-03 0. -1.
         11    1    4    4    0    0  0.12505028287E-01 -0.88287342307E-02  0.14711986103E-01  0.21237371228E-01  0.51100000000E-03 0.  1.
</event>
<event>
 8    1  0.1196210E+005  0.1043930E+01  0.7957747E-01            NaN
         13   -1    0    0    0    0  0.00000000000E+00  0.00000000000E+00  0.74505805969E-08  0.10566000000E+00  0.10566000000E+00 0. -1.
     999900   -1    0    0    0    0 -0.00000000000E+00 -0.00000000000E+00 -0.74505805969E-08  0.93827000000E+00  0.93827000000E+00 0. -1.
     999902    2    1    2    0    0  0.16970629798E-02  0.10362794035E-01  0.20929979195E-01  0.10205135196E+01  0.10202448296E+01 0.  0.
     999903    2    3    3    0    0 -0.16079649894E-01 -0.36618869646E-01 -0.12011936005E+00  0.12786677858E+00  0.17937548600E-01 0.  0.
         14    1    1    2    0    0 -0.16970629798E-02 -0.10362794035E-01 -0.20929979195E-01  0.23416480352E-01  0.00000000000E+00 0.  1.
     999901    1    3    3    0    0  0.17776712874E-01  0.46981663681E-01  0.14104933925E+00  0.89264674107E+00  0.88000000000E+00 0.  1.
        -11    1    4    4    0    0  0.22959151907E-03 -0.15810561351E-01 -0.29580522953E-01  0.33545417298E-01  0.51100000000E-03 0. -1.
         11    1    4    4    0    0 -0.16309241413E-01 -0.20808308295E-01 -0.90538837097E-01  0.94321361279E-01  0.51100000000E-03 0.  1.
</event>
<event>
 8    1  0.1196210E+005  0.1043930E+01  0.7957747E-01            NaN
         13   -1    0    0    0    0  0.00000000000E+00  0.00000000000E+00  0.74505805969E-08  0.10566000000E+00  0.10566000000E+00 0. -1.
     999900   -1    0    0    0    0 -0.00000000000E+00 -0.00000000000E+00 -0.74505805969E-08  0.93827000000E+00  0.93827000000E+00 0. -1.
     999902    2    1    2    0    0  0.11406804581E-01 -0.17367311779E-01 -0.10781659621E-01  0.10205209656E+01  0.10202524483E+01 0.  0.
     999903    2    3    3    0    0 -0.17096796033E-01 -0.86810420739E-01  0.94451506070E-01  0.13107798268E+00  0.20784632830E-01 0.  0.
         14    1    1    2    0    0 -0.11406804581E-01  0.17367311779E-01  0.10781659621E-01  0.23409034439E-01  0.00000000000E+00 0. -1.
     999901    1    3    3    0    0  0.28503600614E-01  0.69443108961E-01 -0.10523316569E+00  0.88944298288E+00  0.88000000000E+00 0. -1.
        -11    1    4    4    0    0 -0.24607341575E-02 -0.27896659585E-01  0.17358475962E-01  0.32952338875E-01  0.51100000000E-03 0. -1.
         11    1    4    4    0    0 -0.14636061876E-01 -0.58913761154E-01  0.77093030108E-01  0.98125643808E-01  0.51100000000E-03 0.  1.
</event>
<event>
 8    1  0.1196210E+005  0.1043930E+01  0.7957747E-01            NaN
         13   -1    0    0    0    0  0.00000000000E+00  0.00000000000E+00  0.74505805969E-08  0.10566000000E+00  0.10566000000E+00 0. -1.
     999900   -1    0    0    0    0 -0.00000000000E+00 -0.00000000000E+00 -0.74505805969E-08  0.93827000000E+00  0.93827000000E+00 0. -1.
     999902    2    1    2    0    0  0.22921590073E-01  0.25427851291E-02 -0.24413456672E-02  0.10207389410E+01  0.10204754581E+01 0.  0.
     999903    2    3    3    0    0 -0.20540199989E-01 -0.10297281771E+00  0.73578351914E-01  0.13012035596E+00  0.22186305748E-01 0.  0.
         14    1    1    2    0    0 -0.22921590073E-01 -0.25427851291E-02  0.24413456672E-02  0.23191058974E-01  0.00000000000E+00 0. -1.
     999901    1    3    3    0    0  0.43461790061E-01  0.10551560284E+00 -0.76019697581E-01  0.89061858506E+00  0.88000000000E+00 0. -1.
        -11    1    4    4    0    0  0.24375364421E-02 -0.19741096679E-01  0.70241357325E-02  0.21100997270E-01  0.51100000000E-03 0.  1.
         11    1    4    4    0    0 -0.22977736431E-01 -0.83231721032E-01  0.66554216182E-01  0.10901935869E+00  0.51100000000E-03 0. -1.
</event>
<event>
 8    1  0.1196210E+005  0.1043930E+01  0.7957747E-01            NaN
         13   -1    0    0    0    0  0.00000000000E+00  0.00000000000E+00  0.74505805969E-08  0.10566000000E+00  0.10566000000E+00 0. -1.
     999900   -1    0    0    0    0 -0.00000000000E+00 -0.00000000000E+00 -0.74505805969E-08  0.93827000000E+00  0.93827000000E+00 0.  1.
     999902    2    1    2    0    0  0.16156141227E-01  0.17235558462E-01 -0.25076018017E-02  0.10201734548E+01  0.10198968106E+01 0.  0.
     999903    2    3    3    0    0 -0.21267528265E-01  0.10042390348E+00  0.79918734867E-01  0.13162692657E+00  0.20034357188E-01 0.  0.
         14    1    1    2    0    0 -0.16156141227E-01 -0.17235558462E-01  0.25076018017E-02  0.23756545238E-01  0.00000000000E+00 0. -1.
     999901    1    3    3    0    0  0.37423669491E-01 -0.83188345013E-01 -0.82426336669E-01  0.88854652819E+00  0.88000000000E+00 0.  1.
        -11    1    4    4    0    0  0.41468269211E-03  0.38340409631E-01  0.35604976335E-01  0.52327186368E-01  0.51100000000E-03 0. -1.
         11    1    4    4    0    0 -0.21682210957E-01  0.62083493845E-01  0.44313758532E-01  0.79299740203E-01  0.51100000000E-03 0.  1.
</event>
<event>
 7    1  0.1644100E+005  0.1043930E+01  0.7957747E-01            NaN
         13   -1    0    0    0    0  0.00000000000E+00  0.00000000000E+00  0.74505805969E-08  0.10566000000E+00  0.10566000000E+00 0.  1.
     999900   -1    0    0    0    0 -0.00000000000E+00 -0.00000000000E+00 -0.74505805969E-08  0.93827000000E+00  0.93827000000E+00 0.  1.
     999903    2    1    2    0    0 -0.32873254272E-01 -0.24218142805E-01  0.96214041122E-01  0.10642155263E+00  0.20030872854E-01 0.  0.
         14    1    1    2    0    0  0.37757425412E-01 -0.29902096753E-01 -0.21274430363E-01  0.52653204568E-01  0.00000000000E+00 0. -1.
     999901    1    1    2    0    0 -0.48841711405E-02  0.54120239558E-01 -0.74939610759E-01  0.88485524280E+00  0.88000000000E+00 0.  1.
        -11    1    3    3    0    0 -0.14835197192E-01 -0.22400152039E-01  0.64747072754E-01  0.70102028775E-01  0.51100000000E-03 0.  1.
         11    1    3    3    0    0 -0.18038057080E-01 -0.18179907661E-02  0.31466968368E-01  0.36319523853E-01  0.51100000000E-03 0. -1.
</event>
<event>
 8    1  0.1196210E+005  0.1043930E+01  0.7957747E-01            NaN
         13   -1    0    0    0    0  0.00000000000E+00  0.00000000000E+00  0.74505805969E-08  0.10566000000E+00  0.10566000000E+00 0.  1.
     999900   -1    0    0    0    0 -0.00000000000E+00 -0.00000000000E+00 -0.74505805969E-08  0.93827000000E+00  0.93827000000E+00 0.  1.
     999902    2    1    2    0    0  0.20689167276E-02 -0.20610476978E-01  0.11200107785E-01  0.10203818665E+01  0.10201101111E+01 0.  0.
     999903    2    3    3    0    0  0.12218336062E+00  0.24388214939E-01 -0.32768747901E-01  0.12999676880E+00  0.17372691780E-01 0.  0.
         14    1    1    2    0    0 -0.20689167276E-02  0.20610476978E-01 -0.11200107785E-01  0.23548133515E-01  0.00000000000E+00 0. -1.
     999901    1    3    3    0    0 -0.12011444389E+00 -0.44998691916E-01  0.43968855686E-01  0.89038509768E+00  0.88000000000E+00 0. -1.
        -11    1    4    4    0    0  0.89259091603E-01  0.21859753565E-01 -0.30763714877E-01  0.96910791627E-01  0.51100000000E-03 0.  1.
         11    1    4    4    0    0  0.32924269016E-01  0.25284613735E-02 -0.20050330245E-02  0.33085977174E-01  0.51100000000E-03 0. -1.
</event>
<event>
 8    1  0.1196210E+005  0.1043930E+01  0.7957747E-01            NaN
         13   -1    0    0    0    0  0.00000000000E+00  0.00000000000E+00  0.74505805969E-08  0.10566000000E+00  0.10566000000E+00 0.  1.
     999900   -1    0    0    0    0 -0.00000000000E+00 -0.00000000000E+00 -0.74505805969E-08  0.93827000000E+00  0.93827000000E+00 0. -1.
     999902    2    1    2    0    0 -0.18913087031E-01 -0.76223089421E-02  0.17192241689E-01  0.10172583366E+01  0.10169086221E+01 0.  0.
     999903    2    3    3    0    0 -0.14629531769E-01  0.12258525185E+00 -0.21326410763E-01  0.12683369390E+00  0.19768736416E-01 0.  0.
         14    1    1    2    0    0  0.18913087031E-01  0.76223089421E-02 -0.17192241689E-01  0.26671663408E-01  0.00000000000E+00 0. -1.
     999901    1    3    3    0    0 -0.42835552626E-02 -0.13020756080E+00  0.38518652452E-01  0.89042464270E+00  0.88000000000E+00 0.  1.
        -11    1    4    4    0    0 -0.48520189197E-02  0.96856563273E-01 -0.21365629723E-01  0.99305020976E-01  0.51100000000E-03 0. -1.
         11    1    4    4    0    0 -0.97775128490E-02  0.25728688580E-01  0.39218960282E-04  0.27528672919E-01  0.51100000000E-03 0.  1.
</event>
<event>
 8    1  0.1196210E+005  0.1043930E+01  0.7957747E-01            NaN
         13   -1    0    0    0    0  0.00000000000E+00  0.00000000000E+00  0.74505805969E-08  0.10566000000E+00  0.10566000000E+00 0. -1.
     999900   -1    0    0    0    0 -0.00000000000E+00 -0.00000000000E+00 -0.74505805969E-08  0.93827000000E+00  0.93827000000E+00 0.  1.
     999902    2    1    2    0    0 -0.35167363540E-02  0.21493426647E-01  0.12854691363E-01  0.10186401223E+01  0.10183261368E+01 0.  0.
     999903    2    3    3    0    0  0.10279576951E-01  0.87186519118E-01 -0.93486486728E-01  0.12970009800E+00  0.19370942213E-01 0.  0.
         14    1    1    2    0    0  0.35167363540E-02 -0.21493426647E-01 -0.12854691363E-01  0.25289877692E-01  0.00000000000E+00 0.  1.
     999901    1    3    3    0    0 -0.13796313305E-01 -0.65693092471E-01  0.10634117809E+00  0.88894002431E+00  0.88000000000E+00 0. -1.
        -11    1    4    4    0    0 -0.79724025235E-04  0.52334035200E-01 -0.65340297935E-01  0.83716624702E-01  0.51100000000E-03 0.  1.
         11    1    4    4    0    0  0.10359300976E-01  0.34852483918E-01 -0.28146188793E-01  0.45983473298E-01  0.51100000000E-03 0. -1.
</event>
<event>
 8    1  0.1196210E+005  0.1043930E+01  0.7957747E-01            NaN
         13   -1    0    0    0    0  0.00000000000E+00  0.00000000000E+00  0.74505805969E-08  0.10566000000E+00  0.10566000000E+00 0.  1.
     999900   -1    0    0    0    0 -0.00000000000E+00 -0.00000000000E+00 -0.74505805969E-08  0.93827000000E+00  0.93827000000E+00 0.  1.
     999902    2    1    2    0    0  0.12842947933E-01  0.17156246041E-01  0.14790423350E-01  0.10178909003E+01  0.10175577872E+01 0.  0.
     999903    2    3    3    0    0  0.43253223559E-01  0.10720321148E+00 -0.56868690762E-01  0.12987723516E+00  0.16452304579E-01 0.  0.
         14    1    1    2    0    0 -0.12842947933E-01 -0.17156246041E-01 -0.14790423350E-01  0.26039099691E-01  0.00000000000E+00 0. -1.
     999901    1    3    3    0    0 -0.30410275626E-01 -0.90046965436E-01  0.71659114112E-01  0.88801366514E+00  0.88000000000E+00 0. -1.
        -11    1    4    4    0    0  0.28251164316E-01  0.58076135538E-01 -0.24040322787E-01  0.68914178838E-01  0.51100000000E-03 0.  1.
         11    1    4    4    0    0  0.15002059243E-01  0.49127075939E-01 -0.32828367975E-01  0.60963056327E-01  0.51100000000E-03 0. -1.
</event>
<event>
 8    1  0.1196210E+005  0.1043930E+01  0.7957747E-01            NaN
         13   -1    0    0    0    0  0.00000000000E+00  0.00000000000E+00  0.74505805969E-08  0.10566000000E+00  0.10566000000E+00 0. -1.
     999900   -1    0    0    0    0 -0.00000000000E+00 -0.00000000000E+00 -0.74505805969E-08  0.93827000000E+00  0.93827000000E+00 0. -1.
     999902    2    1    2    0    0  0.23003685585E-01  0.65916561543E-02  0.97944371052E-03  0.10199804950E+01  0.10196992848E+01 0.  0.
     999903    2    3    3    0    0  0.11134535441E+00  0.49940214066E-01 -0.49622101745E-01  0.13305103648E+00  0.18665808269E-01 0.  0.
         14    1    1    2    0    0 -0.23003685585E-01 -0.65916561543E-02 -0.97944371052E-03  0.23949505033E-01  0.00000000000E+00 0. -1.
     999901    1    3    3    0    0 -0.88341668823E-01 -0.43348557912E-01  0.50601545456E-01  0.88692945848E+00  0.88000000000E+00 0.  1.
        -11    1    4    4    0    0  0.49372018154E-01  0.16544661977E-01 -0.29421542422E-01  0.59809784283E-01  0.51100000000E-03 0. -1.
         11    1    4    4    0    0  0.61973336254E-01  0.33395552089E-01 -0.20200559324E-01  0.73241252200E-01  0.51100000000E-03 0.  1.
</event>
<event>
 8    1  0.1196210E+005  0.1043930E+01  0.7957747E-01            NaN
         13   -1    0    0    0    0  0.00000000000E+00  0.00000000000E+00  0.74505805969E-08  0.10566000000E+00  0.10566000000E+00 0.  1.
     999900   -1    0    0    0    0 -0.00000000000E+00 -0.00000000000E+00 -0.74505805969E-08  0.93827000000E+00  0.93827000000E+00 0. -1.
     999902    2    1    2    0    0  0.47137005944E-02 -0.24617342984E-01 -0.13743005677E-01  0.10153449907E+01  0.10149425341E+01 0.  0.
     999903    2    3    3    0    0  0.53418869130E-01 -0.11599022740E+00 -0.17684641764E-02  0.12919343086E+00  0.19506580414E-01 0.  0.
         14    1    1    2    0    0 -0.47137005944E-02  0.24617342984E-01  0.13743005677E-01  0.28585009252E-01  0.00000000000E+00 0.  1.
     999901    1    3    3    0    0 -0.48705168535E-01  0.91372884420E-01 -0.11974541501E-01  0.88615155989E+00  0.88000000000E+00 0. -1.
        -11    1    4    4    0    0  0.41890889084E-01 -0.10506594470E+00 -0.37986558515E-02  0.11317415885E+00  0.51100000000E-03 0. -1.
         11    1    4    4    0    0  0.11527980046E-01 -0.10924282707E-01  0.20301916750E-02  0.16019272013E-01  0.51100000000E-03 0.  1.
</event>
<event>
 8    1  0.1196210E+005  0.1043930E+01  0.7957747E-01            NaN
         13   -1    0    0    0    0  0.00000000000E+00  0.00000000000E+00  0.74505805969E-08  0.10566000000E+00  0.10566000000E+00 0. -1.
     999900   -1    0    0    0    0 -0.00000000000E+00 -0.00000000000E+00 -0.74505805969E-08  0.93827000000E+00  0.93827000000E+00 0. -1.
     999902    2    1    2    0    0  0.13034460562E-01  0.14190305139E-01  0.13713778647E-01  0.10202798489E+01  0.10200057061E+01 0.  0.
     999903    2    3    3    0    0  0.10037624004E+00 -0.37658062753E-01  0.74903840148E-01  0.13232654871E+00  0.20154676134E-01 0.  0.
         14    1    1    2    0    0 -0.13034460562E-01 -0.14190305139E-01 -0.13713778647E-01  0.23650151096E-01  0.00000000000E+00 0.  1.
     999901    1    3    3    0    0 -0.87341779479E-01  0.51848367892E-01 -0.61190061501E-01  0.88795330019E+00  0.88000000000E+00 0.  1.
        -11    1    4    4    0    0  0.11024109074E-01 -0.13293399738E-02  0.17172713027E-02  0.11247589403E-01  0.51100000000E-03 0.  1.
         11    1    4    4    0    0  0.89352130967E-01 -0.36328722779E-01  0.73186568845E-01  0.12107895931E+00  0.51100000000E-03 0. -1.
</event>
<event>
 8    1  0.1196210E+005  0.1043930E+01  0.7957747E-01            NaN
         13   -1    0    0    0    0  0.00000000000E+00  0.00000000000E+00  0.74505805969E-08  0.10566000000E+00  0.10566000000E+00 0. -1.
     999900   -1    0    0    0    0 -0.00000000000E+00 -0.00000000000E+00 -0.74505805969E-08  0.93827000000E+00  0.93827000000E+00 0.  1.
     999902    2    1    2    0    0  0.12153243469E-01 -0.17667815896E-01  0.93907041890E-02  0.10205197806E+01  0.10202512359E+01 0.  0.
     999903    2    3    3    0    0 -0.10226168119E+00 -0.45274912861E-01  0.65394764902E-01  0.13091909404E+00  0.18869677616E-01 0.  0.
         14    1    1    2    0    0 -0.12153243469E-01  0.17667815896E-01 -0.93907041890E-02  0.23410219361E-01  0.00000000000E+00 0.  1.
     999901    1    3    3    0    0  0.11441492465E+00  0.27607096964E-01 -0.56004060713E-01  0.88960068660E+00  0.88000000000E+00 0.  1.
        -11    1    4    4    0    0 -0.31250611859E-01 -0.14420703362E-01  0.30511950169E-01  0.45997800504E-01  0.51100000000E-03 0. -1.
         11    1    4    4    0    0 -0.71011069327E-01 -0.30854209498E-01  0.34882814733E-01  0.84921293533E-01  0.51100000000E-03 0.  1.
</event>
<event>
 8    1  0.1207028E+005  0.1043930E+01  0.7957747E-01            NaN
         13   -1    0    0    0    0  0.00000000000E+00  0.00000000000E+00  0.74505805969E-08  0.10566000000E+00  0.10566000000E+00 0.  1.
     999900   -1    0    0    0    0 -0.00000000000E+00 -0.00000000000E+00 -0.74505805969E-08  0.93827000000E+00  0.93827000000E+00 0. -1.
     999902    2    1    2    0    0 -0.38517846797E-02  0.13282623536E-01 -0.18847031219E-01  0.10205531970E+01  0.10202854272E+01 0.  0.
     999903    2    3    3    0    0  0.74533846688E-02  0.12956755860E+00  0.15129109383E-01  0.13218144423E+00  0.19993475530E-01 0.  0.
         14    1    1    2    0    0  0.38517846797E-02 -0.13282623536E-01  0.18847031219E-01  0.23376803011E-01  0.00000000000E+00 0.  1.
     999901    1    3    3    0    0 -0.11305169349E-01 -0.11628493506E+00 -0.33976140603E-01  0.88837175276E+00  0.88000000000E+00 0. -1.
        -11    1    4    4    0    0  0.36984105171E-03  0.41479000073E-01  0.14056414858E-01  0.43800549644E-01  0.51100000000E-03 0.  1.
         11    1    4    4    0    0  0.70835436171E-02  0.88088558522E-01  0.10726945256E-02  0.88380894583E-01  0.51100000000E-03 0. -1.
</event>
<event>
 8    1  0.1196210E+005  0.1043930E+01  0.7957747E-01            NaN
         13   -1    0    0    0    0  0.00000000000E+00  0.00000000000E+00  0.74505805969E-08  0.10566000000E+00  0.10566000000E+00 0. -1.
     999900   -1    0    0    0    0 -0.00000000000E+00 -0.00000000000E+00 -0.74505805969E-08  0.93827000000E+00  0.93827000000E+00 0. -1.
     999902    2    1    2    0    0 -0.10304713312E-02 -0.23819488915E-01  0.80564903902E-02  0.10187638131E+01  0.10184529297E+01 0.  0.
     999903    2    3    3    0    0  0.66331744685E-01 -0.10907159520E+00 -0.24266655102E-01  0.13149250430E+00  0.20122000512E-01 0.  0.
         14    1    1    2    0    0  0.10304713312E-02  0.23819488915E-01 -0.80564903902E-02  0.25166186853E-01  0.00000000000E+00 0.  1.
     999901    1    3    3    0    0 -0.67362216017E-01  0.85252106283E-01  0.32323145493E-01  0.88727130885E+00  0.88000000000E+00 0. -1.
        -11    1    4    4    0    0  0.17611305724E-01 -0.23141609205E-01 -0.13689131995E-01  0.32145693673E-01  0.51100000000E-03 0. -1.
         11    1    4    4    0    0  0.48720438961E-01 -0.85929985993E-01 -0.10577523107E-01  0.99346810625E-01  0.51100000000E-03 0.  1.
</event>
<event>
 8    1  0.1196210E+005  0.1043930E+01  0.7957747E-01            NaN
         13   -1    0    0    0    0  0.00000000000E+00  0.00000000000E+00  0.74505805969E-08  0.10566000000E+00  0.10566000000E+00 0.  1.
     999900   -1    0    0    0    0 -0.00000000000E+00 -0.00000000000E+00 -0.74505805969E-08  0.93827000000E+00  0.93827000000E+00 0. -1.
     999902    2    1    2    0    0  0.50794525089E-02  0.20913609702E-01 -0.85607018914E-02  0.10207682746E+01  0.10205054654E+01 0.  0.
     999903    2    3    3    0    0 -0.69521913943E-01 -0.92850331647E-01  0.51145122419E-01  0.12831525973E+00  0.19862067517E-01 0.  0.
         14    1    1    2    0    0 -0.50794525089E-02 -0.20913609702E-01  0.85607018914E-02  0.23161725441E-01  0.00000000000E+00 0. -1.
     999901    1    3    3    0    0  0.74601366451E-01  0.11376394135E+00 -0.59705824310E-01  0.89245301483E+00  0.88000000000E+00 0. -1.
        -11    1    4    4    0    0 -0.43997723235E-01 -0.56150718074E-01  0.41672406402E-01  0.82616907268E-01  0.51100000000E-03 0. -1.
         11    1    4    4    0    0 -0.25524190707E-01 -0.36699613573E-01  0.94727160173E-02  0.45698352458E-01  0.51100000000E-03 0.  1.
</event>
<event>
 8    1  0.1196210E+005  0.1043930E+01  0.7957747E-01            NaN
         13   -1    0    0    0    0  0.00000000000E+00  0.00000000000E+00  0.74505805969E-08  0.10566000000E+00  0.10566000000E+00 0. -1.
     999900   -1    0    0    0    0 -0.00000000000E+00 -0.00000000000E+00 -0.74505805969E-08  0.93827000000E+00  0.93827000000E+00 0.  1.
     999902    2    1    2    0    0 -0.40615046651E-02  0.18346431123E-01 -0.16162325836E-01  0.10191447598E+01  0.10188433311E+01 0.  0.
     999903    2    3    3    0    0  0.74901532682E-01  0.10556324285E+00  0.22565138316E-02  0.13112382133E+00  0.20845307081E-01 0.  0.
         14    1    1    2    0    0  0.40615046651E-02 -0.18346431123E-01  0.16162325836E-01  0.24785240195E-01  0.00000000000E+00 0. -1.
     999901    1    3    3    0    0 -0.78963037347E-01 -0.87216811724E-01 -0.18418839668E-01  0.88802093847E+00  0.88000000000E+00 0. -1.
        -11    1    4    4    0    0  0.31213301806E-01  0.60501583381E-01  0.52857628971E-02  0.68285519781E-01  0.51100000000E-03 0. -1.
         11    1    4    4    0    0  0.43688230875E-01  0.45061659465E-01 -0.30292490655E-02  0.62838301550E-01  0.51100000000E-03 0.  1.
</event>
<event>
 8    1  0.1196210E+005  0.1043930E+01  0.7957747E-01            NaN
         13   -1    0    0    0    0  0.00000000000E+00  0.00000000000E+00  0.74505805969E-08  0.10566000000E+00  0.10566000000E+00 0. -1.
     999900   -1    0    0    0    0 -0.00000000000E+00 -0.00000000000E+00 -0.74505805969E-08  0.93827000000E+00  0.93827000000E+00 0.  1.
     999902    2    1    2    0    0 -0.20342608554E-01 -0.43030641278E-03 -0.16355244769E-01  0.10178244275E+01  0.10174895892E+01 0.  0.
     999903    2    3    3    0    0 -0.12232560921E+00  0.40794254591E-01 -0.93125822189E-02  0.13094811367E+00  0.20807652669E-01 0.  0.
         14    1    1    2    0    0  0.20342608554E-01  0.43030641278E-03  0.16355244769E-01  0.26105572543E-01  0.00000000000E+00 0. -1.
     999901    1    3    3    0    0  0.10198300066E+00 -0.41224561004E-01 -0.70426625498E-02  0.88687631378E+00  0.88000000000E+00 0.  1.
        -11    1    4    4    0    0 -0.76752895520E-01  0.16443835103E-01 -0.10908846929E-01  0.79250682937E-01  0.51100000000E-03 0. -1.
         11    1    4    4    0    0 -0.45572713694E-01  0.24350419488E-01  0.15962647105E-02  0.51697430736E-01  0.51100000000E-03 0.  1.
</event>
<event>
 8    1  0.1196210E+005  0.1043930E+01  0.7957747E-01            NaN
         13   -1    0    0    0    0  0.00000000000E+00  0.00000000000E+00  0.74505805969E-08  0.10566000000E+00  0.10566000000E+00 0.  1.
     999900   -1    0    0    0    0 -0.00000000000E+00 -0.00000000000E+00 -0.74505805969E-08  0.93827000000E+00  0.93827000000E+00 0.  1.
     999902    2    1    2    0    0  0.36860586590E-02  0.23235793710E-01 -0.19914713334E-02  0.10203195130E+01  0.10200462997E+01 0.  0.
     999903    2    3    3    0    0  0.61256945598E-01 -0.10119766661E+00 -0.46342850160E-01  0.12859918809E+00  0.19917587880E-01 0.  0.
         14    1    1    2    0    0 -0.36860586590E-02 -0.23235793710E-01  0.19914713334E-02  0.23610486988E-01  0.00000000000E+00 0. -1.
     999901    1    3    3    0    0 -0.57570886939E-01  0.12443346031E+00  0.44351378826E-01  0.89172032492E+00  0.88000000000E+00 0. -1.
        -11    1    4    4    0    0  0.58952835728E-01 -0.87734916317E-01 -0.36784658094E-01  0.11192061729E+00  0.51100000000E-03 0.  1.
         11    1    4    4    0    0  0.23041098702E-02 -0.13462750289E-01 -0.95581920654E-02  0.16678570808E-01  0.51100000000E-03 0. -1.
</event>
<event>
 8    1  0.1196210E+005  0.1043930E+01  0.7957747E-01            NaN
         13   -1    0    0    0    0  0.00000000000E+00  0.00000000000E+00  0.74505805969E-08  0.10566000000E+00  0.10566000000E+00 0. -1.
     999900   -1    0    0    0    0 -0.00000000000E+00 -0.00000000000E+00 -0.74505805969E-08  0.93827000000E+00  0.93827000000E+00 0. -1.
     999902    2    1    2    0    0 -0.47942037102E-02  0.25096333022E-01 -0.24722135298E-02  0.10182605208E+01  0.10179369166E+01 0.  0.
     999903    2    3    3    0    0  0.29959328357E-01  0.24529669333E-01  0.12136773838E+00  0.12890993599E+00  0.19707299216E-01 0.  0.
         14    1    1    2    0    0  0.47942037102E-02 -0.25096333022E-01  0.24722135298E-02  0.25669479155E-01  0.00000000000E+00 0.  1.
     999901    1    3    3    0    0 -0.34753532068E-01  0.56666368879E-03 -0.12383995191E+00  0.88935058486E+00  0.88000000000E+00 0. -1.
        -11    1    4    4    0    0  0.13123207036E-01  0.14577942179E-01  0.32916627273E-01  0.38321018164E-01  0.51100000000E-03 0. -1.
         11    1    4    4    0    0  0.16836121321E-01  0.99517271536E-02  0.88451111111E-01  0.90588917822E-01  0.51100000000E-03 0.  1.
</event>
<event>
 8    1  0.1196210E+005  0.1043930E+01  0.7957747E-01            NaN
         13   -1    0    0    0    0  0.00000000000E+00  0.00000000000E+00  0.74505805969E-08  0.10566000000E+00  0.10566000000E+00 0.  1.
     999900   -1    0    0    0    0 -0.00000000000E+00 -0.00000000000E+00 -0.74505805969E-08  0.93827000000E+00  0.93827000000E+00 0. -1.
     999902    2    1    2    0    0 -0.95312763607E-02  0.21438003071E-01 -0.40270430513E-03  0.10204652312E+01  0.10201954189E+01 0.  0.
     999903    2    3    3    0    0 -0.50280213061E-01  0.59381540283E-01  0.10518389527E+00  0.13240627038E+00  0.20334735309E-01 0.  0.
         14    1    1    2    0    0  0.95312763607E-02 -0.21438003071E-01  0.40270430513E-03  0.23464768814E-01  0.00000000000E+00 0. -1.
     999901    1    3    3    0    0  0.40748936700E-01 -0.37943537211E-01 -0.10558659957E+00  0.88805896081E+00  0.88000000000E+00 0. -1.
        -11    1    4    4    0    0 -0.23180902317E-01  0.42178484865E-01  0.58612310418E-01  0.75842223539E-01  0.51100000000E-03 0. -1.
         11    1    4    4    0    0 -0.27099310744E-01  0.17203055417E-01  0.46571584851E-01  0.56564046841E-01  0.51100000000E-03 0.  1.
</event>
<event>
 8    1  0.1196210E+005  0.1043930E+01  0.7957747E-01            NaN
         13   -1    0    0    0    0  0.00000000000E+00  0.00000000000E+00  0.74505805969E-08  0.10566000000E+00  0.10566000000E+00 0.  1.
     999900   -1    0    0    0    0 -0.00000000000E+00 -0.00000000000E+00 -0.74505805969E-08  0.93827000000E+00  0.93827000000E+00 0.  1.
     999902    2    1    2    0    0  0.21263900799E-01 -0.99438635952E-02  0.62256870883E-03  0.10204476344E+01  0.10201774126E+01 0.  0.
     999903    2    3    3    0    0  0.67900228284E-01  0.30604754292E-01  0.10707465768E+00  0.13188070691E+00  0.19505039123E-01 0.  0.
         14    1    1    2    0    0 -0.21263900799E-01  0.99438635952E-02 -0.62256870883E-03  0.23482365558E-01  0.00000000000E+00 0.  1.
     999901    1    3    3    0    0 -0.46636327485E-01 -0.40548617888E-01 -0.10645208897E+00  0.88856692753E+00  0.88000000000E+00 0.  1.
        -11    1    4    4    0    0  0.50754893665E-01  0.15315198543E-01  0.64428248025E-01  0.83437849936E-01  0.51100000000E-03 0. -1.
         11    1    4    4    0    0  0.17145334618E-01  0.15289555749E-01  0.42646409659E-01  0.48442856976E-01  0.51100000000E-03 0.  1.
</event>
<event>
 8    1  0.1196210E+005  0.1043930E+01  0.7957747E-01            NaN
         13   -1    0    0    0    0  0.00000000000E+00  0.00000000000E+00  0.74505805969E-08  0.10566000000E+00  0.10566000000E+00 0. -1.
     999900   -1    0    0    0    0 -0.00000000000E+00 -0.00000000000E+00 -0.74505805969E-08  0.93827000000E+00  0.93827000000E+00 0. -1.
     999902    2    1    2    0    0 -0.46514450301E-02 -0.12956325610E-01 -0.16556913518E-01  0.10223978450E+01  0.10221710814E+01 0.  0.
     999903    2    3    3    0    0 -0.10747794806E+00  0.73759920977E-01 -0.80459744301E-02  0.13213640404E+00  0.20081242661E-01 0.  0.
         14    1    1    2    0    0  0.46514450301E-02  0.12956325610E-01  0.16556913518E-01  0.21532155011E-01  0.00000000000E+00 0. -1.
     999901    1    3    3    0    0  0.10282650303E+00 -0.86716246587E-01 -0.85109390881E-02  0.89026144094E+00  0.88000000000E+00 0. -1.
        -11    1    4    4    0    0 -0.54836831949E-01  0.49664521915E-01 -0.37281874731E-02  0.74079709624E-01  0.51100000000E-03 0.  1.
         11    1    4    4    0    0 -0.52641116115E-01  0.24095399062E-01 -0.43177869570E-02  0.58056694420E-01  0.51100000000E-03 0. -1.
</event>
<event>
 8    1  0.1196210E+005  0.1043930E+01  0.7957747E-01            NaN
         13   -1    0    0    0    0  0.00000000000E+00  0.00000000000E+00  0.74505805969E-08  0.10566000000E+00  0.10566000000E+00 0.  1.
     999900   -1    0    0    0    0 -0.00000000000E+00 -0.00000000000E+00 -0.74505805969E-08  0.93827000000E+00  0.93827000000E+00 0. -1.
     999902    2    1    2    0    0  0.18867187158E-02 -0.55680255008E-02  0.25063036923E-01  0.10181866817E+01  0.10178611892E+01 0.  0.
     999903    2    3    3    0    0 -0.45828538851E-01  0.74291651983E-01 -0.88688474869E-01  0.12600188007E+00  0.19781902796E-01 0.  0.
         14    1    1    2    0    0 -0.18867187158E-02  0.55680255008E-02 -0.25063036923E-01  0.25743318265E-01  0.00000000000E+00 0. -1.
     999901    1    3    3    0    0  0.47715257567E-01 -0.79859677484E-01  0.11375151179E+00  0.89218480167E+00  0.88000000000E+00 0.  1.
        -11    1    4    4    0    0 -0.24854878202E-01  0.57453440337E-01 -0.61819620862E-01  0.87980619579E-01  0.51100000000E-03 0.  1.
         11    1    4    4    0    0 -0.20973660649E-01  0.16838211647E-01 -0.26868854007E-01  0.38021260488E-01  0.51100000000E-03 0. -1.
</event>
<event>
 8    1  0.1196210E+005  0.1043930E+01  0.7957747E-01            NaN
         13   -1    0    0    0    0  0.00000000000E+00  0.00000000000E+00  0.74505805969E-08  0.10566000000E+00  0.10566000000E+00 0. -1.
     999900   -1    0    0    0    0 -0.00000000000E+00 -0.00000000000E+00 -0.74505805969E-08  0.93827000000E+00  0.93827000000E+00 0. -1.
     999902    2    1    2    0    0  0.14497228128E-02 -0.29492657885E-02  0.23150572919E-01  0.10205473378E+01  0.10202794322E+01 0.  0.
     999903    2    3    3    0    0 -0.47757250456E-02  0.26361188005E-01 -0.12353428301E+00  0.12790278040E+00  0.19511083291E-01 0.  0.
         14    1    1    2    0    0 -0.14497228128E-02  0.29492657885E-02 -0.23150572919E-01  0.23382662197E-01  0.00000000000E+00 0.  1.
     999901    1    3    3    0    0  0.62254478584E-02 -0.29310453794E-01  0.14668485593E+00  0.89264455740E+00  0.88000000000E+00 0.  1.
        -11    1    4    4    0    0 -0.63770120004E-02  0.75855461244E-02 -0.77882929388E-01  0.78512537873E-01  0.51100000000E-03 0.  1.
         11    1    4    4    0    0  0.16012869548E-02  0.18775641881E-01 -0.45651353626E-01  0.49390242527E-01  0.51100000000E-03 0. -1.
</event>
<event>
 8    1  0.1196210E+005  0.1043930E+01  0.7957747E-01            NaN
         13   -1    0    0    0    0  0.00000000000E+00  0.00000000000E+00  0.74505805969E-08  0.10566000000E+00  0.10566000000E+00 0. -1.
     999900   -1    0    0    0    0 -0.00000000000E+00 -0.00000000000E+00 -0.74505805969E-08  0.93827000000E+00  0.93827000000E+00 0. -1.
     999902    2    1    2    0    0  0.28320691897E-02 -0.82334753065E-02 -0.19315764712E-01  0.10227425155E+01  0.10225230284E+01 0.  0.
     999903    2    3    3    0    0  0.37073726135E-01 -0.95821604730E-01 -0.85874386226E-01  0.13523239076E+00  0.18898364947E-01 0.  0.
         14    1    1    2    0    0 -0.28320691897E-02  0.82334753065E-02  0.19315764712E-01  0.21187484464E-01  0.00000000000E+00 0. -1.
     999901    1    3    3    0    0 -0.34241656946E-01  0.87588129424E-01  0.66558621515E-01  0.88751012478E+00  0.88000000000E+00 0. -1.
        -11    1    4    4    0    0  0.38075246203E-01 -0.80213955932E-01 -0.71922684409E-01  0.11426782904E+00  0.51100000000E-03 0. -1.
         11    1    4    4    0    0 -0.10015200681E-02 -0.15607648798E-01 -0.13951701817E-01  0.20964561718E-01  0.51100000000E-03 0.  1.
</event>
<event>
 8    1  0.1196210E+005  0.1043930E+01  0.7957747E-01            NaN
         13   -1    0    0    0    0  0.00000000000E+00  0.00000000000E+00  0.74505805969E-08  0.10566000000E+00  0.10566000000E+00 0.  1.
     999900   -1    0    0    0    0 -0.00000000000E+00 -0.00000000000E+00 -0.74505805969E-08  0.93827000000E+00  0.93827000000E+00 0.  1.
     999902    2    1    2    0    0  0.14645290899E-01 -0.12329976053E-01 -0.14139231488E-01  0.10201301949E+01  0.10198525304E+01 0.  0.
     999903    2    3    3    0    0  0.74448361762E-01 -0.70581122864E-01 -0.83023835365E-01  0.13349910363E+00  0.20119641062E-01 0.  0.
         14    1    1    2    0    0 -0.14645290899E-01  0.12329976053E-01  0.14139231488E-01  0.23799805084E-01  0.00000000000E+00 0.  1.
     999901    1    3    3    0    0 -0.59803070863E-01  0.58251146811E-01  0.68884603877E-01  0.88663109129E+00  0.88000000000E+00 0.  1.
        -11    1    4    4    0    0  0.61647572668E-01 -0.46528719899E-01 -0.63223314951E-01  0.99813794967E-01  0.51100000000E-03 0.  1.
         11    1    4    4    0    0  0.12800789094E-01 -0.24052402964E-01 -0.19800520414E-01  0.33685308659E-01  0.51100000000E-03 0. -1.
</event>
<event>
 8    1  0.1196210E+005  0.1043930E+01  0.7957747E-01            NaN
         13   -1    0    0    0    0  0.00000000000E+00  0.00000000000E+00  0.74505805969E-08  0.10566000000E+00  0.10566000000E+00 0. -1.
     999900   -1    0    0    0    0 -0.00000000000E+00 -0.00000000000E+00 -0.74505805969E-08  0.93827000000E+00  0.93827000000E+00 0. -1.
     999902    2    1    2    0    0  0.18460486525E-03 -0.18598772788E-01  0.14625856941E-01  0.10202685520E+01  0.10199941442E+01 0.  0.
     999903    2    3    3    0    0 -0.12874252903E+00 -0.10285198543E-01  0.85191959798E-03  0.13072875938E+00  0.20220254012E-01 0.  0.
         14    1    1    2    0    0 -0.18460486525E-03  0.18598772788E-01 -0.14625856941E-01  0.23661447957E-01  0.00000000000E+00 0.  1.
     999901    1    3    3    0    0  0.12892713390E+00 -0.83135742447E-02  0.13773937343E-01  0.88953979266E+00  0.88000000000E+00 0.  1.
        -11    1    4    4    0    0 -0.34807111279E-01  0.60595991559E-02  0.17278722938E-02  0.35376551573E-01  0.51100000000E-03 0. -1.
         11    1    4    4    0    0 -0.93935417754E-01 -0.16344797699E-01 -0.87595269585E-03  0.95352207812E-01  0.51100000000E-03 0.  1.
</event>
<event>
 8    1  0.1196210E+005  0.1043930E+01  0.7957747E-01            NaN
         13   -1    0    0    0    0  0.00000000000E+00  0.00000000000E+00  0.74505805969E-08  0.10566000000E+00  0.10566000000E+00 0. -1.
     999900   -1    0    0    0    0 -0.00000000000E+00 -0.00000000000E+00 -0.74505805969E-08  0.93827000000E+00  0.93827000000E+00 0. -1.
     999902    2    1    2    0    0  0.82464782570E-02  0.21584884686E-01 -0.38324061040E-02  0.10205078099E+01  0.10202389873E+01 0.  0.
     999903    2    3    3    0    0 -0.29882635447E-02  0.12645167050E+00 -0.38153906098E-01  0.13354601395E+00  0.19490064106E-01 0.  0.
         14    1    1    2    0    0 -0.82464782570E-02 -0.21584884686E-01  0.38324061040E-02  0.23422190058E-01  0.00000000000E+00 0. -1.
     999901    1    3    3    0    0  0.11234741802E-01 -0.10486678582E+00  0.34321499994E-01  0.88696179599E+00  0.88000000000E+00 0.  1.
        -11    1    4    4    0    0  0.52878646536E-02  0.93312355694E-01 -0.32298631156E-01  0.98886904761E-01  0.51100000000E-03 0. -1.
         11    1    4    4    0    0 -0.82761281983E-02  0.33139314809E-01 -0.58552749427E-02  0.34659109187E-01  0.51100000000E-03 0.  1.
</event>
<event>
 8    1  0.1196210E+005  0.1043930E+01  0.7957747E-01            NaN
         13   -1    0    0    0    0  0.00000000000E+00  0.00000000000E+00  0.74505805969E-08  0.10566000000E+00  0.10566000000E+00 0. -1.
     999900   -1    0    0    0    0 -0.00000000000E+00 -0.00000000000E+00 -0.74505805969E-08  0.93827000000E+00  0.93827000000E+00 0. -1.
     999902    2    1    2    0    0  0.88446066435E-03 -0.12680274139E-01  0.20079117374E-01  0.10201656869E+01  0.10198888597E+01 0.  0.
     999903    2    3    3    0    0 -0.88146611220E-01 -0.92548708218E-01 -0.21581867924E-01  0.13109812128E+00  0.19643113774E-01 0.  0.
         14    1    1    2    0    0 -0.88446066435E-03  0.12680274139E-01 -0.20079117374E-01  0.23764313107E-01  0.00000000000E+00 0.  1.
     999901    1    3    3    0    0  0.89031071884E-01  0.79868434078E-01  0.41660985298E-01  0.88906756561E+00  0.88000000000E+00 0.  1.
        -11    1    4    4    0    0 -0.51318066641E-01 -0.40302095375E-01 -0.13855573524E-01  0.66708626834E-01  0.51100000000E-03 0.  1.
         11    1    4    4    0    0 -0.36828544579E-01 -0.52246612843E-01 -0.77262943993E-02  0.64389494450E-01  0.51100000000E-03 0. -1.
</event>
<event>
 8    1  0.1196210E+005  0.1043930E+01  0.7957747E-01            NaN
         13   -1    0    0    0    0  0.00000000000E+00  0.00000000000E+00  0.74505805969E-08  0.10566000000E+00  0.10566000000E+00 0. -1.
     999900   -1    0    0    0    0 -0.00000000000E+00 -0.00000000000E+00 -0.74505805969E-08  0.93827000000E+00  0.93827000000E+00 0.  1.
     999902    2    1    2    0    0 -0.23970190445E-02 -0.72670843439E-02  0.19868543426E-01  0.10226387992E+01  0.10224171352E+01 0.  0.
     999903    2    3    3    0    0 -0.73293723156E-01  0.10819025717E+00 -0.37535101066E-02  0.13195662141E+00  0.17926502531E-01 0.  0.
         14    1    1    2    0    0  0.23970190445E-02  0.72670843439E-02 -0.19868543426E-01  0.21291200835E-01  0.00000000000E+00 0.  1.
     999901    1    3    3    0    0  0.70896704112E-01 -0.11545734152E+00  0.23622053532E-01  0.89068217776E+00  0.88000000000E+00 0. -1.
        -11    1    4    4    0    0 -0.47246097819E-01  0.76727258580E-01 -0.98880378705E-02  0.90649326430E-01  0.51100000000E-03 0.  1.
         11    1    4    4    0    0 -0.26047625338E-01  0.31462998595E-01  0.61345277639E-02  0.41307294976E-01  0.51100000000E-03 0. -1.
</event>
<event>
 7    1  0.1334741E+005  0.1043930E+01  0.7957747E-01            NaN
         13   -1    0    0    0    0  0.00000000000E+00  0.00000000000E+00  0.74505805969E-08  0.10566000000E+00  0.10566000000E+00 0.  1.
     999900   -1    0    0    0    0 -0.00000000000E+00 -0.00000000000E+00 -0.74505805969E-08  0.93827000000E+00  0.93827000000E+00 0. -1.
     999903    2    1    2    0    0  0.48703425436E-01  0.16218599770E-01  0.10370870894E+00  0.11755248714E+00  0.20688748018E-01 0.  0.
         14    1    1    2    0    0 -0.25360742338E-01 -0.49355882543E-02 -0.34745567096E-01  0.43298749591E-01  0.00000000000E+00 0. -1.
     999901    1    1    2    0    0 -0.23342683098E-01 -0.11283011516E-01 -0.68963141846E-01  0.88307876327E+00  0.88000000000E+00 0. -1.
        -11    1    3    3    0    0  0.42939317679E-01  0.72592953605E-02  0.72542386049E-01  0.84611708803E-01  0.51100000000E-03 0.  1.
         11    1    3    3    0    0  0.57641077569E-02  0.89593044098E-02  0.31166322893E-01  0.32940778337E-01  0.51100000000E-03 0. -1.
</event>
<event>
 8    1  0.1196210E+005  0.1043930E+01  0.7957747E-01            NaN
         13   -1    0    0    0    0  0.00000000000E+00  0.00000000000E+00  0.74505805969E-08  0.10566000000E+00  0.10566000000E+00 0.  1.
     999900   -1    0    0    0    0 -0.00000000000E+00 -0.00000000000E+00 -0.74505805969E-08  0.93827000000E+00  0.93827000000E+00 0.  1.
     999902    2    1    2    0    0 -0.50998592496E-02  0.19684856536E-01  0.12466160853E-01  0.10200782221E+01  0.10197993293E+01 0.  0.
     999903    2    3    3    0    0  0.33311208252E-01 -0.13043430513E-01  0.12500943165E+00  0.13147677115E+00  0.19468324910E-01 0.  0.
         14    1    1    2    0    0  0.50998592496E-02 -0.19684856536E-01 -0.12466160853E-01  0.23851777872E-01  0.00000000000E+00 0. -1.
     999901    1    3    3    0    0 -0.38411067502E-01  0.32728287049E-01 -0.11254327080E+00  0.88860145098E+00  0.88000000000E+00 0.  1.
        -11    1    4    4    0    0  0.35917436426E-01 -0.12024834205E-01  0.11669860592E+00  0.12269264290E+00  0.51100000000E-03 0.  1.
         11    1    4    4    0    0 -0.26062281740E-02 -0.10185963076E-02  0.83108257355E-02  0.87841282515E-02  0.51100000000E-03 0. -1.
</event>
<event>
 8    1  0.1196210E+005  0.1043930E+01  0.7957747E-01            NaN
         13   -1    0    0    0    0  0.00000000000E+00  0.00000000000E+00  0.74505805969E-08  0.10566000000E+00  0.10566000000E+00 0. -1.
     999900   -1    0    0    0    0 -0.00000000000E+00 -0.00000000000E+00 -0.74505805969E-08  0.93827000000E+00  0.93827000000E+00 0.  1.
     999902    2    1    2    0    0 -0.19554049034E-01  0.10994956616E-02  0.13577993358E-01  0.10200986839E+01  0.10198202750E+01 0.  0.
     999903    2    3    3    0    0 -0.13352518596E-01  0.95835727225E-01 -0.84044536390E-01  0.12962489378E+00  0.19399809892E-01 0.  0.
         14    1    1    2    0    0  0.19554049034E-01 -0.10994956616E-02 -0.13577993358E-01  0.23831316119E-01  0.00000000000E+00 0.  1.
     999901    1    3    3    0    0 -0.62015304376E-02 -0.94736231563E-01  0.97622529747E-01  0.89047379011E+00  0.88000000000E+00 0.  1.
        -11    1    4    4    0    0 -0.58861920717E-03  0.66285736206E-01 -0.60418634517E-01  0.89692908386E-01  0.51100000000E-03 0. -1.
         11    1    4    4    0    0 -0.12763899389E-01  0.29549991019E-01 -0.23625901873E-01  0.39931985390E-01  0.51100000000E-03 0.  1.
</event>
<event>
 8    1  0.1196210E+005  0.1043930E+01  0.7957747E-01            NaN
         13   -1    0    0    0    0  0.00000000000E+00  0.00000000000E+00  0.74505805969E-08  0.10566000000E+00  0.10566000000E+00 0.  1.
     999900   -1    0    0    0    0 -0.00000000000E+00 -0.00000000000E+00 -0.74505805969E-08  0.93827000000E+00  0.93827000000E+00 0. -1.
     999902    2    1    2    0    0 -0.19956939566E-01 -0.92615465256E-02  0.40042010346E-02  0.10215673234E+01  0.10213225283E+01 0.  0.
     999903    2    3    3    0    0 -0.15051002742E-01  0.12193051036E+00  0.40502956140E-01  0.13108005049E+00  0.21163840366E-01 0.  0.
         14    1    1    2    0    0  0.19956939566E-01  0.92615465256E-02 -0.40042010346E-02  0.22362676647E-01  0.00000000000E+00 0. -1.
     999901    1    3    3    0    0 -0.49059368245E-02 -0.13119205689E+00 -0.36498755106E-01  0.89048727286E+00  0.88000000000E+00 0.  1.
        -11    1    4    4    0    0 -0.19355780557E-01  0.11072825880E+00  0.34092206936E-01  0.11746460417E+00  0.51100000000E-03 0. -1.
         11    1    4    4    0    0  0.43047778150E-02  0.11202251563E-01  0.64107492039E-02  0.13615446320E-01  0.51100000000E-03 0.  1.
</event>
<event>
 7    1  0.1196210E+005  0.1043930E+01  0.7957747E-01            NaN
         13   -1    0    0    0    0  0.00000000000E+00  0.00000000000E+00  0.74505805969E-08  0.10566000000E+00  0.10566000000E+00 0. -1.
     999900   -1    0    0    0    0 -0.00000000000E+00 -0.00000000000E+00 -0.74505805969E-08  0.93827000000E+00  0.93827000000E+00 0. -1.
     999902    2    1    2    0    0 -0.20085892915E-01  0.10964394358E-01 -0.47049410760E-02  0.10205676904E+01  0.10203002564E+01 0.  0.
         14    1    1    2    0    0  0.20085892915E-01 -0.10964394358E-01  0.47049410760E-02  0.23362309568E-01  0.00000000000E+00 0.  1.
     999901    1    3    3    0    0 -0.85261508506E-01 -0.70815018412E-01 -0.67366602133E-01  0.88950691439E+00  0.88000000000E+00 0. -1.
        -11    1    3    3    0    0  0.24073395570E-01  0.31607293168E-01 -0.15867319088E-02  0.39765917502E-01  0.51100000000E-03 0. -1.
         11    1    3    3    0    0  0.41102220021E-01  0.50172119602E-01  0.64248392966E-01  0.91294858539E-01  0.51100000000E-03 0.  1.
</event>
<event>
 8    1  0.1196210E+005  0.1043930E+01  0.7957747E-01            NaN
         13   -1    0    0    0    0  0.00000000000E+00  0.00000000000E+00  0.74505805969E-08  0.10566000000E+00  0.10566000000E+00 0.  1.
     999900   -1    0    0    0    0 -0.00000000000E+00 -0.00000000000E+00 -0.74505805969E-08  0.93827000000E+00  0.93827000000E+00 0.  1.
     999902    2    1    2    0    0  0.22739968468E-01 -0.45404815223E-02 -0.17865316725E-02  0.10206724457E+01  0.10204074321E+01 0.  0.
     999903    2    3    3    0    0  0.10525327165E+00 -0.10025658807E-01 -0.78929756020E-01  0.13343538070E+00  0.19908023788E-01 0.  0.
         14    1    1    2    0    0 -0.22739968468E-01  0.45404815223E-02  0.17865316725E-02  0.23257554338E-01  0.00000000000E+00 0. -1.
     999901    1    3    3    0    0 -0.82513303180E-01  0.54851772847E-02  0.77143224348E-01  0.88723706496E+00  0.88000000000E+00 0. -1.
        -11    1    4    4    0    0  0.38388154837E-01 -0.12448904346E-01 -0.34714989271E-01  0.53235488655E-01  0.51100000000E-03 0. -1.
         11    1    4    4    0    0  0.66865116811E-01  0.24232455391E-02 -0.44214766749E-01  0.80199892050E-01  0.51100000000E-03 0.  1.
</event>
<event>
 8    1  0.1196210E+005  0.1043930E+01  0.7957747E-01            NaN
         13   -1    0    0    0    0  0.00000000000E+00  0.00000000000E+00  0.74505805969E-08  0.10566000000E+00  0.10566000000E+00 0. -1.
     999900   -1    0    0    0    0 -0.00000000000E+00 -0.00000000000E+00 -0.74505805969E-08  0.93827000000E+00  0.93827000000E+00 0. -1.
     999902    2    1    2    0    0 -0.15844867988E-01 -0.15938078248E-01  0.10716461420E-01  0.10190317124E+01  0.10187274936E+01 0.  0.
     999903    2    3    3    0    0 -0.63144743337E-01 -0.51860255907E-01 -0.99967837492E-01  0.13011175252E+00  0.16085858925E-01 0.  0.
         14    1    1    2    0    0  0.15844867988E-01  0.15938078248E-01 -0.10716461420E-01  0.24898287595E-01  0.00000000000E+00 0.  1.
     999901    1    3    3    0    0  0.47299875349E-01  0.35922177659E-01  0.11068429891E+00  0.88891995988E+00  0.88000000000E+00 0. -1.
        -11    1    4    4    0    0 -0.52254542412E-01 -0.47474268261E-01 -0.91759798611E-01  0.11577765377E+00  0.51100000000E-03 0. -1.
         11    1    4    4    0    0 -0.10890200925E-01 -0.43859876463E-02 -0.82080388813E-02  0.14334098754E-01  0.51100000000E-03 0.  1.
</event>
<event>
 8    1  0.1196210E+005  0.1043930E+01  0.7957747E-01            NaN
         13   -1    0    0    0    0  0.00000000000E+00  0.00000000000E+00  0.74505805969E-08  0.10566000000E+00  0.10566000000E+00 0.  1.
     999900   -1    0    0    0    0 -0.00000000000E+00 -0.00000000000E+00 -0.74505805969E-08  0.93827000000E+00  0.93827000000E+00 0.  1.
     999902    2    1    2    0    0  0.16046806424E-01  0.76289886527E-02  0.15940785854E-01  0.10200593042E+01  0.10197799635E+01 0.  0.
     999903    2    3    3    0    0  0.70423832118E-01 -0.10803640862E+00 -0.88002220742E-03  0.13066721708E+00  0.21018217413E-01 0.  0.
         14    1    1    2    0    0 -0.16046806424E-01 -0.76289886527E-02 -0.15940785854E-01  0.23870695798E-01  0.00000000000E+00 0. -1.
     999901    1    3    3    0    0 -0.54377025695E-01  0.11566539727E+00  0.16820808061E-01  0.88939208712E+00  0.88000000000E+00 0. -1.
        -11    1    4    4    0    0  0.64406979687E-01 -0.93428812432E-01 -0.70535009667E-02  0.11369791125E+00  0.51100000000E-03 0. -1.
         11    1    4    4    0    0  0.60168524308E-02 -0.14607596186E-01  0.61734787592E-02  0.16969305834E-01  0.51100000000E-03 0.  1.
</event>
<event>
 8    1  0.1196210E+005  0.1043930E+01  0.7957747E-01            NaN
         13   -1    0    0    0    0  0.00000000000E+00  0.00000000000E+00  0.74505805969E-08  0.10566000000E+00  0.10566000000E+00 0. -1.
     999900   -1    0    0    0    0 -0.00000000000E+00 -0.00000000000E+00 -0.74505805969E-08  0.93827000000E+00  0.93827000000E+00 0.  1.
     999902    2    1    2    0    0  0.71078884245E-02 -0.22623540353E-01 -0.34699831817E-02  0.10199636186E+01  0.10196820072E+01 0.  0.
     999903    2    3    3    0    0  0.48868985242E-01 -0.52186227387E-01  0.10842589651E+00  0.13140375588E+00  0.19979789237E-01 0.  0.
         14    1    1    2    0    0 -0.71078884245E-02  0.22623540353E-01  0.34699831817E-02  0.23966381438E-01  0.00000000000E+00 0. -1.
     999901    1    3    3    0    0 -0.41761096817E-01  0.29562687034E-01 -0.11189587969E+00  0.88855986268E+00  0.88000000000E+00 0.  1.
        -11    1    4    4    0    0  0.55037532272E-03 -0.95137660165E-02  0.17663942374E-01  0.20077117273E-01  0.51100000000E-03 0.  1.
         11    1    4    4    0    0  0.48318609919E-01 -0.42672461371E-01  0.90761954139E-01  0.11132663861E+00  0.51100000000E-03 0. -1.
</event>
<event>
 8    1  0.1196210E+005  0.1043930E+01  0.7957747E-01            NaN
         13   -1    0    0    0    0  0.00000000000E+00  0.00000000000E+00  0.74505805969E-08  0.10566000000E+00  0.10566000000E+00 0. -1.
     999900   -1    0    0    0    0 -0.00000000000E+00 -0.00000000000E+00 -0.74505805969E-08  0.93827000000E+00  0.93827000000E+00 0. -1.
     999902    2    1    2    0    0  0.78861686255E-02  0.13276346563E-01 -0.18040200917E-01  0.10201833817E+01  0.10199069714E+01 0.  0.
     999903    2    3    3    0    0 -0.10198922742E+00  0.59491643622E-01  0.49607710497E-01  0.12957421021E+00  0.19684837879E-01 0.  0.
         14    1    1    2    0    0 -0.78861686255E-02 -0.13276346563E-01  0.18040200917E-01  0.23746618344E-01  0.00000000000E+00 0. -1.
     999901    1    3    3    0    0  0.10987539604E+00 -0.46215297059E-01 -0.67647911414E-01  0.89060917144E+00  0.88000000000E+00 0. -1.
        -11    1    4    4    0    0 -0.41190713911E-01  0.25455308978E-01  0.30843005960E-01  0.57412540488E-01  0.51100000000E-03 0. -1.
         11    1    4    4    0    0 -0.60798513505E-01  0.34036334644E-01  0.18764704537E-01  0.72161669727E-01  0.51100000000E-03 0.  1.
</event>
<event>
 8    1  0.1196210E+005  0.1043930E+01  0.7957747E-01            NaN
         13   -1    0    0    0    0  0.00000000000E+00  0.00000000000E+00  0.74505805969E-08  0.10566000000E+00  0.10566000000E+00 0.  1.
     999900   -1    0    0    0    0 -0.00000000000E+00 -0.00000000000E+00 -0.74505805969E-08  0.93827000000E+00  0.93827000000E+00 0. -1.
     999902    2    1    2    0    0 -0.37642903811E-02  0.70150502240E-02 -0.23182028629E-01  0.10194190379E+01  0.10191243239E+01 0.  0.
     999903    2    3    3    0    0  0.22269211776E-01  0.66345554858E-01 -0.11099520757E+00  0.13267837321E+00  0.19645970880E-01 0.  0.
         14    1    1    2    0    0  0.37642903811E-02 -0.70150502240E-02  0.23182028629E-01  0.24510962100E-01  0.00000000000E+00 0.  1.
     999901    1    3    3    0    0 -0.26033502157E-01 -0.59330504634E-01  0.87813178943E-01  0.88674066469E+00  0.88000000000E+00 0.  1.
        -11    1    4    4    0    0 -0.11310424517E-02  0.25937867530E-01 -0.38045943711E-01  0.46063078304E-01  0.51100000000E-03 0. -1.
         11    1    4    4    0    0  0.23400254228E-01  0.40407687328E-01 -0.72949263861E-01  0.86615294908E-01  0.51100000000E-03 0.  1.
</event>
<event>
 8    1  0.1196210E+005  0.1043930E+01  0.7957747E-01            NaN
         13   -1    0    0    0    0  0.00000000000E+00  0.00000000000E+00  0.74505805969E-08  0.10566000000E+00  0.10566000000E+00 0.  1.
     999900   -1    0    0    0    0 -0.00000000000E+00 -0.00000000000E+00 -0.74505805969E-08  0.93827000000E+00  0.93827000000E+00 0. -1.
     999902    2    1    2    0    0 -0.23349052019E-01  0.15689446758E-02 -0.25018169545E-02  0.10203949430E+01  0.10201234930E+01 0.  0.
     999903    2    3    3    0    0  0.20518401893E-01 -0.12692725098E+00 -0.29208064231E-02  0.12998166745E+00  0.18845978492E-01 0.  0.
         14    1    1    2    0    0  0.23349052019E-01 -0.15689446758E-02  0.25018169545E-02  0.23535056951E-01  0.00000000000E+00 0.  1.
     999901    1    3    3    0    0 -0.43867453912E-01  0.12849619566E+00  0.41898946862E-03  0.89041327560E+00  0.88000000000E+00 0.  1.
        -11    1    4    4    0    0  0.84109841053E-02 -0.43817462171E-01  0.78487581168E-02  0.45305394488E-01  0.51100000000E-03 0.  1.
         11    1    4    4    0    0  0.12107417788E-01 -0.83109788810E-01 -0.10769564540E-01  0.84676272963E-01  0.51100000000E-03 0. -1.
</event>
<event>
 8    1  0.1196210E+005  0.1043930E+01  0.7957747E-01            NaN
         13   -1    0    0    0    0  0.00000000000E+00  0.00000000000E+00  0.74505805969E-08  0.10566000000E+00  0.10566000000E+00 0.  1.
     999900   -1    0    0    0    0 -0.00000000000E+00 -0.00000000000E+00 -0.74505805969E-08  0.93827000000E+00  0.93827000000E+00 0. -1.
     999902    2    1    2    0    0 -0.21886397770E-01  0.57544437676E-02 -0.88817136456E-02  0.10196192438E+01  0.10193293822E+01 0.  0.
     999903    2    3    3    0    0 -0.13026449986E+00 -0.15034493081E-01  0.51522593399E-02  0.13261589244E+00  0.19119446760E-01 0.  0.
         14    1    1    2    0    0  0.21886397770E-01 -0.57544437676E-02  0.88817136456E-02  0.24310756214E-01  0.00000000000E+00 0. -1.
     999901    1    3    3    0    0  0.10837810209E+00  0.20788936849E-01 -0.14033972985E-01  0.88700335135E+00  0.88000000000E+00 0.  1.
        -11    1    4    4    0    0 -0.11798951052E+00 -0.17771012298E-01  0.84007448215E-02  0.11961675094E+00  0.51100000000E-03 0. -1.
         11    1    4    4    0    0 -0.12274989341E-01  0.27365192170E-02 -0.32484854817E-02  0.12999141497E-01  0.51100000000E-03 0.  1.
</event>
<event>
 8    1  0.1196210E+005  0.1043930E+01  0.7957747E-01            NaN
         13   -1    0    0    0    0  0.00000000000E+00  0.00000000000E+00  0.74505805969E-08  0.10566000000E+00  0.10566000000E+00 0. -1.
     999900   -1    0    0    0    0 -0.00000000000E+00 -0.00000000000E+00 -0.74505805969E-08  0.93827000000E+00  0.93827000000E+00 0.  1.
     999902    2    1    2    0    0  0.17120164180E-01  0.17512724869E-01 -0.78467259831E-04  0.10194391505E+01  0.10191449258E+01 0.  0.
     999903    2    3    3    0    0  0.17083737872E-01 -0.10456176136E+00 -0.69502167738E-01  0.12830401385E+00  0.20158189673E-01 0.  0.
         14    1    1    2    0    0 -0.17120164180E-01 -0.17512724869E-01  0.78467259831E-04  0.24490849536E-01  0.00000000000E+00 0. -1.
     999901    1    3    3    0    0  0.36426308004E-04  0.12207448623E+00  0.69423700478E-01  0.89113513661E+00  0.88000000000E+00 0. -1.
        -11    1    4    4    0    0 -0.79732915650E-03 -0.50570935349E-01 -0.38184258382E-01  0.63374710611E-01  0.51100000000E-03 0. -1.
         11    1    4    4    0    0  0.17881067028E-01 -0.53990826015E-01 -0.31317909356E-01  0.64929303241E-01  0.51100000000E-03 0.  1.
</event>
<event>
 8    1  0.1196210E+005  0.1043930E+01  0.7957747E-01            NaN
         13   -1    0    0    0    0  0.00000000000E+00  0.00000000000E+00  0.74505805969E-08  0.10566000000E+00  0.10566000000E+00 0.  1.
     999900   -1    0    0    0    0 -0.00000000000E+00 -0.00000000000E+00 -0.74505805969E-08  0.93827000000E+00  0.93827000000E+00 0.  1.
     999902    2    1    2    0    0  0.68300025593E-02 -0.68777790287E-02 -0.21643915351E-01  0.10202147760E+01  0.10199391047E+01 0.  0.
     999903    2    3    3    0    0 -0.11240102583E-02 -0.12877183172E+00 -0.18180147628E-01  0.13177039161E+00  0.21200714445E-01 0.  0.
         14    1    1    2    0    0 -0.68300025593E-02  0.68777790287E-02  0.21643915351E-01  0.23715224035E-01  0.00000000000E+00 0.  1.
     999901    1    3    3    0    0  0.79540128176E-02  0.12189405270E+00 -0.34637677224E-02  0.88844438435E+00  0.88000000000E+00 0. -1.
        -11    1    4    4    0    0 -0.10260663098E-01 -0.91458849962E-01 -0.14605141911E-01  0.93185694905E-01  0.51100000000E-03 0. -1.
         11    1    4    4    0    0  0.91366528396E-02 -0.37312981762E-01 -0.35750057173E-02  0.38584696707E-01  0.51100000000E-03 0.  1.
</event>
<event>
 8    1  0.1196210E+005  0.1043930E+01  0.7957747E-01            NaN
         13   -1    0    0    0    0  0.00000000000E+00  0.00000000000E+00  0.74505805969E-08  0.10566000000E+00  0.10566000000E+00 0. -1.
     999900   -1    0    0    0    0 -0.00000000000E+00 -0.00000000000E+00 -0.74505805969E-08  0.93827000000E+00  0.93827000000E+00 0.  1.
     999902    2    1    2    0    0 -0.12706736709E-01  0.24252339632E-02 -0.20134297258E-01  0.10199981626E+01  0.10197173720E+01 0.  0.
     999903    2    3    3    0    0  0.35540829416E-01 -0.40677909895E-01  0.11373478029E+00  0.12752595650E+00  0.20234288332E-01 0.  0.
         14    1    1    2    0    0  0.12706736709E-01 -0.24252339632E-02  0.20134297258E-01  0.23931837447E-01  0.00000000000E+00 0. -1.
     999901    1    3    3    0    0 -0.48247566125E-01  0.43103143859E-01 -0.13386907755E+00  0.89247220605E+00  0.88000000000E+00 0.  1.
        -11    1    4    4    0    0  0.36261842682E-02 -0.18048589010E-01  0.32362434607E-01  0.37235588786E-01  0.51100000000E-03 0. -1.
         11    1    4    4    0    0  0.31914645148E-01 -0.22629320886E-01  0.81372345687E-01  0.90290367716E-01  0.51100000000E-03 0.  1.
</event>
<event>
 8    1  0.1624804E+005  0.1043930E+01  0.7957747E-01            NaN
         13   -1    0    0    0    0  0.00000000000E+00  0.00000000000E+00  0.74505805969E-08  0.10566000000E+00  0.10566000000E+00 0. -1.
     999900   -1    0    0    0    0 -0.00000000000E+00 -0.00000000000E+00 -0.74505805969E-08  0.93827000000E+00  0.93827000000E+00 0. -1.
     999902    2    1    2    0    0  0.70949860690E-03 -0.22452757972E-01  0.76646004566E-02  0.10201944606E+01  0.10199183113E+01 0.  0.
     999903    2    3    3    0    0  0.17559826159E-01 -0.35713149436E-02 -0.12678148795E+00  0.12962374861E+00  0.20190808131E-01 0.  0.
         14    1    1    2    0    0 -0.70949860690E-03  0.22452757972E-01 -0.76646004566E-02  0.23735539366E-01  0.00000000000E+00 0. -1.
     999901    1    3    3    0    0 -0.16850327552E-01 -0.18881443028E-01  0.13444608840E+00  0.89057071202E+00  0.88000000000E+00 0.  1.
        -11    1    4    4    0    0  0.11502382160E-01  0.79006894916E-02 -0.61793036168E-01  0.63351133610E-01  0.51100000000E-03 0.  1.
         11    1    4    4    0    0  0.60574439984E-02 -0.11472004435E-01 -0.64988451777E-01  0.66272615000E-01  0.51100000000E-03 0. -1.
</event>
<event>
 8    1  0.1196210E+005  0.1043930E+01  0.7957747E-01            NaN
         13   -1    0    0    0    0  0.00000000000E+00  0.00000000000E+00  0.74505805969E-08  0.10566000000E+00  0.10566000000E+00 0.  1.
     999900   -1    0    0    0    0 -0.00000000000E+00 -0.00000000000E+00 -0.74505805969E-08  0.93827000000E+00  0.93827000000E+00 0. -1.
     999902    2    1    2    0    0 -0.58976711086E-02 -0.20707750661E-01 -0.91890534570E-02  0.10205199132E+01  0.10202513715E+01 0.  0.
     999903    2    3    3    0    0  0.11070617638E+00  0.22468156200E-01  0.59010983160E-01  0.12916596486E+00  0.20997019133E-01 0.  0.
         14    1    1    2    0    0  0.58976711086E-02  0.20707750661E-01  0.91890534570E-02  0.23410086830E-01  0.00000000000E+00 0.  1.
     999901    1    3    3    0    0 -0.11660384749E+00 -0.43175906861E-01 -0.68200036617E-01  0.89135394831E+00  0.88000000000E+00 0. -1.
        -11    1    4    4    0    0  0.58295682200E-01  0.92517059668E-02  0.42191634482E-01  0.72556018136E-01  0.51100000000E-03 0. -1.
         11    1    4    4    0    0  0.52410494177E-01  0.13216450233E-01  0.16819348678E-01  0.56609946720E-01  0.51100000000E-03 0.  1.
</event>
<event>
 7    1  0.2034377E+005  0.1043930E+01  0.7957747E-01            NaN
         13   -1    0    0    0    0  0.00000000000E+00  0.00000000000E+00  0.74505805969E-08  0.10566000000E+00  0.10566000000E+00 0. -1.
     999900   -1    0    0    0    0 -0.00000000000E+00 -0.00000000000E+00 -0.74505805969E-08  0.93827000000E+00  0.93827000000E+00 0.  1.
     999903    2    1    2    0    0  0.10973711310E+00  0.40362302665E-01  0.11544288064E-01  0.11825175824E+00  0.13373790449E-01 0.  0.
         14    1    1    2    0    0 -0.34349640764E-01 -0.77245758094E-02  0.21467028977E-01  0.41235909413E-01  0.00000000000E+00 0.  1.
     999901    1    1    2    0    0 -0.75387472337E-01 -0.32637726855E-01 -0.33011317040E-01  0.88444233235E+00  0.88000000000E+00 0.  1.
        -11    1    3    3    0    0  0.39628657610E-01  0.17458644824E-01  0.10156941335E-01  0.44482124065E-01  0.51100000000E-03 0.  1.
         11    1    3    3    0    0  0.70108455492E-01  0.22903657840E-01  0.13873467289E-02  0.73769634172E-01  0.51100000000E-03 0. -1.
</event>
<event>
 8    1  0.1196210E+005  0.1043930E+01  0.7957747E-01            NaN
         13   -1    0    0    0    0  0.00000000000E+00  0.00000000000E+00  0.74505805969E-08  0.10566000000E+00  0.10566000000E+00 0.  1.
     999900   -1    0    0    0    0 -0.00000000000E+00 -0.00000000000E+00 -0.74505805969E-08  0.93827000000E+00  0.93827000000E+00 0. -1.
     999902    2    1    2    0    0 -0.47755153344E-02 -0.25254346556E-01 -0.24735518628E-02  0.10181093489E+01  0.10177818726E+01 0.  0.
     999903    2    3    3    0    0  0.43807520917E-01 -0.96456462881E-01  0.73824051841E-01  0.13061209415E+00  0.19661647633E-01 0.  0.
         14    1    1    2    0    0  0.47755153344E-02  0.25254346556E-01  0.24735518628E-02  0.25820651144E-01  0.00000000000E+00 0. -1.
     999901    1    3    3    0    0 -0.48583036251E-01  0.71202116324E-01 -0.76297603704E-01  0.88749725471E+00  0.88000000000E+00 0. -1.
        -11    1    4    4    0    0  0.24482552690E-01 -0.73255795568E-01  0.48541446908E-01  0.91226860954E-01  0.51100000000E-03 0.  1.
         11    1    4    4    0    0  0.19324968227E-01 -0.23200667312E-01  0.25282604933E-01  0.39385233196E-01  0.51100000000E-03 0. -1.
</event>
<event>
 8    1  0.1196210E+005  0.1043930E+01  0.7957747E-01            NaN
         13   -1    0    0    0    0  0.00000000000E+00  0.00000000000E+00  0.74505805969E-08  0.10566000000E+00  0.10566000000E+00 0. -1.
     999900   -1    0    0    0    0 -0.00000000000E+00 -0.00000000000E+00 -0.74505805969E-08  0.93827000000E+00  0.93827000000E+00 0.  1.
     999902    2    1    2    0    0  0.11455452013E-01  0.15871765350E-01 -0.11846168564E-01  0.10210504890E+01  0.10207941168E+01 0.  0.
     999903    2    3    3    0    0  0.62810979340E-01  0.83893197780E-01  0.78468601743E-01  0.13233171274E+00  0.19263254594E-01 0.  0.
         14    1    1    2    0    0 -0.11455452013E-01 -0.15871765350E-01  0.11846168564E-01  0.22879511048E-01  0.00000000000E+00 0. -1.
     999901    1    3    3    0    0 -0.51355527327E-01 -0.68021432430E-01 -0.90314770307E-01  0.88871877621E+00  0.88000000000E+00 0.  1.
        -11    1    4    4    0    0  0.28257140509E-01  0.31855019474E-01  0.42901247362E-01  0.60448212560E-01  0.51100000000E-03 0.  1.
         11    1    4    4    0    0  0.34553838831E-01  0.52038178307E-01  0.35567354381E-01  0.71883500180E-01  0.51100000000E-03 0. -1.
</event>
<event>
 8    1  0.1196210E+005  0.1043930E+01  0.7957747E-01            NaN
         13   -1    0    0    0    0  0.00000000000E+00  0.00000000000E+00  0.74505805969E-08  0.10566000000E+00  0.10566000000E+00 0. -1.
     999900   -1    0    0    0    0 -0.00000000000E+00 -0.00000000000E+00 -0.74505805969E-08  0.93827000000E+00  0.93827000000E+00 0. -1.
     999902    2    1    2    0    0 -0.64909202349E-02 -0.69938317427E-02 -0.19552973749E-01  0.10221730583E+01  0.10219414840E+01 0.  0.
     999903    2    3    3    0    0  0.12543717840E-02  0.12960452215E+00  0.40743052607E-02  0.13128734842E+00  0.20514928218E-01 0.  0.
         14    1    1    2    0    0  0.64909202349E-02  0.69938317427E-02  0.19552973749E-01  0.21756941659E-01  0.00000000000E+00 0. -1.
     999901    1    3    3    0    0 -0.77452920189E-02 -0.13659835389E+00 -0.23627279010E-01  0.89088570993E+00  0.88000000000E+00 0. -1.
        -11    1    4    4    0    0 -0.90991869818E-02  0.74972364776E-01 -0.95453907030E-04  0.75524306792E-01  0.51100000000E-03 0.  1.
         11    1    4    4    0    0  0.10353558766E-01  0.54632157376E-01  0.41697591677E-02  0.55763041624E-01  0.51100000000E-03 0. -1.
</event>
<event>
 8    1  0.1196210E+005  0.1043930E+01  0.7957747E-01            NaN
         13   -1    0    0    0    0  0.00000000000E+00  0.00000000000E+00  0.74505805969E-08  0.10566000000E+00  0.10566000000E+00 0. -1.
     999900   -1    0    0    0    0 -0.00000000000E+00 -0.00000000000E+00 -0.74505805969E-08  0.93827000000E+00  0.93827000000E+00 0.  1.
     999902    2    1    2    0    0 -0.24255709103E-01 -0.99000378287E-02 -0.49299232431E-02  0.10172718996E+01  0.10169225454E+01 0.  0.
     999903    2    3    3    0    0 -0.34315284459E-01  0.48841956494E-01 -0.11224110057E+00  0.12875205980E+00  0.20394920586E-01 0.  0.
         14    1    1    2    0    0  0.24255709103E-01  0.99000378287E-02  0.49299232431E-02  0.26658100388E-01  0.00000000000E+00 0.  1.
     999901    1    3    3    0    0  0.10059575356E-01 -0.58741994323E-01  0.10731117732E+00  0.88851983981E+00  0.88000000000E+00 0. -1.
        -11    1    4    4    0    0 -0.33466846861E-01  0.35020569298E-01 -0.94949087604E-01  0.10659296633E+00  0.51100000000E-03 0.  1.
         11    1    4    4    0    0 -0.84843759820E-03  0.13821387196E-01 -0.17292012963E-01  0.22159093477E-01  0.51100000000E-03 0. -1.
</event>
<event>
 8    1  0.1196210E+005  0.1043930E+01  0.7957747E-01            NaN
         13   -1    0    0    0    0  0.00000000000E+00  0.00000000000E+00  0.74505805969E-08  0.10566000000E+00  0.10566000000E+00 0. -1.
     999900   -1    0    0    0    0 -0.00000000000E+00 -0.00000000000E+00 -0.74505805969E-08  0.93827000000E+00  0.93827000000E+00 0.  1.
     999902    2    1    2    0    0  0.77136605454E-02  0.87129597794E-02 -0.20226509129E-01  0.10205948784E+01  0.10203280737E+01 0.  0.
     999903    2    3    3    0    0 -0.99255227637E-02  0.12990309273E+00  0.38715393726E-02  0.13178730361E+00  0.19482686486E-01 0.  0.
         14    1    1    2    0    0 -0.77136605454E-02 -0.87129597794E-02  0.20226509129E-01  0.23335121570E-01  0.00000000000E+00 0. -1.
     999901    1    3    3    0    0  0.17639183309E-01 -0.12119013295E+00 -0.24098048502E-01  0.88880757482E+00  0.88000000000E+00 0.  1.
        -11    1    4    4    0    0 -0.17637283082E-03  0.61815554811E-01  0.10429430062E-01  0.62691530978E-01  0.51100000000E-03 0.  1.
         11    1    4    4    0    0 -0.97491499329E-02  0.68087537921E-01 -0.65578906894E-02  0.69095772634E-01  0.51100000000E-03 0. -1.
</event>
<event>
 8    1  0.1196210E+005  0.1043930E+01  0.7957747E-01            NaN
         13   -1    0    0    0    0  0.00000000000E+00  0.00000000000E+00  0.74505805969E-08  0.10566000000E+00  0.10566000000E+00 0. -1.
     999900   -1    0    0    0    0 -0.00000000000E+00 -0.00000000000E+00 -0.74505805969E-08  0.93827000000E+00  0.93827000000E+00 0.  1.
     999902    2    1    2    0    0  0.20430975984E-01 -0.10640594743E-01 -0.76294929154E-03  0.10208815916E+01  0.10206213769E+01 0.  0.
     999903    2    3    3    0    0 -0.45462037066E-02  0.11576303178E+00  0.54681270629E-01  0.12977228419E+00  0.20713688537E-01 0.  0.
         14    1    1    2    0    0 -0.20430975984E-01  0.10640594743E-01  0.76294929154E-03  0.23048408357E-01  0.00000000000E+00 0. -1.
     999901    1    3    3    0    0  0.24977179691E-01 -0.12640362652E+00 -0.55444219920E-01  0.89110930745E+00  0.88000000000E+00 0.  1.
        -11    1    4    4    0    0  0.40792788713E-02  0.70187190863E-01  0.24609745411E-01  0.74490153493E-01  0.51100000000E-03 0.  1.
         11    1    4    4    0    0 -0.86254825780E-02  0.45575840914E-01  0.30071525218E-01  0.55282130699E-01  0.51100000000E-03 0. -1.
</event>
<event>
 8    1  0.1196210E+005  0.1043930E+01  0.7957747E-01            NaN
         13   -1    0    0    0    0  0.00000000000E+00  0.00000000000E+00  0.74505805969E-08  0.10566000000E+00  0.10566000000E+00 0. -1.
     999900   -1    0    0    0    0 -0.00000000000E+00 -0.00000000000E+00 -0.74505805969E-08  0.93827000000E+00  0.93827000000E+00 0. -1.
     999902    2    1    2    0    0 -0.89615553740E-02  0.21255608870E-01 -0.51607477064E-02  0.10202922400E+01  0.10200183877E+01 0.  0.
     999903    2    3    3    0    0  0.10817626404E+00 -0.64441285908E-01  0.15664000774E-01  0.12816058114E+00  0.18027484773E-01 0.  0.
         14    1    1    2    0    0  0.89615553740E-02 -0.21255608870E-01  0.51607477064E-02  0.23637760047E-01  0.00000000000E+00 0. -1.
     999901    1    3    3    0    0 -0.11713781941E+00  0.85696894778E-01 -0.20824748481E-01  0.89213165881E+00  0.88000000000E+00 0. -1.
        -11    1    4    4    0    0  0.56216695391E-01 -0.43324483268E-01  0.58190771991E-02  0.71214117080E-01  0.51100000000E-03 0. -1.
         11    1    4    4    0    0  0.51959568644E-01 -0.21116802640E-01  0.98449235752E-02  0.56946464057E-01  0.51100000000E-03 0.  1.
</event>
<event>
 8    1  0.1196210E+005  0.1043930E+01  0.7957747E-01            NaN
         13   -1    0    0    0    0  0.00000000000E+00  0.00000000000E+00  0.74505805969E-08  0.10566000000E+00  0.10566000000E+00 0.  1.
     999900   -1    0    0    0    0 -0.00000000000E+00 -0.00000000000E+00 -0.74505805969E-08  0.93827000000E+00  0.93827000000E+00 0. -1.
     999902    2    1    2    0    0  0.21281519635E-04 -0.23022331784E-01  0.14604181336E-01  0.10166662819E+01  0.10163006535E+01 0.  0.
     999903    2    3    3    0    0  0.10298500010E+00 -0.73215473691E-01 -0.14771226625E-01  0.12875649286E+00  0.19840097887E-01 0.  0.
         14    1    1    2    0    0 -0.21281519635E-04  0.23022331784E-01 -0.14604181336E-01  0.27263718128E-01  0.00000000000E+00 0. -1.
     999901    1    3    3    0    0 -0.10296371858E+00  0.50193141907E-01  0.29375407960E-01  0.88790978902E+00  0.88000000000E+00 0. -1.
        -11    1    4    4    0    0  0.61406464306E-01 -0.53359516147E-01 -0.40893595885E-02  0.81455360811E-01  0.51100000000E-03 0.  1.
         11    1    4    4    0    0  0.41578535790E-01 -0.19855957544E-01 -0.10681867036E-01  0.47301132045E-01  0.51100000000E-03 0. -1.
</event>
<event>
 8    1  0.1196210E+005  0.1043930E+01  0.7957747E-01            NaN
         13   -1    0    0    0    0  0.00000000000E+00  0.00000000000E+00  0.74505805969E-08  0.10566000000E+00  0.10566000000E+00 0.  1.
     999900   -1    0    0    0    0 -0.00000000000E+00 -0.00000000000E+00 -0.74505805969E-08  0.93827000000E+00  0.93827000000E+00 0.  1.
     999902    2    1    2    0    0  0.88752789376E-02  0.21074032548E-01 -0.71999529726E-02  0.10199565825E+01  0.10196748038E+01 0.  0.
     999903    2    3    3    0    0  0.11706480450E+00  0.36075540081E-01  0.44659479274E-01  0.13168893174E+00  0.18490338224E-01 0.  0.
         14    1    1    2    0    0 -0.88752789376E-02 -0.21074032548E-01  0.71999529726E-02  0.23973417505E-01  0.00000000000E+00 0.  1.
     999901    1    3    3    0    0 -0.10818952557E+00 -0.15001507533E-01 -0.51859432247E-01  0.88826765076E+00  0.88000000000E+00 0.  1.
        -11    1    4    4    0    0  0.93016867608E-01  0.32475089003E-01  0.28776370060E-01  0.10264068229E+00  0.51100000000E-03 0. -1.
         11    1    4    4    0    0  0.24047936894E-01  0.36004510783E-02  0.15883109214E-01  0.29048249450E-01  0.51100000000E-03 0.  1.
</event>
<event>
 8    1  0.1196210E+005  0.1043930E+01  0.7957747E-01            NaN
         13   -1    0    0    0    0  0.00000000000E+00  0.00000000000E+00  0.74505805969E-08  0.10566000000E+00  0.10566000000E+00 0. -1.
     999900   -1    0    0    0    0 -0.00000000000E+00 -0.00000000000E+00 -0.74505805969E-08  0.93827000000E+00  0.93827000000E+00 0.  1.
     999902    2    1    2    0    0 -0.43888391625E-02 -0.23467392706E-01  0.10507321221E-02  0.10200326263E+01  0.10197526535E+01 0.  0.
     999903    2    3    3    0    0 -0.89571919227E-01 -0.77908119202E-01  0.54976042417E-01  0.13260494539E+00  0.21654157829E-01 0.  0.
         14    1    1    2    0    0  0.43888391625E-02  0.23467392706E-01 -0.10507321221E-02  0.23897373654E-01  0.00000000000E+00 0.  1.
     999901    1    3    3    0    0  0.85183080064E-01  0.54440726496E-01 -0.53925310295E-01  0.88742768095E+00  0.88000000000E+00 0.  1.
        -11    1    4    4    0    0 -0.57393885280E-01 -0.60652226653E-01  0.44468003475E-01  0.94606633592E-01  0.51100000000E-03 0. -1.
         11    1    4    4    0    0 -0.32178033947E-01 -0.17255892549E-01  0.10508038942E-01  0.37998311801E-01  0.51100000000E-03 0.  1.
</event>
<event>
 8    1  0.1196210E+005  0.1043930E+01  0.7957747E-01            NaN
         13   -1    0    0    0    0  0.00000000000E+00  0.00000000000E+00  0.74505805969E-08  0.10566000000E+00  0.10566000000E+00 0. -1.
     999900   -1    0    0    0    0 -0.00000000000E+00 -0.00000000000E+00 -0.74505805969E-08  0.93827000000E+00  0.93827000000E+00 0. -1.
     999902    2    1    2    0    0 -0.15836788939E-01 -0.49403434103E-02 -0.16482654277E-01  0.10205443469E+01  0.10202763720E+01 0.  0.
     999903    2    3    3    0    0 -0.32165878433E-01 -0.12628019748E+00  0.40267326525E-02  0.13183143812E+00  0.19544346771E-01 0.  0.
         14    1    1    2    0    0  0.15836788939E-01  0.49403434103E-02  0.16482654277E-01  0.23385653058E-01  0.00000000000E+00 0. -1.
     999901    1    3    3    0    0  0.16329089494E-01  0.12133985407E+00 -0.20509386930E-01  0.88871290882E+00  0.88000000000E+00 0. -1.
        -11    1    4    4    0    0 -0.55794446256E-02 -0.61312039827E-01  0.23241563559E-02  0.61611356533E-01  0.51100000000E-03 0. -1.
         11    1    4    4    0    0 -0.26586433807E-01 -0.64968157654E-01  0.17025762965E-02  0.70220081590E-01  0.51100000000E-03 0.  1.
</event>
<event>
 8    1  0.1196210E+005  0.1043930E+01  0.7957747E-01            NaN
         13   -1    0    0    0    0  0.00000000000E+00  0.00000000000E+00  0.74505805969E-08  0.10566000000E+00  0.10566000000E+00 0.  1.
     999900   -1    0    0    0    0 -0.00000000000E+00 -0.00000000000E+00 -0.74505805969E-08  0.93827000000E+00  0.93827000000E+00 0.  1.
     999902    2    1    2    0    0  0.22797676775E-01  0.11415019340E-03  0.51731104635E-02  0.10205524858E+01  0.10202846996E+01 0.  0.
     999903    2    3    3    0    0  0.38952583852E-01  0.11311814600E+00  0.51860905360E-01  0.13195210643E+00  0.20218460480E-01 0.  0.
         14    1    1    2    0    0 -0.22797676775E-01 -0.11415019340E-03 -0.51731104635E-02  0.23377514164E-01  0.00000000000E+00 0. -1.
     999901    1    3    3    0    0 -0.16154907076E-01 -0.11300399580E+00 -0.46687794897E-01  0.88860037941E+00  0.88000000000E+00 0.  1.
        -11    1    4    4    0    0  0.33178323447E-01  0.96729138854E-01  0.51652500451E-01  0.11456687730E+00  0.51100000000E-03 0. -1.
         11    1    4    4    0    0  0.57742604048E-02  0.16389007141E-01  0.20840490871E-03  0.17385229130E-01  0.51100000000E-03 0.  1.
</event>
<event>
 8    1  0.1196210E+005  0.1043930E+01  0.7957747E-01            NaN
         13   -1    0    0    0    0  0.00000000000E+00  0.00000000000E+00  0.74505805969E-08  0.10566000000E+00  0.10566000000E+00 0.  1.
     999900   -1    0    0    0    0 -0.00000000000E+00 -0.00000000000E+00 -0.74505805969E-08  0.93827000000E+00  0.93827000000E+00 0. -1.
     999902    2    1    2    0    0  0.19111303474E-01  0.96795484175E-03  0.17188147940E-01  0.10182081943E+01  0.10178832525E+01 0.  0.
     999903    2    3    3    0    0 -0.11229365530E+00  0.54627077379E-01  0.88677103490E-02  0.12679594722E+00  0.20114505770E-01 0.  0.
         14    1    1    2    0    0 -0.19111303474E-01 -0.96795484175E-03 -0.17188147940E-01  0.25721805665E-01  0.00000000000E+00 0. -1.
     999901    1    3    3    0    0  0.13140495877E+00 -0.53659122537E-01  0.83204375913E-02  0.89141224711E+00  0.88000000000E+00 0. -1.
        -11    1    4    4    0    0 -0.96392439948E-01  0.40421393286E-01  0.25718286375E-02  0.10455748150E+00  0.51100000000E-03 0.  1.
         11    1    4    4    0    0 -0.15901215348E-01  0.14205684093E-01  0.62958817115E-02  0.22238465721E-01  0.51100000000E-03 0. -1.
</event>
<event>
 8    1  0.1196210E+005  0.1043930E+01  0.7957747E-01            NaN
         13   -1    0    0    0    0  0.00000000000E+00  0.00000000000E+00  0.74505805969E-08  0.10566000000E+00  0.10566000000E+00 0.  1.
     999900   -1    0    0    0    0 -0.00000000000E+00 -0.00000000000E+00 -0.74505805969E-08  0.93827000000E+00  0.93827000000E+00 0. -1.
     999902    2    1    2    0    0  0.23777832335E-01 -0.15737733550E-02 -0.82887326297E-03  0.10200857323E+01  0.10198070171E+01 0.  0.
     999903    2    3    3    0    0  0.79998194919E-02  0.82252723255E-01  0.98660079282E-01  0.13038135501E+00  0.20880107641E-01 0.  0.
         14    1    1    2    0    0 -0.23777832335E-01  0.15737733550E-02  0.82887326297E-03  0.23844267739E-01  0.00000000000E+00 0. -1.
     999901    1    3    3    0    0  0.15778012843E-01 -0.83826496610E-01 -0.99488952545E-01  0.88970437725E+00  0.88000000000E+00 0. -1.
        -11    1    4    4    0    0  0.16930863133E-02  0.42289144192E-01  0.34863297517E-01  0.54835653479E-01  0.51100000000E-03 0. -1.
         11    1    4    4    0    0  0.63067331785E-02  0.39963579063E-01  0.63796781766E-01  0.75545701529E-01  0.51100000000E-03 0.  1.
</event>
<event>
 8    1  0.1196210E+005  0.1043930E+01  0.7957747E-01            NaN
         13   -1    0    0    0    0  0.00000000000E+00  0.00000000000E+00  0.74505805969E-08  0.10566000000E+00  0.10566000000E+00 0. -1.
     999900   -1    0    0    0    0 -0.00000000000E+00 -0.00000000000E+00 -0.74505805969E-08  0.93827000000E+00  0.93827000000E+00 0. -1.
     999902    2    1    2    0    0 -0.28956975296E-02  0.18578738396E-01  0.76060434052E-02  0.10236468424E+01  0.10234458713E+01 0.  0.
     999903    2    3    3    0    0 -0.80922483120E-01 -0.57503647117E-01  0.86785291826E-01  0.13339628105E+00  0.20193147746E-01 0.  0.
         14    1    1    2    0    0  0.28956975296E-02 -0.18578738396E-01 -0.76060434052E-02  0.20283157566E-01  0.00000000000E+00 0. -1.
     999901    1    3    3    0    0  0.78026785590E-01  0.76082385513E-01 -0.79179248421E-01  0.89025056138E+00  0.88000000000E+00 0. -1.
        -11    1    4    4    0    0 -0.63308680633E-01 -0.42008523175E-01  0.76355295610E-01  0.10771767428E+00  0.51100000000E-03 0.  1.
         11    1    4    4    0    0 -0.17613802487E-01 -0.15495123942E-01  0.10429996217E-01  0.25678606778E-01  0.51100000000E-03 0. -1.
</event>
<event>
 8    1  0.1196210E+005  0.1043930E+01  0.7957747E-01            NaN
         13   -1    0    0    0    0  0.00000000000E+00  0.00000000000E+00  0.74505805969E-08  0.10566000000E+00  0.10566000000E+00 0.  1.
     999900   -1    0    0    0    0 -0.00000000000E+00 -0.00000000000E+00 -0.74505805969E-08  0.93827000000E+00  0.93827000000E+00 0.  1.
     999902    2    1    2    0    0  0.16134736280E-01 -0.14673989071E-01 -0.39116374554E-02  0.10217724600E+01  0.10215321843E+01 0.  0.
     999903    2    3    3    0    0  0.90081801528E-01  0.23912244548E-01  0.92211118789E-01  0.13261743971E+00  0.19949147389E-01 0.  0.
         14    1    1    2    0    0 -0.16134736280E-01  0.14673989071E-01  0.39116374554E-02  0.22157539973E-01  0.00000000000E+00 0. -1.
     999901    1    3    3    0    0 -0.73947065248E-01 -0.38586233619E-01 -0.96122756245E-01  0.88915502032E+00  0.88000000000E+00 0.  1.
        -11    1    4    4    0    0  0.65445678903E-01  0.96028750897E-02  0.56985373613E-01  0.87309484157E-01  0.51100000000E-03 0. -1.
         11    1    4    4    0    0  0.24636122625E-01  0.14309369458E-01  0.35225745177E-01  0.45307955554E-01  0.51100000000E-03 0.  1.
</event>
<event>
 8    1  0.1196210E+005  0.1043930E+01  0.7957747E-01            NaN
         13   -1    0    0    0    0  0.00000000000E+00  0.00000000000E+00  0.74505805969E-08  0.10566000000E+00  0.10566000000E+00 0.  1.
     999900   -1    0    0    0    0 -0.00000000000E+00 -0.00000000000E+00 -0.74505805969E-08  0.93827000000E+00  0.93827000000E+00 0. -1.
     999902    2    1    2    0    0  0.19433721963E-01 -0.15659320803E-01  0.56752198810E-02  0.10183352349E+01  0.10180135356E+01 0.  0.
     999903    2    3    3    0    0  0.92288069861E-01 -0.44882280724E-01 -0.78875423464E-01  0.13080464467E+00  0.18894858513E-01 0.  0.
         14    1    1    2    0    0 -0.19433721963E-01  0.15659320803E-01 -0.56752198810E-02  0.25594765052E-01  0.00000000000E+00 0. -1.
     999901    1    3    3    0    0 -0.72854347898E-01  0.29222959920E-01  0.84550643345E-01  0.88753059028E+00  0.88000000000E+00 0.  1.
        -11    1    4    4    0    0  0.39503324671E-01 -0.11238159669E-01 -0.24078579936E-01  0.47611427468E-01  0.51100000000E-03 0. -1.
         11    1    4    4    0    0  0.52784745191E-01 -0.33644121054E-01 -0.54796843527E-01  0.83193217199E-01  0.51100000000E-03 0.  1.
</event>
<event>
 8    1  0.1196210E+005  0.1043930E+01  0.7957747E-01            NaN
         13   -1    0    0    0    0  0.00000000000E+00  0.00000000000E+00  0.74505805969E-08  0.10566000000E+00  0.10566000000E+00 0. -1.
     999900   -1    0    0    0    0 -0.00000000000E+00 -0.00000000000E+00 -0.74505805969E-08  0.93827000000E+00  0.93827000000E+00 0.  1.
     999902    2    1    2    0    0 -0.14883741224E-01  0.11242920119E-01 -0.12756622021E-01  0.10213322034E+01  0.10210821756E+01 0.  0.
     999903    2    3    3    0    0  0.11096759492E+00 -0.54024935711E-01  0.32362631515E-01  0.12884455707E+00  0.17918682064E-01 0.  0.
         14    1    1    2    0    0  0.14883741224E-01 -0.11242920119E-01  0.12756622021E-01  0.22597796596E-01  0.00000000000E+00 0. -1.
     999901    1    3    3    0    0 -0.12585133615E+00  0.65267855830E-01 -0.45119253536E-01  0.89248764633E+00  0.88000000000E+00 0.  1.
        -11    1    4    4    0    0  0.14917082445E-01 -0.56301844153E-02  0.10478425643E-01  0.19086038095E-01  0.51100000000E-03 0. -1.
         11    1    4    4    0    0  0.96050512478E-01 -0.48394751296E-01  0.21884205872E-01  0.10975851898E+00  0.51100000000E-03 0.  1.
</event>
<event>
 8    1  0.1196210E+005  0.1043930E+01  0.7957747E-01            NaN
         13   -1    0    0    0    0  0.00000000000E+00  0.00000000000E+00  0.74505805969E-08  0.10566000000E+00  0.10566000000E+00 0. -1.
     999900   -1    0    0    0    0 -0.00000000000E+00 -0.00000000000E+00 -0.74505805969E-08  0.93827000000E+00  0.93827000000E+00 0.  1.
     999902    2    1    2    0    0  0.54531410400E-03  0.15089739060E-01 -0.13095919356E-01  0.10239424865E+01  0.10237473883E+01 0.  0.
     999903    2    3    3    0    0  0.86095993251E-01  0.10148614355E+00  0.13463415304E-01  0.13518568305E+00  0.19543489035E-01 0.  0.
         14    1    1    2    0    0 -0.54531410400E-03 -0.15089739060E-01  0.13095919356E-01  0.19987513506E-01  0.00000000000E+00 0. -1.
     999901    1    3    3    0    0 -0.85550679147E-01 -0.86396404489E-01 -0.26559334660E-01  0.88875680344E+00  0.88000000000E+00 0. -1.
        -11    1    4    4    0    0  0.32380503196E-01  0.24560824432E-01  0.56579598363E-02  0.41036626501E-01  0.51100000000E-03 0.  1.
         11    1    4    4    0    0  0.53715490054E-01  0.76925319117E-01  0.78054554679E-02  0.94149056549E-01  0.51100000000E-03 0. -1.
</event>
<event>
 8    1  0.1196210E+005  0.1043930E+01  0.7957747E-01            NaN
         13   -1    0    0    0    0  0.00000000000E+00  0.00000000000E+00  0.74505805969E-08  0.10566000000E+00  0.10566000000E+00 0. -1.
     999900   -1    0    0    0    0 -0.00000000000E+00 -0.00000000000E+00 -0.74505805969E-08  0.93827000000E+00  0.93827000000E+00 0.  1.
     999902    2    1    2    0    0  0.81771024783E-03 -0.23601560956E-01  0.20552203028E-02  0.10202250161E+01  0.10199495857E+01 0.  0.
     999903    2    3    3    0    0 -0.10105051058E+00  0.19416983149E-01  0.77729811684E-01  0.13008212124E+00  0.17064867946E-01 0.  0.
         14    1    1    2    0    0 -0.81771024783E-03  0.23601560956E-01 -0.20552203028E-02  0.23704983866E-01  0.00000000000E+00 0.  1.
     999901    1    3    3    0    0  0.10186822083E+00 -0.43018544105E-01 -0.75674591381E-01  0.89014289490E+00  0.88000000000E+00 0.  1.
        -11    1    4    4    0    0 -0.74024684356E-01  0.18020521002E-01  0.48864882198E-01  0.90512048394E-01  0.51100000000E-03 0.  1.
         11    1    4    4    0    0 -0.27025826225E-01  0.13964621473E-02  0.28864929486E-01  0.39570072844E-01  0.51100000000E-03 0. -1.
</event>
<event>
 8    1  0.1196210E+005  0.1043930E+01  0.7957747E-01            NaN
         13   -1    0    0    0    0  0.00000000000E+00  0.00000000000E+00  0.74505805969E-08  0.10566000000E+00  0.10566000000E+00 0. -1.
     999900   -1    0    0    0    0 -0.00000000000E+00 -0.00000000000E+00 -0.74505805969E-08  0.93827000000E+00  0.93827000000E+00 0. -1.
     999902    2    1    2    0    0 -0.40604556276E-02  0.24307096730E-01  0.30862989606E-02  0.10190935854E+01  0.10187908952E+01 0.  0.
     999903    2    3    3    0    0 -0.65188601252E-01  0.70879897469E-01 -0.86960958796E-01  0.13116668262E+00  0.19208765647E-01 0.  0.
         14    1    1    2    0    0  0.40604556276E-02 -0.24307096730E-01 -0.30862989606E-02  0.24836414649E-01  0.00000000000E+00 0.  1.
     999901    1    3    3    0    0  0.61128145625E-01 -0.46572800739E-01  0.90047257756E-01  0.88792690273E+00  0.88000000000E+00 0.  1.
        -11    1    4    4    0    0 -0.49085384076E-01  0.45105929516E-01 -0.50109948213E-01  0.83397768785E-01  0.51100000000E-03 0. -1.
         11    1    4    4    0    0 -0.16103217176E-01  0.25773967953E-01 -0.36851010582E-01  0.47768913839E-01  0.51100000000E-03 0.  1.
</event>
<event>
 8    1  0.1196210E+005  0.1043930E+01  0.7957747E-01            NaN
         13   -1    0    0    0    0  0.00000000000E+00  0.00000000000E+00  0.74505805969E-08  0.10566000000E+00  0.10566000000E+00 0. -1.
     999900   -1    0    0    0    0 -0.00000000000E+00 -0.00000000000E+00 -0.74505805969E-08  0.93827000000E+00  0.93827000000E+00 0.  1.
     999902    2    1    2    0    0  0.17699651000E-01 -0.15594481215E-01  0.15605622992E-02  0.10202889162E+01  0.10200149860E+01 0.  0.
     999903    2    3    3    0    0  0.98142368249E-01  0.69623392944E-01 -0.48160986633E-01  0.13112900408E+00  0.19899592663E-01 0.  0.
         14    1    1    2    0    0 -0.17699651000E-01  0.15594481215E-01 -0.15605622992E-02  0.23641083828E-01  0.00000000000E+00 0. -1.
     999901    1    3    3    0    0 -0.80442717249E-01 -0.85217874159E-01  0.49721548933E-01  0.88915991209E+00  0.88000000000E+00 0. -1.
        -11    1    4    4    0    0  0.79491244054E-01  0.61978108486E-01 -0.46162430040E-01  0.11086647320E+00  0.51100000000E-03 0. -1.
         11    1    4    4    0    0  0.18651124195E-01  0.76452844585E-02 -0.19985565934E-02  0.20262530880E-01  0.51100000000E-03 0.  1.
</event>
<event>
 8    1  0.1196210E+005  0.1043930E+01  0.7957747E-01            NaN
         13   -1    0    0    0    0  0.00000000000E+00  0.00000000000E+00  0.74505805969E-08  0.10566000000E+00  0.10566000000E+00 0. -1.
     999900   -1    0    0    0    0 -0.00000000000E+00 -0.00000000000E+00 -0.74505805969E-08  0.93827000000E+00  0.93827000000E+00 0.  1.
     999902    2    1    2    0    0  0.14364602622E-01 -0.14214663213E-01 -0.12339638510E-01  0.10202516314E+01  0.10199768264E+01 0.  0.
     999903    2    3    3    0    0  0.44496195818E-01  0.50555115733E-01 -0.11124423504E+00  0.13183441168E+00  0.21663358546E-01 0.  0.
         14    1    1    2    0    0 -0.14364602622E-01  0.14214663213E-01  0.12339638510E-01  0.23678368552E-01  0.00000000000E+00 0. -1.
     999901    1    3    3    0    0 -0.30131593196E-01 -0.64769778946E-01  0.98904596529E-01  0.88841721977E+00  0.88000000000E+00 0. -1.
        -11    1    4    4    0    0  0.11523969229E-01  0.22365428445E-01 -0.57498179940E-01  0.62763971144E-01  0.51100000000E-03 0. -1.
         11    1    4    4    0    0  0.32972226589E-01  0.28189687288E-01 -0.53746055099E-01  0.69070440532E-01  0.51100000000E-03 0.  1.
</event>
<event>
 8    1  0.1196210E+005  0.1043930E+01  0.7957747E-01            NaN
         13   -1    0    0    0    0  0.00000000000E+00  0.00000000000E+00  0.74505805969E-08  0.10566000000E+00  0.10566000000E+00 0.  1.
     999900   -1    0    0    0    0 -0.00000000000E+00 -0.00000000000E+00 -0.74505805969E-08  0.93827000000E+00  0.93827000000E+00 0.  1.
     999902    2    1    2    0    0  0.11280050725E-01  0.19197477870E-01  0.95359077095E-02  0.10197077739E+01  0.10194200449E+01 0.  0.
     999903    2    3    3    0    0  0.12276197720E+00  0.79929101793E-02 -0.40966939038E-01  0.13116722908E+00  0.19803086408E-01 0.  0.
         14    1    1    2    0    0 -0.11280050725E-01 -0.19197477870E-01 -0.95359077095E-02  0.24222226090E-01  0.00000000000E+00 0.  1.
     999901    1    3    3    0    0 -0.11148192648E+00  0.11204567691E-01  0.50502846747E-01  0.88854054483E+00  0.88000000000E+00 0. -1.
        -11    1    4    4    0    0  0.68840562356E-01  0.58978625153E-02 -0.33163991590E-01  0.76641498335E-01  0.51100000000E-03 0. -1.
         11    1    4    4    0    0  0.53921414848E-01  0.20950476640E-02 -0.78029474477E-02  0.54525730750E-01  0.51100000000E-03 0.  1.
</event>
<event>
 8    1  0.1196210E+005  0.1043930E+01  0.7957747E-01            NaN
         13   -1    0    0    0    0  0.00000000000E+00  0.00000000000E+00  0.74505805969E-08  0.10566000000E+00  0.10566000000E+00 0. -1.
     999900   -1    0    0    0    0 -0.00000000000E+00 -0.00000000000E+00 -0.74505805969E-08  0.93827000000E+00  0.93827000000E+00 0.  1.
     999902    2    1    2    0    0 -0.13781917145E-01  0.18136988097E-01  0.58057757948E-02  0.10204225839E+01  0.10201517785E+01 0.  0.
     999903    2    3    3    0    0  0.47142198079E-02  0.12012079079E+00 -0.51632933327E-01  0.13248001350E+00  0.20827047882E-01 0.  0.
         14    1    1    2    0    0  0.13781917145E-01 -0.18136988097E-01 -0.58057757948E-02  0.23507416064E-01  0.00000000000E+00 0.  1.
     999901    1    3    3    0    0 -0.18496136953E-01 -0.10198380269E+00  0.57438709121E-01  0.88794257044E+00  0.88000000000E+00 0. -1.
        -11    1    4    4    0    0  0.13009219952E-01  0.70889416944E-01 -0.30783226079E-01  0.78373575695E-01  0.51100000000E-03 0. -1.
         11    1    4    4    0    0 -0.82950001437E-02  0.49231373847E-01 -0.20849707247E-01  0.54106437801E-01  0.51100000000E-03 0.  1.
</event>
<event>
 8    1  0.1196210E+005  0.1043930E+01  0.7957747E-01            NaN
         13   -1    0    0    0    0  0.00000000000E+00  0.00000000000E+00  0.74505805969E-08  0.10566000000E+00  0.10566000000E+00 0. -1.
     999900   -1    0    0    0    0 -0.00000000000E+00 -0.00000000000E+00 -0.74505805969E-08  0.93827000000E+00  0.93827000000E+00 0. -1.
     999902    2    1    2    0    0 -0.75703240653E-02  0.92837191861E-02 -0.16924373495E-01  0.10231952064E+01  0.10229850921E+01 0.  0.
     999903    2    3    3    0    0  0.62186288443E-01 -0.11423455212E+00 -0.34019335244E-02  0.13173258533E+00  0.20621190989E-01 0.  0.
         14    1    1    2    0    0  0.75703240653E-02 -0.92837191861E-02  0.16924373495E-01  0.20734793623E-01  0.00000000000E+00 0. -1.
     999901    1    3    3    0    0 -0.69756612508E-01  0.12351827131E+00 -0.13522439971E-01  0.89146262104E+00  0.88000000000E+00 0.  1.
        -11    1    4    4    0    0  0.14044650955E-01 -0.46542621201E-01 -0.77559671205E-03  0.48624381538E-01  0.51100000000E-03 0.  1.
         11    1    4    4    0    0  0.48141637489E-01 -0.67691930922E-01 -0.26263368124E-02  0.83108203795E-01  0.51100000000E-03 0. -1.
</event>
<event>
 8    1  0.1196210E+005  0.1043930E+01  0.7957747E-01            NaN
         13   -1    0    0    0    0  0.00000000000E+00  0.00000000000E+00  0.74505805969E-08  0.10566000000E+00  0.10566000000E+00 0.  1.
     999900   -1    0    0    0    0 -0.00000000000E+00 -0.00000000000E+00 -0.74505805969E-08  0.93827000000E+00  0.93827000000E+00 0. -1.
     999902    2    1    2    0    0 -0.19631680152E-01 -0.11574127353E-01 -0.60472239043E-02  0.10203517853E+01  0.10200793271E+01 0.  0.
     999903    2    3    3    0    0  0.35017548973E-01 -0.10297031701E+00  0.69847226436E-01  0.13068905749E+00  0.19284184880E-01 0.  0.
         14    1    1    2    0    0  0.19631680152E-01  0.11574127353E-01  0.60472239043E-02  0.23578214659E-01  0.00000000000E+00 0.  1.
     999901    1    3    3    0    0 -0.54649229125E-01  0.91396189657E-01 -0.75894450340E-01  0.88966272785E+00  0.88000000000E+00 0. -1.
        -11    1    4    4    0    0  0.23948686029E-01 -0.40839072364E-01  0.30163465713E-01  0.56137912135E-01  0.51100000000E-03 0. -1.
         11    1    4    4    0    0  0.11068862945E-01 -0.62131244646E-01  0.39683760723E-01  0.74551145359E-01  0.51100000000E-03 0.  1.
</event>
<event>
 8    1  0.1196210E+005  0.1043930E+01  0.7957747E-01            NaN
         13   -1    0    0    0    0  0.00000000000E+00  0.00000000000E+00  0.74505805969E-08  0.10566000000E+00  0.10566000000E+00 0.  1.
     999900   -1    0    0    0    0 -0.00000000000E+00 -0.00000000000E+00 -0.74505805969E-08  0.93827000000E+00  0.93827000000E+00 0. -1.
     999902    2    1    2    0    0  0.10803795454E-01 -0.20112778259E-01  0.62302959557E-02  0.10202643618E+01  0.10199898556E+01 0.  0.
     999903    2    3    3    0    0 -0.85246830493E-01  0.85595067273E-01 -0.35916543459E-01  0.12775317000E+00  0.20912596681E-01 0.  0.
         14    1    1    2    0    0 -0.10803795454E-01  0.20112778259E-01 -0.62302959557E-02  0.23665638238E-01  0.00000000000E+00 0. -1.
     999901    1    3    3    0    0  0.96050625947E-01 -0.10570784553E+00  0.42146839415E-01  0.89251119176E+00  0.88000000000E+00 0. -1.
        -11    1    4    4    0    0 -0.52432167602E-01  0.46319380211E-01 -0.10981895984E-01  0.70820056078E-01  0.51100000000E-03 0. -1.
         11    1    4    4    0    0 -0.32814662891E-01  0.39275687062E-01 -0.24934647475E-01  0.56933113919E-01  0.51100000000E-03 0.  1.
</event>
<event>
 8    1  0.1196210E+005  0.1043930E+01  0.7957747E-01            NaN
         13   -1    0    0    0    0  0.00000000000E+00  0.00000000000E+00  0.74505805969E-08  0.10566000000E+00  0.10566000000E+00 0. -1.
     999900   -1    0    0    0    0 -0.00000000000E+00 -0.00000000000E+00 -0.74505805969E-08  0.93827000000E+00  0.93827000000E+00 0. -1.
     999902    2    1    2    0    0  0.14048271653E-01  0.17428407209E-01  0.87802204374E-02  0.10198843021E+01  0.10196008014E+01 0.  0.
     999903    2    3    3    0    0  0.70855015615E-01 -0.44021576666E-01 -0.97329665397E-01  0.12956839498E+00  0.18883134335E-01 0.  0.
         14    1    1    2    0    0 -0.14048271653E-01 -0.17428407209E-01 -0.87802204374E-02  0.24045697853E-01  0.00000000000E+00 0. -1.
     999901    1    3    3    0    0 -0.56806743962E-01  0.61449983875E-01  0.10610988583E+00  0.89031590716E+00  0.88000000000E+00 0.  1.
        -11    1    4    4    0    0  0.23526423825E-01 -0.85163695035E-02 -0.39988191446E-01  0.47173485600E-01  0.51100000000E-03 0.  1.
         11    1    4    4    0    0  0.47328591790E-01 -0.35505207162E-01 -0.57341473952E-01  0.82394909384E-01  0.51100000000E-03 0. -1.
</event>
<event>
 8    1  0.1196210E+005  0.1043930E+01  0.7957747E-01            NaN
         13   -1    0    0    0    0  0.00000000000E+00  0.00000000000E+00  0.74505805969E-08  0.10566000000E+00  0.10566000000E+00 0.  1.
     999900   -1    0    0    0    0 -0.00000000000E+00 -0.00000000000E+00 -0.74505805969E-08  0.93827000000E+00  0.93827000000E+00 0.  1.
     999902    2    1    2    0    0 -0.18349114081E-01  0.60742099481E-02  0.13827636414E-01  0.10201646988E+01  0.10198878483E+01 0.  0.
     999903    2    3    3    0    0  0.54384769315E-01 -0.11314676179E+00  0.22849302161E-01  0.12910619993E+00  0.19657757084E-01 0.  0.
         14    1    1    2    0    0  0.18349114081E-01 -0.60742099481E-02 -0.13827636414E-01  0.23765301236E-01  0.00000000000E+00 0. -1.
     999901    1    3    3    0    0 -0.72733883396E-01  0.11922097174E+00 -0.90216657463E-02  0.89105849884E+00  0.88000000000E+00 0.  1.
        -11    1    4    4    0    0  0.37819223829E-01 -0.84287998988E-01  0.25150762100E-01  0.95747493020E-01  0.51100000000E-03 0. -1.
         11    1    4    4    0    0  0.16565545486E-01 -0.28858762802E-01 -0.23014599393E-02  0.33358706907E-01  0.51100000000E-03 0.  1.
</event>
<event>
 8    1  0.1196210E+005  0.1043930E+01  0.7957747E-01            NaN
         13   -1    0    0    0    0  0.00000000000E+00  0.00000000000E+00  0.74505805969E-08  0.10566000000E+00  0.10566000000E+00 0. -1.
     999900   -1    0    0    0    0 -0.00000000000E+00 -0.00000000000E+00 -0.74505805969E-08  0.93827000000E+00  0.93827000000E+00 0.  1.
     999902    2    1    2    0    0 -0.21968247791E-01  0.93336543295E-03 -0.11893512407E-01  0.10189313857E+01  0.10186246796E+01 0.  0.
     999903    2    3    3    0    0 -0.41297759810E-01  0.11234397974E+00 -0.48992160628E-01  0.13092110152E+00  0.20332935654E-01 0.  0.
         14    1    1    2    0    0  0.21968247791E-01 -0.93336543295E-03  0.11893512407E-01  0.24998614350E-01  0.00000000000E+00 0. -1.
     999901    1    3    3    0    0  0.19329512019E-01 -0.11141061431E+00  0.37098648222E-01  0.88801028413E+00  0.88000000000E+00 0. -1.
        -11    1    4    4    0    0 -0.17217375368E-01  0.53224197775E-01 -0.33588664848E-01  0.65251151488E-01  0.51100000000E-03 0. -1.
         11    1    4    4    0    0 -0.24080384442E-01  0.59119781964E-01 -0.15403495780E-01  0.65669950035E-01  0.51100000000E-03 0.  1.
</event>
<event>
 8    1  0.1196210E+005  0.1043930E+01  0.7957747E-01            NaN
         13   -1    0    0    0    0  0.00000000000E+00  0.00000000000E+00  0.74505805969E-08  0.10566000000E+00  0.10566000000E+00 0.  1.
     999900   -1    0    0    0    0 -0.00000000000E+00 -0.00000000000E+00 -0.74505805969E-08  0.93827000000E+00  0.93827000000E+00 0.  1.
     999902    2    1    2    0    0  0.59717710856E-02  0.21955995148E-01 -0.22818252127E-02  0.10210622389E+01  0.10208061330E+01 0.  0.
     999903    2    3    3    0    0  0.23623004076E-01 -0.10979337500E+00 -0.60497581996E-01  0.12917741620E+00  0.20352295066E-01 0.  0.
         14    1    1    2    0    0 -0.59717710856E-02 -0.21955995148E-01  0.22818252127E-02  0.22867761131E-01  0.00000000000E+00 0. -1.
     999901    1    3    3    0    0 -0.17651232990E-01  0.13174937015E+00  0.58215756783E-01  0.89188482266E+00  0.88000000000E+00 0. -1.
        -11    1    4    4    0    0  0.19608687812E-01 -0.90383296748E-01 -0.40337576905E-01  0.10090105153E+00  0.51100000000E-03 0.  1.
         11    1    4    4    0    0  0.40143162645E-02 -0.19410078252E-01 -0.20160005091E-01  0.28276364672E-01  0.51100000000E-03 0. -1.
</event>
<event>
 8    1  0.1196210E+005  0.1043930E+01  0.7957747E-01            NaN
         13   -1    0    0    0    0  0.00000000000E+00  0.00000000000E+00  0.74505805969E-08  0.10566000000E+00  0.10566000000E+00 0. -1.
     999900   -1    0    0    0    0 -0.00000000000E+00 -0.00000000000E+00 -0.74505805969E-08  0.93827000000E+00  0.93827000000E+00 0.  1.
     999902    2    1    2    0    0 -0.82569204987E-02  0.21638987886E-01 -0.19424193663E-02  0.10206878933E+01  0.10204232357E+01 0.  0.
     999903    2    3    3    0    0  0.11271427406E+00  0.55936363748E-01  0.30683972452E-01  0.13115159757E+00  0.20636157907E-01 0.  0.
         14    1    1    2    0    0  0.82569204987E-02 -0.21638987886E-01  0.19424193663E-02  0.23242106743E-01  0.00000000000E+00 0.  1.
     999901    1    3    3    0    0 -0.12097119456E+00 -0.34297375861E-01 -0.32626391819E-01  0.88953629569E+00  0.88000000000E+00 0. -1.
        -11    1    4    4    0    0  0.99600321135E-01  0.46300495915E-01  0.33043521196E-01  0.11470002313E+00  0.51100000000E-03 0.  1.
         11    1    4    4    0    0  0.13113952925E-01  0.96358678323E-02 -0.23595487438E-02  0.16451574437E-01  0.51100000000E-03 0. -1.
</event>
<event>
 8    1  0.1196210E+005  0.1043930E+01  0.7957747E-01            NaN
         13   -1    0    0    0    0  0.00000000000E+00  0.00000000000E+00  0.74505805969E-08  0.10566000000E+00  0.10566000000E+00 0. -1.
     999900   -1    0    0    0    0 -0.00000000000E+00 -0.00000000000E+00 -0.74505805969E-08  0.93827000000E+00  0.93827000000E+00 0.  1.
     999902    2    1    2    0    0 -0.19890600644E-01  0.11693790708E-01 -0.67459805794E-02  0.10198906783E+01  0.10196073296E+01 0.  0.
     999903    2    3    3    0    0 -0.32752307501E-01  0.11052072200E+00 -0.62989314381E-01  0.13248124715E+00  0.17207076530E-01 0.  0.
         14    1    1    2    0    0  0.19890600644E-01 -0.11693790708E-01  0.67459805794E-02  0.24039321727E-01  0.00000000000E+00 0.  1.
     999901    1    3    3    0    0  0.12861706857E-01 -0.98826931288E-01  0.56243333801E-01  0.88740943112E+00  0.88000000000E+00 0. -1.
        -11    1    4    4    0    0  0.81694080034E-03  0.76733130197E-02 -0.10163434762E-02  0.78000769247E-02  0.51100000000E-03 0. -1.
         11    1    4    4    0    0 -0.33569248301E-01  0.10284740898E+00 -0.61972970904E-01  0.12468117022E+00  0.51100000000E-03 0.  1.
</event>
<event>
 8    1  0.1196210E+005  0.1043930E+01  0.7957747E-01            NaN
         13   -1    0    0    0    0  0.00000000000E+00  0.00000000000E+00  0.74505805969E-08  0.10566000000E+00  0.10566000000E+00 0. -1.
     999900   -1    0    0    0    0 -0.00000000000E+00 -0.00000000000E+00 -0.74505805969E-08  0.93827000000E+00  0.93827000000E+00 0. -1.
     999902    2    1    2    0    0 -0.16495819588E-03  0.24359685314E-01 -0.28562069856E-02  0.10194028844E+01  0.10191077771E+01 0.  0.
     999903    2    3    3    0    0 -0.51388205476E-01 -0.81632266483E-01 -0.81889577446E-01  0.12805312785E+00  0.19675519434E-01 0.  0.
         14    1    1    2    0    0  0.16495819588E-03 -0.24359685314E-01  0.28562069856E-02  0.24527115569E-01  0.00000000000E+00 0.  1.
     999901    1    3    3    0    0  0.51223247280E-01  0.10599195180E+00  0.79033370460E-01  0.89134975658E+00  0.88000000000E+00 0.  1.
        -11    1    4    4    0    0 -0.14743233084E-01 -0.41627759547E-01 -0.35224711787E-01  0.56491368616E-01  0.51100000000E-03 0. -1.
         11    1    4    4    0    0 -0.36644972392E-01 -0.40004506936E-01 -0.46664865659E-01  0.71561759235E-01  0.51100000000E-03 0.  1.
</event>
<event>
 8    1  0.1196210E+005  0.1043930E+01  0.7957747E-01            NaN
         13   -1    0    0    0    0  0.00000000000E+00  0.00000000000E+00  0.74505805969E-08  0.10566000000E+00  0.10566000000E+00 0.  1.
     999900   -1    0    0    0    0 -0.00000000000E+00 -0.00000000000E+00 -0.74505805969E-08  0.93827000000E+00  0.93827000000E+00 0. -1.
     999902    2    1    2    0    0 -0.72725356064E-02  0.20533679765E-01  0.92691288574E-02  0.10202564171E+01  0.10199817244E+01 0.  0.
     999903    2    3    3    0    0  0.65222260748E-01 -0.97797280329E-01 -0.45372005450E-01  0.12770761439E+00  0.20793377726E-01 0.  0.
         14    1    1    2    0    0  0.72725356064E-02 -0.20533679765E-01 -0.92691288574E-02  0.23673582927E-01  0.00000000000E+00 0. -1.
     999901    1    3    3    0    0 -0.72494796355E-01  0.11833096009E+00  0.54641134308E-01  0.89254880268E+00  0.88000000000E+00 0. -1.
        -11    1    4    4    0    0  0.21765427875E-01 -0.44481603862E-01 -0.27467294119E-01  0.56630912936E-01  0.51100000000E-03 0. -1.
         11    1    4    4    0    0  0.43456832873E-01 -0.53315676467E-01 -0.17904711331E-01  0.71076701452E-01  0.51100000000E-03 0.  1.
</event>
<event>
 8    1  0.1196210E+005  0.1043930E+01  0.7957747E-01            NaN
         13   -1    0    0    0    0  0.00000000000E+00  0.00000000000E+00  0.74505805969E-08  0.10566000000E+00  0.10566000000E+00 0. -1.
     999900   -1    0    0    0    0 -0.00000000000E+00 -0.00000000000E+00 -0.74505805969E-08  0.93827000000E+00  0.93827000000E+00 0. -1.
     999902    2    1    2    0    0 -0.19130857452E-01 -0.59905967955E-02  0.11941071631E-01  0.10205962016E+01  0.10203294275E+01 0.  0.
     999903    2    3    3    0    0  0.11521053610E+00 -0.70397307591E-02 -0.51808572578E-01  0.12812058408E+00  0.20192336074E-01 0.  0.
         14    1    1    2    0    0  0.19130857452E-01  0.59905967955E-02 -0.11941071631E-01  0.23333798415E-01  0.00000000000E+00 0.  1.
     999901    1    3    3    0    0 -0.13434139355E+00  0.10491339636E-02  0.63749644208E-01  0.89247561750E+00  0.88000000000E+00 0.  1.
        -11    1    4    4    0    0  0.18545166374E-01  0.13900389842E-02 -0.16486383653E-01  0.24857943824E-01  0.51100000000E-03 0. -1.
         11    1    4    4    0    0  0.96665369722E-01 -0.84297697432E-02 -0.35322188924E-01  0.10326264026E+00  0.51100000000E-03 0.  1.
</event>
<event>
 8    1  0.1196210E+005  0.1043930E+01  0.7957747E-01            NaN
         13   -1    0    0    0    0  0.00000000000E+00  0.00000000000E+00  0.74505805969E-08  0.10566000000E+00  0.10566000000E+00 0. -1.
     999900   -1    0    0    0    0 -0.00000000000E+00 -0.00000000000E+00 -0.74505805969E-08  0.93827000000E+00  0.93827000000E+00 0.  1.
     999902    2    1    2    0    0  0.17701517142E-01 -0.14624056954E-01 -0.24973026478E-02  0.10208336091E+01  0.10205722974E+01 0.  0.
     999903    2    3    3    0    0  0.95570067125E-01 -0.75073900126E-01 -0.52296372275E-01  0.13393020855E+00  0.20800528811E-01 0.  0.
         14    1    1    2    0    0 -0.17701517142E-01  0.14624056954E-01  0.24973026478E-02  0.23096390875E-01  0.00000000000E+00 0.  1.
     999901    1    3    3    0    0 -0.77868549982E-01  0.60449843171E-01  0.49799069627E-01  0.88690340057E+00  0.88000000000E+00 0. -1.
        -11    1    4    4    0    0  0.69525624478E-01 -0.42183925096E-01 -0.33412304186E-01  0.87920072723E-01  0.51100000000E-03 0. -1.
         11    1    4    4    0    0  0.26044442646E-01 -0.32889975030E-01 -0.18884068088E-01  0.46010135827E-01  0.51100000000E-03 0.  1.
</event>
<event>
 8    1  0.1196210E+005  0.1043930E+01  0.7957747E-01            NaN
         13   -1    0    0    0    0  0.00000000000E+00  0.00000000000E+00  0.74505805969E-08  0.10566000000E+00  0.10566000000E+00 0.  1.
     999900   -1    0    0    0    0 -0.00000000000E+00 -0.00000000000E+00 -0.74505805969E-08  0.93827000000E+00  0.93827000000E+00 0.  1.
     999902    2    1    2    0    0  0.25540493528E-01  0.48031761503E-02  0.87378981821E-02  0.10165121559E+01  0.10161423251E+01 0.  0.
     999903    2    3    3    0    0  0.97165202711E-01  0.75426483895E-01 -0.35610089588E-01  0.12967254549E+00  0.20412238553E-01 0.  0.
         14    1    1    2    0    0 -0.25540493528E-01 -0.48031761503E-02 -0.87378981821E-02  0.27417844106E-01  0.00000000000E+00 0. -1.
     999901    1    3    3    0    0 -0.71624709183E-01 -0.70623307745E-01  0.44347987770E-01  0.88683961040E+00  0.88000000000E+00 0. -1.
        -11    1    4    4    0    0  0.29866894053E-01  0.22214479344E-01 -0.20690641431E-01  0.42589649174E-01  0.51100000000E-03 0. -1.
         11    1    4    4    0    0  0.67298308658E-01  0.53212004551E-01 -0.14919448157E-01  0.87082896316E-01  0.51100000000E-03 0.  1.
</event>
<event>
 8    1  0.1196210E+005  0.1043930E+01  0.7957747E-01            NaN
         13   -1    0    0    0    0  0.00000000000E+00  0.00000000000E+00  0.74505805969E-08  0.10566000000E+00  0.10566000000E+00 0. -1.
     999900   -1    0    0    0    0 -0.00000000000E+00 -0.00000000000E+00 -0.74505805969E-08  0.93827000000E+00  0.93827000000E+00 0. -1.
     999902    2    1    2    0    0 -0.11986316003E-01  0.11782474394E-01  0.15730630481E-01  0.10209093308E+01  0.10206497492E+01 0.  0.
     999903    2    3    3    0    0  0.80050105329E-02  0.65633825317E-01  0.11412467242E+00  0.13356440993E+00  0.21050689440E-01 0.  0.
         14    1    1    2    0    0  0.11986316003E-01 -0.11782474394E-01 -0.15730630481E-01  0.23020669180E-01  0.00000000000E+00 0.  1.
     999901    1    3    3    0    0 -0.19991326536E-01 -0.53851350923E-01 -0.98394041941E-01  0.88734492089E+00  0.88000000000E+00 0. -1.
        -11    1    4    4    0    0  0.49541191371E-02  0.23580586973E-01  0.23749410883E-01  0.33836120000E-01  0.51100000000E-03 0. -1.
         11    1    4    4    0    0  0.30508913958E-02  0.42053238344E-01  0.90375261540E-01  0.99728289933E-01  0.51100000000E-03 0.  1.
</event>
<event>
 8    1  0.1196210E+005  0.1043930E+01  0.7957747E-01            NaN
         13   -1    0    0    0    0  0.00000000000E+00  0.00000000000E+00  0.74505805969E-08  0.10566000000E+00  0.10566000000E+00 0.  1.
     999900   -1    0    0    0    0 -0.00000000000E+00 -0.00000000000E+00 -0.74505805969E-08  0.93827000000E+00  0.93827000000E+00 0.  1.
     999902    2    1    2    0    0  0.69746092944E-02 -0.13305291091E-01  0.92928566046E-03  0.10288787702E+01  0.10287686739E+01 0.  0.
     999903    2    3    3    0    0  0.11685694533E+00  0.89837282275E-02  0.69769373742E-01  0.13909796245E+00  0.27280480238E-01 0.  0.
         14    1    1    2    0    0 -0.69746092944E-02  0.13305291091E-01 -0.92928566046E-03  0.15051229772E-01  0.00000000000E+00 0.  1.
     999901    1    3    3    0    0 -0.10988233604E+00 -0.22289019318E-01 -0.68840088082E-01  0.88978080777E+00  0.88000000000E+00 0.  1.
        -11    1    4    4    0    0  0.23855696275E-01 -0.62136619598E-02  0.61980790952E-02  0.25424026927E-01  0.51100000000E-03 0. -1.
         11    1    4    4    0    0  0.93001249054E-01  0.15197390187E-01  0.63571294647E-01  0.11367393553E+00  0.51100000000E-03 0.  1.
</event>
<event>
 8    1  0.1196210E+005  0.1043930E+01  0.7957747E-01            NaN
         13   -1    0    0    0    0  0.00000000000E+00  0.00000000000E+00  0.74505805969E-08  0.10566000000E+00  0.10566000000E+00 0.  1.
     999900   -1    0    0    0    0 -0.00000000000E+00 -0.00000000000E+00 -0.74505805969E-08  0.93827000000E+00  0.93827000000E+00 0. -1.
     999902    2    1    2    0    0 -0.20293612995E-01 -0.89166434050E-02 -0.86117495393E-02  0.10201497669E+01  0.10198725643E+01 0.  0.
     999903    2    3    3    0    0  0.12233601683E+00 -0.41285094128E-02 -0.32294568128E-01  0.12833868068E+00  0.21088675255E-01 0.  0.
         14    1    1    2    0    0  0.20293612995E-01  0.89166434050E-02  0.86117495393E-02  0.23780233139E-01  0.00000000000E+00 0.  1.
     999901    1    3    3    0    0 -0.14262962983E+00 -0.47881339922E-02  0.23682818589E-01  0.89181108618E+00  0.88000000000E+00 0.  1.
        -11    1    4    4    0    0  0.20576866251E-01 -0.57713892128E-02  0.58683619073E-03  0.21385084893E-01  0.51100000000E-03 0. -1.
         11    1    4    4    0    0  0.10175915058E+00  0.16428797999E-02 -0.32881404319E-01  0.10695359579E+00  0.51100000000E-03 0.  1.
</event>
<event>
 8    1  0.1196210E+005  0.1043930E+01  0.7957747E-01            NaN
         13   -1    0    0    0    0  0.00000000000E+00  0.00000000000E+00  0.74505805969E-08  0.10566000000E+00  0.10566000000E+00 0.  1.
     999900   -1    0    0    0    0 -0.00000000000E+00 -0.00000000000E+00 -0.74505805969E-08  0.93827000000E+00  0.93827000000E+00 0. -1.
     999902    2    1    2    0    0 -0.72289055817E-02  0.18539838693E-01 -0.19951626144E-01  0.10157511058E+01  0.10153601621E+01 0.  0.
     999903    2    3    3    0    0 -0.14460917848E-01 -0.11562948013E+00  0.36806902151E-01  0.12374480609E+00  0.19461093733E-01 0.  0.
         14    1    1    2    0    0  0.72289055817E-02 -0.18539838693E-01  0.19951626144E-01  0.28178894238E-01  0.00000000000E+00 0.  1.
     999901    1    3    3    0    0  0.72320122658E-02  0.13416931882E+00 -0.56758528295E-01  0.89200629967E+00  0.88000000000E+00 0. -1.
        -11    1    4    4    0    0 -0.16422571688E-01 -0.65367290226E-01  0.15775540590E-01  0.69222195099E-01  0.51100000000E-03 0.  1.
         11    1    4    4    0    0  0.19616538402E-02 -0.50262189902E-01  0.21031361560E-01  0.54522610994E-01  0.51100000000E-03 0. -1.
</event>
<event>
 8    1  0.1196210E+005  0.1043930E+01  0.7957747E-01            NaN
         13   -1    0    0    0    0  0.00000000000E+00  0.00000000000E+00  0.74505805969E-08  0.10566000000E+00  0.10566000000E+00 0.  1.
     999900   -1    0    0    0    0 -0.00000000000E+00 -0.00000000000E+00 -0.74505805969E-08  0.93827000000E+00  0.93827000000E+00 0. -1.
     999902    2    1    2    0    0 -0.29117995343E-02 -0.20504927435E-01  0.12173731599E-01  0.10199064622E+01  0.10196234900E+01 0.  0.
     999903    2    3    3    0    0  0.10087095726E+00 -0.36743039251E-01 -0.70358814398E-01  0.12982435477E+00  0.19467906298E-01 0.  0.
         14    1    1    2    0    0  0.29117995343E-02  0.20504927435E-01 -0.12173731599E-01  0.24023537763E-01  0.00000000000E+00 0.  1.
     999901    1    3    3    0    0 -0.10378275680E+00  0.16238111817E-01  0.82532545997E-01  0.89008210747E+00  0.88000000000E+00 0.  1.
        -11    1    4    4    0    0  0.85110289032E-01 -0.27592144289E-01 -0.50001378331E-01  0.10249627643E+00  0.51100000000E-03 0.  1.
         11    1    4    4    0    0  0.15760668230E-01 -0.91508949624E-02 -0.20357436067E-01  0.27328078342E-01  0.51100000000E-03 0. -1.
</event>
<event>
 8    1  0.1196210E+005  0.1043930E+01  0.7957747E-01            NaN
         13   -1    0    0    0    0  0.00000000000E+00  0.00000000000E+00  0.74505805969E-08  0.10566000000E+00  0.10566000000E+00 0. -1.
     999900   -1    0    0    0    0 -0.00000000000E+00 -0.00000000000E+00 -0.74505805969E-08  0.93827000000E+00  0.93827000000E+00 0. -1.
     999902    2    1    2    0    0 -0.18456583726E-01 -0.13951361684E-01  0.66711945013E-02  0.10198511543E+01  0.10195668620E+01 0.  0.
     999903    2    3    3    0    0  0.16459653222E-01  0.11152627486E+00 -0.56956338094E-01  0.12799228439E+00  0.20711596887E-01 0.  0.
         14    1    1    2    0    0  0.18456583726E-01  0.13951361684E-01 -0.66711945013E-02  0.24078845731E-01  0.00000000000E+00 0.  1.
     999901    1    3    3    0    0 -0.34916236947E-01 -0.12547763655E+00  0.63627532596E-01  0.89185886988E+00  0.88000000000E+00 0.  1.
        -11    1    4    4    0    0  0.13938069119E-01  0.30366371750E-01 -0.17102427586E-01  0.37538519608E-01  0.51100000000E-03 0.  1.
         11    1    4    4    0    0  0.25215841030E-02  0.81159903113E-01 -0.39853910508E-01  0.90453764783E-01  0.51100000000E-03 0. -1.
</event>
<event>
 8    1  0.1196210E+005  0.1043930E+01  0.7957747E-01            NaN
         13   -1    0    0    0    0  0.00000000000E+00  0.00000000000E+00  0.74505805969E-08  0.10566000000E+00  0.10566000000E+00 0. -1.
     999900   -1    0    0    0    0 -0.00000000000E+00 -0.00000000000E+00 -0.74505805969E-08  0.93827000000E+00  0.93827000000E+00 0.  1.
     999902    2    1    2    0    0  0.13046583696E-01  0.17848102056E-01  0.87280899679E-02  0.10201613726E+01  0.10198844437E+01 0.  0.
     999903    2    3    3    0    0  0.96032118034E-03  0.11310836982E+00  0.67890933521E-01  0.13296306423E+00  0.16600363079E-01 0.  0.
         14    1    1    2    0    0 -0.13046583696E-01 -0.17848102056E-01 -0.87280899679E-02  0.23768627382E-01  0.00000000000E+00 0.  1.
     999901    1    3    3    0    0  0.12086262516E-01 -0.95260267762E-01 -0.59162843553E-01  0.88719830839E+00  0.88000000000E+00 0.  1.
        -11    1    4    4    0    0 -0.37174157500E-02  0.48834540882E-01  0.37636833602E-01  0.61769117911E-01  0.51100000000E-03 0. -1.
         11    1    4    4    0    0  0.46777369304E-02  0.64273828937E-01  0.30254099920E-01  0.71193946315E-01  0.51100000000E-03 0.  1.
</event>
<event>
 8    1  0.1196210E+005  0.1043930E+01  0.7957747E-01            NaN
         13   -1    0    0    0    0  0.00000000000E+00  0.00000000000E+00  0.74505805969E-08  0.10566000000E+00  0.10566000000E+00 0. -1.
     999900   -1    0    0    0    0 -0.00000000000E+00 -0.00000000000E+00 -0.74505805969E-08  0.93827000000E+00  0.93827000000E+00 0. -1.
     999902    2    1    2    0    0  0.16293785776E-02  0.12927374701E-01 -0.13807665094E-02  0.10308273893E+01  0.10307441138E+01 0.  0.
     999903    2    3    3    0    0 -0.17344423838E-01 -0.56720553512E-01 -0.12369035714E+00  0.13944056246E+00  0.25026301828E-01 0.  0.
         14    1    1    2    0    0 -0.16293785776E-02 -0.12927374701E-01  0.13807665094E-02  0.13102610708E-01  0.00000000000E+00 0. -1.
     999901    1    3    3    0    0  0.18973802415E-01  0.69647928213E-01  0.12230959063E+00  0.89138682683E+00  0.88000000000E+00 0. -1.
        -11    1    4    4    0    0  0.19841130851E-02 -0.13335916588E-01 -0.49841684531E-01  0.51635627370E-01  0.51100000000E-03 0.  1.
         11    1    4    4    0    0 -0.19328536923E-01 -0.43384636924E-01 -0.73848672605E-01  0.87804935095E-01  0.51100000000E-03 0. -1.
</event>
<event>
 8    1  0.1196210E+005  0.1043930E+01  0.7957747E-01            NaN
         13   -1    0    0    0    0  0.00000000000E+00  0.00000000000E+00  0.74505805969E-08  0.10566000000E+00  0.10566000000E+00 0.  1.
     999900   -1    0    0    0    0 -0.00000000000E+00 -0.00000000000E+00 -0.74505805969E-08  0.93827000000E+00  0.93827000000E+00 0. -1.
     999902    2    1    2    0    0 -0.34370895680E-01 -0.51089364297E-02 -0.14827446851E-01  0.10061502054E+01  0.10054406611E+01 0.  0.
     999903    2    3    3    0    0 -0.48611132280E-02  0.11509921583E+00 -0.10458869577E-01  0.11747708685E+00  0.20494342506E-01 0.  0.
         14    1    1    2    0    0  0.34370895680E-01  0.51089364297E-02  0.14827446851E-01  0.37779794618E-01  0.00000000000E+00 0. -1.
     999901    1    3    3    0    0 -0.29509782452E-01 -0.12020815226E+00 -0.43685772736E-02  0.88867311853E+00  0.88000000000E+00 0. -1.
        -11    1    4    4    0    0 -0.45024600882E-02  0.97524175089E-01 -0.16227873842E-01  0.98968893517E-01  0.51100000000E-03 0.  1.
         11    1    4    4    0    0 -0.35865313979E-03  0.17575040746E-01  0.57690042649E-02  0.18508193335E-01  0.51100000000E-03 0. -1.
</event>
<event>
 8    1  0.1196210E+005  0.1043930E+01  0.7957747E-01            NaN
         13   -1    0    0    0    0  0.00000000000E+00  0.00000000000E+00  0.74505805969E-08  0.10566000000E+00  0.10566000000E+00 0.  1.
     999900   -1    0    0    0    0 -0.00000000000E+00 -0.00000000000E+00 -0.74505805969E-08  0.93827000000E+00  0.93827000000E+00 0. -1.
     999902    2    1    2    0    0 -0.18220136416E-01 -0.62382880017E-03  0.12853032335E-01  0.10216238804E+01  0.10213803356E+01 0.  0.
     999903    2    3    3    0    0 -0.93776121395E-01 -0.62753474895E-01 -0.66843054982E-01  0.13262429311E+00  0.19729408705E-01 0.  0.
         14    1    1    2    0    0  0.18220136416E-01  0.62382880017E-03 -0.12853032335E-01  0.22306119645E-01  0.00000000000E+00 0. -1.
     999901    1    3    3    0    0  0.75555984979E-01  0.62129646095E-01  0.79696087318E-01  0.88899958725E+00  0.88000000000E+00 0.  1.
        -11    1    4    4    0    0 -0.69630730069E-01 -0.52323225264E-01 -0.43069779560E-01  0.97166998021E-01  0.51100000000E-03 0.  1.
         11    1    4    4    0    0 -0.24145391327E-01 -0.10430249631E-01 -0.23773275422E-01  0.35457295088E-01  0.51100000000E-03 0. -1.
</event>
<event>
 8    1  0.1196210E+005  0.1043930E+01  0.7957747E-01            NaN
         13   -1    0    0    0    0  0.00000000000E+00  0.00000000000E+00  0.74505805969E-08  0.10566000000E+00  0.10566000000E+00 0. -1.
     999900   -1    0    0    0    0 -0.00000000000E+00 -0.00000000000E+00 -0.74505805969E-08  0.93827000000E+00  0.93827000000E+00 0.  1.
     999902    2    1    2    0    0 -0.17594212621E-01 -0.13034523672E-01 -0.53144675365E-02  0.10213978299E+01  0.10211492683E+01 0.  0.
     999903    2    3    3    0    0  0.94915337948E-01  0.14380043571E-01  0.83137152981E-01  0.12941484426E+00  0.24914025727E-01 0.  0.
         14    1    1    2    0    0  0.17594212621E-01  0.13034523672E-01  0.53144675365E-02  0.22532170119E-01  0.00000000000E+00 0.  1.
     999901    1    3    3    0    0 -0.11250955057E+00 -0.27414567243E-01 -0.88451620518E-01  0.89198298562E+00  0.88000000000E+00 0.  1.
        -11    1    4    4    0    0  0.50040174042E-01 -0.12694355868E-02  0.54153703310E-01  0.73746289317E-01  0.51100000000E-03 0. -1.
         11    1    4    4    0    0  0.44875163906E-01  0.15649479158E-01  0.28983449672E-01  0.55668554942E-01  0.51100000000E-03 0.  1.
</event>
<event>
 8    1  0.1196210E+005  0.1043930E+01  0.7957747E-01            NaN
         13   -1    0    0    0    0  0.00000000000E+00  0.00000000000E+00  0.74505805969E-08  0.10566000000E+00  0.10566000000E+00 0.  1.
     999900   -1    0    0    0    0 -0.00000000000E+00 -0.00000000000E+00 -0.74505805969E-08  0.93827000000E+00  0.93827000000E+00 0.  1.
     999902    2    1    2    0    0  0.67247349411E-02 -0.14164471067E-01  0.18488539294E-01  0.10196878799E+01  0.10193996724E+01 0.  0.
     999903    2    3    3    0    0 -0.10328728141E+00  0.20902338158E-01  0.74007446145E-01  0.13041026642E+00  0.20604981470E-01 0.  0.
         14    1    1    2    0    0 -0.67247349411E-02  0.14164471067E-01 -0.18488539294E-01  0.24242120078E-01  0.00000000000E+00 0. -1.
     999901    1    3    3    0    0  0.11001201636E+00 -0.35066809225E-01 -0.55518906850E-01  0.88927761350E+00  0.88000000000E+00 0.  1.
        -11    1    4    4    0    0 -0.36804983127E-01 -0.48164495956E-03  0.18494877008E-01  0.41196606188E-01  0.51100000000E-03 0.  1.
         11    1    4    4    0    0 -0.66482298287E-01  0.21383983117E-01  0.55512569136E-01  0.89213660235E-01  0.51100000000E-03 0. -1.
</event>
<event>
 8    1  0.1196210E+005  0.1043930E+01  0.7957747E-01            NaN
         13   -1    0    0    0    0  0.00000000000E+00  0.00000000000E+00  0.74505805969E-08  0.10566000000E+00  0.10566000000E+00 0.  1.
     999900   -1    0    0    0    0 -0.00000000000E+00 -0.00000000000E+00 -0.74505805969E-08  0.93827000000E+00  0.93827000000E+00 0. -1.
     999902    2    1    2    0    0  0.21057177368E-01 -0.10707650922E-01 -0.11814200630E-01  0.10175172409E+01  0.10171743713E+01 0.  0.
     999903    2    3    3    0    0  0.39846114269E-01  0.40496687098E-01 -0.11582366248E+00  0.12971496756E+00  0.13533570566E-01 0.  0.
         14    1    1    2    0    0 -0.21057177368E-01  0.10707650922E-01  0.11814200630E-01  0.26412759104E-01  0.00000000000E+00 0. -1.
     999901    1    3    3    0    0 -0.18788936901E-01 -0.51204338020E-01  0.10400946185E+00  0.88780227333E+00  0.88000000000E+00 0.  1.
        -11    1    4    4    0    0  0.83657757040E-02  0.15068766852E-01 -0.26035653903E-01  0.31227717380E-01  0.51100000000E-03 0. -1.
         11    1    4    4    0    0  0.31480338565E-01  0.25427920245E-01 -0.89788008573E-01  0.98487250183E-01  0.51100000000E-03 0.  1.
</event>
<event>
 8    1  0.1196210E+005  0.1043930E+01  0.7957747E-01            NaN
         13   -1    0    0    0    0  0.00000000000E+00  0.00000000000E+00  0.74505805969E-08  0.10566000000E+00  0.10566000000E+00 0.  1.
     999900   -1    0    0    0    0 -0.00000000000E+00 -0.00000000000E+00 -0.74505805969E-08  0.93827000000E+00  0.93827000000E+00 0. -1.
     999902    2    1    2    0    0  0.23422629768E-02 -0.21133169789E-01  0.97356769916E-02  0.10205445244E+01  0.10202765536E+01 0.  0.
     999903    2    3    3    0    0 -0.86683513219E-01 -0.32434456855E-01  0.92228935190E-01  0.13214233760E+00  0.19733105287E-01 0.  0.
         14    1    1    2    0    0 -0.23422629768E-02  0.21133169789E-01 -0.97356769916E-02  0.23385475571E-01  0.00000000000E+00 0. -1.
     999901    1    3    3    0    0  0.89025776196E-01  0.11301287066E-01 -0.82493258199E-01  0.88840218683E+00  0.88000000000E+00 0. -1.
        -11    1    4    4    0    0 -0.74378565554E-01 -0.29118943288E-01  0.68602108429E-01  0.10529289755E+00  0.51100000000E-03 0.  1.
         11    1    4    4    0    0 -0.12304947665E-01 -0.33155135674E-02  0.23626826762E-01  0.26849440052E-01  0.51100000000E-03 0. -1.
</event>
<event>
 8    1  0.1196210E+005  0.1043930E+01  0.7957747E-01            NaN
         13   -1    0    0    0    0  0.00000000000E+00  0.00000000000E+00  0.74505805969E-08  0.10566000000E+00  0.10566000000E+00 0. -1.
     999900   -1    0    0    0    0 -0.00000000000E+00 -0.00000000000E+00 -0.74505805969E-08  0.93827000000E+00  0.93827000000E+00 0.  1.
     999902    2    1    2    0    0 -0.58680693684E-02  0.10674411018E-01 -0.20396517233E-01  0.10201729967E+01  0.10198963418E+01 0.  0.
     999903    2    3    3    0    0 -0.11057735294E+00  0.10976348879E-02 -0.69264573585E-01  0.13256732098E+00  0.23408495307E-01 0.  0.
         14    1    1    2    0    0  0.58680693684E-02 -0.10674411018E-01  0.20396517233E-01  0.23757003260E-01  0.00000000000E+00 0. -1.
     999901    1    3    3    0    0  0.10470928357E+00  0.95767761300E-02  0.48868056353E-01  0.88760567576E+00  0.88000000000E+00 0. -1.
        -11    1    4    4    0    0 -0.76725861140E-01 -0.51784922366E-02 -0.36838877817E-01  0.85270385183E-01  0.51100000000E-03 0.  1.
         11    1    4    4    0    0 -0.33851491801E-01  0.62761271245E-02 -0.32425695768E-01  0.47296935798E-01  0.51100000000E-03 0. -1.
</event>
<event>
 8    1  0.1196210E+005  0.1043930E+01  0.7957747E-01            NaN
         13   -1    0    0    0    0  0.00000000000E+00  0.00000000000E+00  0.74505805969E-08  0.10566000000E+00  0.10566000000E+00 0.  1.
     999900   -1    0    0    0    0 -0.00000000000E+00 -0.00000000000E+00 -0.74505805969E-08  0.93827000000E+00  0.93827000000E+00 0. -1.
     999902    2    1    2    0    0 -0.14787652658E-01 -0.11043867827E-02 -0.19710575204E-01  0.10192642116E+01  0.10189657168E+01 0.  0.
     999903    2    3    3    0    0  0.58382598911E-01 -0.62113811433E-01  0.92171832820E-01  0.12707941640E+00  0.19669211473E-01 0.  0.
         14    1    1    2    0    0  0.14787652658E-01  0.11043867827E-02  0.19710575204E-01  0.24665788376E-01  0.00000000000E+00 0.  1.
     999901    1    3    3    0    0 -0.73170251570E-01  0.61009424650E-01 -0.11188240802E+00  0.89218479523E+00  0.88000000000E+00 0. -1.
        -11    1    4    4    0    0  0.12858828228E-01 -0.25764583496E-01  0.24738282706E-01  0.37965865963E-01  0.51100000000E-03 0. -1.
         11    1    4    4    0    0  0.45523770684E-01 -0.36349227937E-01  0.67433550113E-01  0.89113550433E-01  0.51100000000E-03 0.  1.
</event>
<event>
 8    1  0.1196210E+005  0.1043930E+01  0.7957747E-01            NaN
         13   -1    0    0    0    0  0.00000000000E+00  0.00000000000E+00  0.74505805969E-08  0.10566000000E+00  0.10566000000E+00 0. -1.
     999900   -1    0    0    0    0 -0.00000000000E+00 -0.00000000000E+00 -0.74505805969E-08  0.93827000000E+00  0.93827000000E+00 0.  1.
     999902    2    1    2    0    0 -0.12303757781E-01 -0.20014873647E-01 -0.19104450585E-02  0.10203582495E+01  0.10200859424E+01 0.  0.
     999903    2    3    3    0    0 -0.31155302279E-01  0.86510364563E-01 -0.88864423051E-01  0.12948003030E+00  0.20334613977E-01 0.  0.
         14    1    1    2    0    0  0.12303757781E-01  0.20014873647E-01  0.19104450585E-02  0.23571750528E-01  0.00000000000E+00 0.  1.
     999901    1    3    3    0    0  0.18851544498E-01 -0.10652523821E+00  0.86953977993E-01  0.89087821917E+00  0.88000000000E+00 0. -1.
        -11    1    4    4    0    0 -0.69468531029E-02  0.23737858219E-01 -0.12542700470E-01  0.27736710997E-01  0.51100000000E-03 0. -1.
         11    1    4    4    0    0 -0.24208449176E-01  0.62772506344E-01 -0.76321722581E-01  0.10174331930E+00  0.51100000000E-03 0.  1.
</event>
<event>
 8    1  0.1196210E+005  0.1043930E+01  0.7957747E-01            NaN
         13   -1    0    0    0    0  0.00000000000E+00  0.00000000000E+00  0.74505805969E-08  0.10566000000E+00  0.10566000000E+00 0. -1.
     999900   -1    0    0    0    0 -0.00000000000E+00 -0.00000000000E+00 -0.74505805969E-08  0.93827000000E+00  0.93827000000E+00 0. -1.
     999902    2    1    2    0    0  0.21452673342E-01 -0.11552023142E-01  0.10077937392E-01  0.10175627617E+01  0.10172210885E+01 0.  0.
     999903    2    3    3    0    0 -0.33663251566E-02 -0.58818674433E-01  0.11384431215E+00  0.12985921913E+00  0.20782703760E-01 0.  0.
         14    1    1    2    0    0 -0.21452673342E-01  0.11552023142E-01 -0.10077937392E-01  0.26367238275E-01  0.00000000000E+00 0.  1.
     999901    1    3    3    0    0  0.24818998498E-01  0.47266651291E-01 -0.10376637476E+00  0.88770354260E+00  0.88000000000E+00 0.  1.
        -11    1    4    4    0    0  0.28532917734E-02 -0.26240808988E-01  0.31594601185E-01  0.41172822047E-01  0.51100000000E-03 0. -1.
         11    1    4    4    0    0 -0.62196169300E-02 -0.32577865446E-01  0.82249710967E-01  0.88686397080E-01  0.51100000000E-03 0.  1.
</event>
<event>
 8    1  0.1196210E+005  0.1043930E+01  0.7957747E-01            NaN
         13   -1    0    0    0    0  0.00000000000E+00  0.00000000000E+00  0.74505805969E-08  0.10566000000E+00  0.10566000000E+00 0. -1.
     999900   -1    0    0    0    0 -0.00000000000E+00 -0.00000000000E+00 -0.74505805969E-08  0.93827000000E+00  0.93827000000E+00 0. -1.
     999902    2    1    2    0    0 -0.16715792803E-01  0.62792125873E-02  0.14422332713E-01  0.10209767884E+01  0.10207187432E+01 0.  0.
     999903    2    3    3    0    0  0.76188220643E-01 -0.82127295702E-01 -0.59614535388E-01  0.12860448707E+00  0.20873035267E-01 0.  0.
         14    1    1    2    0    0  0.16715792803E-01 -0.62792125873E-02 -0.14422332713E-01  0.22953211554E-01  0.00000000000E+00 0. -1.
     999901    1    3    3    0    0 -0.92904013446E-01  0.88406508290E-01  0.74036868101E-01  0.89237230137E+00  0.88000000000E+00 0. -1.
        -11    1    4    4    0    0  0.40033723464E-01 -0.48670883718E-01 -0.22471004956E-01  0.66908602743E-01  0.51100000000E-03 0. -1.
         11    1    4    4    0    0  0.36154497179E-01 -0.33456411985E-01 -0.37143530432E-01  0.61695884329E-01  0.51100000000E-03 0.  1.
</event>
<event>
 8    1  0.1196210E+005  0.1043930E+01  0.7957747E-01            NaN
         13   -1    0    0    0    0  0.00000000000E+00  0.00000000000E+00  0.74505805969E-08  0.10566000000E+00  0.10566000000E+00 0.  1.
     999900   -1    0    0    0    0 -0.00000000000E+00 -0.00000000000E+00 -0.74505805969E-08  0.93827000000E+00  0.93827000000E+00 0.  1.
     999902    2    1    2    0    0 -0.25761250755E-01  0.75399654355E-02  0.78310530893E-02  0.10159689823E+01  0.10155841444E+01 0.  0.
     999903    2    3    3    0    0 -0.98486850880E-01 -0.78148041499E-01 -0.17071986094E-01  0.12847159705E+00  0.20167358571E-01 0.  0.
         14    1    1    2    0    0  0.25761250755E-01 -0.75399654355E-02 -0.78310530893E-02  0.27961017716E-01  0.00000000000E+00 0.  1.
     999901    1    3    3    0    0  0.72725600125E-01  0.85688006935E-01  0.24903039183E-01  0.88749738524E+00  0.88000000000E+00 0. -1.
        -11    1    4    4    0    0 -0.91268217776E-01 -0.64484194067E-01 -0.16801681449E-01  0.11300732932E+00  0.51100000000E-03 0.  1.
         11    1    4    4    0    0 -0.72186331037E-02 -0.13663847433E-01 -0.27030464503E-03  0.15464267721E-01  0.51100000000E-03 0. -1.
</event>
<event>
 8    1  0.1196210E+005  0.1043930E+01  0.7957747E-01            NaN
         13   -1    0    0    0    0  0.00000000000E+00  0.00000000000E+00  0.74505805969E-08  0.10566000000E+00  0.10566000000E+00 0.  1.
     999900   -1    0    0    0    0 -0.00000000000E+00 -0.00000000000E+00 -0.74505805969E-08  0.93827000000E+00  0.93827000000E+00 0.  1.
     999902    2    1    2    0    0  0.12867386163E-01 -0.47381074972E-02 -0.18703877050E-01  0.10207383139E+01  0.10204748165E+01 0.  0.
     999903    2    3    3    0    0 -0.10855274729E+00  0.19402806108E-01 -0.68367239012E-01  0.13068658388E+00  0.15644040650E-01 0.  0.
         14    1    1    2    0    0 -0.12867386163E-01  0.47381074972E-02  0.18703877050E-01  0.23191686140E-01  0.00000000000E+00 0.  1.
     999901    1    3    3    0    0  0.12142013345E+00 -0.24140913605E-01  0.49663361961E-01  0.89005172998E+00  0.88000000000E+00 0. -1.
        -11    1    4    4    0    0 -0.61810087591E-01  0.31828796161E-02 -0.37465444037E-01  0.72350108974E-01  0.51100000000E-03 0. -1.
         11    1    4    4    0    0 -0.46742659697E-01  0.16219926492E-01 -0.30901794975E-01  0.58336474907E-01  0.51100000000E-03 0.  1.
</event>
<event>
 8    1  0.1196210E+005  0.1043930E+01  0.7957747E-01            NaN
         13   -1    0    0    0    0  0.00000000000E+00  0.00000000000E+00  0.74505805969E-08  0.10566000000E+00  0.10566000000E+00 0.  1.
     999900   -1    0    0    0    0 -0.00000000000E+00 -0.00000000000E+00 -0.74505805969E-08  0.93827000000E+00  0.93827000000E+00 0. -1.
     999902    2    1    2    0    0  0.72265059598E-02  0.70838231107E-02  0.21013147858E-01  0.10206071502E+01  0.10203406293E+01 0.  0.
     999903    2    3    3    0    0 -0.12583159464E-01  0.97343057674E-01  0.87887926046E-01  0.13324511125E+00  0.19898878082E-01 0.  0.
         14    1    1    2    0    0 -0.72265059598E-02 -0.70838231107E-02 -0.21013147858E-01  0.23322849764E-01  0.00000000000E+00 0. -1.
     999901    1    3    3    0    0  0.19809665424E-01 -0.90259234564E-01 -0.66874778188E-01  0.88736203898E+00  0.88000000000E+00 0. -1.
        -11    1    4    4    0    0 -0.76376883635E-02  0.30745668672E-01  0.40192502663E-01  0.51179378825E-01  0.51100000000E-03 0.  1.
         11    1    4    4    0    0 -0.49454711008E-02  0.66597389003E-01  0.47695423382E-01  0.82065732429E-01  0.51100000000E-03 0. -1.
</event>
<event>
 8    1  0.1196210E+005  0.1043930E+01  0.7957747E-01            NaN
         13   -1    0    0    0    0  0.00000000000E+00  0.00000000000E+00  0.74505805969E-08  0.10566000000E+00  0.10566000000E+00 0.  1.
     999900   -1    0    0    0    0 -0.00000000000E+00 -0.00000000000E+00 -0.74505805969E-08  0.93827000000E+00  0.93827000000E+00 0.  1.
     999902    2    1    2    0    0  0.10909253435E-01 -0.15482502593E-01  0.12792753477E-01  0.10210744922E+01  0.10208186638E+01 0.  0.
     999903    2    3    3    0    0 -0.10502159532E-01 -0.12749445903E+00  0.32201476422E-01  0.13350374821E+00  0.20522749903E-01 0.  0.
         14    1    1    2    0    0 -0.10909253435E-01  0.15482502593E-01 -0.12792753477E-01  0.22855507839E-01  0.00000000000E+00 0. -1.
     999901    1    3    3    0    0  0.21411412967E-01  0.11201195644E+00 -0.19408722945E-01  0.88757074395E+00  0.88000000000E+00 0. -1.
        -11    1    4    4    0    0 -0.19486799758E-02 -0.64284763834E-01  0.26151119447E-01  0.69429607404E-01  0.51100000000E-03 0.  1.
         11    1    4    4    0    0 -0.85534795559E-02 -0.63209695199E-01  0.60503569745E-02  0.64074140807E-01  0.51100000000E-03 0. -1.
</event>
<event>
 8    1  0.1196210E+005  0.1043930E+01  0.7957747E-01            NaN
         13   -1    0    0    0    0  0.00000000000E+00  0.00000000000E+00  0.74505805969E-08  0.10566000000E+00  0.10566000000E+00 0.  1.
     999900   -1    0    0    0    0 -0.00000000000E+00 -0.00000000000E+00 -0.74505805969E-08  0.93827000000E+00  0.93827000000E+00 0. -1.
     999902    2    1    2    0    0 -0.40970692940E-03  0.13034899629E-01  0.19805053023E-01  0.10202167844E+01  0.10199411604E+01 0.  0.
     999903    2    3    3    0    0 -0.18063070700E-01  0.53304616314E-01  0.11895262373E+00  0.13355815106E+00  0.22812197983E-01 0.  0.
         14    1    1    2    0    0  0.40970692940E-03 -0.13034899629E-01 -0.19805053023E-01  0.23713215585E-01  0.00000000000E+00 0. -1.
     999901    1    3    3    0    0  0.17653363771E-01 -0.40269716685E-01 -0.99147570710E-01  0.88665863336E+00  0.88000000000E+00 0. -1.
        -11    1    4    4    0    0 -0.20575592901E-01  0.54228903500E-01  0.11372627379E+00  0.12766383775E+00  0.51100000000E-03 0.  1.
         11    1    4    4    0    0  0.25125222007E-02 -0.92428718524E-03  0.52263499422E-02  0.58943133042E-02  0.51100000000E-03 0. -1.
</event>
<event>
 8    1  0.1196210E+005  0.1043930E+01  0.7957747E-01            NaN
         13   -1    0    0    0    0  0.00000000000E+00  0.00000000000E+00  0.74505805969E-08  0.10566000000E+00  0.10566000000E+00 0. -1.
     999900   -1    0    0    0    0 -0.00000000000E+00 -0.00000000000E+00 -0.74505805969E-08  0.93827000000E+00  0.93827000000E+00 0.  1.
     999902    2    1    2    0    0  0.10299900846E-01 -0.10142509119E-01 -0.18704734595E-01  0.10202905088E+01  0.10200166159E+01 0.  0.
     999903    2    3    3    0    0  0.88129827421E-01 -0.76578742272E-01  0.56326380135E-01  0.13118931166E+00  0.20169386362E-01 0.  0.
         14    1    1    2    0    0 -0.10299900846E-01  0.10142509119E-01  0.18704734595E-01  0.23639491215E-01  0.00000000000E+00 0.  1.
     999901    1    3    3    0    0 -0.77829926575E-01  0.66436233154E-01 -0.75031114730E-01  0.88910119712E+00  0.88000000000E+00 0.  1.
        -11    1    4    4    0    0  0.17898716982E-01 -0.88996402051E-02  0.36087403254E-02  0.20318754714E-01  0.51100000000E-03 0.  1.
         11    1    4    4    0    0  0.70231110438E-01 -0.67679102067E-01  0.52717639809E-01  0.11087055695E+00  0.51100000000E-03 0. -1.
</event>
<event>
 8    1  0.1196210E+005  0.1043930E+01  0.7957747E-01            NaN
         13   -1    0    0    0    0  0.00000000000E+00  0.00000000000E+00  0.74505805969E-08  0.10566000000E+00  0.10566000000E+00 0.  1.
     999900   -1    0    0    0    0 -0.00000000000E+00 -0.00000000000E+00 -0.74505805969E-08  0.93827000000E+00  0.93827000000E+00 0. -1.
     999902    2    1    2    0    0  0.19372075465E-01  0.12780738472E-01  0.18945457594E-02  0.10206445134E+01  0.10203788555E+01 0.  0.
     999903    2    3    3    0    0 -0.96753298045E-01  0.82613153742E-01  0.17782044441E-01  0.13013113267E+00  0.20779238020E-01 0.  0.
         14    1    1    2    0    0 -0.19372075465E-01 -0.12780738472E-01 -0.18945457594E-02  0.23285486624E-01  0.00000000000E+00 0. -1.
     999901    1    3    3    0    0  0.11612537351E+00 -0.69832415270E-01 -0.15887498682E-01  0.89051338070E+00  0.88000000000E+00 0. -1.
        -11    1    4    4    0    0 -0.17280215055E-01  0.26080862235E-01  0.22391608346E-02  0.31370243377E-01  0.51100000000E-03 0.  1.
         11    1    4    4    0    0 -0.79473082990E-01  0.56532291507E-01  0.15542883606E-01  0.98760889297E-01  0.51100000000E-03 0. -1.
</event>
<event>
 8    1  0.1196210E+005  0.1043930E+01  0.7957747E-01            NaN
         13   -1    0    0    0    0  0.00000000000E+00  0.00000000000E+00  0.74505805969E-08  0.10566000000E+00  0.10566000000E+00 0. -1.
     999900   -1    0    0    0    0 -0.00000000000E+00 -0.00000000000E+00 -0.74505805969E-08  0.93827000000E+00  0.93827000000E+00 0.  1.
     999902    2    1    2    0    0  0.16264333143E-01  0.54833379478E-02 -0.18324415300E-01  0.10188226361E+01  0.10185132223E+01 0.  0.
     999903    2    3    3    0    0  0.56293803754E-01 -0.47798452096E-01  0.10272083658E+00  0.12804024925E+00  0.19724370614E-01 0.  0.
         14    1    1    2    0    0 -0.16264333143E-01 -0.54833379478E-02  0.18324415300E-01  0.25107363934E-01  0.00000000000E+00 0. -1.
     999901    1    3    3    0    0 -0.40029470612E-01  0.53281790044E-01 -0.12104525188E+00  0.89078238682E+00  0.88000000000E+00 0.  1.
        -11    1    4    4    0    0  0.24980213507E-01 -0.15394426440E-01  0.55408143789E-01  0.62700262770E-01  0.51100000000E-03 0.  1.
         11    1    4    4    0    0  0.31313590247E-01 -0.32404025656E-01  0.47312692786E-01  0.65339986475E-01  0.51100000000E-03 0. -1.
</event>
<event>
 8    1  0.1196210E+005  0.1043930E+01  0.7957747E-01            NaN
         13   -1    0    0    0    0  0.00000000000E+00  0.00000000000E+00  0.74505805969E-08  0.10566000000E+00  0.10566000000E+00 0. -1.
     999900   -1    0    0    0    0 -0.00000000000E+00 -0.00000000000E+00 -0.74505805969E-08  0.93827000000E+00  0.93827000000E+00 0. -1.
     999902    2    1    2    0    0  0.67732633409E-02 -0.59792322531E-02  0.21513248838E-01  0.10205965864E+01  0.10203298212E+01 0.  0.
     999903    2    3    3    0    0 -0.97136318041E-01  0.73891426826E-01 -0.37972683723E-01  0.12890431916E+00  0.16703040082E-01 0.  0.
         14    1    1    2    0    0 -0.67732633409E-02  0.59792322531E-02 -0.21513248838E-01  0.23333413599E-01  0.00000000000E+00 0.  1.
     999901    1    3    3    0    0  0.10390958138E+00 -0.79870659079E-01  0.59485932562E-01  0.89169226724E+00  0.88000000000E+00 0.  1.
        -11    1    4    4    0    0 -0.68753278299E-01  0.44370736169E-01 -0.20370705688E-01  0.84326758958E-01  0.51100000000E-03 0. -1.
         11    1    4    4    0    0 -0.28383039742E-01  0.29520690656E-01 -0.17601978035E-01  0.44577560202E-01  0.51100000000E-03 0.  1.
</event>
<event>
 8    1  0.1196210E+005  0.1043930E+01  0.7957747E-01            NaN
         13   -1    0    0    0    0  0.00000000000E+00  0.00000000000E+00  0.74505805969E-08  0.10566000000E+00  0.10566000000E+00 0. -1.
     999900   -1    0    0    0    0 -0.00000000000E+00 -0.00000000000E+00 -0.74505805969E-08  0.93827000000E+00  0.93827000000E+00 0.  1.
     999902    2    1    2    0    0  0.20783095102E-01 -0.11542494117E-01 -0.26927316302E-02  0.10200047619E+01  0.10197241281E+01 0.  0.
     999903    2    3    3    0    0  0.26494650378E-01 -0.97186547484E-01 -0.83106729503E-01  0.13217936425E+00  0.20431943948E-01 0.  0.
         14    1    1    2    0    0 -0.20783095102E-01  0.11542494117E-01  0.26927316302E-02  0.23925238057E-01  0.00000000000E+00 0. -1.
     999901    1    3    3    0    0 -0.57115552758E-02  0.85644053366E-01  0.80413997873E-01  0.88782539770E+00  0.88000000000E+00 0. -1.
        -11    1    4    4    0    0  0.21896209042E-01 -0.47086808797E-01 -0.48970086822E-01  0.71378862820E-01  0.51100000000E-03 0. -1.
         11    1    4    4    0    0  0.45984413355E-02 -0.50099738687E-01 -0.34136642681E-01  0.60800501427E-01  0.51100000000E-03 0.  1.
</event>
<event>
 8    1  0.1196210E+005  0.1043930E+01  0.7957747E-01            NaN
         13   -1    0    0    0    0  0.00000000000E+00  0.00000000000E+00  0.74505805969E-08  0.10566000000E+00  0.10566000000E+00 0.  1.
     999900   -1    0    0    0    0 -0.00000000000E+00 -0.00000000000E+00 -0.74505805969E-08  0.93827000000E+00  0.93827000000E+00 0. -1.
     999902    2    1    2    0    0  0.77707641229E-02  0.20996342283E-01  0.74907382165E-02  0.10203219013E+01  0.10200487439E+01 0.  0.
     999903    2    3    3    0    0  0.10259652793E+00 -0.64505380842E-01 -0.41615194394E-01  0.12975249765E+00  0.20417995489E-01 0.  0.
         14    1    1    2    0    0 -0.77707641229E-02 -0.20996342283E-01 -0.74907382165E-02  0.23608098682E-01  0.00000000000E+00 0. -1.
     999901    1    3    3    0    0 -0.94825763809E-01  0.85501723125E-01  0.49105932611E-01  0.89056940367E+00  0.88000000000E+00 0.  1.
        -11    1    4    4    0    0  0.33223174255E-01 -0.31309277585E-01 -0.10899585907E-01  0.46937322723E-01  0.51100000000E-03 0. -1.
         11    1    4    4    0    0  0.69373353677E-01 -0.33196103257E-01 -0.30715608487E-01  0.82815174923E-01  0.51100000000E-03 0.  1.
</event>
<event>
 8    1  0.1196210E+005  0.1043930E+01  0.7957747E-01            NaN
         13   -1    0    0    0    0  0.00000000000E+00  0.00000000000E+00  0.74505805969E-08  0.10566000000E+00  0.10566000000E+00 0. -1.
     999900   -1    0    0    0    0 -0.00000000000E+00 -0.00000000000E+00 -0.74505805969E-08  0.93827000000E+00  0.93827000000E+00 0. -1.
     999902    2    1    2    0    0  0.23702347538E-01 -0.30499407559E-02  0.56906200616E-02  0.10193640363E+01  0.10190679820E+01 0.  0.
     999903    2    3    3    0    0 -0.92247686701E-01  0.55360127041E-01  0.64891724752E-01  0.12787039229E+00  0.23780704676E-01 0.  0.
         14    1    1    2    0    0 -0.23702347538E-01  0.30499407559E-02 -0.56906200616E-02  0.24565963733E-01  0.00000000000E+00 0.  1.
     999901    1    3    3    0    0  0.11595003424E+00 -0.58410067797E-01 -0.59201104690E-01  0.89149364398E+00  0.88000000000E+00 0. -1.
        -11    1    4    4    0    0 -0.35340362845E-01  0.19166440700E-01  0.37811082466E-01  0.55192687680E-01  0.51100000000E-03 0.  1.
         11    1    4    4    0    0 -0.56907323856E-01  0.36193686341E-01  0.27080642286E-01  0.72677704607E-01  0.51100000000E-03 0. -1.
</event>
<event>
 8    1  0.1196210E+005  0.1043930E+01  0.7957747E-01            NaN
         13   -1    0    0    0    0  0.00000000000E+00  0.00000000000E+00  0.74505805969E-08  0.10566000000E+00  0.10566000000E+00 0.  1.
     999900   -1    0    0    0    0 -0.00000000000E+00 -0.00000000000E+00 -0.74505805969E-08  0.93827000000E+00  0.93827000000E+00 0.  1.
     999902    2    1    2    0    0  0.23245437603E-01  0.28611678865E-02 -0.73580304827E-02  0.10193805140E+01  0.10190848615E+01 0.  0.
     999903    2    3    3    0    0  0.11298327821E+00  0.58977102526E-01 -0.31330231386E-01  0.13271454273E+00  0.19698900398E-01 0.  0.
         14    1    1    2    0    0 -0.23245437603E-01 -0.28611678865E-02  0.73580304827E-02  0.24549486015E-01  0.00000000000E+00 0.  1.
     999901    1    3    3    0    0 -0.89737840609E-01 -0.56115934639E-01  0.23972200903E-01  0.88666597125E+00  0.88000000000E+00 0.  1.
        -11    1    4    4    0    0  0.73511591778E-01  0.29864412308E-01 -0.25367105681E-01  0.83304192091E-01  0.51100000000E-03 0.  1.
         11    1    4    4    0    0  0.39471686433E-01  0.29112690217E-01 -0.59631257045E-02  0.49410350644E-01  0.51100000000E-03 0. -1.
</event>
<event>
 8    1  0.1196210E+005  0.1043930E+01  0.7957747E-01            NaN
         13   -1    0    0    0    0  0.00000000000E+00  0.00000000000E+00  0.74505805969E-08  0.10566000000E+00  0.10566000000E+00 0. -1.
     999900   -1    0    0    0    0 -0.00000000000E+00 -0.00000000000E+00 -0.74505805969E-08  0.93827000000E+00  0.93827000000E+00 0.  1.
     999902    2    1    2    0    0  0.17144141272E-01  0.10854722779E-01 -0.12610317934E-01  0.10200392758E+01  0.10197594605E+01 0.  0.
     999903    2    3    3    0    0 -0.28305223635E-02  0.12211508931E+00 -0.46969935423E-01  0.13214376407E+00  0.18321917338E-01 0.  0.
         14    1    1    2    0    0 -0.17144141272E-01 -0.10854722779E-01  0.12610317934E-01  0.23890724245E-01  0.00000000000E+00 0. -1.
     999901    1    3    3    0    0  0.19974663635E-01 -0.11126036654E+00  0.34359617489E-01  0.88789551168E+00  0.88000000000E+00 0. -1.
        -11    1    4    4    0    0  0.30490141184E-02  0.95516932179E-01 -0.42263570361E-01  0.10449522152E+00  0.51100000000E-03 0.  1.
         11    1    4    4    0    0 -0.58795364819E-02  0.26598157135E-01 -0.47063650623E-02  0.27648542553E-01  0.51100000000E-03 0. -1.
</event>
<event>
 8    1  0.1196210E+005  0.1043930E+01  0.7957747E-01            NaN
         13   -1    0    0    0    0  0.00000000000E+00  0.00000000000E+00  0.74505805969E-08  0.10566000000E+00  0.10566000000E+00 0. -1.
     999900   -1    0    0    0    0 -0.00000000000E+00 -0.00000000000E+00 -0.74505805969E-08  0.93827000000E+00  0.93827000000E+00 0. -1.
     999902    2    1    2    0    0 -0.15148748795E-01  0.15806134430E-01 -0.89583557402E-02  0.10202747551E+01  0.10200004927E+01 0.  0.
     999903    2    3    3    0    0  0.59778380911E-01 -0.69053177462E-01  0.87179571791E-01  0.12782997879E+00  0.19960701331E-01 0.  0.
         14    1    1    2    0    0  0.15148748795E-01 -0.15806134430E-01  0.89583557402E-02  0.23655244941E-01  0.00000000000E+00 0. -1.
     999901    1    3    3    0    0 -0.74927129706E-01  0.84859311892E-01 -0.96137927531E-01  0.89244477627E+00  0.88000000000E+00 0. -1.
        -11    1    4    4    0    0  0.33695693925E-02 -0.14513373309E-01  0.16323931317E-01  0.22107099705E-01  0.51100000000E-03 0. -1.
         11    1    4    4    0    0  0.56408811519E-01 -0.54539804153E-01  0.70855640474E-01  0.10572287908E+00  0.51100000000E-03 0.  1.
</event>
<event>
 8    1  0.1196210E+005  0.1043930E+01  0.7957747E-01            NaN
         13   -1    0    0    0    0  0.00000000000E+00  0.00000000000E+00  0.74505805969E-08  0.10566000000E+00  0.10566000000E+00 0. -1.
     999900   -1    0    0    0    0 -0.00000000000E+00 -0.00000000000E+00 -0.74505805969E-08  0.93827000000E+00  0.93827000000E+00 0. -1.
     999902    2    1    2    0    0 -0.82744192363E-02 -0.20407491133E-01 -0.34767649194E-03  0.10219060906E+01  0.10216687356E+01 0.  0.
     999903    2    3    3    0    0 -0.20756930255E-01 -0.10856485572E+00 -0.73766466186E-01  0.13437138550E+00  0.19924850214E-01 0.  0.
         14    1    1    2    0    0  0.82744192363E-02  0.20407491133E-01  0.34767649194E-03  0.22023909439E-01  0.00000000000E+00 0. -1.
     999901    1    3    3    0    0  0.12482511018E-01  0.88157364586E-01  0.73418789694E-01  0.88753470506E+00  0.88000000000E+00 0.  1.
        -11    1    4    4    0    0 -0.11004116027E-01 -0.60471185268E-01 -0.29075924973E-01  0.67996509846E-01  0.51100000000E-03 0.  1.
         11    1    4    4    0    0 -0.97528142278E-02 -0.48093670451E-01 -0.44690541213E-01  0.66374875651E-01  0.51100000000E-03 0. -1.
</event>
<event>
 8    1  0.1196210E+005  0.1043930E+01  0.7957747E-01            NaN
         13   -1    0    0    0    0  0.00000000000E+00  0.00000000000E+00  0.74505805969E-08  0.10566000000E+00  0.10566000000E+00 0.  1.
     999900   -1    0    0    0    0 -0.00000000000E+00 -0.00000000000E+00 -0.74505805969E-08  0.93827000000E+00  0.93827000000E+00 0. -1.
     999902    2    1    2    0    0 -0.10358753864E-01  0.13362953303E-01  0.16716797204E-01  0.10201534651E+01  0.10198763497E+01 0.  0.
     999903    2    3    3    0    0  0.24829160169E-01  0.12641922155E+00  0.21987231338E-01  0.13220769731E+00  0.19928123695E-01 0.  0.
         14    1    1    2    0    0  0.10358753864E-01 -0.13362953303E-01 -0.16716797204E-01  0.23776534890E-01  0.00000000000E+00 0. -1.
     999901    1    3    3    0    0 -0.35187914033E-01 -0.11305626824E+00 -0.52704341335E-02  0.88794576780E+00  0.88000000000E+00 0.  1.
        -11    1    4    4    0    0  0.12792455110E-01  0.68084329701E-01  0.21849844984E-01  0.72641583858E-01  0.51100000000E-03 0.  1.
         11    1    4    4    0    0  0.12036705059E-01  0.58334891846E-01  0.13738635338E-03  0.59566113449E-01  0.51100000000E-03 0. -1.
</event>
<event>
 8    1  0.1196210E+005  0.1043930E+01  0.7957747E-01            NaN
         13   -1    0    0    0    0  0.00000000000E+00  0.00000000000E+00  0.74505805969E-08  0.10566000000E+00  0.10566000000E+00 0.  1.
     999900   -1    0    0    0    0 -0.00000000000E+00 -0.00000000000E+00 -0.74505805969E-08  0.93827000000E+00  0.93827000000E+00 0.  1.
     999902    2    1    2    0    0 -0.51532423920E-02 -0.47091427689E-02  0.22371279894E-01  0.10204948534E+01  0.10202257298E+01 0.  0.
     999903    2    3    3    0    0 -0.12046086539E+00  0.59068751033E-02  0.50985311049E-01  0.13244794554E+00  0.19931007733E-01 0.  0.
         14    1    1    2    0    0  0.51532423920E-02  0.47091427689E-02 -0.22371279894E-01  0.23435146615E-01  0.00000000000E+00 0. -1.
     999901    1    3    3    0    0  0.11530762300E+00 -0.10616017872E-01 -0.28614031155E-01  0.88804690785E+00  0.88000000000E+00 0.  1.
        -11    1    4    4    0    0 -0.28378595489E-01  0.90364279273E-02  0.16627054078E-01  0.34113366294E-01  0.51100000000E-03 0.  1.
         11    1    4    4    0    0 -0.92082269906E-01 -0.31295528240E-02  0.34358256971E-01  0.98334579244E-01  0.51100000000E-03 0. -1.
</event>
<event>
 8    1  0.1196210E+005  0.1043930E+01  0.7957747E-01            NaN
         13   -1    0    0    0    0  0.00000000000E+00  0.00000000000E+00  0.74505805969E-08  0.10566000000E+00  0.10566000000E+00 0.  1.
     999900   -1    0    0    0    0 -0.00000000000E+00 -0.00000000000E+00 -0.74505805969E-08  0.93827000000E+00  0.93827000000E+00 0. -1.
     999902    2    1    2    0    0  0.99707863019E-02 -0.37338624058E-02 -0.21169541332E-01  0.10202338444E+01  0.10199586215E+01 0.  0.
     999903    2    3    3    0    0 -0.64517027803E-03 -0.42979060154E-02  0.12620822067E+00  0.12791483119E+00  0.20366659876E-01 0.  0.
         14    1    1    2    0    0 -0.99707863019E-02  0.37338624058E-02  0.21169541332E-01  0.23696155556E-01  0.00000000000E+00 0. -1.
     999901    1    3    3    0    0  0.10615956580E-01  0.56404360955E-03 -0.14737776200E+00  0.89231901325E+00  0.88000000000E+00 0. -1.
        -11    1    4    4    0    0  0.49717761362E-02 -0.89736120661E-02  0.36789882866E-01  0.38196869947E-01  0.51100000000E-03 0. -1.
         11    1    4    4    0    0 -0.56169464142E-02  0.46757060507E-02  0.89418337799E-01  0.89717961245E-01  0.51100000000E-03 0.  1.
</event>
<event>
 8    1  0.1196210E+005  0.1043930E+01  0.7957747E-01            NaN
         13   -1    0    0    0    0  0.00000000000E+00  0.00000000000E+00  0.74505805969E-08  0.10566000000E+00  0.10566000000E+00 0.  1.
     999900   -1    0    0    0    0 -0.00000000000E+00 -0.00000000000E+00 -0.74505805969E-08  0.93827000000E+00  0.93827000000E+00 0.  1.
     999902    2    1    2    0    0 -0.15343982385E-01  0.11755097034E-02 -0.17673509016E-01  0.10204955694E+01  0.10202264624E+01 0.  0.
     999903    2    3    3    0    0 -0.40305727308E-01  0.12315597751E+00 -0.12063166166E-01  0.13171336928E+00  0.20271783826E-01 0.  0.
         14    1    1    2    0    0  0.15343982385E-01 -0.11755097034E-02  0.17673509016E-01  0.23434430640E-01  0.00000000000E+00 0.  1.
     999901    1    3    3    0    0  0.24961744923E-01 -0.12198046780E+00 -0.56103428500E-02  0.88878220008E+00  0.88000000000E+00 0.  1.
        -11    1    4    4    0    0 -0.19475821538E-01  0.42862271772E-01  0.38804072011E-02  0.47241937377E-01  0.51100000000E-03 0.  1.
         11    1    4    4    0    0 -0.20829905769E-01  0.80293705734E-01 -0.15943573367E-01  0.84471431902E-01  0.51100000000E-03 0. -1.
</event>
<event>
 8    1  0.1196210E+005  0.1043930E+01  0.7957747E-01            NaN
         13   -1    0    0    0    0  0.00000000000E+00  0.00000000000E+00  0.74505805969E-08  0.10566000000E+00  0.10566000000E+00 0.  1.
     999900   -1    0    0    0    0 -0.00000000000E+00 -0.00000000000E+00 -0.74505805969E-08  0.93827000000E+00  0.93827000000E+00 0.  1.
     999902    2    1    2    0    0 -0.15894693418E-01 -0.26142056130E-01  0.63824065864E-02  0.10126764643E+01  0.10121940713E+01 0.  0.
     999903    2    3    3    0    0 -0.59202362303E-01 -0.58152210231E-01 -0.92228187381E-01  0.12553259022E+00  0.19125726173E-01 0.  0.
         14    1    1    2    0    0  0.15894693418E-01  0.26142056130E-01 -0.63824065864E-02  0.31253535662E-01  0.00000000000E+00 0. -1.
     999901    1    3    3    0    0  0.43307668885E-01  0.32010154101E-01  0.98610593967E-01  0.88714387412E+00  0.88000000000E+00 0. -1.
        -11    1    4    4    0    0 -0.28197410979E-01 -0.36151305047E-01 -0.61123830141E-01  0.76409388001E-01  0.51100000000E-03 0. -1.
         11    1    4    4    0    0 -0.31004951325E-01 -0.22000905184E-01 -0.31104357240E-01  0.49123202215E-01  0.51100000000E-03 0.  1.
</event>
<event>
 8    1  0.1196210E+005  0.1043930E+01  0.7957747E-01            NaN
         13   -1    0    0    0    0  0.00000000000E+00  0.00000000000E+00  0.74505805969E-08  0.10566000000E+00  0.10566000000E+00 0.  1.
     999900   -1    0    0    0    0 -0.00000000000E+00 -0.00000000000E+00 -0.74505805969E-08  0.93827000000E+00  0.93827000000E+00 0. -1.
     999902    2    1    2    0    0  0.13108461821E-01  0.66623397999E-02  0.22599621190E-01  0.10169677779E+01  0.10166102989E+01 0.  0.
     999903    2    3    3    0    0 -0.78343280002E-01  0.25838866372E-01  0.96963388065E-01  0.12890182872E+00  0.20210548887E-01 0.  0.
         14    1    1    2    0    0 -0.13108461821E-01 -0.66623397999E-02 -0.22599621190E-01  0.26962222105E-01  0.00000000000E+00 0.  1.
     999901    1    3    3    0    0  0.91451741823E-01 -0.19176526572E-01 -0.74363766876E-01  0.88806594917E+00  0.88000000000E+00 0. -1.
        -11    1    4    4    0    0 -0.82064441232E-02 -0.30714643478E-02  0.70376597172E-02  0.11250306382E-01  0.51100000000E-03 0. -1.
         11    1    4    4    0    0 -0.70136835879E-01  0.28910330720E-01  0.89925728348E-01  0.11765152234E+00  0.51100000000E-03 0.  1.
</event>
<event>
 8    1  0.1196210E+005  0.1043930E+01  0.7957747E-01            NaN
         13   -1    0    0    0    0  0.00000000000E+00  0.00000000000E+00  0.74505805969E-08  0.10566000000E+00  0.10566000000E+00 0. -1.
     999900   -1    0    0    0    0 -0.00000000000E+00 -0.00000000000E+00 -0.74505805969E-08  0.93827000000E+00  0.93827000000E+00 0. -1.
     999902    2    1    2    0    0 -0.14414666296E-01  0.20145912549E-01  0.25702775202E-01  0.10082330386E+01  0.10076009067E+01 0.  0.
     999903    2    3    3    0    0 -0.10458053683E+00  0.45695222702E-01 -0.35486182822E-01  0.12114412538E+00  0.19786052683E-01 0.  0.
         14    1    1    2    0    0  0.14414666296E-01 -0.20145912549E-01 -0.25702775202E-01  0.35696961355E-01  0.00000000000E+00 0.  1.
     999901    1    3    3    0    0  0.90165870534E-01 -0.25549310153E-01  0.61188958024E-01  0.88708891327E+00  0.88000000000E+00 0. -1.
        -11    1    4    4    0    0 -0.33583958672E-02  0.45884576889E-02  0.13188095267E-02  0.58594493198E-02  0.51100000000E-03 0. -1.
         11    1    4    4    0    0 -0.10122214096E+00  0.41106765013E-01 -0.36804992348E-01  0.11528467606E+00  0.51100000000E-03 0.  1.
</event>
<event>
 8    1  0.1196210E+005  0.1043930E+01  0.7957747E-01            NaN
         13   -1    0    0    0    0  0.00000000000E+00  0.00000000000E+00  0.74505805969E-08  0.10566000000E+00  0.10566000000E+00 0. -1.
     999900   -1    0    0    0    0 -0.00000000000E+00 -0.00000000000E+00 -0.74505805969E-08  0.93827000000E+00  0.93827000000E+00 0. -1.
     999902    2    1    2    0    0  0.14288446702E-01  0.52085667221E-02  0.16172562565E-01  0.10217299852E+01  0.10214887772E+01 0.  0.
     999903    2    3    3    0    0 -0.85448666949E-01 -0.57750860428E-01  0.79108090703E-01  0.13163321407E+00  0.20798472727E-01 0.  0.
         14    1    1    2    0    0 -0.14288446702E-01 -0.52085667221E-02 -0.16172562565E-01  0.22200014783E-01  0.00000000000E+00 0.  1.
     999901    1    3    3    0    0  0.99737113651E-01  0.62959427151E-01 -0.62935528138E-01  0.89009677115E+00  0.88000000000E+00 0. -1.
        -11    1    4    4    0    0 -0.23353647264E-01 -0.19132591773E-01  0.12366406504E-01  0.32628791570E-01  0.51100000000E-03 0.  1.
         11    1    4    4    0    0 -0.62095019685E-01 -0.38618268655E-01  0.66741684199E-01  0.99004422499E-01  0.51100000000E-03 0. -1.
</event>
<event>
 8    1  0.1196210E+005  0.1043930E+01  0.7957747E-01            NaN
         13   -1    0    0    0    0  0.00000000000E+00  0.00000000000E+00  0.74505805969E-08  0.10566000000E+00  0.10566000000E+00 0.  1.
     999900   -1    0    0    0    0 -0.00000000000E+00 -0.00000000000E+00 -0.74505805969E-08  0.93827000000E+00  0.93827000000E+00 0. -1.
     999902    2    1    2    0    0  0.23378963839E-01  0.58777196898E-03 -0.32837714821E-02  0.10203142302E+01  0.10200408932E+01 0.  0.
     999903    2    3    3    0    0  0.10619302062E+00  0.64994300519E-01 -0.42806255187E-01  0.13320183847E+00  0.20227149108E-01 0.  0.
         14    1    1    2    0    0 -0.23378963839E-01 -0.58777196898E-03  0.32837714821E-02  0.23615769758E-01  0.00000000000E+00 0.  1.
     999901    1    3    3    0    0 -0.82814056776E-01 -0.64406528550E-01  0.39522483705E-01  0.88711239177E+00  0.88000000000E+00 0.  1.
        -11    1    4    4    0    0  0.72143104699E-01  0.43979615832E-01 -0.38831006424E-01  0.92988936682E-01  0.51100000000E-03 0.  1.
         11    1    4    4    0    0  0.34049915916E-01  0.21014684687E-01 -0.39752487626E-02  0.40212901787E-01  0.51100000000E-03 0. -1.
</event>
<event>
 8    1  0.1196210E+005  0.1043930E+01  0.7957747E-01            NaN
         13   -1    0    0    0    0  0.00000000000E+00  0.00000000000E+00  0.74505805969E-08  0.10566000000E+00  0.10566000000E+00 0.  1.
     999900   -1    0    0    0    0 -0.00000000000E+00 -0.00000000000E+00 -0.74505805969E-08  0.93827000000E+00  0.93827000000E+00 0. -1.
     999902    2    1    2    0    0  0.97848025489E-02  0.26359212848E-02  0.21252606761E-01  0.10203850698E+01  0.10201133893E+01 0.  0.
     999903    2    3    3    0    0 -0.78712657612E-01  0.10092865305E+00 -0.99363522329E-02  0.12995482960E+00  0.20180464997E-01 0.  0.
         14    1    1    2    0    0 -0.97848025489E-02 -0.26359212848E-02 -0.21252606761E-01  0.23544930157E-01  0.00000000000E+00 0. -1.
     999901    1    3    3    0    0  0.88497460161E-01 -0.98292731761E-01  0.31188958994E-01  0.89043024024E+00  0.88000000000E+00 0.  1.
        -11    1    4    4    0    0 -0.49987414909E-01  0.50058401700E-01 -0.31635971006E-03  0.70745646046E-01  0.51100000000E-03 0.  1.
         11    1    4    4    0    0 -0.28725242703E-01  0.50870251346E-01 -0.96199925228E-02  0.59209183557E-01  0.51100000000E-03 0. -1.
</event>
<event>
 8    1  0.1196210E+005  0.1043930E+01  0.7957747E-01            NaN
         13   -1    0    0    0    0  0.00000000000E+00  0.00000000000E+00  0.74505805969E-08  0.10566000000E+00  0.10566000000E+00 0. -1.
     999900   -1    0    0    0    0 -0.00000000000E+00 -0.00000000000E+00 -0.74505805969E-08  0.93827000000E+00  0.93827000000E+00 0. -1.
     999902    2    1    2    0    0 -0.92313980718E-02  0.33843068345E-03 -0.21460266078E-01  0.10205660049E+01  0.10202985319E+01 0.  0.
     999903    2    3    3    0    0 -0.10553429345E+00 -0.53459765080E-01 -0.57510350491E-01  0.13294665965E+00  0.19285754358E-01 0.  0.
         14    1    1    2    0    0  0.92313980718E-02 -0.33843068345E-03  0.21460266078E-01  0.23363995074E-01  0.00000000000E+00 0. -1.
     999901    1    3    3    0    0  0.96302895380E-01  0.53798195764E-01  0.36050084414E-01  0.88761934528E+00  0.88000000000E+00 0.  1.
        -11    1    4    4    0    0 -0.49331245614E-01 -0.23028118320E-01 -0.36980046958E-01  0.65815279542E-01  0.51100000000E-03 0. -1.
         11    1    4    4    0    0 -0.56203047837E-01 -0.30431646760E-01 -0.20530303534E-01  0.67131380106E-01  0.51100000000E-03 0.  1.
</event>
<event>
 8    1  0.1196210E+005  0.1043930E+01  0.7957747E-01            NaN
         13   -1    0    0    0    0  0.00000000000E+00  0.00000000000E+00  0.74505805969E-08  0.10566000000E+00  0.10566000000E+00 0. -1.
     999900   -1    0    0    0    0 -0.00000000000E+00 -0.00000000000E+00 -0.74505805969E-08  0.93827000000E+00  0.93827000000E+00 0. -1.
     999902    2    1    2    0    0 -0.16822687302E-01  0.13856649457E-01  0.18664958593E-02  0.10220555092E+01  0.10218213985E+01 0.  0.
     999903    2    3    3    0    0 -0.83628725574E-01 -0.93357770680E-01 -0.36863025791E-01  0.13219150019E+00  0.20156214033E-01 0.  0.
         14    1    1    2    0    0  0.16822687302E-01 -0.13856649457E-01 -0.18664958593E-02  0.21874490829E-01  0.00000000000E+00 0. -1.
     999901    1    3    3    0    0  0.66806038272E-01  0.10721442014E+00  0.38729521651E-01  0.88986400898E+00  0.88000000000E+00 0. -1.
        -11    1    4    4    0    0 -0.11831286545E-01 -0.22490857978E-01 -0.21706470078E-02  0.25510602958E-01  0.51100000000E-03 0.  1.
         11    1    4    4    0    0 -0.71797439030E-01 -0.70866912702E-01 -0.34692378784E-01  0.10668089723E+00  0.51100000000E-03 0. -1.
</event>
<event>
 8    1  0.1196210E+005  0.1043930E+01  0.7957747E-01            NaN
         13   -1    0    0    0    0  0.00000000000E+00  0.00000000000E+00  0.74505805969E-08  0.10566000000E+00  0.10566000000E+00 0. -1.
     999900   -1    0    0    0    0 -0.00000000000E+00 -0.00000000000E+00 -0.74505805969E-08  0.93827000000E+00  0.93827000000E+00 0.  1.
     999902    2    1    2    0    0  0.53925783385E-02  0.22851718849E-01  0.73315281824E-02  0.10193325965E+01  0.10190357746E+01 0.  0.
     999903    2    3    3    0    0  0.36158566432E-01 -0.28016488819E-01  0.12016792288E+00  0.13013848236E+00  0.20083060801E-01 0.  0.
         14    1    1    2    0    0 -0.53925783385E-02 -0.22851718849E-01 -0.73315281824E-02  0.24597403542E-01  0.00000000000E+00 0. -1.
     999901    1    3    3    0    0 -0.30765988094E-01  0.50868207668E-01 -0.11283639469E+00  0.88919411410E+00  0.88000000000E+00 0.  1.
        -11    1    4    4    0    0  0.92671721836E-02 -0.10141498763E-01  0.62972365414E-01  0.64455491653E-01  0.51100000000E-03 0. -1.
         11    1    4    4    0    0  0.26891394249E-01 -0.17874990056E-01  0.57195557462E-01  0.65682990710E-01  0.51100000000E-03 0.  1.
</event>
<event>
 8    1  0.1196210E+005  0.1043930E+01  0.7957747E-01            NaN
         13   -1    0    0    0    0  0.00000000000E+00  0.00000000000E+00  0.74505805969E-08  0.10566000000E+00  0.10566000000E+00 0. -1.
     999900   -1    0    0    0    0 -0.00000000000E+00 -0.00000000000E+00 -0.74505805969E-08  0.93827000000E+00  0.93827000000E+00 0.  1.
     999902    2    1    2    0    0  0.21549735679E-01 -0.28834482092E-02  0.19806277255E-01  0.10145192197E+01  0.10140928227E+01 0.  0.
     999903    2    3    3    0    0  0.33480075898E-01  0.87553136378E-01 -0.79372290631E-01  0.12426223588E+00  0.18832832322E-01 0.  0.
         14    1    1    2    0    0 -0.21549735679E-01  0.28834482092E-02 -0.19806277255E-01  0.29410780339E-01  0.00000000000E+00 0.  1.
     999901    1    3    3    0    0 -0.11930340218E-01 -0.90436584587E-01  0.99178567887E-01  0.89025698378E+00  0.88000000000E+00 0. -1.
        -11    1    4    4    0    0  0.27688777064E-01  0.84374746888E-01 -0.71784234358E-01  0.11418845700E+00  0.51100000000E-03 0.  1.
         11    1    4    4    0    0  0.57912988335E-02  0.31783894894E-02 -0.75880562730E-02  0.10073778880E-01  0.51100000000E-03 0. -1.
</event>
<event>
 8    1  0.1196210E+005  0.1043930E+01  0.7957747E-01            NaN
         13   -1    0    0    0    0  0.00000000000E+00  0.00000000000E+00  0.74505805969E-08  0.10566000000E+00  0.10566000000E+00 0. -1.
     999900   -1    0    0    0    0 -0.00000000000E+00 -0.00000000000E+00 -0.74505805969E-08  0.93827000000E+00  0.93827000000E+00 0. -1.
     999902    2    1    2    0    0  0.66442987603E-02  0.23041257279E-01 -0.74918575126E-02  0.10188068200E+01  0.10184970115E+01 0.  0.
     999903    2    3    3    0    0  0.68255628162E-01 -0.88801430251E-01 -0.58844284812E-01  0.12810944468E+00  0.20121013145E-01 0.  0.
         14    1    1    2    0    0 -0.66442987603E-02 -0.23041257279E-01  0.74918575126E-02  0.25123179974E-01  0.00000000000E+00 0. -1.
     999901    1    3    3    0    0 -0.61611329402E-01  0.11184268753E+00  0.51352427300E-01  0.89069737535E+00  0.88000000000E+00 0.  1.
        -11    1    4    4    0    0  0.39986057238E-01 -0.66388860378E-01 -0.36462616896E-01  0.85651322860E-01  0.51100000000E-03 0.  1.
         11    1    4    4    0    0  0.28269570924E-01 -0.22412569873E-01 -0.22381667916E-01  0.42458121817E-01  0.51100000000E-03 0. -1.
</event>
<event>
 8    1  0.1196210E+005  0.1043930E+01  0.7957747E-01            NaN
         13   -1    0    0    0    0  0.00000000000E+00  0.00000000000E+00  0.74505805969E-08  0.10566000000E+00  0.10566000000E+00 0. -1.
     999900   -1    0    0    0    0 -0.00000000000E+00 -0.00000000000E+00 -0.74505805969E-08  0.93827000000E+00  0.93827000000E+00 0. -1.
     999902    2    1    2    0    0 -0.19364599599E-01 -0.13198495247E-01  0.53188803289E-02  0.10198992180E+01  0.10196160731E+01 0.  0.
     999903    2    3    3    0    0  0.39598881217E-01  0.53586918991E-01  0.10877960205E+00  0.12937066454E+00  0.21543856260E-01 0.  0.
         14    1    1    2    0    0  0.19364599599E-01  0.13198495247E-01 -0.53188803289E-02  0.24030781976E-01  0.00000000000E+00 0. -1.
     999901    1    3    3    0    0 -0.58963480816E-01 -0.66785414238E-01 -0.10346072172E+00  0.89052855348E+00  0.88000000000E+00 0. -1.
        -11    1    4    4    0    0  0.19394702414E-01  0.27011472545E-01  0.74153717467E-01  0.81269976411E-01  0.51100000000E-03 0. -1.
         11    1    4    4    0    0  0.20204178803E-01  0.26575446445E-01  0.34625884580E-01  0.48100688133E-01  0.51100000000E-03 0.  1.
</event>
<event>
 8    1  0.1196210E+005  0.1043930E+01  0.7957747E-01            NaN
         13   -1    0    0    0    0  0.00000000000E+00  0.00000000000E+00  0.74505805969E-08  0.10566000000E+00  0.10566000000E+00 0. -1.
     999900   -1    0    0    0    0 -0.00000000000E+00 -0.00000000000E+00 -0.74505805969E-08  0.93827000000E+00  0.93827000000E+00 0.  1.
     999902    2    1    2    0    0  0.53268264255E-02  0.15737091070E-02 -0.24562811965E-01  0.10187470023E+01  0.10184356982E+01 0.  0.
     999903    2    3    3    0    0  0.63632620777E-01  0.11113421051E+00  0.28442693670E-02  0.12961584371E+00  0.19805400737E-01 0.  0.
         14    1    1    2    0    0 -0.53268264255E-02 -0.15737091070E-02  0.24562811965E-01  0.25182997672E-01  0.00000000000E+00 0. -1.
     999901    1    3    3    0    0 -0.58305794352E-01 -0.10956050141E+00 -0.27407081332E-01  0.88913115862E+00  0.88000000000E+00 0. -1.
        -11    1    4    4    0    0  0.25246784664E-01  0.62017706946E-01  0.57576995191E-02  0.67208692410E-01  0.51100000000E-03 0.  1.
         11    1    4    4    0    0  0.38385836114E-01  0.49116503567E-01 -0.29134301521E-02  0.62407151297E-01  0.51100000000E-03 0. -1.
</event>
<event>
 8    1  0.1196210E+005  0.1043930E+01  0.7957747E-01            NaN
         13   -1    0    0    0    0  0.00000000000E+00  0.00000000000E+00  0.74505805969E-08  0.10566000000E+00  0.10566000000E+00 0. -1.
     999900   -1    0    0    0    0 -0.00000000000E+00 -0.00000000000E+00 -0.74505805969E-08  0.93827000000E+00  0.93827000000E+00 0.  1.
     999902    2    1    2    0    0 -0.19529400776E-01 -0.82501944307E-02 -0.10037829227E-01  0.10204732053E+01  0.10202035784E+01 0.  0.
     999903    2    3    3    0    0 -0.10004022878E+00 -0.76174573623E-01  0.37633944507E-01  0.13291007360E+00  0.20932291870E-01 0.  0.
         14    1    1    2    0    0  0.19529400776E-01  0.82501944307E-02  0.10037829227E-01  0.23456794717E-01  0.00000000000E+00 0. -1.
     999901    1    3    3    0    0  0.80510828009E-01  0.67924379192E-01 -0.47671773734E-01  0.88756313168E+00  0.88000000000E+00 0.  1.
        -11    1    4    4    0    0 -0.34304305234E-01 -0.38304473140E-01  0.18701155367E-01  0.54717568962E-01  0.51100000000E-03 0.  1.
         11    1    4    4    0    0 -0.65735923550E-01 -0.37870100483E-01  0.18932789140E-01  0.78192504636E-01  0.51100000000E-03 0. -1.
</event>
<event>
 8    1  0.1196210E+005  0.1043930E+01  0.7957747E-01            NaN
         13   -1    0    0    0    0  0.00000000000E+00  0.00000000000E+00  0.74505805969E-08  0.10566000000E+00  0.10566000000E+00 0. -1.
     999900   -1    0    0    0    0 -0.00000000000E+00 -0.00000000000E+00 -0.74505805969E-08  0.93827000000E+00  0.93827000000E+00 0. -1.
     999902    2    1    2    0    0  0.43408156647E-02  0.35982967348E-02 -0.24243589363E-01  0.10190393985E+01  0.10187353697E+01 0.  0.
     999903    2    3    3    0    0  0.10928178471E-01 -0.27823813117E-01 -0.12766272711E+00  0.13240178343E+00  0.18408441014E-01 0.  0.
         14    1    1    2    0    0 -0.43408156647E-02 -0.35982967348E-02  0.24243589363E-01  0.24890601544E-01  0.00000000000E+00 0. -1.
     999901    1    3    3    0    0 -0.65873628061E-02  0.31422109852E-01  0.10341913774E+00  0.88663761503E+00  0.88000000000E+00 0.  1.
        -11    1    4    4    0    0  0.43893042341E-02 -0.14588226456E-01 -0.30228379518E-01  0.33854074970E-01  0.51100000000E-03 0. -1.
         11    1    4    4    0    0  0.65388742368E-02 -0.13235586661E-01 -0.97434347590E-01  0.98547708455E-01  0.51100000000E-03 0.  1.
</event>
<event>
 8    1  0.1196210E+005  0.1043930E+01  0.7957747E-01            NaN
         13   -1    0    0    0    0  0.00000000000E+00  0.00000000000E+00  0.74505805969E-08  0.10566000000E+00  0.10566000000E+00 0.  1.
     999900   -1    0    0    0    0 -0.00000000000E+00 -0.00000000000E+00 -0.74505805969E-08  0.93827000000E+00  0.93827000000E+00 0. -1.
     999902    2    1    2    0    0  0.84947468638E-02  0.14291719824E-01  0.15912755196E-01  0.10209163137E+01  0.10206568913E+01 0.  0.
     999903    2    3    3    0    0 -0.48649645089E-01 -0.11263924259E+00  0.37592358330E-01  0.12971097487E+00  0.18904091046E-01 0.  0.
         14    1    1    2    0    0 -0.84947468638E-02 -0.14291719824E-01 -0.15912755196E-01  0.23013686313E-01  0.00000000000E+00 0. -1.
     999901    1    3    3    0    0  0.57144391953E-01  0.12693096241E+00 -0.21679603134E-01  0.89120533882E+00  0.88000000000E+00 0.  1.
        -11    1    4    4    0    0 -0.17606419577E-01 -0.51269346550E-01  0.78387426753E-02  0.54774436681E-01  0.51100000000E-03 0.  1.
         11    1    4    4    0    0 -0.31043225512E-01 -0.61369896036E-01  0.29753615654E-01  0.74936538185E-01  0.51100000000E-03 0. -1.
</event>
<event>
 8    1  0.1196210E+005  0.1043930E+01  0.7957747E-01            NaN
         13   -1    0    0    0    0  0.00000000000E+00  0.00000000000E+00  0.74505805969E-08  0.10566000000E+00  0.10566000000E+00 0. -1.
     999900   -1    0    0    0    0 -0.00000000000E+00 -0.00000000000E+00 -0.74505805969E-08  0.93827000000E+00  0.93827000000E+00 0. -1.
     999902    2    1    2    0    0  0.12488508976E-01 -0.39071426961E-02  0.18888433473E-01  0.10209517159E+01  0.10206931001E+01 0.  0.
     999903    2    3    3    0    0  0.13774431078E-01 -0.97204743693E-01 -0.82808732081E-01  0.13019450464E+00  0.21326644899E-01 0.  0.
         14    1    1    2    0    0 -0.12488508976E-01  0.39071426961E-02 -0.18888433473E-01  0.22978284086E-01  0.00000000000E+00 0.  1.
     999901    1    3    3    0    0 -0.12859221019E-02  0.93297600997E-01  0.10169716555E+00  0.89075721127E+00  0.88000000000E+00 0.  1.
        -11    1    4    4    0    0  0.81007100484E-03 -0.21122512061E-01 -0.77081212519E-02  0.22505399020E-01  0.51100000000E-03 0. -1.
         11    1    4    4    0    0  0.12964360073E-01 -0.76082231632E-01 -0.75100610829E-01  0.10768910562E+00  0.51100000000E-03 0.  1.
</event>
<event>
 8    1  0.1196210E+005  0.1043930E+01  0.7957747E-01            NaN
         13   -1    0    0    0    0  0.00000000000E+00  0.00000000000E+00  0.74505805969E-08  0.10566000000E+00  0.10566000000E+00 0.  1.
     999900   -1    0    0    0    0 -0.00000000000E+00 -0.00000000000E+00 -0.74505805969E-08  0.93827000000E+00  0.93827000000E+00 0. -1.
     999902    2    1    2    0    0  0.12218362550E-01  0.15125571569E-01 -0.12046685892E-01  0.10210565669E+01  0.10208003326E+01 0.  0.
     999903    2    3    3    0    0 -0.59765645174E-02  0.40819135303E-01  0.12225593592E+00  0.13031058250E+00  0.18232194386E-01 0.  0.
         14    1    1    2    0    0 -0.12218362550E-01 -0.15125571569E-01  0.12046685892E-01  0.22873433053E-01  0.00000000000E+00 0.  1.
     999901    1    3    3    0    0  0.18194927067E-01 -0.25693563735E-01 -0.13430262181E+00  0.89074598445E+00  0.88000000000E+00 0. -1.
        -11    1    4    4    0    0 -0.95775973982E-02  0.93574134212E-02  0.34118077698E-01  0.36655093843E-01  0.51100000000E-03 0. -1.
         11    1    4    4    0    0  0.36010328808E-02  0.31461721882E-01  0.88137858224E-01  0.93655488653E-01  0.51100000000E-03 0.  1.
</event>
<event>
 8    1  0.1196210E+005  0.1043930E+01  0.7957747E-01            NaN
         13   -1    0    0    0    0  0.00000000000E+00  0.00000000000E+00  0.74505805969E-08  0.10566000000E+00  0.10566000000E+00 0.  1.
     999900   -1    0    0    0    0 -0.00000000000E+00 -0.00000000000E+00 -0.74505805969E-08  0.93827000000E+00  0.93827000000E+00 0. -1.
     999902    2    1    2    0    0  0.44457208860E-02 -0.27217819496E-01  0.19292694116E-01  0.10102731704E+01  0.10097123831E+01 0.  0.
     999903    2    3    3    0    0  0.45300072151E-01  0.44656729890E-02  0.11329301607E+00  0.12375809312E+00  0.20216808626E-01 0.  0.
         14    1    1    2    0    0 -0.44457208860E-02  0.27217819496E-01 -0.19292694116E-01  0.33656829598E-01  0.00000000000E+00 0. -1.
     999901    1    3    3    0    0 -0.40854351265E-01 -0.31683492485E-01 -0.94000321954E-01  0.88651507728E+00  0.88000000000E+00 0. -1.
        -11    1    4    4    0    0  0.12406003899E-01 -0.78367928926E-02  0.33806637853E-01  0.36857484172E-01  0.51100000000E-03 0.  1.
         11    1    4    4    0    0  0.32894068252E-01  0.12302465882E-01  0.79486378218E-01  0.86900608952E-01  0.51100000000E-03 0. -1.
</event>
<event>
 8    1  0.1196210E+005  0.1043930E+01  0.7957747E-01            NaN
         13   -1    0    0    0    0  0.00000000000E+00  0.00000000000E+00  0.74505805969E-08  0.10566000000E+00  0.10566000000E+00 0.  1.
     999900   -1    0    0    0    0 -0.00000000000E+00 -0.00000000000E+00 -0.74505805969E-08  0.93827000000E+00  0.93827000000E+00 0.  1.
     999902    2    1    2    0    0 -0.11515675433E-01 -0.82118533940E-02  0.19775413210E-01  0.10196171992E+01  0.10193272882E+01 0.  0.
     999903    2    3    3    0    0  0.60636761816E-02 -0.32307017274E-01  0.12686570137E+00  0.13262343349E+00  0.20336110548E-01 0.  0.
         14    1    1    2    0    0  0.11515675433E-01  0.82118533940E-02 -0.19775413210E-01  0.24312800836E-01  0.00000000000E+00 0. -1.
     999901    1    3    3    0    0 -0.17579351615E-01  0.24095163880E-01 -0.10709028816E+00  0.88699376567E+00  0.88000000000E+00 0.  1.
        -11    1    4    4    0    0  0.11731969762E-01 -0.15405739584E-01  0.83829134001E-01  0.86038135469E-01  0.51100000000E-03 0.  1.
         11    1    4    4    0    0 -0.56682935802E-02 -0.16901277690E-01  0.43036567371E-01  0.46585298022E-01  0.51100000000E-03 0. -1.
</event>
<event>
 8    1  0.1196210E+005  0.1043930E+01  0.7957747E-01            NaN
         13   -1    0    0    0    0  0.00000000000E+00  0.00000000000E+00  0.74505805969E-08  0.10566000000E+00  0.10566000000E+00 0. -1.
     999900   -1    0    0    0    0 -0.00000000000E+00 -0.00000000000E+00 -0.74505805969E-08  0.93827000000E+00  0.93827000000E+00 0. -1.
     999902    2    1    2    0    0  0.12063482370E-01  0.15387765370E-01 -0.12332102204E-01  0.10208130868E+01  0.10205513052E+01 0.  0.
     999903    2    3    3    0    0  0.65817726247E-01  0.11418675800E+00 -0.66691927524E-02  0.13363620017E+00  0.21061032053E-01 0.  0.
         14    1    1    2    0    0 -0.12063482370E-01 -0.15387765370E-01  0.12332102204E-01  0.23116913175E-01  0.00000000000E+00 0.  1.
     999901    1    3    3    0    0 -0.53754243877E-01 -0.98798992633E-01 -0.56629094519E-02  0.88717688666E+00  0.88000000000E+00 0. -1.
        -11    1    4    4    0    0  0.27293945523E-01  0.47276661011E-01  0.76018974340E-02  0.55118890628E-01  0.51100000000E-03 0.  1.
         11    1    4    4    0    0  0.38523780724E-01  0.66910096992E-01 -0.14271090186E-01  0.78517309537E-01  0.51100000000E-03 0. -1.
</event>
<event>
 8    1  0.1196210E+005  0.1043930E+01  0.7957747E-01            NaN
         13   -1    0    0    0    0  0.00000000000E+00  0.00000000000E+00  0.74505805969E-08  0.10566000000E+00  0.10566000000E+00 0. -1.
     999900   -1    0    0    0    0 -0.00000000000E+00 -0.00000000000E+00 -0.74505805969E-08  0.93827000000E+00  0.93827000000E+00 0.  1.
     999902    2    1    2    0    0  0.13284254970E-01  0.18055507822E-01  0.74490515757E-02  0.10203087985E+01  0.10200353342E+01 0.  0.
     999903    2    3    3    0    0 -0.53202217757E-02 -0.92389757011E-02  0.12929790832E+00  0.13129909138E+00  0.20195020915E-01 0.  0.
         14    1    1    2    0    0 -0.13284254970E-01 -0.18055507822E-01 -0.74490515757E-02  0.23621201540E-01  0.00000000000E+00 0. -1.
     999901    1    3    3    0    0  0.18604476745E-01  0.27294483523E-01 -0.12184885675E+00  0.88900970708E+00  0.88000000000E+00 0.  1.
        -11    1    4    4    0    0 -0.93433554133E-02  0.30915534257E-02  0.56496372755E-01  0.57349431109E-01  0.51100000000E-03 0. -1.
         11    1    4    4    0    0  0.40231336376E-02 -0.12330529127E-01  0.72801535567E-01  0.73949660275E-01  0.51100000000E-03 0.  1.
</event>
<event>
 8    1  0.1196210E+005  0.1043930E+01  0.7957747E-01            NaN
         13   -1    0    0    0    0  0.00000000000E+00  0.00000000000E+00  0.74505805969E-08  0.10566000000E+00  0.10566000000E+00 0. -1.
     999900   -1    0    0    0    0 -0.00000000000E+00 -0.00000000000E+00 -0.74505805969E-08  0.93827000000E+00  0.93827000000E+00 0. -1.
     999902    2    1    2    0    0 -0.20109848064E-03 -0.23097499360E-01 -0.12320299239E-02  0.10207987913E+01  0.10205366821E+01 0.  0.
     999903    2    3    3    0    0 -0.39948806948E-01  0.61922376248E-01  0.10432304259E+00  0.12953556819E+00  0.21584215393E-01 0.  0.
         14    1    1    2    0    0  0.20109848064E-03  0.23097499360E-01  0.12320299239E-02  0.23131208681E-01  0.00000000000E+00 0. -1.
     999901    1    3    3    0    0  0.39747708467E-01 -0.85019875608E-01 -0.10555507251E+00  0.89126322313E+00  0.88000000000E+00 0. -1.
        -11    1    4    4    0    0 -0.60901679991E-02  0.24594715563E-01  0.45439477878E-01  0.52028813659E-01  0.51100000000E-03 0. -1.
         11    1    4    4    0    0 -0.33858638949E-01  0.37327660685E-01  0.58883564708E-01  0.77506754528E-01  0.51100000000E-03 0.  1.
</event>
<event>
 8    1  0.1196210E+005  0.1043930E+01  0.7957747E-01            NaN
         13   -1    0    0    0    0  0.00000000000E+00  0.00000000000E+00  0.74505805969E-08  0.10566000000E+00  0.10566000000E+00 0. -1.
     999900   -1    0    0    0    0 -0.00000000000E+00 -0.00000000000E+00 -0.74505805969E-08  0.93827000000E+00  0.93827000000E+00 0.  1.
     999902    2    1    2    0    0 -0.68166339171E-02 -0.26776620378E-01 -0.68661019617E-02  0.10154590103E+01  0.10150598034E+01 0.  0.
     999903    2    3    3    0    0  0.84456940420E-01 -0.78551864330E-01  0.50127003036E-01  0.12739383520E+00  0.20324926528E-01 0.  0.
         14    1    1    2    0    0  0.68166339171E-02  0.26776620378E-01  0.68661019617E-02  0.28470989673E-01  0.00000000000E+00 0. -1.
     999901    1    3    3    0    0 -0.91273574337E-01  0.51775243953E-01 -0.56993104998E-01  0.88806517513E+00  0.88000000000E+00 0.  1.
        -11    1    4    4    0    0  0.40183762258E-01 -0.32288456502E-01  0.32628605177E-01  0.61009558016E-01  0.51100000000E-03 0. -1.
         11    1    4    4    0    0  0.44273178162E-01 -0.46263407828E-01  0.17498397859E-01  0.66384277183E-01  0.51100000000E-03 0.  1.
</event>
<event>
 8    1  0.1196210E+005  0.1043930E+01  0.7957747E-01            NaN
         13   -1    0    0    0    0  0.00000000000E+00  0.00000000000E+00  0.74505805969E-08  0.10566000000E+00  0.10566000000E+00 0. -1.
     999900   -1    0    0    0    0 -0.00000000000E+00 -0.00000000000E+00 -0.74505805969E-08  0.93827000000E+00  0.93827000000E+00 0.  1.
     999902    2    1    2    0    0 -0.10857072642E-01  0.17503195400E-01  0.11002991003E-01  0.10205782616E+01  0.10203110723E+01 0.  0.
     999903    2    3    3    0    0  0.10037334397E+00  0.41158851615E-01 -0.68338031699E-01  0.12972092535E+00  0.19712246233E-01 0.  0.
         14    1    1    2    0    0  0.10857072642E-01 -0.17503195400E-01 -0.11002991003E-01  0.23351738406E-01  0.00000000000E+00 0. -1.
     999901    1    3    3    0    0 -0.11123041661E+00 -0.23655656215E-01  0.79341022702E-01  0.89085733624E+00  0.88000000000E+00 0.  1.
        -11    1    4    4    0    0  0.59176493190E-01  0.15593346977E-01 -0.44656727648E-01  0.75759449982E-01  0.51100000000E-03 0.  1.
         11    1    4    4    0    0  0.41196850782E-01  0.25565504638E-01 -0.23681304051E-01  0.53961475371E-01  0.51100000000E-03 0. -1.
</event>
<event>
 8    1  0.1196210E+005  0.1043930E+01  0.7957747E-01            NaN
         13   -1    0    0    0    0  0.00000000000E+00  0.00000000000E+00  0.74505805969E-08  0.10566000000E+00  0.10566000000E+00 0. -1.
     999900   -1    0    0    0    0 -0.00000000000E+00 -0.00000000000E+00 -0.74505805969E-08  0.93827000000E+00  0.93827000000E+00 0.  1.
     999902    2    1    2    0    0  0.20859127111E-01 -0.32942033374E-02 -0.12273440379E-01  0.10195047610E+01  0.10192121298E+01 0.  0.
     999903    2    3    3    0    0  0.12648811272E-01  0.11078781506E+00 -0.64822309368E-01  0.13054835050E+00  0.20174430227E-01 0.  0.
         14    1    1    2    0    0 -0.20859127111E-01  0.32942033374E-02  0.12273440379E-01  0.24425238959E-01  0.00000000000E+00 0. -1.
     999901    1    3    3    0    0  0.82103158391E-02 -0.11408201840E+00  0.52548868989E-01  0.88895641054E+00  0.88000000000E+00 0. -1.
        -11    1    4    4    0    0  0.13109410250E-01  0.55982728812E-01 -0.24484678883E-01  0.62495465302E-01  0.51100000000E-03 0. -1.
         11    1    4    4    0    0 -0.46059897764E-03  0.54805086246E-01 -0.40337630484E-01  0.68052885199E-01  0.51100000000E-03 0.  1.
</event>
<event>
 8    1  0.1196210E+005  0.1043930E+01  0.7957747E-01            NaN
         13   -1    0    0    0    0  0.00000000000E+00  0.00000000000E+00  0.74505805969E-08  0.10566000000E+00  0.10566000000E+00 0. -1.
     999900   -1    0    0    0    0 -0.00000000000E+00 -0.00000000000E+00 -0.74505805969E-08  0.93827000000E+00  0.93827000000E+00 0.  1.
     999902    2    1    2    0    0  0.15544494308E-01 -0.21089154568E-02 -0.17173094405E-01  0.10206707223E+01  0.10204056690E+01 0.  0.
     999903    2    3    3    0    0  0.48048590940E-02  0.12830574655E+00  0.11781394611E-01  0.13052371969E+00  0.20302435159E-01 0.  0.
         14    1    1    2    0    0 -0.15544494308E-01  0.21089154568E-02  0.17173094405E-01  0.23259277700E-01  0.00000000000E+00 0. -1.
     999901    1    3    3    0    0  0.10739635214E-01 -0.13041466200E+00 -0.28954489016E-01  0.89014700261E+00  0.88000000000E+00 0.  1.
        -11    1    4    4    0    0 -0.44071890136E-02  0.69501052092E-01  0.13662081805E-01  0.70969945450E-01  0.51100000000E-03 0.  1.
         11    1    4    4    0    0  0.92120481076E-02  0.58804694456E-01 -0.18806871932E-02  0.59553774235E-01  0.51100000000E-03 0. -1.
</event>
<event>
 8    1  0.1196210E+005  0.1043930E+01  0.7957747E-01            NaN
         13   -1    0    0    0    0  0.00000000000E+00  0.00000000000E+00  0.74505805969E-08  0.10566000000E+00  0.10566000000E+00 0. -1.
     999900   -1    0    0    0    0 -0.00000000000E+00 -0.00000000000E+00 -0.74505805969E-08  0.93827000000E+00  0.93827000000E+00 0. -1.
     999902    2    1    2    0    0  0.22012691270E-01  0.79743403826E-02  0.41310060263E-02  0.10201557725E+01  0.10198787116E+01 0.  0.
     999903    2    3    3    0    0 -0.22941117666E-01  0.11174690243E+00 -0.60330981253E-01  0.13058006614E+00  0.19941446571E-01 0.  0.
         14    1    1    2    0    0 -0.22012691270E-01 -0.79743403826E-02 -0.41310060263E-02  0.23774227480E-01  0.00000000000E+00 0.  1.
     999901    1    3    3    0    0  0.44953808936E-01 -0.10377256205E+00  0.64461987279E-01  0.88957570638E+00  0.88000000000E+00 0.  1.
        -11    1    4    4    0    0  0.12660813744E-02  0.32828373745E-01 -0.12361462281E-01  0.35105155683E-01  0.51100000000E-03 0.  1.
         11    1    4    4    0    0 -0.24207199040E-01  0.78918528690E-01 -0.47969518972E-01  0.95474910460E-01  0.51100000000E-03 0. -1.
</event>
<event>
 8    1  0.1196210E+005  0.1043930E+01  0.7957747E-01            NaN
         13   -1    0    0    0    0  0.00000000000E+00  0.00000000000E+00  0.74505805969E-08  0.10566000000E+00  0.10566000000E+00 0. -1.
     999900   -1    0    0    0    0 -0.00000000000E+00 -0.00000000000E+00 -0.74505805969E-08  0.93827000000E+00  0.93827000000E+00 0.  1.
     999902    2    1    2    0    0 -0.30824522510E-02  0.23245136353E-01  0.18482670161E-02  0.10204086487E+01  0.10201375184E+01 0.  0.
     999903    2    3    3    0    0 -0.49294907501E-01  0.11464068789E+00 -0.41589950077E-01  0.13340491897E+00  0.22241250674E-01 0.  0.
         14    1    1    2    0    0  0.30824522510E-02 -0.23245136353E-01 -0.18482670161E-02  0.23521351298E-01  0.00000000000E+00 0. -1.
     999901    1    3    3    0    0  0.46212455250E-01 -0.91395551537E-01  0.43438217093E-01  0.88700372974E+00  0.88000000000E+00 0. -1.
        -11    1    4    4    0    0 -0.41157115671E-01  0.71854202446E-01 -0.32195955157E-01  0.88846920200E-01  0.51100000000E-03 0. -1.
         11    1    4    4    0    0 -0.81377918300E-02  0.42786485444E-01 -0.93939949197E-02  0.44557998766E-01  0.51100000000E-03 0.  1.
</event>
<event>
 8    1  0.1196210E+005  0.1043930E+01  0.7957747E-01            NaN
         13   -1    0    0    0    0  0.00000000000E+00  0.00000000000E+00  0.74505805969E-08  0.10566000000E+00  0.10566000000E+00 0. -1.
     999900   -1    0    0    0    0 -0.00000000000E+00 -0.00000000000E+00 -0.74505805969E-08  0.93827000000E+00  0.93827000000E+00 0. -1.
     999902    2    1    2    0    0  0.17075531684E-01 -0.15486293173E-01 -0.21086323844E-02  0.10207816655E+01  0.10205191636E+01 0.  0.
     999903    2    3    3    0    0  0.16273748155E-01  0.12661360837E+00 -0.56274242806E-02  0.12937524488E+00  0.20259451599E-01 0.  0.
         14    1    1    2    0    0 -0.17075531684E-01  0.15486293173E-01  0.21086323844E-02  0.23148334477E-01  0.00000000000E+00 0.  1.
     999901    1    3    3    0    0  0.80178352874E-03 -0.14209990154E+00  0.35187918962E-02  0.89140642065E+00  0.88000000000E+00 0.  1.
        -11    1    4    4    0    0  0.10344269480E-01  0.41672360017E-01 -0.10087421336E-01  0.44109031849E-01  0.51100000000E-03 0. -1.
         11    1    4    4    0    0  0.59294786759E-02  0.84941248353E-01  0.44599970557E-02  0.85266213026E-01  0.51100000000E-03 0.  1.
</event>
<event>
 8    1  0.1196210E+005  0.1043930E+01  0.7957747E-01            NaN
         13   -1    0    0    0    0  0.00000000000E+00  0.00000000000E+00  0.74505805969E-08  0.10566000000E+00  0.10566000000E+00 0. -1.
     999900   -1    0    0    0    0 -0.00000000000E+00 -0.00000000000E+00 -0.74505805969E-08  0.93827000000E+00  0.93827000000E+00 0.  1.
     999902    2    1    2    0    0  0.80486714828E-03 -0.77639743684E-02  0.21880804259E-01  0.10206986267E+01  0.10204342164E+01 0.  0.
     999903    2    3    3    0    0  0.34955206853E-01 -0.12012138125E+00  0.39384363277E-01  0.13272519967E+00  0.20343004611E-01 0.  0.
         14    1    1    2    0    0 -0.80486714828E-03  0.77639743684E-02 -0.21880804259E-01  0.23231373273E-01  0.00000000000E+00 0.  1.
     999901    1    3    3    0    0 -0.34150339705E-01  0.11235740688E+00 -0.17503559018E-01  0.88797342706E+00  0.88000000000E+00 0.  1.
        -11    1    4    4    0    0  0.30219438059E-01 -0.80305807419E-01  0.19620216453E-01  0.88019606659E-01  0.51100000000E-03 0. -1.
         11    1    4    4    0    0  0.47357687946E-02 -0.39815573833E-01  0.19764146824E-01  0.44705593010E-01  0.51100000000E-03 0.  1.
</event>
<event>
 8    1  0.1196210E+005  0.1043930E+01  0.7957747E-01            NaN
         13   -1    0    0    0    0  0.00000000000E+00  0.00000000000E+00  0.74505805969E-08  0.10566000000E+00  0.10566000000E+00 0.  1.
     999900   -1    0    0    0    0 -0.00000000000E+00 -0.00000000000E+00 -0.74505805969E-08  0.93827000000E+00  0.93827000000E+00 0.  1.
     999902    2    1    2    0    0 -0.83437661629E-02 -0.16106579295E-01 -0.14665062767E-01  0.10206039545E+01  0.10203373597E+01 0.  0.
     999903    2    3    3    0    0  0.43481439493E-01 -0.12232369010E+00  0.16210915964E-01  0.13216642009E+00  0.18746948113E-01 0.  0.
         14    1    1    2    0    0  0.83437661629E-02  0.16106579295E-01  0.14665062767E-01  0.23326045450E-01  0.00000000000E+00 0.  1.
     999901    1    3    3    0    0 -0.51825205656E-01  0.10621711080E+00 -0.30875978731E-01  0.88843753446E+00  0.88000000000E+00 0.  1.
        -11    1    4    4    0    0  0.76197149780E-02 -0.16979780701E-01  0.89235416256E-02  0.20646155214E-01  0.51100000000E-03 0. -1.
         11    1    4    4    0    0  0.35861724515E-01 -0.10534390940E+00  0.72873743384E-02  0.11152026488E+00  0.51100000000E-03 0.  1.
</event>
<event>
 8    1  0.1196210E+005  0.1043930E+01  0.7957747E-01            NaN
         13   -1    0    0    0    0  0.00000000000E+00  0.00000000000E+00  0.74505805969E-08  0.10566000000E+00  0.10566000000E+00 0.  1.
     999900   -1    0    0    0    0 -0.00000000000E+00 -0.00000000000E+00 -0.74505805969E-08  0.93827000000E+00  0.93827000000E+00 0.  1.
     999902    2    1    2    0    0 -0.13005658188E-01  0.12703590568E-01 -0.14140549204E-01  0.10208977728E+01  0.10206379275E+01 0.  0.
     999903    2    3    3    0    0 -0.64182480937E-01  0.37146128519E-01 -0.10971164054E+00  0.13390829239E+00  0.19888714847E-01 0.  0.
         14    1    1    2    0    0  0.13005658188E-01 -0.12703590568E-01  0.14140549204E-01  0.23032227205E-01  0.00000000000E+00 0. -1.
     999901    1    3    3    0    0  0.51176822749E-01 -0.24442537951E-01  0.95571091334E-01  0.88698948040E+00  0.88000000000E+00 0. -1.
        -11    1    4    4    0    0 -0.44677064560E-01  0.15511816730E-01 -0.61588095512E-01  0.77653146657E-01  0.51100000000E-03 0.  1.
         11    1    4    4    0    0 -0.19505416377E-01  0.21634311789E-01 -0.48123545027E-01  0.56255145734E-01  0.51100000000E-03 0. -1.
</event>
<event>
 8    1  0.1196210E+005  0.1043930E+01  0.7957747E-01            NaN
         13   -1    0    0    0    0  0.00000000000E+00  0.00000000000E+00  0.74505805969E-08  0.10566000000E+00  0.10566000000E+00 0. -1.
     999900   -1    0    0    0    0 -0.00000000000E+00 -0.00000000000E+00 -0.74505805969E-08  0.93827000000E+00  0.93827000000E+00 0. -1.
     999902    2    1    2    0    0 -0.17709174586E-01  0.10817210443E-01 -0.11481738445E-01  0.10202138194E+01  0.10199381256E+01 0.  0.
     999903    2    3    3    0    0  0.11339662576E+00 -0.14915799345E-01 -0.56332748427E-01  0.12899974195E+00  0.19653983703E-01 0.  0.
         14    1    1    2    0    0  0.17709174586E-01 -0.10817210443E-01  0.11481738445E-01  0.23716180637E-01  0.00000000000E+00 0. -1.
     999901    1    3    3    0    0 -0.13110580034E+00  0.25733009788E-01  0.44851009982E-01  0.89121407741E+00  0.88000000000E+00 0. -1.
        -11    1    4    4    0    0  0.47400996256E-01 -0.94829784106E-02 -0.13716837089E-01  0.50251309101E-01  0.51100000000E-03 0. -1.
         11    1    4    4    0    0  0.65995629502E-01 -0.54328209345E-02 -0.42615911338E-01  0.78748432853E-01  0.51100000000E-03 0.  1.
</event>
<event>
 8    1  0.1196210E+005  0.1043930E+01  0.7957747E-01            NaN
         13   -1    0    0    0    0  0.00000000000E+00  0.00000000000E+00  0.74505805969E-08  0.10566000000E+00  0.10566000000E+00 0. -1.
     999900   -1    0    0    0    0 -0.00000000000E+00 -0.00000000000E+00 -0.74505805969E-08  0.93827000000E+00  0.93827000000E+00 0. -1.
     999902    2    1    2    0    0  0.20869745000E-01 -0.10021760872E-01 -0.34927520640E-02  0.10205167289E+01  0.10202481133E+01 0.  0.
     999903    2    3    3    0    0 -0.49822693181E-01  0.65021380841E-01  0.97257995010E-01  0.12878829098E+00  0.20426100400E-01 0.  0.
         14    1    1    2    0    0 -0.20869745000E-01  0.10021760872E-01  0.34927520640E-02  0.23413271115E-01  0.00000000000E+00 0. -1.
     999901    1    3    3    0    0  0.70692438181E-01 -0.75043141713E-01 -0.10075074707E+00  0.89172843791E+00  0.88000000000E+00 0. -1.
        -11    1    4    4    0    0 -0.35610490832E-01  0.32162985800E-01  0.63374739425E-01  0.79493291736E-01  0.51100000000E-03 0.  1.
         11    1    4    4    0    0 -0.14212202349E-01  0.32858395041E-01  0.33883255585E-01  0.49294999243E-01  0.51100000000E-03 0. -1.
</event>
<event>
 8    1  0.1196210E+005  0.1043930E+01  0.7957747E-01            NaN
         13   -1    0    0    0    0  0.00000000000E+00  0.00000000000E+00  0.74505805969E-08  0.10566000000E+00  0.10566000000E+00 0. -1.
     999900   -1    0    0    0    0 -0.00000000000E+00 -0.00000000000E+00 -0.74505805969E-08  0.93827000000E+00  0.93827000000E+00 0.  1.
     999902    2    1    2    0    0  0.18502727044E-01 -0.11150372489E-01  0.86798680935E-02  0.10206486378E+01  0.10203830752E+01 0.  0.
     999903    2    3    3    0    0  0.41993958561E-01 -0.11748661740E+00  0.41924461598E-01  0.13331305421E+00  0.21168658883E-01 0.  0.
         14    1    1    2    0    0 -0.18502727044E-01  0.11150372489E-01 -0.86798680935E-02  0.23281362177E-01  0.00000000000E+00 0.  1.
     999901    1    3    3    0    0 -0.23491231518E-01  0.10633624492E+00 -0.33244593504E-01  0.88733558361E+00  0.88000000000E+00 0.  1.
        -11    1    4    4    0    0  0.18407694807E-01 -0.36319105492E-01  0.48335612502E-02  0.41006646866E-01  0.51100000000E-03 0.  1.
         11    1    4    4    0    0  0.23586263755E-01 -0.81167511913E-01  0.37090900347E-01  0.92306407348E-01  0.51100000000E-03 0. -1.
</event>
<event>
 8    1  0.1196210E+005  0.1043930E+01  0.7957747E-01            NaN
         13   -1    0    0    0    0  0.00000000000E+00  0.00000000000E+00  0.74505805969E-08  0.10566000000E+00  0.10566000000E+00 0. -1.
     999900   -1    0    0    0    0 -0.00000000000E+00 -0.00000000000E+00 -0.74505805969E-08  0.93827000000E+00  0.93827000000E+00 0. -1.
     999902    2    1    2    0    0  0.77479544196E-02  0.31379160294E-02  0.21611281884E-01  0.10207583617E+01  0.10204953250E+01 0.  0.
     999903    2    3    3    0    0 -0.10497954164E+00 -0.68577618122E-01 -0.25213422141E-01  0.12944295230E+00  0.19903953747E-01 0.  0.
         14    1    1    2    0    0 -0.77479544196E-02 -0.31379160294E-02 -0.21611281884E-01  0.23171638254E-01  0.00000000000E+00 0.  1.
     999901    1    3    3    0    0  0.11272749606E+00  0.71715534151E-01  0.46824704025E-01  0.89131540944E+00  0.88000000000E+00 0. -1.
        -11    1    4    4    0    0 -0.68911782203E-01 -0.33413292720E-01 -0.14906059403E-01  0.78023929565E-01  0.51100000000E-03 0. -1.
         11    1    4    4    0    0 -0.36067759435E-01 -0.35164325402E-01 -0.10307362738E-01  0.51419022737E-01  0.51100000000E-03 0.  1.
</event>
<event>
 8    1  0.1196210E+005  0.1043930E+01  0.7957747E-01            NaN
         13   -1    0    0    0    0  0.00000000000E+00  0.00000000000E+00  0.74505805969E-08  0.10566000000E+00  0.10566000000E+00 0. -1.
     999900   -1    0    0    0    0 -0.00000000000E+00 -0.00000000000E+00 -0.74505805969E-08  0.93827000000E+00  0.93827000000E+00 0.  1.
     999902    2    1    2    0    0  0.13898817544E-02 -0.12792355823E-01  0.20272230186E-01  0.10199187640E+01  0.10196360849E+01 0.  0.
     999903    2    3    3    0    0  0.10033323589E+00 -0.74781706921E-01 -0.31817368476E-01  0.13067987972E+00  0.20145076639E-01 0.  0.
         14    1    1    2    0    0 -0.13898817544E-02  0.12792355823E-01 -0.20272230186E-01  0.24011236026E-01  0.00000000000E+00 0.  1.
     999901    1    3    3    0    0 -0.98943354137E-01  0.61989351099E-01  0.52089598662E-01  0.88923888425E+00  0.88000000000E+00 0. -1.
        -11    1    4    4    0    0  0.83465514059E-01 -0.55037540553E-01 -0.19208931787E-01  0.10180799128E+00  0.51100000000E-03 0. -1.
         11    1    4    4    0    0  0.16867721832E-01 -0.19744166368E-01 -0.12608436689E-01  0.28871888441E-01  0.51100000000E-03 0.  1.
</event>
<event>
 8    1  0.1196210E+005  0.1043930E+01  0.7957747E-01            NaN
         13   -1    0    0    0    0  0.00000000000E+00  0.00000000000E+00  0.74505805969E-08  0.10566000000E+00  0.10566000000E+00 0. -1.
     999900   -1    0    0    0    0 -0.00000000000E+00 -0.00000000000E+00 -0.74505805969E-08  0.93827000000E+00  0.93827000000E+00 0.  1.
     999902    2    1    2    0    0 -0.67769175907E-02  0.12441452359E-01 -0.18376024585E-01  0.10207266677E+01  0.10204629026E+01 0.  0.
     999903    2    3    3    0    0 -0.43610674941E-01 -0.10264312200E+00 -0.66134523400E-01  0.13118630375E+00  0.19964209115E-01 0.  0.
         14    1    1    2    0    0  0.67769175907E-02 -0.12441452359E-01  0.18376024585E-01  0.23203332268E-01  0.00000000000E+00 0. -1.
     999901    1    3    3    0    0  0.36833757350E-01  0.11508457436E+00  0.47758498815E-01  0.88954036398E+00  0.88000000000E+00 0. -1.
        -11    1    4    4    0    0 -0.39919570605E-01 -0.71469133041E-01 -0.46296630339E-01  0.94048116391E-01  0.51100000000E-03 0.  1.
         11    1    4    4    0    0 -0.36911043364E-02 -0.31173988955E-01 -0.19837893061E-01  0.37138187364E-01  0.51100000000E-03 0. -1.
</event>
<event>
 8    1  0.1196210E+005  0.1043930E+01  0.7957747E-01            NaN
         13   -1    0    0    0    0  0.00000000000E+00  0.00000000000E+00  0.74505805969E-08  0.10566000000E+00  0.10566000000E+00 0.  1.
     999900   -1    0    0    0    0 -0.00000000000E+00 -0.00000000000E+00 -0.74505805969E-08  0.93827000000E+00  0.93827000000E+00 0.  1.
     999902    2    1    2    0    0  0.50576150671E-02  0.22307705804E-01  0.54915866987E-02  0.10204061667E+01  0.10201349785E+01 0.  0.
     999903    2    3    3    0    0  0.73554320976E-01  0.79098555646E-01  0.75280287042E-01  0.13317031191E+00  0.20009765526E-01 0.  0.
         14    1    1    2    0    0 -0.50576150671E-02 -0.22307705804E-01 -0.54915866987E-02  0.23523833295E-01  0.00000000000E+00 0. -1.
     999901    1    3    3    0    0 -0.68496705909E-01 -0.56790849841E-01 -0.69788700344E-01  0.88723585480E+00  0.88000000000E+00 0.  1.
        -11    1    4    4    0    0  0.10416738891E-01  0.49339226063E-02  0.31225709723E-02  0.11952556709E-01  0.51100000000E-03 0. -1.
         11    1    4    4    0    0  0.63137582085E-01  0.74164633039E-01  0.72157716070E-01  0.12121775520E+00  0.51100000000E-03 0.  1.
</event>
<event>
 8    1  0.1196210E+005  0.1043930E+01  0.7957747E-01            NaN
         13   -1    0    0    0    0  0.00000000000E+00  0.00000000000E+00  0.74505805969E-08  0.10566000000E+00  0.10566000000E+00 0. -1.
     999900   -1    0    0    0    0 -0.00000000000E+00 -0.00000000000E+00 -0.74505805969E-08  0.93827000000E+00  0.93827000000E+00 0. -1.
     999902    2    1    2    0    0  0.16641162844E-01 -0.16726094791E-01  0.12515427106E-01  0.10172218278E+01  0.10168711425E+01 0.  0.
     999903    2    3    3    0    0 -0.29312797901E-03 -0.12260452800E+00  0.39485683930E-01  0.13030333796E+00  0.19694782033E-01 0.  0.
         14    1    1    2    0    0 -0.16641162844E-01  0.16726094791E-01 -0.12515427106E-01  0.26708172221E-01  0.00000000000E+00 0.  1.
     999901    1    3    3    0    0  0.16934290823E-01  0.10587843321E+00 -0.26970256824E-01  0.88691848982E+00  0.88000000000E+00 0. -1.
        -11    1    4    4    0    0  0.74814695513E-02 -0.78799351132E-01  0.30996841508E-01  0.85008090379E-01  0.51100000000E-03 0.  1.
         11    1    4    4    0    0 -0.77745975303E-02 -0.43805176866E-01  0.84888424219E-02  0.45295247584E-01  0.51100000000E-03 0. -1.
</event>
<event>
 8    1  0.1196210E+005  0.1043930E+01  0.7957747E-01            NaN
         13   -1    0    0    0    0  0.00000000000E+00  0.00000000000E+00  0.74505805969E-08  0.10566000000E+00  0.10566000000E+00 0. -1.
     999900   -1    0    0    0    0 -0.00000000000E+00 -0.00000000000E+00 -0.74505805969E-08  0.93827000000E+00  0.93827000000E+00 0. -1.
     999902    2    1    2    0    0  0.13600573809E-01 -0.51801493412E-02 -0.20415830121E-01  0.10188577908E+01  0.10185492537E+01 0.  0.
     999903    2    3    3    0    0  0.60839587024E-03  0.10310214924E+00  0.72137386625E-01  0.12730860493E+00  0.19319808959E-01 0.  0.
         14    1    1    2    0    0 -0.13600573809E-01  0.51801493412E-02  0.20415830121E-01  0.25072209210E-01  0.00000000000E+00 0. -1.
     999901    1    3    3    0    0  0.12992177939E-01 -0.10828229858E+00 -0.92553216746E-01  0.89154918586E+00  0.88000000000E+00 0. -1.
        -11    1    4    4    0    0  0.62654590387E-02  0.27755017945E-01  0.27358002960E-01  0.39475542366E-01  0.51100000000E-03 0. -1.
         11    1    4    4    0    0 -0.56570631685E-02  0.75347131292E-01  0.44779383664E-01  0.87833062567E-01  0.51100000000E-03 0.  1.
</event>
<event>
 8    1  0.1196210E+005  0.1043930E+01  0.7957747E-01            NaN
         13   -1    0    0    0    0  0.00000000000E+00  0.00000000000E+00  0.74505805969E-08  0.10566000000E+00  0.10566000000E+00 0. -1.
     999900   -1    0    0    0    0 -0.00000000000E+00 -0.00000000000E+00 -0.74505805969E-08  0.93827000000E+00  0.93827000000E+00 0.  1.
     999902    2    1    2    0    0  0.19959103770E-01  0.91947802139E-02  0.78309674458E-02  0.10206011797E+01  0.10203345207E+01 0.  0.
     999903    2    3    3    0    0 -0.11810587984E-01  0.39253904661E-01  0.12361715177E+00  0.13193965539E+00  0.21130864412E-01 0.  0.
         14    1    1    2    0    0 -0.19959103770E-01 -0.91947802139E-02 -0.78309674458E-02  0.23328820322E-01  0.00000000000E+00 0.  1.
     999901    1    3    3    0    0  0.31769691755E-01 -0.30059124447E-01 -0.11578618433E+00  0.88866152429E+00  0.88000000000E+00 0.  1.
        -11    1    4    4    0    0 -0.35650644680E-02  0.16511654080E-01  0.82654067725E-01  0.84364094481E-01  0.51100000000E-03 0. -1.
         11    1    4    4    0    0 -0.82455235163E-02  0.22742250581E-01  0.40963084049E-01  0.47575560904E-01  0.51100000000E-03 0.  1.
</event>
<event>
 8    1  0.1196210E+005  0.1043930E+01  0.7957747E-01            NaN
         13   -1    0    0    0    0  0.00000000000E+00  0.00000000000E+00  0.74505805969E-08  0.10566000000E+00  0.10566000000E+00 0. -1.
     999900   -1    0    0    0    0 -0.00000000000E+00 -0.00000000000E+00 -0.74505805969E-08  0.93827000000E+00  0.93827000000E+00 0. -1.
     999902    2    1    2    0    0  0.10008069709E-01 -0.14960614849E-01  0.16323509773E-01  0.10196310612E+01  0.10193414847E+01 0.  0.
     999903    2    3    3    0    0 -0.53566067848E-01  0.88302265613E-01 -0.71204767290E-01  0.12701350998E+00  0.19892186782E-01 0.  0.
         14    1    1    2    0    0 -0.10008069709E-01  0.14960614849E-01 -0.16323509773E-01  0.24298938810E-01  0.00000000000E+00 0.  1.
     999901    1    3    3    0    0  0.63574137557E-01 -0.10326288046E+00  0.87528277063E-01  0.89261755121E+00  0.88000000000E+00 0.  1.
        -11    1    4    4    0    0 -0.21849728927E-01  0.55006993931E-01 -0.39782109570E-01  0.71316599739E-01  0.51100000000E-03 0. -1.
         11    1    4    4    0    0 -0.31716338922E-01  0.33295271682E-01 -0.31422657720E-01  0.55696910239E-01  0.51100000000E-03 0.  1.
</event>
<event>
 8    1  0.1196210E+005  0.1043930E+01  0.7957747E-01            NaN
         13   -1    0    0    0    0  0.00000000000E+00  0.00000000000E+00  0.74505805969E-08  0.10566000000E+00  0.10566000000E+00 0. -1.
     999900   -1    0    0    0    0 -0.00000000000E+00 -0.00000000000E+00 -0.74505805969E-08  0.93827000000E+00  0.93827000000E+00 0. -1.
     999902    2    1    2    0    0 -0.18199044887E-01  0.20628004947E-01 -0.10034894650E-01  0.10146482833E+01  0.10142256750E+01 0.  0.
     999903    2    3    3    0    0  0.47324268768E-02  0.57979490843E-01  0.10939708579E+00  0.12549982333E+00  0.19961614492E-01 0.  0.
         14    1    1    2    0    0  0.18199044887E-01 -0.20628004947E-01  0.10034894650E-01  0.29281716711E-01  0.00000000000E+00 0.  1.
     999901    1    3    3    0    0 -0.22931471764E-01 -0.37351485897E-01 -0.11943198044E+00  0.88914845996E+00  0.88000000000E+00 0. -1.
        -11    1    4    4    0    0  0.10435775977E-01  0.20454516607E-01  0.49785566899E-01  0.54828427502E-01  0.51100000000E-03 0.  1.
         11    1    4    4    0    0 -0.57033490998E-02  0.37524974236E-01  0.59611518894E-01  0.70671395827E-01  0.51100000000E-03 0. -1.
</event>
<event>
 8    1  0.1196210E+005  0.1043930E+01  0.7957747E-01            NaN
         13   -1    0    0    0    0  0.00000000000E+00  0.00000000000E+00  0.74505805969E-08  0.10566000000E+00  0.10566000000E+00 0.  1.
     999900   -1    0    0    0    0 -0.00000000000E+00 -0.00000000000E+00 -0.74505805969E-08  0.93827000000E+00  0.93827000000E+00 0. -1.
     999902    2    1    2    0    0 -0.53631343158E-02 -0.18336885518E-01  0.13797749880E-01  0.10203634457E+01  0.10200912600E+01 0.  0.
     999903    2    3    3    0    0  0.63372130659E-01 -0.74961432632E-01 -0.83573241695E-01  0.13052526603E+00  0.20423393888E-01 0.  0.
         14    1    1    2    0    0  0.53631343158E-02  0.18336885518E-01 -0.13797749880E-01  0.23566554308E-01  0.00000000000E+00 0. -1.
     999901    1    3    3    0    0 -0.68735264975E-01  0.56624547114E-01  0.97370991575E-01  0.88983817966E+00  0.88000000000E+00 0.  1.
        -11    1    4    4    0    0  0.15525765443E-01 -0.21070580977E-01 -0.11468187077E-01  0.28579699284E-01  0.51100000000E-03 0. -1.
         11    1    4    4    0    0  0.47846365216E-01 -0.53890851655E-01 -0.72105054618E-01  0.10194556674E+00  0.51100000000E-03 0.  1.
</event>
<event>
 8    1  0.1196210E+005  0.1043930E+01  0.7957747E-01            NaN
         13   -1    0    0    0    0  0.00000000000E+00  0.00000000000E+00  0.74505805969E-08  0.10566000000E+00  0.10566000000E+00 0.  1.
     999900   -1    0    0    0    0 -0.00000000000E+00 -0.00000000000E+00 -0.74505805969E-08  0.93827000000E+00  0.93827000000E+00 0. -1.
     999902    2    1    2    0    0  0.84072024867E-02  0.15127827581E-01  0.16459970757E-01  0.10200456357E+01  0.10197659712E+01 0.  0.
     999903    2    3    3    0    0  0.12663676822E+00 -0.26759072285E-01  0.51137991943E-02  0.13107911315E+00  0.20066488138E-01 0.  0.
         14    1    1    2    0    0 -0.84072024867E-02 -0.15127827581E-01 -0.16459970757E-01  0.23884364306E-01  0.00000000000E+00 0. -1.
     999901    1    3    3    0    0 -0.11822956574E+00  0.41886899866E-01  0.11346171563E-01  0.88896652254E+00  0.88000000000E+00 0. -1.
        -11    1    4    4    0    0  0.47591552994E-01 -0.18677441142E-01 -0.29444329487E-02  0.51212630574E-01  0.51100000000E-03 0. -1.
         11    1    4    4    0    0  0.79045215231E-01 -0.80816311439E-02  0.80582321430E-02  0.79866482576E-01  0.51100000000E-03 0.  1.
</event>
<event>
 8    1  0.1196210E+005  0.1043930E+01  0.7957747E-01            NaN
         13   -1    0    0    0    0  0.00000000000E+00  0.00000000000E+00  0.74505805969E-08  0.10566000000E+00  0.10566000000E+00 0. -1.
     999900   -1    0    0    0    0 -0.00000000000E+00 -0.00000000000E+00 -0.74505805969E-08  0.93827000000E+00  0.93827000000E+00 0.  1.
     999902    2    1    2    0    0  0.11816459646E-02  0.22437766536E-01  0.61523009406E-02  0.10206340677E+01  0.10203681687E+01 0.  0.
     999903    2    3    3    0    0  0.70563082491E-02  0.23107311419E-01 -0.12710826059E+00  0.13058163262E+00  0.17644079535E-01 0.  0.
         14    1    1    2    0    0 -0.11816459646E-02 -0.22437766536E-01 -0.61523009406E-02  0.23295932288E-01  0.00000000000E+00 0.  1.
     999901    1    3    3    0    0 -0.58746622845E-02 -0.66954488274E-03  0.13326056153E+00  0.89005243509E+00  0.88000000000E+00 0. -1.
        -11    1    4    4    0    0 -0.10660628601E-02  0.19243848253E-02 -0.53664998135E-01  0.53712502202E-01  0.51100000000E-03 0. -1.
         11    1    4    4    0    0  0.81223711091E-02  0.21182926593E-01 -0.73443262451E-01  0.76869130422E-01  0.51100000000E-03 0.  1.
</event>
<event>
 8    1  0.1196210E+005  0.1043930E+01  0.7957747E-01            NaN
         13   -1    0    0    0    0  0.00000000000E+00  0.00000000000E+00  0.74505805969E-08  0.10566000000E+00  0.10566000000E+00 0. -1.
     999900   -1    0    0    0    0 -0.00000000000E+00 -0.00000000000E+00 -0.74505805969E-08  0.93827000000E+00  0.93827000000E+00 0. -1.
     999902    2    1    2    0    0 -0.16381308949E-01  0.87434371781E-02 -0.18231657984E-01  0.10179071575E+01  0.10175744656E+01 0.  0.
     999903    2    3    3    0    0  0.11247801789E+00  0.43398259830E-01  0.33411338365E-01  0.12635083183E+00  0.17705979483E-01 0.  0.
         14    1    1    2    0    0  0.16381308949E-01 -0.87434371781E-02  0.18231657984E-01  0.26022842455E-01  0.00000000000E+00 0.  1.
     999901    1    3    3    0    0 -0.12885932684E+00 -0.34654822652E-01 -0.51642996348E-01  0.89155632571E+00  0.88000000000E+00 0. -1.
        -11    1    4    4    0    0  0.87674607538E-01  0.39644216447E-01  0.31236707216E-01  0.10116567453E+00  0.51100000000E-03 0. -1.
         11    1    4    4    0    0  0.24803410350E-01  0.37540433827E-02  0.21746311485E-02  0.25185157302E-01  0.51100000000E-03 0.  1.
</event>
<event>
 8    1  0.1196210E+005  0.1043930E+01  0.7957747E-01            NaN
         13   -1    0    0    0    0  0.00000000000E+00  0.00000000000E+00  0.74505805969E-08  0.10566000000E+00  0.10566000000E+00 0.  1.
     999900   -1    0    0    0    0 -0.00000000000E+00 -0.00000000000E+00 -0.74505805969E-08  0.93827000000E+00  0.93827000000E+00 0. -1.
     999902    2    1    2    0    0 -0.49255062239E-02 -0.28910518150E-02 -0.20629381797E-01  0.10225246225E+01  0.10223005495E+01 0.  0.
     999903    2    3    3    0    0 -0.11189150851E+00  0.10478729264E-01  0.65811778544E-01  0.13174263409E+00  0.19885120016E-01 0.  0.
         14    1    1    2    0    0  0.49255062239E-02  0.28910518150E-02  0.20629381797E-01  0.21405377489E-01  0.00000000000E+00 0.  1.
     999901    1    3    3    0    0  0.10696600229E+00 -0.13369781079E-01 -0.86441160340E-01  0.89078198842E+00  0.88000000000E+00 0. -1.
        -11    1    4    4    0    0 -0.61761811859E-01  0.13733171540E-01  0.43437669907E-01  0.76747727606E-01  0.51100000000E-03 0.  1.
         11    1    4    4    0    0 -0.50129696653E-01 -0.32544422766E-02  0.22374108637E-01  0.54994906486E-01  0.51100000000E-03 0. -1.
</event>
<event>
 8    1  0.1196210E+005  0.1043930E+01  0.7957747E-01            NaN
         13   -1    0    0    0    0  0.00000000000E+00  0.00000000000E+00  0.74505805969E-08  0.10566000000E+00  0.10566000000E+00 0.  1.
     999900   -1    0    0    0    0 -0.00000000000E+00 -0.00000000000E+00 -0.74505805969E-08  0.93827000000E+00  0.93827000000E+00 0.  1.
     999902    2    1    2    0    0  0.38824007069E-02 -0.22251630754E-01 -0.68070540610E-02  0.10203388133E+01  0.10200660517E+01 0.  0.
     999903    2    3    3    0    0  0.84264836158E-01  0.64037624363E-02  0.96821493749E-01  0.13015830157E+00  0.20620645706E-01 0.  0.
         14    1    1    2    0    0 -0.38824007069E-02  0.22251630754E-01  0.68070540610E-02  0.23591186732E-01  0.00000000000E+00 0.  1.
     999901    1    3    3    0    0 -0.80382435451E-01 -0.28655393190E-01 -0.10362854781E+00  0.89018051170E+00  0.88000000000E+00 0.  1.
        -11    1    4    4    0    0  0.38102975281E-01  0.42923714365E-03  0.58726007986E-01  0.70007328936E-01  0.51100000000E-03 0.  1.
         11    1    4    4    0    0  0.46161860877E-01  0.59745252926E-02  0.38095485763E-01  0.60150972633E-01  0.51100000000E-03 0. -1.
</event>
<event>
 8    1  0.1196210E+005  0.1043930E+01  0.7957747E-01            NaN
         13   -1    0    0    0    0  0.00000000000E+00  0.00000000000E+00  0.74505805969E-08  0.10566000000E+00  0.10566000000E+00 0.  1.
     999900   -1    0    0    0    0 -0.00000000000E+00 -0.00000000000E+00 -0.74505805969E-08  0.93827000000E+00  0.93827000000E+00 0.  1.
     999902    2    1    2    0    0  0.18081243225E-01  0.19057023943E-01 -0.89904358058E-02  0.10161643836E+01  0.10157849797E+01 0.  0.
     999903    2    3    3    0    0  0.16017522854E-02 -0.72878900445E-03 -0.12631557446E+00  0.12800435287E+00  0.20649291979E-01 0.  0.
         14    1    1    2    0    0 -0.18081243225E-01 -0.19057023943E-01  0.89904358058E-02  0.27765616401E-01  0.00000000000E+00 0.  1.
     999901    1    3    3    0    0  0.16479490939E-01  0.19785812948E-01  0.11732513866E+00  0.88816003072E+00  0.88000000000E+00 0.  1.
        -11    1    4    4    0    0 -0.25940773879E-02  0.82657202712E-02 -0.31638975588E-01  0.32807579404E-01  0.51100000000E-03 0.  1.
         11    1    4    4    0    0  0.41958296733E-02 -0.89945092756E-02 -0.94676598875E-01  0.95196773471E-01  0.51100000000E-03 0. -1.
</event>
<event>
 8    1  0.1196210E+005  0.1043930E+01  0.7957747E-01            NaN
         13   -1    0    0    0    0  0.00000000000E+00  0.00000000000E+00  0.74505805969E-08  0.10566000000E+00  0.10566000000E+00 0.  1.
     999900   -1    0    0    0    0 -0.00000000000E+00 -0.00000000000E+00 -0.74505805969E-08  0.93827000000E+00  0.93827000000E+00 0.  1.
     999902    2    1    2    0    0  0.66850366569E-02  0.59824991855E-02  0.21758331584E-01  0.10203948135E+01  0.10201233604E+01 0.  0.
     999903    2    3    3    0    0  0.41430227834E-01 -0.11389044115E+00 -0.40765238342E-01  0.12939203742E+00  0.19824185424E-01 0.  0.
         14    1    1    2    0    0 -0.66850366569E-02 -0.59824991855E-02 -0.21758331584E-01  0.23535186528E-01  0.00000000000E+00 0. -1.
     999901    1    3    3    0    0 -0.34745191177E-01  0.11987294033E+00  0.62523569926E-01  0.89100277605E+00  0.88000000000E+00 0.  1.
        -11    1    4    4    0    0  0.28833139860E-02 -0.32984282003E-01 -0.12914595326E-01  0.35543272953E-01  0.51100000000E-03 0. -1.
         11    1    4    4    0    0  0.38546913848E-01 -0.80906159144E-01 -0.27850643016E-01  0.93848764468E-01  0.51100000000E-03 0.  1.
</event>
<event>
 8    1  0.1196210E+005  0.1043930E+01  0.7957747E-01            NaN
         13   -1    0    0    0    0  0.00000000000E+00  0.00000000000E+00  0.74505805969E-08  0.10566000000E+00  0.10566000000E+00 0.  1.
     999900   -1    0    0    0    0 -0.00000000000E+00 -0.00000000000E+00 -0.74505805969E-08  0.93827000000E+00  0.93827000000E+00 0. -1.
     999902    2    1    2    0    0 -0.10309494190E-02  0.19413203299E-01 -0.21138199857E-02  0.10243748586E+01  0.10241881895E+01 0.  0.
     999903    2    3    3    0    0 -0.27327606777E-01  0.13137933406E+00  0.16671649004E-01  0.13669201973E+00  0.19985916747E-01 0.  0.
         14    1    1    2    0    0  0.10309494190E-02 -0.19413203299E-01  0.21138199857E-02  0.19555141369E-01  0.00000000000E+00 0.  1.
     999901    1    3    3    0    0  0.26296657358E-01 -0.11196613076E+00 -0.18785468990E-01  0.88768283890E+00  0.88000000000E+00 0. -1.
        -11    1    4    4    0    0 -0.29097652649E-01  0.11099598463E+00  0.18141087536E-01  0.11617289775E+00  0.51100000000E-03 0. -1.
         11    1    4    4    0    0  0.17700458724E-02  0.20383349434E-01 -0.14694385320E-02  0.20519121987E-01  0.51100000000E-03 0.  1.
</event>
<event>
 8    1  0.1196210E+005  0.1043930E+01  0.7957747E-01            NaN
         13   -1    0    0    0    0  0.00000000000E+00  0.00000000000E+00  0.74505805969E-08  0.10566000000E+00  0.10566000000E+00 0. -1.
     999900   -1    0    0    0    0 -0.00000000000E+00 -0.00000000000E+00 -0.74505805969E-08  0.93827000000E+00  0.93827000000E+00 0. -1.
     999902    2    1    2    0    0  0.19650110650E-01  0.11981928417E-01 -0.72540746139E-02  0.10197987950E+01  0.10195132501E+01 0.  0.
     999903    2    3    3    0    0 -0.37587257769E-01  0.11822604218E+00  0.36049788738E-01  0.13050741830E+00  0.18504052724E-01 0.  0.
         14    1    1    2    0    0 -0.19650110650E-01 -0.11981928417E-01  0.72540746139E-02  0.24131205019E-01  0.00000000000E+00 0. -1.
     999901    1    3    3    0    0  0.57237368419E-01 -0.10624411377E+00 -0.43303863352E-01  0.88929137668E+00  0.88000000000E+00 0. -1.
        -11    1    4    4    0    0 -0.21348797198E-01  0.74145880231E-01  0.13253669058E-01  0.78289868831E-01  0.51100000000E-03 0. -1.
         11    1    4    4    0    0 -0.16238460570E-01  0.44080161952E-01  0.22796119680E-01  0.52217549472E-01  0.51100000000E-03 0.  1.
</event>
<event>
 8    1  0.1196210E+005  0.1043930E+01  0.7957747E-01            NaN
         13   -1    0    0    0    0  0.00000000000E+00  0.00000000000E+00  0.74505805969E-08  0.10566000000E+00  0.10566000000E+00 0.  1.
     999900   -1    0    0    0    0 -0.00000000000E+00 -0.00000000000E+00 -0.74505805969E-08  0.93827000000E+00  0.93827000000E+00 0. -1.
     999902    2    1    2    0    0 -0.11048945432E-01 -0.18095079571E-01  0.22824655464E-02  0.10226058177E+01  0.10223834592E+01 0.  0.
     999903    2    3    3    0    0  0.94858122388E-01 -0.53443817465E-01 -0.72515113261E-01  0.13240330254E+00  0.20442305734E-01 0.  0.
         14    1    1    2    0    0  0.11048945432E-01  0.18095079571E-01 -0.22824655464E-02  0.21324182254E-01  0.00000000000E+00 0. -1.
     999901    1    3    3    0    0 -0.10590706782E+00  0.35348737894E-01  0.74797578808E-01  0.89020251521E+00  0.88000000000E+00 0.  1.
        -11    1    4    4    0    0  0.18293620712E-01 -0.39405666755E-02 -0.64177452069E-02  0.19789724581E-01  0.51100000000E-03 0. -1.
         11    1    4    4    0    0  0.76564501676E-01 -0.49503250790E-01 -0.66097368054E-01  0.11261357796E+00  0.51100000000E-03 0.  1.
</event>
<event>
 8    1  0.1196210E+005  0.1043930E+01  0.7957747E-01            NaN
         13   -1    0    0    0    0  0.00000000000E+00  0.00000000000E+00  0.74505805969E-08  0.10566000000E+00  0.10566000000E+00 0.  1.
     999900   -1    0    0    0    0 -0.00000000000E+00 -0.00000000000E+00 -0.74505805969E-08  0.93827000000E+00  0.93827000000E+00 0. -1.
     999902    2    1    2    0    0  0.46337849483E-02 -0.22319000937E-01 -0.63125036450E-02  0.10202771467E+01  0.10200029405E+01 0.  0.
     999903    2    3    3    0    0  0.66722248380E-01 -0.87803345318E-01  0.70425111989E-01  0.13234030308E+00  0.19823560293E-01 0.  0.
         14    1    1    2    0    0 -0.46337849483E-02  0.22319000937E-01  0.63125036450E-02  0.23652853275E-01  0.00000000000E+00 0. -1.
     999901    1    3    3    0    0 -0.62088463431E-01  0.65484344380E-01 -0.76737615634E-01  0.88793684365E+00  0.88000000000E+00 0.  1.
        -11    1    4    4    0    0  0.16252075983E-01 -0.18142750981E-01  0.25593793842E-01  0.35335432517E-01  0.51100000000E-03 0.  1.
         11    1    4    4    0    0  0.50470172397E-01 -0.69660594336E-01  0.44831318146E-01  0.97004870562E-01  0.51100000000E-03 0. -1.
</event>
<event>
 8    1  0.1196210E+005  0.1043930E+01  0.7957747E-01            NaN
         13   -1    0    0    0    0  0.00000000000E+00  0.00000000000E+00  0.74505805969E-08  0.10566000000E+00  0.10566000000E+00 0. -1.
     999900   -1    0    0    0    0 -0.00000000000E+00 -0.00000000000E+00 -0.74505805969E-08  0.93827000000E+00  0.93827000000E+00 0.  1.
     999902    2    1    2    0    0  0.20338032032E-01  0.10900262850E-01 -0.84488159004E-02  0.10193569707E+01  0.10190607440E+01 0.  0.
     999903    2    3    3    0    0  0.17202593561E-02  0.56544516780E-01 -0.11698077655E+00  0.13132025648E+00  0.18980674684E-01 0.  0.
         14    1    1    2    0    0 -0.20338032032E-01 -0.10900262850E-01  0.84488159004E-02  0.24573029265E-01  0.00000000000E+00 0. -1.
     999901    1    3    3    0    0  0.18617772676E-01 -0.45644253930E-01  0.10853196065E+00  0.88803671425E+00  0.88000000000E+00 0. -1.
        -11    1    4    4    0    0  0.65410363381E-02  0.13658001804E-01 -0.43961275489E-01  0.46499258416E-01  0.51100000000E-03 0. -1.
         11    1    4    4    0    0 -0.48207769820E-02  0.42886514976E-01 -0.73019501058E-01  0.84820998068E-01  0.51100000000E-03 0.  1.
</event>
<event>
 8    1  0.1196210E+005  0.1043930E+01  0.7957747E-01            NaN
         13   -1    0    0    0    0  0.00000000000E+00  0.00000000000E+00  0.74505805969E-08  0.10566000000E+00  0.10566000000E+00 0.  1.
     999900   -1    0    0    0    0 -0.00000000000E+00 -0.00000000000E+00 -0.74505805969E-08  0.93827000000E+00  0.93827000000E+00 0.  1.
     999902    2    1    2    0    0 -0.49051051312E-02 -0.18997105126E-01  0.11984861693E-01  0.10209389807E+01  0.10206800749E+01 0.  0.
     999903    2    3    3    0    0 -0.99504644931E-01  0.61253477464E-01  0.56008501662E-01  0.13114838182E+00  0.20243095919E-01 0.  0.
         14    1    1    2    0    0  0.49051051312E-02  0.18997105126E-01 -0.11984861693E-01  0.22991019319E-01  0.00000000000E+00 0. -1.
     999901    1    3    3    0    0  0.94599539800E-01 -0.80250582591E-01 -0.44023639969E-01  0.88979059886E+00  0.88000000000E+00 0.  1.
        -11    1    4    4    0    0 -0.44814164746E-01  0.27094068007E-01  0.36296513487E-01  0.63718881780E-01  0.51100000000E-03 0. -1.
         11    1    4    4    0    0 -0.54690480186E-01  0.34159409457E-01  0.19711988176E-01  0.67429500044E-01  0.51100000000E-03 0.  1.
</event>
<event>
 8    1  0.1196210E+005  0.1043930E+01  0.7957747E-01            NaN
         13   -1    0    0    0    0  0.00000000000E+00  0.00000000000E+00  0.74505805969E-08  0.10566000000E+00  0.10566000000E+00 0.  1.
     999900   -1    0    0    0    0 -0.00000000000E+00 -0.00000000000E+00 -0.74505805969E-08  0.93827000000E+00  0.93827000000E+00 0.  1.
     999902    2    1    2    0    0  0.22598796105E-01 -0.27425502621E-03  0.62937010128E-02  0.10204695764E+01  0.10201998652E+01 0.  0.
     999903    2    3    3    0    0  0.11882336089E+00 -0.54437927184E-01 -0.16653223715E-01  0.13327206089E+00  0.20040792009E-01 0.  0.
         14    1    1    2    0    0 -0.22598796105E-01  0.27425502621E-03 -0.62937010128E-02  0.23460423561E-01  0.00000000000E+00 0. -1.
     999901    1    3    3    0    0 -0.96224564781E-01  0.54163672158E-01  0.22946924728E-01  0.88719751555E+00  0.88000000000E+00 0. -1.
        -11    1    4    4    0    0  0.58779307127E-01 -0.34696339780E-01 -0.15060616282E-02  0.68274243190E-01  0.51100000000E-03 0. -1.
         11    1    4    4    0    0  0.60044053759E-01 -0.19741587404E-01 -0.15147162087E-01  0.64997817696E-01  0.51100000000E-03 0.  1.
</event>
<event>
 8    1  0.1196210E+005  0.1043930E+01  0.7957747E-01            NaN
         13   -1    0    0    0    0  0.00000000000E+00  0.00000000000E+00  0.74505805969E-08  0.10566000000E+00  0.10566000000E+00 0.  1.
     999900   -1    0    0    0    0 -0.00000000000E+00 -0.00000000000E+00 -0.74505805969E-08  0.93827000000E+00  0.93827000000E+00 0. -1.
     999902    2    1    2    0    0 -0.24276529500E-01  0.46792246335E-02 -0.14800157088E-01  0.10151152524E+01  0.10147062068E+01 0.  0.
     999903    2    3    3    0    0  0.86812088799E-01 -0.85447589021E-01  0.57245845566E-02  0.12332784016E+00  0.18421619373E-01 0.  0.
         14    1    1    2    0    0  0.24276529500E-01 -0.46792246335E-02  0.14800157088E-01  0.28814747570E-01  0.00000000000E+00 0. -1.
     999901    1    3    3    0    0 -0.11108861830E+00  0.90126813654E-01 -0.20524741644E-01  0.89178741227E+00  0.88000000000E+00 0. -1.
        -11    1    4    4    0    0  0.11429383000E-01 -0.41544739868E-02  0.24326225466E-02  0.12412462420E-01  0.51100000000E-03 0.  1.
         11    1    4    4    0    0  0.75382705798E-01 -0.81293115034E-01  0.32919620100E-02  0.11091537774E+00  0.51100000000E-03 0. -1.
</event>
<event>
 8    1  0.1196210E+005  0.1043930E+01  0.7957747E-01            NaN
         13   -1    0    0    0    0  0.00000000000E+00  0.00000000000E+00  0.74505805969E-08  0.10566000000E+00  0.10566000000E+00 0. -1.
     999900   -1    0    0    0    0 -0.00000000000E+00 -0.00000000000E+00 -0.74505805969E-08  0.93827000000E+00  0.93827000000E+00 0.  1.
     999902    2    1    2    0    0  0.56540953499E-02  0.11234859422E-01  0.19093142564E-01  0.10210665148E+01  0.10208105058E+01 0.  0.
     999903    2    3    3    0    0 -0.53478817657E-01 -0.83497927671E-01  0.84073589745E-01  0.13163216602E+00  0.20658431106E-01 0.  0.
         14    1    1    2    0    0 -0.56540953499E-02 -0.11234859422E-01 -0.19093142564E-01  0.22863485154E-01  0.00000000000E+00 0.  1.
     999901    1    3    3    0    0  0.59132913007E-01  0.94732787093E-01 -0.64980447182E-01  0.88943434882E+00  0.88000000000E+00 0.  1.
        -11    1    4    4    0    0 -0.35770599784E-01 -0.37229132886E-01  0.45957400907E-01  0.69122268217E-01  0.51100000000E-03 0.  1.
         11    1    4    4    0    0 -0.17708217873E-01 -0.46268794785E-01  0.38116188838E-01  0.62509897805E-01  0.51100000000E-03 0. -1.
</event>
<event>
 8    1  0.1196210E+005  0.1043930E+01  0.7957747E-01            NaN
         13   -1    0    0    0    0  0.00000000000E+00  0.00000000000E+00  0.74505805969E-08  0.10566000000E+00  0.10566000000E+00 0. -1.
     999900   -1    0    0    0    0 -0.00000000000E+00 -0.00000000000E+00 -0.74505805969E-08  0.93827000000E+00  0.93827000000E+00 0. -1.
     999902    2    1    2    0    0  0.17496793691E-01  0.89723617781E-02  0.94222702301E-02  0.10221258664E+01  0.10218932755E+01 0.  0.
     999903    2    3    3    0    0  0.27462899226E-02  0.61601513263E-01  0.11725206900E+00  0.13386088880E+00  0.19193783354E-01 0.  0.
         14    1    1    2    0    0 -0.17496793691E-01 -0.89723617781E-02 -0.94222702301E-02  0.21804133590E-01  0.00000000000E+00 0.  1.
     999901    1    3    3    0    0  0.14750503768E-01 -0.52629151485E-01 -0.10782979877E+00  0.88826497761E+00  0.88000000000E+00 0. -1.
        -11    1    4    4    0    0 -0.34036968160E-02  0.55879998871E-01  0.98316778368E-01  0.11313977840E+00  0.51100000000E-03 0.  1.
         11    1    4    4    0    0  0.61499867386E-02  0.57215143924E-02  0.18935290636E-01  0.20721110402E-01  0.51100000000E-03 0. -1.
</event>
<event>
 8    1  0.1196210E+005  0.1043930E+01  0.7957747E-01            NaN
         13   -1    0    0    0    0  0.00000000000E+00  0.00000000000E+00  0.74505805969E-08  0.10566000000E+00  0.10566000000E+00 0.  1.
     999900   -1    0    0    0    0 -0.00000000000E+00 -0.00000000000E+00 -0.74505805969E-08  0.93827000000E+00  0.93827000000E+00 0. -1.
     999902    2    1    2    0    0 -0.61563332940E-02 -0.20744444017E-01 -0.80026571421E-02  0.10208589160E+01  0.10205981831E+01 0.  0.
     999903    2    3    3    0    0  0.12544471516E+00 -0.80778660093E-02  0.27404393745E-01  0.13027880311E+00  0.20492370880E-01 0.  0.
         14    1    1    2    0    0  0.61563332940E-02  0.20744444017E-01  0.80026571421E-02  0.23071084035E-01  0.00000000000E+00 0.  1.
     999901    1    3    3    0    0 -0.13160104845E+00 -0.12666578008E-01 -0.35407050887E-01  0.89058011285E+00  0.88000000000E+00 0. -1.
        -11    1    4    4    0    0  0.58754466188E-01  0.64114660511E-02  0.13550531153E-01  0.60638867152E-01  0.51100000000E-03 0.  1.
         11    1    4    4    0    0  0.66690248969E-01 -0.14489332060E-01  0.13853862592E-01  0.69639935963E-01  0.51100000000E-03 0. -1.
</event>
<event>
 8    1  0.1196210E+005  0.1043930E+01  0.7957747E-01            NaN
         13   -1    0    0    0    0  0.00000000000E+00  0.00000000000E+00  0.74505805969E-08  0.10566000000E+00  0.10566000000E+00 0.  1.
     999900   -1    0    0    0    0 -0.00000000000E+00 -0.00000000000E+00 -0.74505805969E-08  0.93827000000E+00  0.93827000000E+00 0. -1.
     999902    2    1    2    0    0  0.62419226575E-02 -0.44512100232E-02 -0.21544030958E-01  0.10210625529E+01  0.10208064541E+01 0.  0.
     999903    2    3    3    0    0 -0.70342024566E-01 -0.32923937488E-01  0.10087129238E+00  0.12883987405E+00  0.19816897800E-01 0.  0.
         14    1    1    2    0    0 -0.62419226575E-02  0.44512100232E-02  0.21544030958E-01  0.22867447148E-01  0.00000000000E+00 0.  1.
     999901    1    3    3    0    0  0.76583947224E-01  0.28472727465E-01 -0.12241532334E+00  0.89222267880E+00  0.88000000000E+00 0. -1.
        -11    1    4    4    0    0 -0.16023555236E-01 -0.35989084565E-02  0.34415869335E-01  0.38136854191E-01  0.51100000000E-03 0. -1.
         11    1    4    4    0    0 -0.54318469330E-01 -0.29325029032E-01  0.66455423047E-01  0.90703019858E-01  0.51100000000E-03 0.  1.
</event>
<event>
 8    1  0.1196210E+005  0.1043930E+01  0.7957747E-01            NaN
         13   -1    0    0    0    0  0.00000000000E+00  0.00000000000E+00  0.74505805969E-08  0.10566000000E+00  0.10566000000E+00 0. -1.
     999900   -1    0    0    0    0 -0.00000000000E+00 -0.00000000000E+00 -0.74505805969E-08  0.93827000000E+00  0.93827000000E+00 0.  1.
     999902    2    1    2    0    0  0.10532679900E-01 -0.14377997920E-01  0.15820744962E-01  0.10200980857E+01  0.10198196626E+01 0.  0.
     999903    2    3    3    0    0  0.93378601621E-01  0.90663288530E-02 -0.87629890783E-01  0.12986490427E+00  0.19599337830E-01 0.  0.
         14    1    1    2    0    0 -0.10532679900E-01  0.14377997920E-01 -0.15820744962E-01  0.23831914342E-01  0.00000000000E+00 0.  1.
     999901    1    3    3    0    0 -0.82845921721E-01 -0.23444326773E-01  0.10345063575E+00  0.89023318139E+00  0.88000000000E+00 0. -1.
        -11    1    4    4    0    0  0.11231649686E-01  0.65569025336E-02 -0.72162356965E-02  0.14882140442E-01  0.51100000000E-03 0. -1.
         11    1    4    4    0    0  0.82146951936E-01  0.25094263194E-02 -0.80413655087E-01  0.11498276383E+00  0.51100000000E-03 0.  1.
</event>
<event>
 8    1  0.1196210E+005  0.1043930E+01  0.7957747E-01            NaN
         13   -1    0    0    0    0  0.00000000000E+00  0.00000000000E+00  0.74505805969E-08  0.10566000000E+00  0.10566000000E+00 0.  1.
     999900   -1    0    0    0    0 -0.00000000000E+00 -0.00000000000E+00 -0.74505805969E-08  0.93827000000E+00  0.93827000000E+00 0. -1.
     999902    2    1    2    0    0 -0.14150476065E-01  0.18836657335E-01  0.38593390182E-02  0.10200563717E+01  0.10197769615E+01 0.  0.
     999903    2    3    3    0    0 -0.48456825733E-01 -0.11742430693E+00 -0.62343917606E-02  0.12885164804E+00  0.20672390821E-01 0.  0.
         14    1    1    2    0    0  0.14150476065E-01 -0.18836657335E-01 -0.38593390182E-02  0.23873628339E-01  0.00000000000E+00 0. -1.
     999901    1    3    3    0    0  0.34306349669E-01  0.13626096427E+00  0.10093730779E-01  0.89120472363E+00  0.88000000000E+00 0.  1.
        -11    1    4    4    0    0 -0.29005586880E-01 -0.65998684319E-01  0.65854000930E-02  0.72393224942E-01  0.51100000000E-03 0. -1.
         11    1    4    4    0    0 -0.19451238853E-01 -0.51425622613E-01 -0.12819791854E-01  0.56458423094E-01  0.51100000000E-03 0.  1.
</event>
<event>
 8    1  0.1196210E+005  0.1043930E+01  0.7957747E-01            NaN
         13   -1    0    0    0    0  0.00000000000E+00  0.00000000000E+00  0.74505805969E-08  0.10566000000E+00  0.10566000000E+00 0. -1.
     999900   -1    0    0    0    0 -0.00000000000E+00 -0.00000000000E+00 -0.74505805969E-08  0.93827000000E+00  0.93827000000E+00 0.  1.
     999902    2    1    2    0    0 -0.45669274878E-02  0.87577953886E-02  0.19650720939E-01  0.10219366683E+01  0.10216999791E+01 0.  0.
     999903    2    3    3    0    0 -0.51003133145E-01  0.59147806691E-01  0.10831899161E+00  0.13483039694E+00  0.18613150412E-01 0.  0.
         14    1    1    2    0    0  0.45669274878E-02 -0.87577953886E-02 -0.19650720939E-01  0.21993331721E-01  0.00000000000E+00 0.  1.
     999901    1    3    3    0    0  0.46436205658E-01 -0.50390011302E-01 -0.88668270667E-01  0.88710627134E+00  0.88000000000E+00 0.  1.
        -11    1    4    4    0    0 -0.77444941343E-02  0.22544277482E-02  0.62107917060E-02  0.10192874397E-01  0.51100000000E-03 0.  1.
         11    1    4    4    0    0 -0.43258639011E-01  0.56893378942E-01  0.10210819990E+00  0.12463752254E+00  0.51100000000E-03 0. -1.
</event>
<event>
 8    1  0.1196210E+005  0.1043930E+01  0.7957747E-01            NaN
         13   -1    0    0    0    0  0.00000000000E+00  0.00000000000E+00  0.74505805969E-08  0.10566000000E+00  0.10566000000E+00 0. -1.
     999900   -1    0    0    0    0 -0.00000000000E+00 -0.00000000000E+00 -0.74505805969E-08  0.93827000000E+00  0.93827000000E+00 0. -1.
     999902    2    1    2    0    0 -0.14152893610E-01 -0.19970664240E-01 -0.41835334631E-02  0.10190978881E+01  0.10187953042E+01 0.  0.
     999903    2    3    3    0    0 -0.87160659338E-01  0.93765110386E-01  0.55561872144E-02  0.12872671696E+00  0.12280878699E-01 0.  0.
         14    1    1    2    0    0  0.14152893610E-01  0.19970664240E-01  0.41835334631E-02  0.24832111870E-01  0.00000000000E+00 0. -1.
     999901    1    3    3    0    0  0.73007765729E-01 -0.11373577463E+00 -0.97397206775E-02  0.89037117117E+00  0.88000000000E+00 0.  1.
        -11    1    4    4    0    0 -0.22919491550E-01  0.19267254704E-01  0.49479407057E-02  0.30352486471E-01  0.51100000000E-03 0.  1.
         11    1    4    4    0    0 -0.64241167788E-01  0.74497855681E-01  0.60824650863E-03  0.98374230491E-01  0.51100000000E-03 0. -1.
</event>
<event>
 8    1  0.1196210E+005  0.1043930E+01  0.7957747E-01            NaN
         13   -1    0    0    0    0  0.00000000000E+00  0.00000000000E+00  0.74505805969E-08  0.10566000000E+00  0.10566000000E+00 0. -1.
     999900   -1    0    0    0    0 -0.00000000000E+00 -0.00000000000E+00 -0.74505805969E-08  0.93827000000E+00  0.93827000000E+00 0. -1.
     999902    2    1    2    0    0  0.34354454717E-02  0.10097071691E-02 -0.24349111070E-01  0.10193190064E+01  0.10190218525E+01 0.  0.
     999903    2    3    3    0    0  0.41948753259E-01 -0.12037357785E+00  0.10443204373E-01  0.12947200725E+00  0.20110793088E-01 0.  0.
         14    1    1    2    0    0 -0.34354454717E-02 -0.10097071691E-02  0.24349111070E-01  0.24610993561E-01  0.00000000000E+00 0. -1.
     999901    1    3    3    0    0 -0.38513307787E-01  0.12138328502E+00 -0.34792315443E-01  0.88984699919E+00  0.88000000000E+00 0. -1.
        -11    1    4    4    0    0  0.29909376322E-01 -0.60503767728E-01 -0.11940021400E-03  0.67494830015E-01  0.51100000000E-03 0.  1.
         11    1    4    4    0    0  0.12039376937E-01 -0.59869810121E-01  0.10562604587E-01  0.61977177232E-01  0.51100000000E-03 0. -1.
</event>
<event>
 8    1  0.1196210E+005  0.1043930E+01  0.7957747E-01            NaN
         13   -1    0    0    0    0  0.00000000000E+00  0.00000000000E+00  0.74505805969E-08  0.10566000000E+00  0.10566000000E+00 0. -1.
     999900   -1    0    0    0    0 -0.00000000000E+00 -0.00000000000E+00 -0.74505805969E-08  0.93827000000E+00  0.93827000000E+00 0. -1.
     999902    2    1    2    0    0 -0.23450486284E-01  0.43356197575E-02  0.41288921965E-02  0.10197273006E+01  0.10194400409E+01 0.  0.
     999903    2    3    3    0    0  0.11313245839E+00 -0.54844202893E-01  0.13233138734E-01  0.12718036098E+00  0.13888431349E-01 0.  0.
         14    1    1    2    0    0  0.23450486284E-01 -0.43356197575E-02 -0.41288921965E-02  0.24202699362E-01  0.00000000000E+00 0. -1.
     999901    1    3    3    0    0 -0.13658294468E+00  0.59179822651E-01 -0.91042465377E-02  0.89254693966E+00  0.88000000000E+00 0.  1.
        -11    1    4    4    0    0  0.66001870917E-01 -0.24670307791E-01  0.93508295255E-02  0.71081433475E-01  0.51100000000E-03 0.  1.
         11    1    4    4    0    0  0.47130587476E-01 -0.30173895102E-01  0.38823092087E-02  0.56098927506E-01  0.51100000000E-03 0. -1.
</event>
<event>
 8    1  0.1196210E+005  0.1043930E+01  0.7957747E-01            NaN
         13   -1    0    0    0    0  0.00000000000E+00  0.00000000000E+00  0.74505805969E-08  0.10566000000E+00  0.10566000000E+00 0.  1.
     999900   -1    0    0    0    0 -0.00000000000E+00 -0.00000000000E+00 -0.74505805969E-08  0.93827000000E+00  0.93827000000E+00 0.  1.
     999902    2    1    2    0    0  0.44243705112E-02  0.16771387153E-01 -0.17179112249E-01  0.10195173725E+01  0.10192250471E+01 0.  0.
     999903    2    3    3    0    0  0.11882225935E+00  0.75530374390E-02 -0.52510215258E-01  0.13136190092E+00  0.17967988607E-01 0.  0.
         14    1    1    2    0    0 -0.44243705112E-02 -0.16771387153E-01  0.17179112249E-01  0.24412627452E-01  0.00000000000E+00 0.  1.
     999901    1    3    3    0    0 -0.11439788884E+00  0.92183497141E-02  0.35331103009E-01  0.88815547163E+00  0.88000000000E+00 0. -1.
        -11    1    4    4    0    0  0.39032484835E-01 -0.56367260172E-02 -0.19681242917E-01  0.44078566178E-01  0.51100000000E-03 0. -1.
         11    1    4    4    0    0  0.79789774518E-01  0.13189763456E-01 -0.32828972341E-01  0.87283334742E-01  0.51100000000E-03 0.  1.
</event>
<event>
 8    1  0.1196210E+005  0.1043930E+01  0.7957747E-01            NaN
         13   -1    0    0    0    0  0.00000000000E+00  0.00000000000E+00  0.74505805969E-08  0.10566000000E+00  0.10566000000E+00 0.  1.
     999900   -1    0    0    0    0 -0.00000000000E+00 -0.00000000000E+00 -0.74505805969E-08  0.93827000000E+00  0.93827000000E+00 0.  1.
     999902    2    1    2    0    0  0.15858156526E-01 -0.66497019271E-02  0.17926285689E-01  0.10190894810E+01  0.10187866896E+01 0.  0.
     999903    2    3    3    0    0 -0.94948914266E-02 -0.12839726519E+00  0.42501265857E-02  0.13024062800E+00  0.19197576293E-01 0.  0.
         14    1    1    2    0    0 -0.15858156526E-01  0.66497019271E-02 -0.17926285689E-01  0.24840518970E-01  0.00000000000E+00 0. -1.
     999901    1    3    3    0    0  0.25353047952E-01  0.12174756326E+00  0.13676159103E-01  0.88884885303E+00  0.88000000000E+00 0.  1.
        -11    1    4    4    0    0 -0.75542478034E-02 -0.77256374767E-01  0.11760307391E-01  0.78512292368E-01  0.51100000000E-03 0.  1.
         11    1    4    4    0    0 -0.19406436232E-02 -0.51140890421E-01 -0.75101808056E-02  0.51728335634E-01  0.51100000000E-03 0. -1.
</event>
<event>
 8    1  0.1196210E+005  0.1043930E+01  0.7957747E-01            NaN
         13   -1    0    0    0    0  0.00000000000E+00  0.00000000000E+00  0.74505805969E-08  0.10566000000E+00  0.10566000000E+00 0. -1.
     999900   -1    0    0    0    0 -0.00000000000E+00 -0.00000000000E+00 -0.74505805969E-08  0.93827000000E+00  0.93827000000E+00 0. -1.
     999902    2    1    2    0    0  0.64378258014E-02 -0.22617176505E-01 -0.36909996020E-02  0.10201265181E+01  0.10198487668E+01 0.  0.
     999903    2    3    3    0    0 -0.12141297553E+00 -0.38118995581E-01  0.19882278498E-01  0.13044015016E+00  0.20619391956E-01 0.  0.
         14    1    1    2    0    0 -0.64378258014E-02  0.22617176505E-01  0.36909996020E-02  0.23803481934E-01  0.00000000000E+00 0.  1.
     999901    1    3    3    0    0  0.12785080133E+00  0.15501819076E-01 -0.23573278100E-01  0.88968636791E+00  0.88000000000E+00 0.  1.
        -11    1    4    4    0    0 -0.83615920931E-01 -0.26467938719E-01  0.23267078850E-01  0.90740245164E-01  0.51100000000E-03 0. -1.
         11    1    4    4    0    0 -0.37797054599E-01 -0.11651056862E-01 -0.33848003524E-02  0.39699904997E-01  0.51100000000E-03 0.  1.
</event>
<event>
 8    1  0.1196210E+005  0.1043930E+01  0.7957747E-01            NaN
         13   -1    0    0    0    0  0.00000000000E+00  0.00000000000E+00  0.74505805969E-08  0.10566000000E+00  0.10566000000E+00 0. -1.
     999900   -1    0    0    0    0 -0.00000000000E+00 -0.00000000000E+00 -0.74505805969E-08  0.93827000000E+00  0.93827000000E+00 0.  1.
     999902    2    1    2    0    0 -0.16964717592E-01 -0.34060646397E-02  0.17382143004E-01  0.10194036506E+01  0.10191085620E+01 0.  0.
     999903    2    3    3    0    0 -0.33924544035E-02  0.27166841191E-01  0.12746734627E+00  0.13191412341E+00  0.20096407240E-01 0.  0.
         14    1    1    2    0    0  0.16964717592E-01  0.34060646397E-02 -0.17382143004E-01  0.24526349396E-01  0.00000000000E+00 0.  1.
     999901    1    3    3    0    0 -0.13572263188E-01 -0.30572905831E-01 -0.11008520326E+00  0.88748952719E+00  0.88000000000E+00 0.  1.
        -11    1    4    4    0    0 -0.58735434905E-02 -0.27842143655E-04  0.35159252414E-01  0.35650153431E-01  0.51100000000E-03 0. -1.
         11    1    4    4    0    0  0.24810890871E-02  0.27194683335E-01  0.92308093853E-01  0.96263969981E-01  0.51100000000E-03 0.  1.
</event>
<event>
 8    1  0.1196210E+005  0.1043930E+01  0.7957747E-01            NaN
         13   -1    0    0    0    0  0.00000000000E+00  0.00000000000E+00  0.74505805969E-08  0.10566000000E+00  0.10566000000E+00 0.  1.
     999900   -1    0    0    0    0 -0.00000000000E+00 -0.00000000000E+00 -0.74505805969E-08  0.93827000000E+00  0.93827000000E+00 0. -1.
     999902    2    1    2    0    0 -0.86451228646E-02 -0.83009970810E-02 -0.17791671772E-01  0.10224780004E+01  0.10222529399E+01 0.  0.
     999903    2    3    3    0    0  0.80223338844E-01  0.97361764015E-01 -0.31802284793E-01  0.13160285773E+00  0.19819930819E-01 0.  0.
         14    1    1    2    0    0  0.86451228646E-02  0.83009970810E-02  0.17791671772E-01  0.21451999588E-01  0.00000000000E+00 0.  1.
     999901    1    3    3    0    0 -0.88868461708E-01 -0.10566276110E+00  0.14010613021E-01  0.89087514268E+00  0.88000000000E+00 0.  1.
        -11    1    4    4    0    0  0.53344143720E-01  0.55796984002E-01 -0.11277274147E-01  0.78014992958E-01  0.51100000000E-03 0. -1.
         11    1    4    4    0    0  0.26879195123E-01  0.41564780012E-01 -0.20525010646E-01  0.53587864773E-01  0.51100000000E-03 0.  1.
</event>
<event>
 8    1  0.1196210E+005  0.1043930E+01  0.7957747E-01            NaN
         13   -1    0    0    0    0  0.00000000000E+00  0.00000000000E+00  0.74505805969E-08  0.10566000000E+00  0.10566000000E+00 0. -1.
     999900   -1    0    0    0    0 -0.00000000000E+00 -0.00000000000E+00 -0.74505805969E-08  0.93827000000E+00  0.93827000000E+00 0.  1.
     999902    2    1    2    0    0  0.84362014453E-02 -0.49415021362E-02  0.21600868533E-01  0.10202195496E+01  0.10199439906E+01 0.  0.
     999903    2    3    3    0    0  0.90760646186E-01 -0.90921096578E-01 -0.18087185153E-01  0.13131857282E+00  0.20329304016E-01 0.  0.
         14    1    1    2    0    0 -0.84362014453E-02  0.49415021362E-02 -0.21600868533E-01  0.23710450430E-01  0.00000000000E+00 0.  1.
     999901    1    3    3    0    0 -0.82324444741E-01  0.85979594441E-01  0.39688053686E-01  0.88890097675E+00  0.88000000000E+00 0.  1.
        -11    1    4    4    0    0  0.29723751956E-01 -0.42958064846E-01 -0.10823450181E-01  0.53350772820E-01  0.51100000000E-03 0.  1.
         11    1    4    4    0    0  0.61036894230E-01 -0.47963031731E-01 -0.72637349719E-02  0.77967800000E-01  0.51100000000E-03 0. -1.
</event>
<event>
 8    1  0.1196210E+005  0.1043930E+01  0.7957747E-01            NaN
         13   -1    0    0    0    0  0.00000000000E+00  0.00000000000E+00  0.74505805969E-08  0.10566000000E+00  0.10566000000E+00 0.  1.
     999900   -1    0    0    0    0 -0.00000000000E+00 -0.00000000000E+00 -0.74505805969E-08  0.93827000000E+00  0.93827000000E+00 0. -1.
     999902    2    1    2    0    0  0.37752094795E-02 -0.16321183750E-01  0.16408957245E-01  0.10204803279E+01  0.10202108666E+01 0.  0.
     999903    2    3    3    0    0 -0.82455086455E-01 -0.49133126451E-01  0.90934616686E-01  0.13252404434E+00  0.89784419731E-02 0.  0.
         14    1    1    2    0    0 -0.37752094795E-02  0.16321183750E-01 -0.16408957245E-01  0.23449672141E-01  0.00000000000E+00 0. -1.
     999901    1    3    3    0    0  0.86230295934E-01  0.32811942701E-01 -0.74525659440E-01  0.88795628352E+00  0.88000000000E+00 0. -1.
        -11    1    4    4    0    0 -0.63057503566E-01 -0.33756223273E-01  0.70368127765E-01  0.10033775905E+00  0.51100000000E-03 0.  1.
         11    1    4    4    0    0 -0.19397582889E-01 -0.15376903178E-01  0.20566488921E-01  0.32186285291E-01  0.51100000000E-03 0. -1.
</event>
<event>
 8    1  0.1196210E+005  0.1043930E+01  0.7957747E-01            NaN
         13   -1    0    0    0    0  0.00000000000E+00  0.00000000000E+00  0.74505805969E-08  0.10566000000E+00  0.10566000000E+00 0. -1.
     999900   -1    0    0    0    0 -0.00000000000E+00 -0.00000000000E+00 -0.74505805969E-08  0.93827000000E+00  0.93827000000E+00 0. -1.
     999902    2    1    2    0    0 -0.58019403867E-03 -0.12791603269E-01 -0.19570067152E-01  0.10205430535E+01  0.10202750486E+01 0.  0.
     999903    2    3    3    0    0 -0.26109683262E-01  0.28362184660E-02  0.12400731526E+00  0.12840492047E+00  0.20499991839E-01 0.  0.
         14    1    1    2    0    0  0.58019403867E-03  0.12791603269E-01  0.19570067152E-01  0.23386946523E-01  0.00000000000E+00 0. -1.
     999901    1    3    3    0    0  0.25529489223E-01 -0.15627821735E-01 -0.14357738242E+00  0.89213813301E+00  0.88000000000E+00 0. -1.
        -11    1    4    4    0    0  0.87930854071E-04  0.14081568658E-02  0.47475491722E-01  0.47499200760E-01  0.51100000000E-03 0.  1.
         11    1    4    4    0    0 -0.26197614116E-01  0.14280616002E-02  0.76531823542E-01  0.80905719705E-01  0.51100000000E-03 0. -1.
</event>
<event>
 8    1  0.1196210E+005  0.1043930E+01  0.7957747E-01            NaN
         13   -1    0    0    0    0  0.00000000000E+00  0.00000000000E+00  0.74505805969E-08  0.10566000000E+00  0.10566000000E+00 0. -1.
     999900   -1    0    0    0    0 -0.00000000000E+00 -0.00000000000E+00 -0.74505805969E-08  0.93827000000E+00  0.93827000000E+00 0.  1.
     999902    2    1    2    0    0 -0.69563980802E-02 -0.22567452424E-01  0.86456976413E-03  0.10202989005E+01  0.10200252043E+01 0.  0.
     999903    2    3    3    0    0 -0.64904534766E-01  0.10848988017E+00  0.13824041463E-01  0.12861400162E+00  0.19178231312E-01 0.  0.
         14    1    1    2    0    0  0.69563980802E-02  0.22567452424E-01 -0.86456976413E-03  0.23631099510E-01  0.00000000000E+00 0. -1.
     999901    1    3    3    0    0  0.57948136686E-01 -0.13105733260E+00 -0.12959471698E-01  0.89168489887E+00  0.88000000000E+00 0.  1.
        -11    1    4    4    0    0 -0.18708589438E-01  0.41819709761E-01 -0.24618862353E-02  0.45882692250E-01  0.51100000000E-03 0.  1.
         11    1    4    4    0    0 -0.46195945328E-01  0.66670170412E-01  0.16285927698E-01  0.82731309366E-01  0.51100000000E-03 0. -1.
</event>
<event>
 8    1  0.1196210E+005  0.1043930E+01  0.7957747E-01            NaN
         13   -1    0    0    0    0  0.00000000000E+00  0.00000000000E+00  0.74505805969E-08  0.10566000000E+00  0.10566000000E+00 0.  1.
     999900   -1    0    0    0    0 -0.00000000000E+00 -0.00000000000E+00 -0.74505805969E-08  0.93827000000E+00  0.93827000000E+00 0.  1.
     999902    2    1    2    0    0 -0.14008548350E-01 -0.18443937517E-02  0.18981754560E-01  0.10202667749E+01  0.10199923254E+01 0.  0.
     999903    2    3    3    0    0 -0.27492662563E-01 -0.12621493012E+00  0.13442727498E-01  0.13140203128E+00  0.19993294455E-01 0.  0.
         14    1    1    2    0    0  0.14008548350E-01  0.18443937517E-02 -0.18981754560E-01  0.23663225084E-01  0.00000000000E+00 0. -1.
     999901    1    3    3    0    0  0.13484114213E-01  0.12437053637E+00  0.55390270622E-02  0.88886474363E+00  0.88000000000E+00 0.  1.
        -11    1    4    4    0    0  0.24139850119E-03 -0.42736963748E-01  0.49841763169E-02  0.43030332072E-01  0.51100000000E-03 0.  1.
         11    1    4    4    0    0 -0.27734061064E-01 -0.83477966371E-01  0.84585511808E-02  0.88371699212E-01  0.51100000000E-03 0. -1.
</event>
<event>
 8    1  0.1196210E+005  0.1043930E+01  0.7957747E-01            NaN
         13   -1    0    0    0    0  0.00000000000E+00  0.00000000000E+00  0.74505805969E-08  0.10566000000E+00  0.10566000000E+00 0.  1.
     999900   -1    0    0    0    0 -0.00000000000E+00 -0.00000000000E+00 -0.74505805969E-08  0.93827000000E+00  0.93827000000E+00 0.  1.
     999902    2    1    2    0    0 -0.92096055243E-02 -0.17474986113E-01 -0.12859950697E-01  0.10203594611E+01  0.10200871823E+01 0.  0.
     999903    2    3    3    0    0 -0.44855753557E-01 -0.18681476935E-01  0.11875651958E+00  0.12985679474E+00  0.19965970778E-01 0.  0.
         14    1    1    2    0    0  0.92096055243E-02  0.17474986113E-01  0.12859950697E-01  0.23570538930E-01  0.00000000000E+00 0.  1.
     999901    1    3    3    0    0  0.35646148032E-01  0.12064908224E-02 -0.13161647028E+00  0.89050266633E+00  0.88000000000E+00 0.  1.
        -11    1    4    4    0    0 -0.10208135110E-01 -0.13664106585E-01  0.31243677109E-01  0.35599751564E-01  0.51100000000E-03 0.  1.
         11    1    4    4    0    0 -0.34647618447E-01 -0.50173703500E-02  0.87512842475E-01  0.94257043176E-01  0.51100000000E-03 0. -1.
</event>
<event>
 8    1  0.1196210E+005  0.1043930E+01  0.7957747E-01            NaN
         13   -1    0    0    0    0  0.00000000000E+00  0.00000000000E+00  0.74505805969E-08  0.10566000000E+00  0.10566000000E+00 0. -1.
     999900   -1    0    0    0    0 -0.00000000000E+00 -0.00000000000E+00 -0.74505805969E-08  0.93827000000E+00  0.93827000000E+00 0. -1.
     999902    2    1    2    0    0  0.62119042045E-02 -0.22338168177E-01  0.24302785677E-02  0.10206171759E+01  0.10203508867E+01 0.  0.
     999903    2    3    3    0    0 -0.11434773852E+00 -0.49144083200E-01 -0.35881731218E-01  0.13116734902E+00  0.20659830476E-01 0.  0.
         14    1    1    2    0    0 -0.62119042045E-02  0.22338168177E-01 -0.24302785677E-02  0.23312824051E-01  0.00000000000E+00 0.  1.
     999901    1    3    3    0    0  0.12055964272E+00  0.26805915024E-01  0.38312009786E-01  0.88944982693E+00  0.88000000000E+00 0.  1.
        -11    1    4    4    0    0 -0.34801646821E-01 -0.24750736989E-01 -0.16115867846E-01  0.45647956366E-01  0.51100000000E-03 0. -1.
         11    1    4    4    0    0 -0.79546091697E-01 -0.24393346211E-01 -0.19765863372E-01  0.85519392651E-01  0.51100000000E-03 0.  1.
</event>
<event>
 8    1  0.1196210E+005  0.1043930E+01  0.7957747E-01            NaN
         13   -1    0    0    0    0  0.00000000000E+00  0.00000000000E+00  0.74505805969E-08  0.10566000000E+00  0.10566000000E+00 0. -1.
     999900   -1    0    0    0    0 -0.00000000000E+00 -0.00000000000E+00 -0.74505805969E-08  0.93827000000E+00  0.93827000000E+00 0. -1.
     999902    2    1    2    0    0 -0.74312350610E-02 -0.21272231827E-01  0.25714110597E-02  0.10212508630E+01  0.10209990117E+01 0.  0.
     999903    2    3    3    0    0 -0.43836650819E-01  0.86349964089E-01 -0.84096101387E-01  0.12972455990E+00  0.19450936245E-01 0.  0.
         14    1    1    2    0    0  0.74312350610E-02  0.21272231827E-01 -0.25714110597E-02  0.22679137026E-01  0.00000000000E+00 0.  1.
     999901    1    3    3    0    0  0.36405415758E-01 -0.10762219592E+00  0.86667512446E-01  0.89152630307E+00  0.88000000000E+00 0. -1.
        -11    1    4    4    0    0 -0.11325149249E-01  0.30635476352E-01 -0.17706830200E-01  0.37156215813E-01  0.51100000000E-03 0. -1.
         11    1    4    4    0    0 -0.32511501570E-01  0.55714487737E-01 -0.66389271187E-01  0.92568344092E-01  0.51100000000E-03 0.  1.
</event>
<event>
 8    1  0.1196210E+005  0.1043930E+01  0.7957747E-01            NaN
         13   -1    0    0    0    0  0.00000000000E+00  0.00000000000E+00  0.74505805969E-08  0.10566000000E+00  0.10566000000E+00 0. -1.
     999900   -1    0    0    0    0 -0.00000000000E+00 -0.00000000000E+00 -0.74505805969E-08  0.93827000000E+00  0.93827000000E+00 0. -1.
     999902    2    1    2    0    0 -0.11213180760E-01  0.18005563872E-01 -0.10245674798E-01  0.10203734806E+01  0.10201015294E+01 0.  0.
     999903    2    3    3    0    0 -0.93596138917E-01 -0.81761348104E-01 -0.34471844713E-01  0.13058288963E+00  0.20455505885E-01 0.  0.
         14    1    1    2    0    0  0.11213180760E-01 -0.18005563872E-01  0.10245674798E-01  0.23556519377E-01  0.00000000000E+00 0. -1.
     999901    1    3    3    0    0  0.82382958157E-01  0.99766911976E-01  0.24226169915E-01  0.88979059100E+00  0.88000000000E+00 0. -1.
        -11    1    4    4    0    0 -0.27294673791E-01 -0.32476990355E-01 -0.19201055748E-01  0.46569257915E-01  0.51100000000E-03 0. -1.
         11    1    4    4    0    0 -0.66301465126E-01 -0.49284357749E-01 -0.15270788964E-01  0.84013631711E-01  0.51100000000E-03 0.  1.
</event>
<event>
 8    1  0.1196210E+005  0.1043930E+01  0.7957747E-01            NaN
         13   -1    0    0    0    0  0.00000000000E+00  0.00000000000E+00  0.74505805969E-08  0.10566000000E+00  0.10566000000E+00 0. -1.
     999900   -1    0    0    0    0 -0.00000000000E+00 -0.00000000000E+00 -0.74505805969E-08  0.93827000000E+00  0.93827000000E+00 0. -1.
     999902    2    1    2    0    0  0.26047904986E-01  0.12580357168E-01 -0.32607698664E-02  0.10148200127E+01  0.10144024186E+01 0.  0.
     999903    2    3    3    0    0 -0.43950698203E-01 -0.15985684856E-01 -0.11389669544E+00  0.12467613038E+00  0.19608015188E-01 0.  0.
         14    1    1    2    0    0 -0.26047904986E-01 -0.12580357168E-01  0.32607698664E-02  0.29109987303E-01  0.00000000000E+00 0. -1.
     999901    1    3    3    0    0  0.69998603189E-01  0.28566042024E-01  0.11063592558E+00  0.89014388232E+00  0.88000000000E+00 0.  1.
        -11    1    4    4    0    0 -0.15582693525E-01 -0.15031422463E-01 -0.59469530263E-01  0.63290205794E-01  0.51100000000E-03 0.  1.
         11    1    4    4    0    0 -0.28368004678E-01 -0.95426239337E-03 -0.54427165181E-01  0.61385924582E-01  0.51100000000E-03 0. -1.
</event>
<event>
 8    1  0.1196210E+005  0.1043930E+01  0.7957747E-01            NaN
         13   -1    0    0    0    0  0.00000000000E+00  0.00000000000E+00  0.74505805969E-08  0.10566000000E+00  0.10566000000E+00 0. -1.
     999900   -1    0    0    0    0 -0.00000000000E+00 -0.00000000000E+00 -0.74505805969E-08  0.93827000000E+00  0.93827000000E+00 0.  1.
     999902    2    1    2    0    0  0.17044737751E-01 -0.13295324414E-01  0.10935762801E-01  0.10197044011E+01  0.10194165909E+01 0.  0.
     999903    2    3    3    0    0  0.77301463417E-01  0.26973878524E-01 -0.98910199375E-01  0.12991868691E+00  0.19812402638E-01 0.  0.
         14    1    1    2    0    0 -0.17044737751E-01  0.13295324414E-01 -0.10935762801E-01  0.24225598946E-01  0.00000000000E+00 0.  1.
     999901    1    3    3    0    0 -0.60256725667E-01 -0.40269202938E-01  0.10984596218E+00  0.88978571415E+00  0.88000000000E+00 0. -1.
        -11    1    4    4    0    0  0.41143631764E-01  0.68487883249E-02 -0.39002372446E-01  0.57106483990E-01  0.51100000000E-03 0.  1.
         11    1    4    4    0    0  0.36157831653E-01  0.20125090199E-01 -0.59907826929E-01  0.72812202918E-01  0.51100000000E-03 0. -1.
</event>
<event>
 8    1  0.1196210E+005  0.1043930E+01  0.7957747E-01            NaN
         13   -1    0    0    0    0  0.00000000000E+00  0.00000000000E+00  0.74505805969E-08  0.10566000000E+00  0.10566000000E+00 0. -1.
     999900   -1    0    0    0    0 -0.00000000000E+00 -0.00000000000E+00 -0.74505805969E-08  0.93827000000E+00  0.93827000000E+00 0.  1.
     999902    2    1    2    0    0  0.12581249010E-01  0.17729854649E-01  0.76692879703E-02  0.10208767236E+01  0.10206163977E+01 0.  0.
     999903    2    3    3    0    0 -0.78662065679E-01  0.36186791522E-01  0.97143992703E-01  0.13145459452E+00  0.18605124164E-01 0.  0.
         14    1    1    2    0    0 -0.12581249010E-01 -0.17729854649E-01 -0.76692879703E-02  0.23053276351E-01  0.00000000000E+00 0. -1.
     999901    1    3    3    0    0  0.91243314689E-01 -0.18456936873E-01 -0.89474704733E-01  0.88942212913E+00  0.88000000000E+00 0. -1.
        -11    1    4    4    0    0 -0.54518339780E-01  0.16114424890E-01  0.57231566532E-01  0.80669928664E-01  0.51100000000E-03 0.  1.
         11    1    4    4    0    0 -0.24143725899E-01  0.20072366632E-01  0.39912426171E-01  0.50784665858E-01  0.51100000000E-03 0. -1.
</event>
<event>
 8    1  0.1196210E+005  0.1043930E+01  0.7957747E-01            NaN
         13   -1    0    0    0    0  0.00000000000E+00  0.00000000000E+00  0.74505805969E-08  0.10566000000E+00  0.10566000000E+00 0. -1.
     999900   -1    0    0    0    0 -0.00000000000E+00 -0.00000000000E+00 -0.74505805969E-08  0.93827000000E+00  0.93827000000E+00 0.  1.
     999902    2    1    2    0    0 -0.21371417933E-01  0.19086751907E-02  0.97523253617E-02  0.10203611987E+01  0.10200889605E+01 0.  0.
     999903    2    3    3    0    0  0.19859801183E-01  0.10477059365E+00 -0.71068576127E-01  0.12973635858E+00  0.20235889603E-01 0.  0.
         14    1    1    2    0    0  0.21371417933E-01 -0.19086751907E-02 -0.97523253617E-02  0.23568801315E-01  0.00000000000E+00 0.  1.
     999901    1    3    3    0    0 -0.41231219116E-01 -0.10286191846E+00  0.80820901489E-01  0.89062484011E+00  0.88000000000E+00 0. -1.
        -11    1    4    4    0    0  0.50543735256E-02  0.39979118584E-01 -0.15769429370E-01  0.43276005339E-01  0.51100000000E-03 0. -1.
         11    1    4    4    0    0  0.14805427657E-01  0.64791475064E-01 -0.55299146758E-01  0.86460353239E-01  0.51100000000E-03 0.  1.
</event>
<event>
 8    1  0.1196210E+005  0.1043930E+01  0.7957747E-01            NaN
         13   -1    0    0    0    0  0.00000000000E+00  0.00000000000E+00  0.74505805969E-08  0.10566000000E+00  0.10566000000E+00 0. -1.
     999900   -1    0    0    0    0 -0.00000000000E+00 -0.00000000000E+00 -0.74505805969E-08  0.93827000000E+00  0.93827000000E+00 0. -1.
     999902    2    1    2    0    0  0.12729679080E-01 -0.10633246707E-01 -0.13991929196E-01  0.10222301210E+01  0.10219997728E+01 0.  0.
     999903    2    3    3    0    0  0.10596793126E+00  0.75209838498E-01  0.17476220846E-01  0.13259387434E+00  0.19748289923E-01 0.  0.
         14    1    1    2    0    0 -0.12729679080E-01  0.10633246707E-01  0.13991929196E-01  0.21699878978E-01  0.00000000000E+00 0. -1.
     999901    1    3    3    0    0 -0.93238252179E-01 -0.85843085205E-01 -0.31468150042E-01  0.88963624668E+00  0.88000000000E+00 0.  1.
        -11    1    4    4    0    0  0.62061415664E-01  0.55543678483E-01  0.12575231565E-01  0.84232518089E-01  0.51100000000E-03 0.  1.
         11    1    4    4    0    0  0.43906515594E-01  0.19666160015E-01  0.49009892812E-02  0.48361356250E-01  0.51100000000E-03 0. -1.
</event>
<event>
 8    1  0.1196210E+005  0.1043930E+01  0.7957747E-01            NaN
         13   -1    0    0    0    0  0.00000000000E+00  0.00000000000E+00  0.74505805969E-08  0.10566000000E+00  0.10566000000E+00 0.  1.
     999900   -1    0    0    0    0 -0.00000000000E+00 -0.00000000000E+00 -0.74505805969E-08  0.93827000000E+00  0.93827000000E+00 0. -1.
     999902    2    1    2    0    0  0.24645338300E-01 -0.14705450017E-02  0.71406641386E-03  0.10192305042E+01  0.10189311829E+01 0.  0.
     999903    2    3    3    0    0 -0.30628088475E-01 -0.55161329317E-01 -0.11054679311E+00  0.12888403742E+00  0.20239801836E-01 0.  0.
         14    1    1    2    0    0 -0.24645338300E-01  0.14705450017E-02 -0.71406641386E-03  0.24699495812E-01  0.00000000000E+00 0. -1.
     999901    1    3    3    0    0  0.55273426775E-01  0.53690784315E-01  0.11126085952E+00  0.89034646677E+00  0.88000000000E+00 0.  1.
        -11    1    4    4    0    0 -0.53954034895E-02 -0.15288945061E-01 -0.47085057965E-01  0.49800863692E-01  0.51100000000E-03 0. -1.
         11    1    4    4    0    0 -0.25232684985E-01 -0.39872384256E-01 -0.63461735145E-01  0.79083173725E-01  0.51100000000E-03 0.  1.
</event>
<event>
 8    1  0.1196210E+005  0.1043930E+01  0.7957747E-01            NaN
         13   -1    0    0    0    0  0.00000000000E+00  0.00000000000E+00  0.74505805969E-08  0.10566000000E+00  0.10566000000E+00 0.  1.
     999900   -1    0    0    0    0 -0.00000000000E+00 -0.00000000000E+00 -0.74505805969E-08  0.93827000000E+00  0.93827000000E+00 0.  1.
     999902    2    1    2    0    0  0.20801517069E-01  0.10218098058E-01 -0.54706616298E-02  0.10201173819E+01  0.10198394149E+01 0.  0.
     999903    2    3    3    0    0 -0.38986847441E-01 -0.10263651326E+00 -0.64752039976E-01  0.12892430878E+00  0.19350002190E-01 0.  0.
         14    1    1    2    0    0 -0.20801517069E-01 -0.10218098058E-01  0.54706616298E-02  0.23812618062E-01  0.00000000000E+00 0. -1.
     999901    1    3    3    0    0  0.59788364511E-01  0.11285461132E+00  0.59281378346E-01  0.89119307316E+00  0.88000000000E+00 0. -1.
        -11    1    4    4    0    0 -0.41514771354E-02 -0.34110484543E-01 -0.16117207808E-01  0.37957679417E-01  0.51100000000E-03 0.  1.
         11    1    4    4    0    0 -0.34835370306E-01 -0.68526028721E-01 -0.48634832167E-01  0.90966629362E-01  0.51100000000E-03 0. -1.
</event>
<event>
 8    1  0.1196210E+005  0.1043930E+01  0.7957747E-01            NaN
         13   -1    0    0    0    0  0.00000000000E+00  0.00000000000E+00  0.74505805969E-08  0.10566000000E+00  0.10566000000E+00 0.  1.
     999900   -1    0    0    0    0 -0.00000000000E+00 -0.00000000000E+00 -0.74505805969E-08  0.93827000000E+00  0.93827000000E+00 0. -1.
     999902    2    1    2    0    0  0.12945149308E-01 -0.46752162151E-02 -0.19108177982E-01  0.10203809660E+01  0.10201091896E+01 0.  0.
     999903    2    3    3    0    0  0.11583235714E+00  0.60736101934E-01  0.56051794906E-02  0.13163175045E+00  0.13765560305E-01 0.  0.
         14    1    1    2    0    0 -0.12945149308E-01  0.46752162151E-02  0.19108177982E-01  0.23549034016E-01  0.00000000000E+00 0. -1.
     999901    1    3    3    0    0 -0.10288720783E+00 -0.65411318149E-01 -0.24713357473E-01  0.88874921554E+00  0.88000000000E+00 0.  1.
        -11    1    4    4    0    0  0.10509270196E+00  0.50307275427E-01  0.42467566242E-02  0.11659156929E+00  0.51100000000E-03 0. -1.
         11    1    4    4    0    0  0.10739655180E-01  0.10428826507E-01  0.13584228664E-02  0.15040181162E-01  0.51100000000E-03 0.  1.
</event>
<event>
 8    1  0.1196210E+005  0.1043930E+01  0.7957747E-01            NaN
         13   -1    0    0    0    0  0.00000000000E+00  0.00000000000E+00  0.74505805969E-08  0.10566000000E+00  0.10566000000E+00 0.  1.
     999900   -1    0    0    0    0 -0.00000000000E+00 -0.00000000000E+00 -0.74505805969E-08  0.93827000000E+00  0.93827000000E+00 0.  1.
     999902    2    1    2    0    0 -0.15263978855E-01 -0.12170455902E-01 -0.92874545006E-03  0.10243859059E+01  0.10241994496E+01 0.  0.
     999903    2    3    3    0    0 -0.48231048030E-01  0.71702885359E-01 -0.10074463025E+00  0.13416976589E+00  0.19608870224E-01 0.  0.
         14    1    1    2    0    0  0.15263978855E-01  0.12170455902E-01  0.92874545006E-03  0.19544094132E-01  0.00000000000E+00 0.  1.
     999901    1    3    3    0    0  0.32967069175E-01 -0.83873341261E-01  0.99815884798E-01  0.89021613998E+00  0.88000000000E+00 0. -1.
        -11    1    4    4    0    0 -0.18671632958E-01  0.21797098764E-01 -0.21029990810E-01  0.35584617833E-01  0.51100000000E-03 0.  1.
         11    1    4    4    0    0 -0.29559415072E-01  0.49905786595E-01 -0.79714639438E-01  0.98585148054E-01  0.51100000000E-03 0. -1.
</event>
<event>
 8    1  0.1196210E+005  0.1043930E+01  0.7957747E-01            NaN
         13   -1    0    0    0    0  0.00000000000E+00  0.00000000000E+00  0.74505805969E-08  0.10566000000E+00  0.10566000000E+00 0.  1.
     999900   -1    0    0    0    0 -0.00000000000E+00 -0.00000000000E+00 -0.74505805969E-08  0.93827000000E+00  0.93827000000E+00 0.  1.
     999902    2    1    2    0    0 -0.28184918292E-02 -0.14082469547E-01  0.19702865995E-01  0.10195483927E+01  0.10192568186E+01 0.  0.
     999903    2    3    3    0    0 -0.83809122094E-02 -0.10797916882E+00  0.74656918536E-01  0.13283114437E+00  0.18458516742E-01 0.  0.
         14    1    1    2    0    0  0.28184918292E-02  0.14082469547E-01 -0.19702865995E-01  0.24381607272E-01  0.00000000000E+00 0.  1.
     999901    1    3    3    0    0  0.55624203802E-02  0.93896699269E-01 -0.54954052541E-01  0.88671724836E+00  0.88000000000E+00 0.  1.
        -11    1    4    4    0    0 -0.11867521027E-01 -0.38858920860E-01  0.28895902620E-01  0.49860686868E-01  0.51100000000E-03 0. -1.
         11    1    4    4    0    0  0.34866088178E-02 -0.69120247956E-01  0.45761015916E-01  0.82970457497E-01  0.51100000000E-03 0.  1.
</event>
<event>
 8    1  0.1196210E+005  0.1043930E+01  0.7957747E-01            NaN
         13   -1    0    0    0    0  0.00000000000E+00  0.00000000000E+00  0.74505805969E-08  0.10566000000E+00  0.10566000000E+00 0.  1.
     999900   -1    0    0    0    0 -0.00000000000E+00 -0.00000000000E+00 -0.74505805969E-08  0.93827000000E+00  0.93827000000E+00 0.  1.
     999902    2    1    2    0    0 -0.19330190801E-01 -0.48829376573E-02 -0.44816664619E-02  0.10234951109E+01  0.10232910912E+01 0.  0.
     999903    2    3    3    0    0 -0.58287803793E-01  0.34777687662E-01 -0.11513525950E+00  0.13482482424E+00  0.17738365842E-01 0.  0.
         14    1    1    2    0    0  0.19330190801E-01  0.48829376573E-02  0.44816664619E-02  0.20434889058E-01  0.00000000000E+00 0.  1.
     999901    1    3    3    0    0  0.38957612992E-01 -0.39660625319E-01  0.11065359303E+00  0.88867028670E+00  0.88000000000E+00 0. -1.
        -11    1    4    4    0    0 -0.42597659239E-01  0.32152540080E-01 -0.78999126725E-01  0.95338709612E-01  0.51100000000E-03 0.  1.
         11    1    4    4    0    0 -0.15690144554E-01  0.26251475817E-02 -0.36136132771E-01  0.39486114631E-01  0.51100000000E-03 0. -1.
</event>
<event>
 8    1  0.1196210E+005  0.1043930E+01  0.7957747E-01            NaN
         13   -1    0    0    0    0  0.00000000000E+00  0.00000000000E+00  0.74505805969E-08  0.10566000000E+00  0.10566000000E+00 0. -1.
     999900   -1    0    0    0    0 -0.00000000000E+00 -0.00000000000E+00 -0.74505805969E-08  0.93827000000E+00  0.93827000000E+00 0.  1.
     999902    2    1    2    0    0  0.86374324284E-03  0.20331625374E-01 -0.20725852281E-01  0.10148837955E+01  0.10144680559E+01 0.  0.
     999903    2    3    3    0    0 -0.98457569625E-01  0.73628234973E-01  0.24121975618E-01  0.12656145567E+00  0.17914305791E-01 0.  0.
         14    1    1    2    0    0 -0.86374324284E-03 -0.20331625374E-01  0.20725852281E-01  0.29046204494E-01  0.00000000000E+00 0. -1.
     999901    1    3    3    0    0  0.99321312868E-01 -0.53296609600E-01 -0.44847827899E-01  0.88832233984E+00  0.88000000000E+00 0. -1.
        -11    1    4    4    0    0 -0.26464298452E-02  0.63289488353E-02  0.33325846610E-02  0.76437180618E-02  0.51100000000E-03 0. -1.
         11    1    4    4    0    0 -0.95811139780E-01  0.67299286138E-01  0.20789390957E-01  0.11891773761E+00  0.51100000000E-03 0.  1.
</event>
<event>
 8    1  0.1196210E+005  0.1043930E+01  0.7957747E-01            NaN
         13   -1    0    0    0    0  0.00000000000E+00  0.00000000000E+00  0.74505805969E-08  0.10566000000E+00  0.10566000000E+00 0. -1.
     999900   -1    0    0    0    0 -0.00000000000E+00 -0.00000000000E+00 -0.74505805969E-08  0.93827000000E+00  0.93827000000E+00 0. -1.
     999902    2    1    2    0    0  0.18895711099E-01  0.20916667057E-02  0.13250402141E-01  0.10207568232E+01  0.10204937510E+01 0.  0.
     999903    2    3    3    0    0 -0.10390057978E+00 -0.65649441429E-01  0.35272304820E-01  0.12937993824E+00  0.19744702898E-01 0.  0.
         14    1    1    2    0    0 -0.18895711099E-01 -0.20916667057E-02 -0.13250402141E-01  0.23173176831E-01  0.00000000000E+00 0.  1.
     999901    1    3    3    0    0  0.12279629088E+00  0.67741108135E-01 -0.22021902679E-01  0.89137688493E+00  0.88000000000E+00 0. -1.
        -11    1    4    4    0    0 -0.73382523586E-01 -0.56454006221E-01  0.25363570833E-01  0.95998028275E-01  0.51100000000E-03 0.  1.
         11    1    4    4    0    0 -0.30518056198E-01 -0.91954352081E-02  0.99087339878E-02  0.33381909966E-01  0.51100000000E-03 0. -1.
</event>
<event>
 8    1  0.1196210E+005  0.1043930E+01  0.7957747E-01            NaN
         13   -1    0    0    0    0  0.00000000000E+00  0.00000000000E+00  0.74505805969E-08  0.10566000000E+00  0.10566000000E+00 0.  1.
     999900   -1    0    0    0    0 -0.00000000000E+00 -0.00000000000E+00 -0.74505805969E-08  0.93827000000E+00  0.93827000000E+00 0.  1.
     999902    2    1    2    0    0  0.19099267751E-01  0.43138960610E-02  0.13125449775E-01  0.10203573642E+01  0.10200850364E+01 0.  0.
     999903    2    3    3    0    0 -0.12316108328E+00 -0.27112151649E-01 -0.99165126358E-02  0.12808132170E+00  0.20069044438E-01 0.  0.
         14    1    1    2    0    0 -0.19099267751E-01 -0.43138960610E-02 -0.13125449775E-01  0.23572635823E-01  0.00000000000E+00 0.  1.
     999901    1    3    3    0    0  0.14226035103E+00  0.31426047710E-01  0.23041962410E-01  0.89227604248E+00  0.88000000000E+00 0.  1.
        -11    1    4    4    0    0 -0.89952072236E-01 -0.21676721252E-01  0.15067164089E-02  0.92540730811E-01  0.51100000000E-03 0. -1.
         11    1    4    4    0    0 -0.33209011040E-01 -0.54354303974E-02 -0.11423229045E-01  0.35540590888E-01  0.51100000000E-03 0.  1.
</event>
<event>
 8    1  0.1196210E+005  0.1043930E+01  0.7957747E-01            NaN
         13   -1    0    0    0    0  0.00000000000E+00  0.00000000000E+00  0.74505805969E-08  0.10566000000E+00  0.10566000000E+00 0.  1.
     999900   -1    0    0    0    0 -0.00000000000E+00 -0.00000000000E+00 -0.74505805969E-08  0.93827000000E+00  0.93827000000E+00 0. -1.
     999902    2    1    2    0    0  0.69309406908E-02  0.16415036956E-01 -0.15749540065E-01  0.10201489279E+01  0.10198717055E+01 0.  0.
     999903    2    3    3    0    0  0.87851941963E-01 -0.90634117726E-01  0.24555989088E-01  0.12906404664E+00  0.11046471470E-01 0.  0.
         14    1    1    2    0    0 -0.69309406908E-02 -0.16415036956E-01  0.15749540065E-01  0.23781072083E-01  0.00000000000E+00 0.  1.
     999901    1    3    3    0    0 -0.80921001272E-01  0.10704915468E+00 -0.40305529153E-01  0.89108488128E+00  0.88000000000E+00 0. -1.
        -11    1    4    4    0    0  0.73541240140E-01 -0.81199273735E-01  0.20850116300E-01  0.11151961499E+00  0.51100000000E-03 0. -1.
         11    1    4    4    0    0  0.14310701823E-01 -0.94348439908E-02  0.37058727875E-02  0.17544431649E-01  0.51100000000E-03 0.  1.
</event>
<event>
 8    1  0.1196210E+005  0.1043930E+01  0.7957747E-01            NaN
         13   -1    0    0    0    0  0.00000000000E+00  0.00000000000E+00  0.74505805969E-08  0.10566000000E+00  0.10566000000E+00 0.  1.
     999900   -1    0    0    0    0 -0.00000000000E+00 -0.00000000000E+00 -0.74505805969E-08  0.93827000000E+00  0.93827000000E+00 0.  1.
     999902    2    1    2    0    0 -0.17456174959E-01 -0.24487456800E-02 -0.15791038276E-01  0.10202641747E+01  0.10199896641E+01 0.  0.
     999903    2    3    3    0    0  0.68790373429E-02 -0.12673886099E+00 -0.25186013598E-01  0.13114747765E+00  0.21336953271E-01 0.  0.
         14    1    1    2    0    0  0.17456174959E-01  0.24487456800E-02  0.15791038276E-01  0.23665825349E-01  0.00000000000E+00 0.  1.
     999901    1    3    3    0    0 -0.24335212302E-01  0.12429011531E+00  0.93949753217E-02  0.88911669700E+00  0.88000000000E+00 0. -1.
        -11    1    4    4    0    0  0.42730110643E-02 -0.35553666397E-01 -0.16743218131E-01  0.39533761423E-01  0.51100000000E-03 0.  1.
         11    1    4    4    0    0  0.26060262786E-02 -0.91185194589E-01 -0.84427954664E-02  0.91613716230E-01  0.51100000000E-03 0. -1.
</event>
<event>
 8    1  0.1196210E+005  0.1043930E+01  0.7957747E-01            NaN
         13   -1    0    0    0    0  0.00000000000E+00  0.00000000000E+00  0.74505805969E-08  0.10566000000E+00  0.10566000000E+00 0.  1.
     999900   -1    0    0    0    0 -0.00000000000E+00 -0.00000000000E+00 -0.74505805969E-08  0.93827000000E+00  0.93827000000E+00 0. -1.
     999902    2    1    2    0    0  0.56574414312E-02 -0.21691668915E-01 -0.33106043316E-02  0.10212695665E+01  0.10210181351E+01 0.  0.
     999903    2    3    3    0    0  0.63480906403E-01 -0.40342394874E-01 -0.10778226241E+00  0.13300962146E+00  0.20425694807E-01 0.  0.
         14    1    1    2    0    0 -0.56574414312E-02  0.21691668915E-01  0.33106043316E-02  0.22660433467E-01  0.00000000000E+00 0.  1.
     999901    1    3    3    0    0 -0.57823464972E-01  0.18650725959E-01  0.10447165808E+00  0.88825994507E+00  0.88000000000E+00 0.  1.
        -11    1    4    4    0    0  0.20955389021E-01 -0.26815546775E-02 -0.29157008982E-01  0.36009878621E-01  0.51100000000E-03 0.  1.
         11    1    4    4    0    0  0.42525517382E-01 -0.37660840197E-01 -0.78625253429E-01  0.96999742839E-01  0.51100000000E-03 0. -1.
</event>
<event>
 8    1  0.1196210E+005  0.1043930E+01  0.7957747E-01            NaN
         13   -1    0    0    0    0  0.00000000000E+00  0.00000000000E+00  0.74505805969E-08  0.10566000000E+00  0.10566000000E+00 0. -1.
     999900   -1    0    0    0    0 -0.00000000000E+00 -0.00000000000E+00 -0.74505805969E-08  0.93827000000E+00  0.93827000000E+00 0. -1.
     999902    2    1    2    0    0 -0.73339928698E-02  0.19062350129E-01  0.12849565529E-01  0.10197996876E+01  0.10195141641E+01 0.  0.
     999903    2    3    3    0    0  0.10585443169E+00  0.69899954847E-01  0.25942590096E-01  0.13099852375E+00  0.19910571260E-01 0.  0.
         14    1    1    2    0    0  0.73339928698E-02 -0.19062350129E-01 -0.12849565529E-01  0.24130312434E-01  0.00000000000E+00 0.  1.
     999901    1    3    3    0    0 -0.11318842456E+00 -0.50837604717E-01 -0.13093024566E-01  0.88880116382E+00  0.88000000000E+00 0. -1.
        -11    1    4    4    0    0  0.35632552261E-01  0.17502978483E-01  0.29228981897E-03  0.39703647071E-01  0.51100000000E-03 0.  1.
         11    1    4    4    0    0  0.70221879430E-01  0.52396976363E-01  0.25650300277E-01  0.91294876679E-01  0.51100000000E-03 0. -1.
</event>
<event>
 8    1  0.1196210E+005  0.1043930E+01  0.7957747E-01            NaN
         13   -1    0    0    0    0  0.00000000000E+00  0.00000000000E+00  0.74505805969E-08  0.10566000000E+00  0.10566000000E+00 0. -1.
     999900   -1    0    0    0    0 -0.00000000000E+00 -0.00000000000E+00 -0.74505805969E-08  0.93827000000E+00  0.93827000000E+00 0.  1.
     999902    2    1    2    0    0  0.10487266303E-01 -0.11204244905E-01  0.17364322809E-01  0.10207559290E+01  0.10204928364E+01 0.  0.
     999903    2    3    3    0    0 -0.12409079888E+00  0.29173135100E-01 -0.71221658204E-02  0.12927335682E+00  0.20279974322E-01 0.  0.
         14    1    1    2    0    0 -0.10487266303E-01  0.11204244905E-01 -0.17364322809E-01  0.23174070963E-01  0.00000000000E+00 0.  1.
     999901    1    3    3    0    0  0.13457806518E+00 -0.40377380005E-01  0.24486488629E-01  0.89148257222E+00  0.88000000000E+00 0. -1.
        -11    1    4    4    0    0 -0.65089838010E-01  0.23100098952E-01 -0.10497831175E-01  0.69862487532E-01  0.51100000000E-03 0. -1.
         11    1    4    4    0    0 -0.59000960870E-01  0.60730361484E-02  0.33756653546E-02  0.59410869286E-01  0.51100000000E-03 0.  1.
</event>
<event>
 8    1  0.1196210E+005  0.1043930E+01  0.7957747E-01            NaN
         13   -1    0    0    0    0  0.00000000000E+00  0.00000000000E+00  0.74505805969E-08  0.10566000000E+00  0.10566000000E+00 0. -1.
     999900   -1    0    0    0    0 -0.00000000000E+00 -0.00000000000E+00 -0.74505805969E-08  0.93827000000E+00  0.93827000000E+00 0. -1.
     999902    2    1    2    0    0  0.34594175409E-02  0.22969914740E-01 -0.40280456249E-02  0.10203543833E+01  0.10200819858E+01 0.  0.
     999903    2    3    3    0    0  0.82666480049E-01  0.40424915572E-01 -0.92702493838E-01  0.13218683512E+00  0.20290054048E-01 0.  0.
         14    1    1    2    0    0 -0.34594175409E-02 -0.22969914740E-01  0.40280456249E-02  0.23575616736E-01  0.00000000000E+00 0. -1.
     999901    1    3    3    0    0 -0.79207062509E-01 -0.17455000832E-01  0.88674448213E-01  0.88816754814E+00  0.88000000000E+00 0.  1.
        -11    1    4    4    0    0  0.75316557232E-01  0.36063727792E-01 -0.73835150724E-01  0.11146778395E+00  0.51100000000E-03 0. -1.
         11    1    4    4    0    0  0.73499228173E-02  0.43611877808E-02 -0.18867343114E-01  0.20719051172E-01  0.51100000000E-03 0.  1.
</event>
<event>
 8    1  0.1196210E+005  0.1043930E+01  0.7957747E-01            NaN
         13   -1    0    0    0    0  0.00000000000E+00  0.00000000000E+00  0.74505805969E-08  0.10566000000E+00  0.10566000000E+00 0.  1.
     999900   -1    0    0    0    0 -0.00000000000E+00 -0.00000000000E+00 -0.74505805969E-08  0.93827000000E+00  0.93827000000E+00 0.  1.
     999902    2    1    2    0    0  0.24799106737E-02 -0.20098348099E-01  0.10667563312E-01  0.10210413465E+01  0.10207847671E+01 0.  0.
     999903    2    3    3    0    0  0.49236043667E-01 -0.12031806699E+00 -0.22983060847E-01  0.13348149354E+00  0.19709459480E-01 0.  0.
         14    1    1    2    0    0 -0.24799106737E-02  0.20098348099E-01 -0.10667563312E-01  0.22888653527E-01  0.00000000000E+00 0. -1.
     999901    1    3    3    0    0 -0.46756132993E-01  0.10021971889E+00  0.33650624160E-01  0.88755985293E+00  0.88000000000E+00 0. -1.
        -11    1    4    4    0    0  0.32193262755E-01 -0.72572784794E-01 -0.23435593178E-01  0.82781057061E-01  0.51100000000E-03 0.  1.
         11    1    4    4    0    0  0.17042780912E-01 -0.47745282193E-01  0.45253233043E-03  0.50700436482E-01  0.51100000000E-03 0. -1.
</event>
<event>
 8    1  0.1196210E+005  0.1043930E+01  0.7957747E-01            NaN
         13   -1    0    0    0    0  0.00000000000E+00  0.00000000000E+00  0.74505805969E-08  0.10566000000E+00  0.10566000000E+00 0. -1.
     999900   -1    0    0    0    0 -0.00000000000E+00 -0.00000000000E+00 -0.74505805969E-08  0.93827000000E+00  0.93827000000E+00 0.  1.
     999902    2    1    2    0    0  0.14455540915E-01 -0.14744519399E-01  0.95992947831E-02  0.10211591859E+01  0.10209052713E+01 0.  0.
     999903    2    3    3    0    0 -0.32559177048E-01  0.11783180588E+00  0.37911418398E-01  0.12953794226E+00  0.19959167161E-01 0.  0.
         14    1    1    2    0    0 -0.14455540915E-01  0.14744519399E-01 -0.95992947831E-02  0.22770814122E-01  0.00000000000E+00 0.  1.
     999901    1    3    3    0    0  0.47014717963E-01 -0.13257632528E+00 -0.28312123615E-01  0.89162124362E+00  0.88000000000E+00 0.  1.
        -11    1    4    4    0    0 -0.83975091245E-02  0.16508176734E-01  0.12396026557E-01  0.22292614337E-01  0.51100000000E-03 0.  1.
         11    1    4    4    0    0 -0.24161667923E-01  0.10132362914E+00  0.25515391841E-01  0.10724532792E+00  0.51100000000E-03 0. -1.
</event>
<event>
 8    1  0.1196210E+005  0.1043930E+01  0.7957747E-01            NaN
         13   -1    0    0    0    0  0.00000000000E+00  0.00000000000E+00  0.74505805969E-08  0.10566000000E+00  0.10566000000E+00 0.  1.
     999900   -1    0    0    0    0 -0.00000000000E+00 -0.00000000000E+00 -0.74505805969E-08  0.93827000000E+00  0.93827000000E+00 0.  1.
     999902    2    1    2    0    0  0.86089096412E-02 -0.16259938042E-01 -0.14735923307E-01  0.10203578481E+01  0.10200855316E+01 0.  0.
     999903    2    3    3    0    0 -0.47026879672E-01  0.10252648760E+00  0.52150282927E-01  0.12812507545E+00  0.31195750993E-01 0.  0.
         14    1    1    2    0    0 -0.86089096412E-02  0.16259938042E-01  0.14735923307E-01  0.23572151918E-01  0.00000000000E+00 0.  1.
     999901    1    3    3    0    0  0.55635789313E-01 -0.11878642564E+00 -0.66886206233E-01  0.89223277263E+00  0.88000000000E+00 0. -1.
        -11    1    4    4    0    0 -0.21478309794E-01  0.49289753742E-01  0.79276199141E-02  0.54349847231E-01  0.51100000000E-03 0. -1.
         11    1    4    4    0    0 -0.25548569879E-01  0.53236733855E-01  0.44222663012E-01  0.73775228222E-01  0.51100000000E-03 0.  1.
</event>
<event>
 8    1  0.1196210E+005  0.1043930E+01  0.7957747E-01            NaN
         13   -1    0    0    0    0  0.00000000000E+00  0.00000000000E+00  0.74505805969E-08  0.10566000000E+00  0.10566000000E+00 0.  1.
     999900   -1    0    0    0    0 -0.00000000000E+00 -0.00000000000E+00 -0.74505805969E-08  0.93827000000E+00  0.93827000000E+00 0. -1.
     999902    2    1    2    0    0  0.57788432140E-02 -0.21255689852E-01  0.88807234695E-02  0.10201799131E+01  0.10199034211E+01 0.  0.
     999903    2    3    3    0    0 -0.12733431080E+00 -0.55298522568E-02  0.15681644536E-01  0.13000427519E+00  0.20263060466E-01 0.  0.
         14    1    1    2    0    0 -0.57788432140E-02  0.21255689852E-01 -0.88807234695E-02  0.23750086933E-01  0.00000000000E+00 0.  1.
     999901    1    3    3    0    0  0.13311315401E+00 -0.15725837596E-01 -0.68009210667E-02  0.89017563788E+00  0.88000000000E+00 0. -1.
        -11    1    4    4    0    0 -0.20629545518E-01 -0.49320457068E-02  0.91227896717E-02  0.23095229714E-01  0.51100000000E-03 0. -1.
         11    1    4    4    0    0 -0.10670476528E+00 -0.59780655000E-03  0.65588548646E-02  0.10690904548E+00  0.51100000000E-03 0.  1.
</event>
<event>
 8    1  0.1196210E+005  0.1043930E+01  0.7957747E-01            NaN
         13   -1    0    0    0    0  0.00000000000E+00  0.00000000000E+00  0.74505805969E-08  0.10566000000E+00  0.10566000000E+00 0. -1.
     999900   -1    0    0    0    0 -0.00000000000E+00 -0.00000000000E+00 -0.74505805969E-08  0.93827000000E+00  0.93827000000E+00 0. -1.
     999902    2    1    2    0    0 -0.13280153307E-01  0.18860094135E-01 -0.45977309948E-02  0.10204096949E+01  0.10201385889E+01 0.  0.
     999903    2    3    3    0    0 -0.20301177537E-01  0.29228666485E-02 -0.12830323475E+00  0.13158668569E+00  0.20800356853E-01 0.  0.
         14    1    1    2    0    0  0.13280153307E-01 -0.18860094135E-01  0.45977309948E-02  0.23520305119E-01  0.00000000000E+00 0. -1.
     999901    1    3    3    0    0  0.70210242299E-02  0.15937227486E-01  0.12370550376E+00  0.88882300919E+00  0.88000000000E+00 0.  1.
        -11    1    4    4    0    0 -0.20807714654E-01 -0.43449190598E-02 -0.82042799095E-01  0.84753296780E-01  0.51100000000E-03 0.  1.
         11    1    4    4    0    0  0.50653711755E-03  0.72677857083E-02 -0.46260435657E-01  0.46833388913E-01  0.51100000000E-03 0. -1.
</event>
<event>
 8    1  0.1196210E+005  0.1043930E+01  0.7957747E-01            NaN
         13   -1    0    0    0    0  0.00000000000E+00  0.00000000000E+00  0.74505805969E-08  0.10566000000E+00  0.10566000000E+00 0.  1.
     999900   -1    0    0    0    0 -0.00000000000E+00 -0.00000000000E+00 -0.74505805969E-08  0.93827000000E+00  0.93827000000E+00 0. -1.
     999902    2    1    2    0    0 -0.40879540686E-04 -0.14032460443E-01  0.18668459278E-01  0.10205757073E+01  0.10203084589E+01 0.  0.
     999903    2    3    3    0    0 -0.10867008821E-02 -0.12375502197E+00 -0.39291235119E-01  0.13186908502E+00  0.23003652900E-01 0.  0.
         14    1    1    2    0    0  0.40879540686E-04  0.14032460443E-01 -0.18668459278E-01  0.23354292733E-01  0.00000000000E+00 0. -1.
     999901    1    3    3    0    0  0.10458213414E-02  0.10972256152E+00  0.57959694397E-01  0.88870662225E+00  0.88000000000E+00 0.  1.
        -11    1    4    4    0    0 -0.58367284042E-02 -0.20815844224E-01 -0.13999783868E-01  0.25760858653E-01  0.51100000000E-03 0.  1.
         11    1    4    4    0    0  0.47500275221E-02 -0.10293917774E+00 -0.25291451251E-01  0.10610822637E+00  0.51100000000E-03 0. -1.
</event>
<event>
 8    1  0.1196210E+005  0.1043930E+01  0.7957747E-01            NaN
         13   -1    0    0    0    0  0.00000000000E+00  0.00000000000E+00  0.74505805969E-08  0.10566000000E+00  0.10566000000E+00 0.  1.
     999900   -1    0    0    0    0 -0.00000000000E+00 -0.00000000000E+00 -0.74505805969E-08  0.93827000000E+00  0.93827000000E+00 0. -1.
     999902    2    1    2    0    0 -0.38065575093E-03 -0.18151511444E-01  0.14876951457E-01  0.10204577621E+01  0.10201877760E+01 0.  0.
     999903    2    3    3    0    0  0.10408579513E+00  0.43018708421E-01  0.62677943787E-01  0.13088484772E+00  0.22756465120E-01 0.  0.
         14    1    1    2    0    0  0.38065575093E-03  0.18151511444E-01 -0.14876951457E-01  0.23472237881E-01  0.00000000000E+00 0.  1.
     999901    1    3    3    0    0 -0.10446645088E+00 -0.61170219865E-01 -0.47800992330E-01  0.88957291439E+00  0.88000000000E+00 0.  1.
        -11    1    4    4    0    0  0.37391174514E-01  0.21972679396E-01  0.13635883724E-01  0.45465338636E-01  0.51100000000E-03 0.  1.
         11    1    4    4    0    0  0.66694620614E-01  0.21046029025E-01  0.49042060063E-01  0.85419509088E-01  0.51100000000E-03 0. -1.
</event>
<event>
 8    1  0.1196210E+005  0.1043930E+01  0.7957747E-01            NaN
         13   -1    0    0    0    0  0.00000000000E+00  0.00000000000E+00  0.74505805969E-08  0.10566000000E+00  0.10566000000E+00 0. -1.
     999900   -1    0    0    0    0 -0.00000000000E+00 -0.00000000000E+00 -0.74505805969E-08  0.93827000000E+00  0.93827000000E+00 0. -1.
     999902    2    1    2    0    0 -0.22611599603E-01 -0.39600217143E-02  0.65393606801E-02  0.10200609940E+01  0.10197816933E+01 0.  0.
     999903    2    3    3    0    0  0.35592095141E-01  0.10396264234E+00  0.65762156734E-01  0.12958791128E+00  0.19832731879E-01 0.  0.
         14    1    1    2    0    0  0.22611599603E-01  0.39600217143E-02 -0.65393606801E-02  0.23869005985E-01  0.00000000000E+00 0.  1.
     999901    1    3    3    0    0 -0.58203694744E-01 -0.10792266405E+00 -0.59222796054E-01  0.89047308273E+00  0.88000000000E+00 0. -1.
        -11    1    4    4    0    0  0.20599685562E-01  0.37537714419E-01  0.32753540038E-01  0.53911803486E-01  0.51100000000E-03 0.  1.
         11    1    4    4    0    0  0.14992409579E-01  0.66424927920E-01  0.33008616696E-01  0.75676107798E-01  0.51100000000E-03 0. -1.
</event>
<event>
 8    1  0.1196210E+005  0.1043930E+01  0.7957747E-01            NaN
         13   -1    0    0    0    0  0.00000000000E+00  0.00000000000E+00  0.74505805969E-08  0.10566000000E+00  0.10566000000E+00 0.  1.
     999900   -1    0    0    0    0 -0.00000000000E+00 -0.00000000000E+00 -0.74505805969E-08  0.93827000000E+00  0.93827000000E+00 0. -1.
     999902    2    1    2    0    0 -0.13044067764E-01  0.16798677316E-01 -0.10995981382E-01  0.10199872585E+01  0.10197062090E+01 0.  0.
     999903    2    3    3    0    0 -0.12103700327E+00 -0.16140612395E-01  0.43302129020E-01  0.13111395161E+00  0.20132520970E-01 0.  0.
         14    1    1    2    0    0  0.13044067764E-01 -0.16798677316E-01  0.10995981382E-01  0.23942741488E-01  0.00000000000E+00 0.  1.
     999901    1    3    3    0    0  0.10799293551E+00  0.32939289711E-01 -0.54298110403E-01  0.88887330690E+00  0.88000000000E+00 0.  1.
        -11    1    4    4    0    0 -0.91157021824E-01 -0.82969592263E-02  0.40486829603E-01  0.10008939331E+00  0.51100000000E-03 0.  1.
         11    1    4    4    0    0 -0.29879981446E-01 -0.78436531684E-02  0.28152994174E-02  0.31024558305E-01  0.51100000000E-03 0. -1.
</event>
<event>
 8    1  0.1196210E+005  0.1043930E+01  0.7957747E-01            NaN
         13   -1    0    0    0    0  0.00000000000E+00  0.00000000000E+00  0.74505805969E-08  0.10566000000E+00  0.10566000000E+00 0. -1.
     999900   -1    0    0    0    0 -0.00000000000E+00 -0.00000000000E+00 -0.74505805969E-08  0.93827000000E+00  0.93827000000E+00 0.  1.
     999902    2    1    2    0    0  0.32535173137E-02  0.13988424030E-01 -0.19334759748E-01  0.10198448528E+01  0.10195604099E+01 0.  0.
     999903    2    3    3    0    0 -0.30967818558E-01  0.10049049374E+00 -0.78974881294E-01  0.13293411771E+00  0.19419131248E-01 0.  0.
         14    1    1    2    0    0 -0.32535173137E-02 -0.13988424030E-01  0.19334759748E-01  0.24085147213E-01  0.00000000000E+00 0. -1.
     999901    1    3    3    0    0  0.34221335871E-01 -0.86502069710E-01  0.59640121546E-01  0.88691073507E+00  0.88000000000E+00 0.  1.
        -11    1    4    4    0    0 -0.10312459279E-02  0.22427356846E-02  0.10494461997E-02  0.27305292236E-02  0.51100000000E-03 0. -1.
         11    1    4    4    0    0 -0.29936572630E-01  0.98247758055E-01 -0.80024327494E-01  0.13020358849E+00  0.51100000000E-03 0.  1.
</event>
<event>
 8    1  0.1196210E+005  0.1043930E+01  0.7957747E-01            NaN
         13   -1    0    0    0    0  0.00000000000E+00  0.00000000000E+00  0.74505805969E-08  0.10566000000E+00  0.10566000000E+00 0.  1.
     999900   -1    0    0    0    0 -0.00000000000E+00 -0.00000000000E+00 -0.74505805969E-08  0.93827000000E+00  0.93827000000E+00 0.  1.
     999902    2    1    2    0    0 -0.44438381504E-02 -0.14212261766E-01 -0.19927403011E-01  0.10190535559E+01  0.10187498772E+01 0.  0.
     999903    2    3    3    0    0  0.72786274828E-01 -0.10415302078E+00 -0.28371126178E-01  0.13106418265E+00  0.15073341780E-01 0.  0.
         14    1    1    2    0    0  0.44438381504E-02  0.14212261766E-01  0.19927403011E-01  0.24876444135E-01  0.00000000000E+00 0.  1.
     999901    1    3    3    0    0 -0.77230112978E-01  0.89940759013E-01  0.84437231664E-02  0.88798937322E+00  0.88000000000E+00 0. -1.
        -11    1    4    4    0    0  0.58710228343E-01 -0.76551544964E-01 -0.16472045247E-01  0.97870421191E-01  0.51100000000E-03 0.  1.
         11    1    4    4    0    0  0.14076046485E-01 -0.27601475815E-01 -0.11899080931E-01  0.33193761459E-01  0.51100000000E-03 0. -1.
</event>
<event>
 8    1  0.1196210E+005  0.1043930E+01  0.7957747E-01            NaN
         13   -1    0    0    0    0  0.00000000000E+00  0.00000000000E+00  0.74505805969E-08  0.10566000000E+00  0.10566000000E+00 0.  1.
     999900   -1    0    0    0    0 -0.00000000000E+00 -0.00000000000E+00 -0.74505805969E-08  0.93827000000E+00  0.93827000000E+00 0.  1.
     999902    2    1    2    0    0  0.13014548726E-01  0.38175732700E-02  0.18256549518E-01  0.10211867825E+01  0.10209334899E+01 0.  0.
     999903    2    3    3    0    0  0.92666609585E-01  0.24313815468E-01 -0.87244266492E-01  0.13107725609E+00  0.19784409848E-01 0.  0.
         14    1    1    2    0    0 -0.13014548726E-01 -0.38175732700E-02 -0.18256549518E-01  0.22743217550E-01  0.00000000000E+00 0. -1.
     999901    1    3    3    0    0 -0.79652060859E-01 -0.20496242198E-01  0.10550081601E+00  0.89010952636E+00  0.88000000000E+00 0. -1.
        -11    1    4    4    0    0  0.19742826467E-01  0.38149732436E-02 -0.30041352636E-01  0.36153522747E-01  0.51100000000E-03 0.  1.
         11    1    4    4    0    0  0.72923783118E-01  0.20498842224E-01 -0.57202913855E-01  0.94923733341E-01  0.51100000000E-03 0. -1.
</event>
<event>
 8    1  0.1196210E+005  0.1043930E+01  0.7957747E-01            NaN
         13   -1    0    0    0    0  0.00000000000E+00  0.00000000000E+00  0.74505805969E-08  0.10566000000E+00  0.10566000000E+00 0. -1.
     999900   -1    0    0    0    0 -0.00000000000E+00 -0.00000000000E+00 -0.74505805969E-08  0.93827000000E+00  0.93827000000E+00 0.  1.
     999902    2    1    2    0    0  0.15463283010E-01  0.15492578396E-01  0.77708941543E-02  0.10207024323E+01  0.10204381095E+01 0.  0.
     999903    2    3    3    0    0  0.11082624386E+00  0.72231899068E-01 -0.38623213413E-02  0.13365746356E+00  0.18694824610E-01 0.  0.
         14    1    1    2    0    0 -0.15463283010E-01 -0.15492578396E-01 -0.77708941543E-02  0.23227567732E-01  0.00000000000E+00 0.  1.
     999901    1    3    3    0    0 -0.95362960850E-01 -0.56739320672E-01  0.11633215496E-01  0.88704496871E+00  0.88000000000E+00 0.  1.
        -11    1    4    4    0    0  0.47073993606E-01  0.21198182339E-01  0.29217271817E-02  0.51711907905E-01  0.51100000000E-03 0.  1.
         11    1    4    4    0    0  0.63752250254E-01  0.51033716730E-01 -0.67840485231E-02  0.81945555652E-01  0.51100000000E-03 0. -1.
</event>
<event>
 8    1  0.1196210E+005  0.1043930E+01  0.7957747E-01            NaN
         13   -1    0    0    0    0  0.00000000000E+00  0.00000000000E+00  0.74505805969E-08  0.10566000000E+00  0.10566000000E+00 0. -1.
     999900   -1    0    0    0    0 -0.00000000000E+00 -0.00000000000E+00 -0.74505805969E-08  0.93827000000E+00  0.93827000000E+00 0.  1.
     999902    2    1    2    0    0 -0.58590975478E-02  0.18167610503E-01 -0.13828168114E-01  0.10203586333E+01  0.10200863352E+01 0.  0.
     999903    2    3    3    0    0 -0.50877069086E-01 -0.64923354427E-01  0.96274299443E-01  0.12847675793E+00  0.20833110358E-01 0.  0.
         14    1    1    2    0    0  0.58590975478E-02 -0.18167610503E-01  0.13828168114E-01  0.23571366716E-01  0.00000000000E+00 0. -1.
     999901    1    3    3    0    0  0.45017971539E-01  0.83090964930E-01 -0.11010246756E+00  0.89188187535E+00  0.88000000000E+00 0.  1.
        -11    1    4    4    0    0 -0.13089403827E-01 -0.18031506515E-01  0.13314256236E-01  0.25961476457E-01  0.51100000000E-03 0.  1.
         11    1    4    4    0    0 -0.37787665260E-01 -0.46891847913E-01  0.82960043207E-01  0.10251528148E+00  0.51100000000E-03 0. -1.
</event>
<event>
 8    1  0.1196210E+005  0.1043930E+01  0.7957747E-01            NaN
         13   -1    0    0    0    0  0.00000000000E+00  0.00000000000E+00  0.74505805969E-08  0.10566000000E+00  0.10566000000E+00 0. -1.
     999900   -1    0    0    0    0 -0.00000000000E+00 -0.00000000000E+00 -0.74505805969E-08  0.93827000000E+00  0.93827000000E+00 0. -1.
     999902    2    1    2    0    0  0.58761410420E-02 -0.87182779783E-02  0.15380328874E-01  0.10252995969E+01  0.10251303192E+01 0.  0.
     999903    2    3    3    0    0  0.59604637877E-01  0.73107820449E-01  0.96201821991E-01  0.13619084340E+00  0.19891933127E-01 0.  0.
         14    1    1    2    0    0 -0.58761410420E-02  0.87182779783E-02 -0.15380328874E-01  0.18630403128E-01  0.00000000000E+00 0.  1.
     999901    1    3    3    0    0 -0.53728496835E-01 -0.81826098428E-01 -0.80821493117E-01  0.88910875347E+00  0.88000000000E+00 0. -1.
        -11    1    4    4    0    0  0.16628806423E-01  0.35001983233E-01  0.43178257862E-01  0.58019644141E-01  0.51100000000E-03 0. -1.
         11    1    4    4    0    0  0.42975831454E-01  0.38105837216E-01  0.53023564129E-01  0.78171199256E-01  0.51100000000E-03 0.  1.
</event>
<event>
 8    1  0.1196210E+005  0.1043930E+01  0.7957747E-01            NaN
         13   -1    0    0    0    0  0.00000000000E+00  0.00000000000E+00  0.74505805969E-08  0.10566000000E+00  0.10566000000E+00 0.  1.
     999900   -1    0    0    0    0 -0.00000000000E+00 -0.00000000000E+00 -0.74505805969E-08  0.93827000000E+00  0.93827000000E+00 0. -1.
     999902    2    1    2    0    0  0.25490802401E-01  0.46408354283E-02 -0.24878538863E-02  0.10179010204E+01  0.10175681695E+01 0.  0.
     999903    2    3    3    0    0 -0.96149030705E-01  0.31772513332E-01  0.72376138951E-01  0.12597221477E+00  0.19405274939E-01 0.  0.
         14    1    1    2    0    0 -0.25490802401E-01 -0.46408354283E-02  0.24878538863E-02  0.26028979570E-01  0.00000000000E+00 0. -1.
     999901    1    3    3    0    0  0.12163983311E+00 -0.27131677903E-01 -0.74863992838E-01  0.89192880566E+00  0.88000000000E+00 0. -1.
        -11    1    4    4    0    0 -0.26652766935E-01  0.84559090322E-02  0.31178524227E-01  0.41883575263E-01  0.51100000000E-03 0.  1.
         11    1    4    4    0    0 -0.69496263770E-01  0.23316604299E-01  0.41197614725E-01  0.84088639506E-01  0.51100000000E-03 0. -1.
</event>
<event>
 8    1  0.1196210E+005  0.1043930E+01  0.7957747E-01            NaN
         13   -1    0    0    0    0  0.00000000000E+00  0.00000000000E+00  0.74505805969E-08  0.10566000000E+00  0.10566000000E+00 0. -1.
     999900   -1    0    0    0    0 -0.00000000000E+00 -0.00000000000E+00 -0.74505805969E-08  0.93827000000E+00  0.93827000000E+00 0. -1.
     999902    2    1    2    0    0 -0.25199108411E-02 -0.94362606740E-02 -0.20991680280E-01  0.10207773844E+01  0.10205147843E+01 0.  0.
     999903    2    3    3    0    0 -0.22424011330E-01  0.48803608787E-01  0.11524320855E+00  0.12816996763E+00  0.16183787271E-01 0.  0.
         14    1    1    2    0    0  0.25199108411E-02  0.94362606740E-02  0.20991680280E-01  0.23152615557E-01  0.00000000000E+00 0. -1.
     999901    1    3    3    0    0  0.19904100489E-01 -0.58239869461E-01 -0.13623488883E+00  0.89260741681E+00  0.88000000000E+00 0. -1.
        -11    1    4    4    0    0 -0.10830282879E-02  0.19339475072E-01  0.46898596869E-01  0.50743745975E-01  0.51100000000E-03 0.  1.
         11    1    4    4    0    0 -0.21340983042E-01  0.29464133716E-01  0.68344611684E-01  0.77426221657E-01  0.51100000000E-03 0. -1.
</event>
<event>
 8    1  0.1196210E+005  0.1043930E+01  0.7957747E-01            NaN
         13   -1    0    0    0    0  0.00000000000E+00  0.00000000000E+00  0.74505805969E-08  0.10566000000E+00  0.10566000000E+00 0. -1.
     999900   -1    0    0    0    0 -0.00000000000E+00 -0.00000000000E+00 -0.74505805969E-08  0.93827000000E+00  0.93827000000E+00 0.  1.
     999902    2    1    2    0    0  0.78450350474E-02  0.15939847165E-01  0.15867162364E-01  0.10201100474E+01  0.10198319070E+01 0.  0.
     999903    2    3    3    0    0  0.14882967956E-01  0.21023141826E-01 -0.12473323439E+00  0.12890645448E+00  0.19875085359E-01 0.  0.
         14    1    1    2    0    0 -0.78450350474E-02 -0.15939847165E-01 -0.15867162364E-01  0.23819952645E-01  0.00000000000E+00 0.  1.
     999901    1    3    3    0    0 -0.70379329087E-02 -0.50832946610E-02  0.14060039675E+00  0.89120359287E+00  0.88000000000E+00 0. -1.
        -11    1    4    4    0    0 -0.64496908540E-03  0.71709723195E-02 -0.69626527495E-01  0.69999666293E-01  0.51100000000E-03 0. -1.
         11    1    4    4    0    0  0.15527937041E-01  0.13852169506E-01 -0.55106706895E-01  0.58906788188E-01  0.51100000000E-03 0.  1.
</event>
<event>
 7    1  0.1196210E+005  0.1043930E+01  0.7957747E-01            NaN
         13   -1    0    0    0    0  0.00000000000E+00  0.00000000000E+00  0.74505805969E-08  0.10566000000E+00  0.10566000000E+00 0.  1.
     999900   -1    0    0    0    0 -0.00000000000E+00 -0.00000000000E+00 -0.74505805969E-08  0.93827000000E+00  0.93827000000E+00 0.  1.
     999903    2    1    2    0    0  0.38688397711E-01 -0.50984461494E-01 -0.31537391282E-01  0.75292156424E-01  0.24043592469E-01 0.  0.
         14    1    1    2    0    0  0.45321162831E-01 -0.58281513568E-01 -0.19779103818E-01  0.76432686542E-01  0.00000000000E+00 0. -1.
     999901    1    1    2    0    0 -0.84009560542E-01  0.10926597506E+00  0.51316495100E-01  0.89220515703E+00  0.88000000000E+00 0. -1.
        -11    1    3    3    0    0  0.10535331027E-01 -0.25001631969E-01 -0.25636910747E-02  0.27256346672E-01  0.51100000000E-03 0. -1.
         11    1    3    3    0    0  0.28153066684E-01 -0.25982829525E-01 -0.28973700208E-01  0.48035809752E-01  0.51100000000E-03 0.  1.
</event>
<event>
 7    1  0.1196210E+005  0.1043930E+01  0.7957747E-01            NaN
         13   -1    0    0    0    0  0.00000000000E+00  0.00000000000E+00  0.74505805969E-08  0.10566000000E+00  0.10566000000E+00 0.  1.
     999900   -1    0    0    0    0 -0.00000000000E+00 -0.00000000000E+00 -0.74505805969E-08  0.93827000000E+00  0.93827000000E+00 0. -1.
     999903    2    1    2    0    0 -0.84101336871E-01 -0.26910498940E-02  0.68433062674E-01  0.11108166829E+00  0.23995340166E-01 0.  0.
         14    1    1    2    0    0 -0.16947016828E-01  0.23513299951E-01  0.29583878462E-01  0.41415969369E-01  0.00000000000E+00 0.  1.
     999901    1    1    2    0    0  0.10104835370E+00 -0.20822250057E-01 -0.98016941136E-01  0.89143236234E+00  0.88000000000E+00 0.  1.
        -11    1    3    3    0    0 -0.60277895449E-01  0.88277429107E-02  0.45127647279E-01  0.75816353082E-01  0.51100000000E-03 0. -1.
         11    1    3    3    0    0 -0.23823441422E-01 -0.11518792805E-01  0.23305415395E-01  0.35265315206E-01  0.51100000000E-03 0.  1.
</event>
<event>
 8    1  0.1196210E+005  0.1043930E+01  0.7957747E-01            NaN
         13   -1    0    0    0    0  0.00000000000E+00  0.00000000000E+00  0.74505805969E-08  0.10566000000E+00  0.10566000000E+00 0.  1.
     999900   -1    0    0    0    0 -0.00000000000E+00 -0.00000000000E+00 -0.74505805969E-08  0.93827000000E+00  0.93827000000E+00 0.  1.
     999902    2    1    2    0    0 -0.44688281376E-02  0.20138506312E-01 -0.94884425048E-02  0.10212240448E+01  0.10209715908E+01 0.  0.
     999903    2    3    3    0    0 -0.17498508344E-01  0.12173110702E+00  0.47868100273E-01  0.13342868430E+00  0.19677361642E-01 0.  0.
         14    1    1    2    0    0  0.44688281376E-02 -0.20138506312E-01  0.94884425048E-02  0.22705955223E-01  0.00000000000E+00 0.  1.
     999901    1    3    3    0    0  0.13029680206E-01 -0.10159260070E+00 -0.57356542777E-01  0.88779536048E+00  0.88000000000E+00 0.  1.
        -11    1    4    4    0    0 -0.16981537973E-01  0.68269241078E-01  0.20021668998E-01  0.73144994770E-01  0.51100000000E-03 0.  1.
         11    1    4    4    0    0 -0.51697037024E-03  0.53461865937E-01  0.27846431274E-01  0.60283689532E-01  0.51100000000E-03 0. -1.
</event>
<event>
 8    1  0.1196210E+005  0.1043930E+01  0.7957747E-01            NaN
         13   -1    0    0    0    0  0.00000000000E+00  0.00000000000E+00  0.74505805969E-08  0.10566000000E+00  0.10566000000E+00 0.  1.
     999900   -1    0    0    0    0 -0.00000000000E+00 -0.00000000000E+00 -0.74505805969E-08  0.93827000000E+00  0.93827000000E+00 0. -1.
     999902    2    1    2    0    0 -0.79968643300E-02  0.68566253425E-02  0.20147568323E-01  0.10211948365E+01  0.10209417253E+01 0.  0.
     999903    2    3    3    0    0 -0.42072886339E-01 -0.83798721964E-01  0.92010867653E-01  0.13296969552E+00  0.20556911068E-01 0.  0.
         14    1    1    2    0    0  0.79968643300E-02 -0.68566253425E-02 -0.20147568323E-01  0.22735163504E-01  0.00000000000E+00 0. -1.
     999901    1    3    3    0    0  0.34076022009E-01  0.90655347307E-01 -0.71863299330E-01  0.88822514098E+00  0.88000000000E+00 0.  1.
        -11    1    4    4    0    0 -0.37081372059E-01 -0.56239132106E-01  0.71604392489E-01  0.98312350590E-01  0.51100000000E-03 0.  1.
         11    1    4    4    0    0 -0.49915142800E-02 -0.27559589859E-01  0.20406475164E-01  0.34657344930E-01  0.51100000000E-03 0. -1.
</event>
<event>
 8    1  0.1196210E+005  0.1043930E+01  0.7957747E-01            NaN
         13   -1    0    0    0    0  0.00000000000E+00  0.00000000000E+00  0.74505805969E-08  0.10566000000E+00  0.10566000000E+00 0.  1.
     999900   -1    0    0    0    0 -0.00000000000E+00 -0.00000000000E+00 -0.74505805969E-08  0.93827000000E+00  0.93827000000E+00 0.  1.
     999902    2    1    2    0    0  0.93626091101E-02  0.31706360156E-02  0.21790559299E-01  0.10200021949E+01  0.10197215001E+01 0.  0.
     999903    2    3    3    0    0  0.10568090697E+00  0.74707793094E-01  0.21697306671E-01  0.13186099665E+00  0.12916689720E-01 0.  0.
         14    1    1    2    0    0 -0.93626091101E-02 -0.31706360156E-02 -0.21790559299E-01  0.23927805095E-01  0.00000000000E+00 0. -1.
     999901    1    3    3    0    0 -0.96318297860E-01 -0.71537157078E-01  0.93252628303E-04  0.88814119826E+00  0.88000000000E+00 0.  1.
        -11    1    4    4    0    0  0.56335382434E-01  0.46971697163E-01  0.14866508633E-01  0.74841765400E-01  0.51100000000E-03 0.  1.
         11    1    4    4    0    0  0.49345524537E-01  0.27736095931E-01  0.68307980378E-02  0.57019231248E-01  0.51100000000E-03 0. -1.
</event>
<event>
 8    1  0.1196210E+005  0.1043930E+01  0.7957747E-01            NaN
         13   -1    0    0    0    0  0.00000000000E+00  0.00000000000E+00  0.74505805969E-08  0.10566000000E+00  0.10566000000E+00 0. -1.
     999900   -1    0    0    0    0 -0.00000000000E+00 -0.00000000000E+00 -0.74505805969E-08  0.93827000000E+00  0.93827000000E+00 0. -1.
     999902    2    1    2    0    0 -0.83821557011E-02  0.21867931392E-01 -0.39773458280E-02  0.10201752902E+01  0.10198986893E+01 0.  0.
     999903    2    3    3    0    0  0.12380052238E+00  0.14287621670E-01 -0.31287630050E-01  0.12985199325E+00  0.18759501149E-01 0.  0.
         14    1    1    2    0    0  0.83821557011E-02 -0.21867931392E-01  0.39773458280E-02  0.23754709794E-01  0.00000000000E+00 0.  1.
     999901    1    3    3    0    0 -0.13218267808E+00  0.75803097225E-02  0.27310284222E-01  0.89032329696E+00  0.88000000000E+00 0. -1.
        -11    1    4    4    0    0  0.77415662579E-01  0.10618380622E-02 -0.14450422512E-01  0.78761590540E-01  0.51100000000E-03 0.  1.
         11    1    4    4    0    0  0.46384859796E-01  0.13225783607E-01 -0.16837207538E-01  0.51090402710E-01  0.51100000000E-03 0. -1.
</event>
<event>
 8    1  0.1196210E+005  0.1043930E+01  0.7957747E-01            NaN
         13   -1    0    0    0    0  0.00000000000E+00  0.00000000000E+00  0.74505805969E-08  0.10566000000E+00  0.10566000000E+00 0.  1.
     999900   -1    0    0    0    0 -0.00000000000E+00 -0.00000000000E+00 -0.74505805969E-08  0.93827000000E+00  0.93827000000E+00 0. -1.
     999902    2    1    2    0    0  0.38002814902E-02  0.23026565195E-01  0.24927232735E-02  0.10204591987E+01  0.10201892460E+01 0.  0.
     999903    2    3    3    0    0  0.85440604439E-01  0.91234172131E-01  0.41439588529E-01  0.13319696110E+00  0.20010494657E-01 0.  0.
         14    1    1    2    0    0 -0.38002814902E-02 -0.23026565195E-01 -0.24927232735E-02  0.23470801294E-01  0.00000000000E+00 0.  1.
     999901    1    3    3    0    0 -0.81640322949E-01 -0.68207606936E-01 -0.38946865255E-01  0.88726223761E+00  0.88000000000E+00 0. -1.
        -11    1    4    4    0    0  0.15402099520E-01  0.28850303111E-01  0.12852996854E-01  0.35142926861E-01  0.51100000000E-03 0.  1.
         11    1    4    4    0    0  0.70038504919E-01  0.62383869019E-01  0.28586591675E-01  0.98054034235E-01  0.51100000000E-03 0. -1.
</event>
<event>
 8    1  0.1196210E+005  0.1043930E+01  0.7957747E-01            NaN
         13   -1    0    0    0    0  0.00000000000E+00  0.00000000000E+00  0.74505805969E-08  0.10566000000E+00  0.10566000000E+00 0. -1.
     999900   -1    0    0    0    0 -0.00000000000E+00 -0.00000000000E+00 -0.74505805969E-08  0.93827000000E+00  0.93827000000E+00 0.  1.
     999902    2    1    2    0    0  0.16401823003E-01  0.11933742503E-01 -0.10778930742E-01  0.10209600336E+01  0.10207016072E+01 0.  0.
     999903    2    3    3    0    0 -0.25340933005E-01  0.39275107987E-01 -0.12197385919E+00  0.13256016865E+00  0.22580500326E-01 0.  0.
         14    1    1    2    0    0 -0.16401823003E-01 -0.11933742503E-01  0.10778930742E-01  0.22969966388E-01  0.00000000000E+00 0.  1.
     999901    1    3    3    0    0  0.41742756007E-01 -0.27341365484E-01  0.11119492845E+00  0.88839986496E+00  0.88000000000E+00 0. -1.
        -11    1    4    4    0    0 -0.67979238938E-02  0.47032404280E-03 -0.33448486970E-01  0.34139352301E-01  0.51100000000E-03 0.  1.
         11    1    4    4    0    0 -0.18543009111E-01  0.38804783945E-01 -0.88525372219E-01  0.98420816352E-01  0.51100000000E-03 0. -1.
</event>
<event>
 8    1  0.1196210E+005  0.1043930E+01  0.7957747E-01            NaN
         13   -1    0    0    0    0  0.00000000000E+00  0.00000000000E+00  0.74505805969E-08  0.10566000000E+00  0.10566000000E+00 0.  1.
     999900   -1    0    0    0    0 -0.00000000000E+00 -0.00000000000E+00 -0.74505805969E-08  0.93827000000E+00  0.93827000000E+00 0. -1.
     999902    2    1    2    0    0  0.11841161928E-01 -0.12518889797E-02  0.20384846807E-01  0.10203223250E+01  0.10200491775E+01 0.  0.
     999903    2    3    3    0    0 -0.10135173405E+00 -0.75066861421E-01 -0.21520938315E-01  0.12902137876E+00  0.16617993646E-01 0.  0.
         14    1    1    2    0    0 -0.11841161928E-01  0.12518889797E-02 -0.20384846807E-01  0.23607675047E-01  0.00000000000E+00 0. -1.
     999901    1    3    3    0    0  0.11319289598E+00  0.73814972441E-01  0.41905785121E-01  0.89130094619E+00  0.88000000000E+00 0.  1.
        -11    1    4    4    0    0 -0.76186553678E-01 -0.64466465895E-01 -0.18985829740E-01  0.10159251468E+00  0.51100000000E-03 0.  1.
         11    1    4    4    0    0 -0.25165180372E-01 -0.10600395525E-01 -0.25351085745E-02  0.27428864084E-01  0.51100000000E-03 0. -1.
</event>
<event>
 8    1  0.1196210E+005  0.1043930E+01  0.7957747E-01            NaN
         13   -1    0    0    0    0  0.00000000000E+00  0.00000000000E+00  0.74505805969E-08  0.10566000000E+00  0.10566000000E+00 0.  1.
     999900   -1    0    0    0    0 -0.00000000000E+00 -0.00000000000E+00 -0.74505805969E-08  0.93827000000E+00  0.93827000000E+00 0. -1.
     999902    2    1    2    0    0  0.12992865810E-01  0.19277756043E-01 -0.60319761516E-02  0.10199126901E+01  0.10196298663E+01 0.  0.
     999903    2    3    3    0    0  0.91425940860E-01 -0.83126854945E-01 -0.34984152280E-01  0.13003815952E+00  0.20426829074E-01 0.  0.
         14    1    1    2    0    0 -0.12992865810E-01 -0.19277756043E-01  0.60319761516E-02  0.24017309931E-01  0.00000000000E+00 0.  1.
     999901    1    3    3    0    0 -0.78433075050E-01  0.10240461099E+00  0.28952176128E-01  0.88987453055E+00  0.88000000000E+00 0.  1.
        -11    1    4    4    0    0  0.26422093437E-01 -0.23839278694E-01 -0.19888827959E-01  0.40770882120E-01  0.51100000000E-03 0. -1.
         11    1    4    4    0    0  0.65003847424E-01 -0.59287576250E-01 -0.15095324321E-01  0.89267277403E-01  0.51100000000E-03 0.  1.
</event>
<event>
 8    1  0.1196210E+005  0.1043930E+01  0.7957747E-01            NaN
         13   -1    0    0    0    0  0.00000000000E+00  0.00000000000E+00  0.74505805969E-08  0.10566000000E+00  0.10566000000E+00 0. -1.
     999900   -1    0    0    0    0 -0.00000000000E+00 -0.00000000000E+00 -0.74505805969E-08  0.93827000000E+00  0.93827000000E+00 0.  1.
     999902    2    1    2    0    0  0.14526293088E-01 -0.14397655968E-01 -0.16446629471E-01  0.10176850517E+01  0.10173465817E+01 0.  0.
     999903    2    3    3    0    0  0.10350973703E+00 -0.30697913600E-01  0.67879451016E-01  0.12903740529E+00  0.19657175118E-01 0.  0.
         14    1    1    2    0    0 -0.14526293088E-01  0.14397655968E-01  0.16446629471E-01  0.26244948261E-01  0.00000000000E+00 0. -1.
     999901    1    3    3    0    0 -0.88983443941E-01  0.16300257632E-01 -0.84326080487E-01  0.88864764645E+00  0.88000000000E+00 0.  1.
        -11    1    4    4    0    0  0.67015659580E-01 -0.16577108573E-01  0.53516328789E-01  0.87350774042E-01  0.51100000000E-03 0.  1.
         11    1    4    4    0    0  0.36494077449E-01 -0.14120805027E-01  0.14363122228E-01  0.41686631245E-01  0.51100000000E-03 0. -1.
</event>
<event>
 8    1  0.1196210E+005  0.1043930E+01  0.7957747E-01            NaN
         13   -1    0    0    0    0  0.00000000000E+00  0.00000000000E+00  0.74505805969E-08  0.10566000000E+00  0.10566000000E+00 0. -1.
     999900   -1    0    0    0    0 -0.00000000000E+00 -0.00000000000E+00 -0.74505805969E-08  0.93827000000E+00  0.93827000000E+00 0. -1.
     999902    2    1    2    0    0 -0.49074632721E-02  0.15047524203E-01  0.16391143134E-01  0.10211444617E+01  0.10208902150E+01 0.  0.
     999903    2    3    3    0    0 -0.79622400317E-01 -0.10090085448E+00  0.95773192339E-02  0.13037357283E+00  0.19617196065E-01 0.  0.
         14    1    1    2    0    0  0.49074632721E-02 -0.15047524203E-01 -0.16391143134E-01  0.22785538257E-01  0.00000000000E+00 0.  1.
     999901    1    3    3    0    0  0.74714937045E-01  0.11594837869E+00  0.68138239005E-02  0.89077088891E+00  0.88000000000E+00 0. -1.
        -11    1    4    4    0    0 -0.20397740120E-01 -0.20174637241E-01 -0.52152052984E-02  0.29164075112E-01  0.51100000000E-03 0. -1.
         11    1    4    4    0    0 -0.59224660197E-01 -0.80726217241E-01  0.14792524532E-01  0.10120949772E+00  0.51100000000E-03 0.  1.
</event>
<event>
 8    1  0.1196210E+005  0.1043930E+01  0.7957747E-01            NaN
         13   -1    0    0    0    0  0.00000000000E+00  0.00000000000E+00  0.74505805969E-08  0.10566000000E+00  0.10566000000E+00 0.  1.
     999900   -1    0    0    0    0 -0.00000000000E+00 -0.00000000000E+00 -0.74505805969E-08  0.93827000000E+00  0.93827000000E+00 0. -1.
     999902    2    1    2    0    0 -0.67302495222E-03  0.20966159531E-01 -0.97696718426E-02  0.10207895744E+01  0.10205272539E+01 0.  0.
     999903    2    3    3    0    0  0.25719418196E-01  0.10196578100E+00  0.77718803734E-01  0.13235739744E+00  0.20488026679E-01 0.  0.
         14    1    1    2    0    0  0.67302495222E-03 -0.20966159531E-01  0.97696718426E-02  0.23140425579E-01  0.00000000000E+00 0. -1.
     999901    1    3    3    0    0 -0.26392443148E-01 -0.80999621466E-01 -0.87488475577E-01  0.88843217698E+00  0.88000000000E+00 0.  1.
        -11    1    4    4    0    0  0.15150982900E-01  0.37415196799E-01  0.40092516907E-01  0.56895696386E-01  0.51100000000E-03 0.  1.
         11    1    4    4    0    0  0.10568435296E-01  0.64550584197E-01  0.37626286828E-01  0.75461701056E-01  0.51100000000E-03 0. -1.
</event>
<event>
 8    1  0.1196210E+005  0.1043930E+01  0.7957747E-01            NaN
         13   -1    0    0    0    0  0.00000000000E+00  0.00000000000E+00  0.74505805969E-08  0.10566000000E+00  0.10566000000E+00 0.  1.
     999900   -1    0    0    0    0 -0.00000000000E+00 -0.00000000000E+00 -0.74505805969E-08  0.93827000000E+00  0.93827000000E+00 0.  1.
     999902    2    1    2    0    0 -0.78708912999E-02  0.22029014851E-01  0.19596586631E-02  0.10204551478E+01  0.10201851008E+01 0.  0.
     999903    2    3    3    0    0 -0.23696098868E-02  0.76525102891E-01  0.10682858005E+00  0.13253759620E+00  0.17092760676E-01 0.  0.
         14    1    1    2    0    0  0.78708912999E-02 -0.22029014851E-01 -0.19596586631E-02  0.23474852230E-01  0.00000000000E+00 0. -1.
     999901    1    3    3    0    0 -0.55012814131E-02 -0.54496088040E-01 -0.10486892139E+00  0.88791755157E+00  0.88000000000E+00 0.  1.
        -11    1    4    4    0    0 -0.27370507390E-04  0.16362353658E-01  0.12359426857E-01  0.20512043282E-01  0.51100000000E-03 0. -1.
         11    1    4    4    0    0 -0.23422393794E-02  0.60162749233E-01  0.94469153195E-01  0.11202555292E+00  0.51100000000E-03 0.  1.
</event>
<event>
 8    1  0.1196210E+005  0.1043930E+01  0.7957747E-01            NaN
         13   -1    0    0    0    0  0.00000000000E+00  0.00000000000E+00  0.74505805969E-08  0.10566000000E+00  0.10566000000E+00 0.  1.
     999900   -1    0    0    0    0 -0.00000000000E+00 -0.00000000000E+00 -0.74505805969E-08  0.93827000000E+00  0.93827000000E+00 0.  1.
     999902    2    1    2    0    0  0.15846567936E-01 -0.19881815564E-01  0.10751292401E-01  0.10163258229E+01  0.10159508786E+01 0.  0.
     999903    2    3    3    0    0 -0.59148376137E-01  0.93064979883E-01  0.54630688998E-01  0.12486263146E+00  0.21131580012E-01 0.  0.
         14    1    1    2    0    0 -0.15846567936E-01  0.19881815564E-01 -0.10751292401E-01  0.27604177107E-01  0.00000000000E+00 0. -1.
     999901    1    3    3    0    0  0.74994944073E-01 -0.11294679545E+00 -0.43879396597E-01  0.89146319144E+00  0.88000000000E+00 0.  1.
        -11    1    4    4    0    0 -0.28431358582E-01  0.26560573123E-01  0.21584243346E-01  0.44496593996E-01  0.51100000000E-03 0. -1.
         11    1    4    4    0    0 -0.30717017555E-01  0.66504406760E-01  0.33046445652E-01  0.80366037461E-01  0.51100000000E-03 0.  1.
</event>
<event>
 8    1  0.1196210E+005  0.1043930E+01  0.7957747E-01            NaN
         13   -1    0    0    0    0  0.00000000000E+00  0.00000000000E+00  0.74505805969E-08  0.10566000000E+00  0.10566000000E+00 0. -1.
     999900   -1    0    0    0    0 -0.00000000000E+00 -0.00000000000E+00 -0.74505805969E-08  0.93827000000E+00  0.93827000000E+00 0.  1.
     999902    2    1    2    0    0 -0.13939720498E-01 -0.11456488348E-01  0.14720473712E-01  0.10206435387E+01  0.10203778584E+01 0.  0.
     999903    2    3    3    0    0 -0.59950447280E-01 -0.74385048202E-01  0.91683136052E-01  0.13385143116E+00  0.19575920492E-01 0.  0.
         14    1    1    2    0    0  0.13939720498E-01  0.11456488348E-01 -0.14720473712E-01  0.23286461284E-01  0.00000000000E+00 0.  1.
     999901    1    3    3    0    0  0.46010726783E-01  0.62928559854E-01 -0.76962662340E-01  0.88679210755E+00  0.88000000000E+00 0. -1.
        -11    1    4    4    0    0 -0.53075990930E-01 -0.52919069732E-01  0.69217846114E-01  0.10202382122E+00  0.51100000000E-03 0.  1.
         11    1    4    4    0    0 -0.68744563506E-02 -0.21465978469E-01  0.22465289938E-01  0.31827609944E-01  0.51100000000E-03 0. -1.
</event>
<event>
 8    1  0.1196210E+005  0.1043930E+01  0.7957747E-01            NaN
         13   -1    0    0    0    0  0.00000000000E+00  0.00000000000E+00  0.74505805969E-08  0.10566000000E+00  0.10566000000E+00 0.  1.
     999900   -1    0    0    0    0 -0.00000000000E+00 -0.00000000000E+00 -0.74505805969E-08  0.93827000000E+00  0.93827000000E+00 0. -1.
     999902    2    1    2    0    0 -0.13729493150E-01 -0.14351681958E-01  0.13276572089E-01  0.10200398949E+01  0.10197600943E+01 0.  0.
     999903    2    3    3    0    0 -0.30835356392E-01  0.96046137054E-02  0.12675322538E+00  0.13226544969E+00  0.19613801994E-01 0.  0.
         14    1    1    2    0    0  0.13729493150E-01  0.14351681958E-01 -0.13276572089E-01  0.23890105141E-01  0.00000000000E+00 0. -1.
     999901    1    3    3    0    0  0.17105863241E-01 -0.23956295664E-01 -0.11347665329E+00  0.88777444517E+00  0.88000000000E+00 0. -1.
        -11    1    4    4    0    0 -0.24894369058E-01  0.88435879083E-03  0.10702471171E+00  0.10988658580E+00  0.51100000000E-03 0. -1.
         11    1    4    4    0    0 -0.59409873340E-02  0.87202549145E-02  0.19728513672E-01  0.22378863889E-01  0.51100000000E-03 0.  1.
</event>
<event>
 7    1  0.1196210E+005  0.1043930E+01  0.7957747E-01            NaN
         13   -1    0    0    0    0  0.00000000000E+00  0.00000000000E+00  0.74505805969E-08  0.10566000000E+00  0.10566000000E+00 0. -1.
     999900   -1    0    0    0    0 -0.00000000000E+00 -0.00000000000E+00 -0.74505805969E-08  0.93827000000E+00  0.93827000000E+00 0.  1.
     999903    2    1    2    0    0 -0.68200644945E-02  0.71986512210E-01  0.13843909991E-01  0.76270720452E-01  0.19924801995E-01 0.  0.
         14    1    1    2    0    0 -0.80298085578E-01 -0.12438986941E-01 -0.11170697890E-02  0.81263514498E-01  0.00000000000E+00 0.  1.
     999901    1    1    2    0    0  0.87118150072E-01 -0.59547525269E-01 -0.12726840202E-01  0.88639576505E+00  0.88000000000E+00 0.  1.
        -11    1    3    3    0    0 -0.84534674377E-02  0.59809574934E-01  0.40345040157E-02  0.60540768984E-01  0.51100000000E-03 0.  1.
         11    1    3    3    0    0  0.16334029431E-02  0.12176937276E-01  0.98094059750E-02  0.15729951468E-01  0.51100000000E-03 0. -1.
</event>
<event>
 8    1  0.1196210E+005  0.1043930E+01  0.7957747E-01            NaN
         13   -1    0    0    0    0  0.00000000000E+00  0.00000000000E+00  0.74505805969E-08  0.10566000000E+00  0.10566000000E+00 0. -1.
     999900   -1    0    0    0    0 -0.00000000000E+00 -0.00000000000E+00 -0.74505805969E-08  0.93827000000E+00  0.93827000000E+00 0. -1.
     999902    2    1    2    0    0 -0.13057306148E-02  0.19879739445E-01 -0.13530180381E-01  0.10198473350E+01  0.10195629514E+01 0.  0.
     999903    2    3    3    0    0  0.33071520822E-01 -0.66722860155E-01  0.10153377572E+00  0.12747884627E+00  0.19901836025E-01 0.  0.
         14    1    1    2    0    0  0.13057306148E-02 -0.19879739445E-01  0.13530180381E-01  0.24082665010E-01  0.00000000000E+00 0. -1.
     999901    1    3    3    0    0 -0.34377251437E-01  0.86602599600E-01 -0.11506395610E+00  0.89236848872E+00  0.88000000000E+00 0. -1.
        -11    1    4    4    0    0  0.32485740329E-01 -0.59021927366E-01  0.79967243743E-01  0.10456544567E+00  0.51100000000E-03 0.  1.
         11    1    4    4    0    0  0.58578049294E-03 -0.77009327893E-02  0.21566531975E-01  0.22913400599E-01  0.51100000000E-03 0. -1.
</event>
<event>
 8    1  0.1196210E+005  0.1043930E+01  0.7957747E-01            NaN
         13   -1    0    0    0    0  0.00000000000E+00  0.00000000000E+00  0.74505805969E-08  0.10566000000E+00  0.10566000000E+00 0. -1.
     999900   -1    0    0    0    0 -0.00000000000E+00 -0.00000000000E+00 -0.74505805969E-08  0.93827000000E+00  0.93827000000E+00 0.  1.
     999902    2    1    2    0    0  0.21204491859E-01 -0.52457420403E-02 -0.12531868146E-01  0.10187467515E+01  0.10184354411E+01 0.  0.
     999903    2    3    3    0    0 -0.68051858028E-01  0.62710200530E-01  0.83486420871E-01  0.12644399015E+00  0.21318432032E-01 0.  0.
         14    1    1    2    0    0 -0.21204491859E-01  0.52457420403E-02  0.12531868146E-01  0.25183248476E-01  0.00000000000E+00 0. -1.
     999901    1    3    3    0    0  0.89256349887E-01 -0.67955942570E-01 -0.96018289017E-01  0.89230276137E+00  0.88000000000E+00 0.  1.
        -11    1    4    4    0    0 -0.35635590076E-01  0.21820254969E-01  0.46282228123E-01  0.62356431649E-01  0.51100000000E-03 0. -1.
         11    1    4    4    0    0 -0.32416267952E-01  0.40889945561E-01  0.37204192748E-01  0.64087558503E-01  0.51100000000E-03 0.  1.
</event>
<event>
 8    1  0.1196210E+005  0.1043930E+01  0.7957747E-01            NaN
         13   -1    0    0    0    0  0.00000000000E+00  0.00000000000E+00  0.74505805969E-08  0.10566000000E+00  0.10566000000E+00 0. -1.
     999900   -1    0    0    0    0 -0.00000000000E+00 -0.00000000000E+00 -0.74505805969E-08  0.93827000000E+00  0.93827000000E+00 0.  1.
     999902    2    1    2    0    0 -0.11853959799E-01  0.21378779988E-01 -0.10048008329E-01  0.10175002617E+01  0.10171569453E+01 0.  0.
     999903    2    3    3    0    0 -0.36918462821E-01 -0.11752802346E+00  0.14918094034E-01  0.12590246242E+00  0.21285472042E-01 0.  0.
         14    1    1    2    0    0  0.11853959799E-01 -0.21378779988E-01  0.10048008329E-01  0.26429738328E-01  0.00000000000E+00 0. -1.
     999901    1    3    3    0    0  0.25064503021E-01  0.13890680345E+00 -0.24966102363E-01  0.89159779925E+00  0.88000000000E+00 0. -1.
        -11    1    4    4    0    0 -0.27664893750E-01 -0.70449533943E-01  0.11394896689E-03  0.75688554514E-01  0.51100000000E-03 0.  1.
         11    1    4    4    0    0 -0.92535690709E-02 -0.47078489515E-01  0.14804145067E-01  0.50213907911E-01  0.51100000000E-03 0. -1.
</event>
<event>
 8    1  0.1196210E+005  0.1043930E+01  0.7957747E-01            NaN
         13   -1    0    0    0    0  0.00000000000E+00  0.00000000000E+00  0.74505805969E-08  0.10566000000E+00  0.10566000000E+00 0.  1.
     999900   -1    0    0    0    0 -0.00000000000E+00 -0.00000000000E+00 -0.74505805969E-08  0.93827000000E+00  0.93827000000E+00 0.  1.
     999902    2    1    2    0    0  0.16560445097E-03 -0.20460393677E-01  0.10317631229E-01  0.10210147507E+01  0.10207575680E+01 0.  0.
     999903    2    3    3    0    0  0.10706554804E+00 -0.38270925267E-01  0.65126904417E-01  0.13267423641E+00  0.20814514922E-01 0.  0.
         14    1    1    2    0    0 -0.16560445097E-03  0.20460393677E-01 -0.10317631229E-01  0.22915249255E-01  0.00000000000E+00 0. -1.
     999901    1    3    3    0    0 -0.10689994359E+00  0.17810531591E-01 -0.54809273189E-01  0.88834051433E+00  0.88000000000E+00 0.  1.
        -11    1    4    4    0    0  0.82521542058E-01 -0.20011853191E-01  0.50026808551E-01  0.98555679017E-01  0.51100000000E-03 0.  1.
         11    1    4    4    0    0  0.24544005980E-01 -0.18259072076E-01  0.15100095867E-01  0.34118557397E-01  0.51100000000E-03 0. -1.
</event>
<event>
 8    1  0.1196210E+005  0.1043930E+01  0.7957747E-01            NaN
         13   -1    0    0    0    0  0.00000000000E+00  0.00000000000E+00  0.74505805969E-08  0.10566000000E+00  0.10566000000E+00 0.  1.
     999900   -1    0    0    0    0 -0.00000000000E+00 -0.00000000000E+00 -0.74505805969E-08  0.93827000000E+00  0.93827000000E+00 0.  1.
     999902    2    1    2    0    0  0.60426694326E-02  0.21431506903E-01 -0.57324892878E-02  0.10209368537E+01  0.10206778995E+01 0.  0.
     999903    2    3    3    0    0  0.10112607925E+00 -0.79139591401E-01 -0.94667626502E-02  0.13011176123E+00  0.18705399838E-01 0.  0.
         14    1    1    2    0    0 -0.60426694326E-02 -0.21431506903E-01  0.57324892878E-02  0.22993146271E-01  0.00000000000E+00 0. -1.
     999901    1    3    3    0    0 -0.95083409815E-01  0.10057109830E+00  0.37342733624E-02  0.89082509250E+00  0.88000000000E+00 0. -1.
        -11    1    4    4    0    0  0.35038866675E-01 -0.33813507485E-01 -0.11144541726E-01  0.49955354043E-01  0.51100000000E-03 0.  1.
         11    1    4    4    0    0  0.66087212573E-01 -0.45326083916E-01  0.16777790756E-02  0.80156407183E-01  0.51100000000E-03 0. -1.
</event>
<event>
 8    1  0.1196210E+005  0.1043930E+01  0.7957747E-01            NaN
         13   -1    0    0    0    0  0.00000000000E+00  0.00000000000E+00  0.74505805969E-08  0.10566000000E+00  0.10566000000E+00 0.  1.
     999900   -1    0    0    0    0 -0.00000000000E+00 -0.00000000000E+00 -0.74505805969E-08  0.93827000000E+00  0.93827000000E+00 0.  1.
     999902    2    1    2    0    0  0.21289581472E-01 -0.29999826372E-02  0.12462215427E-01  0.10190793866E+01  0.10187763460E+01 0.  0.
     999903    2    3    3    0    0  0.24710438102E-01  0.16743567281E-01  0.12649468097E+00  0.13149563658E+00  0.19981124320E-01 0.  0.
         14    1    1    2    0    0 -0.21289581472E-01  0.29999826372E-02 -0.12462215427E-01  0.24850613442E-01  0.00000000000E+00 0. -1.
     999901    1    3    3    0    0 -0.34208566302E-02 -0.19743549919E-01 -0.11403246555E+00  0.88758374998E+00  0.88000000000E+00 0.  1.
        -11    1    4    4    0    0  0.28666777697E-02  0.20695458923E-02  0.58126791316E-01  0.58236464962E-01  0.51100000000E-03 0. -1.
         11    1    4    4    0    0  0.21843760333E-01  0.14674021389E-01  0.68367889657E-01  0.73259171619E-01  0.51100000000E-03 0.  1.
</event>
<event>
 8    1  0.1196210E+005  0.1043930E+01  0.7957747E-01            NaN
         13   -1    0    0    0    0  0.00000000000E+00  0.00000000000E+00  0.74505805969E-08  0.10566000000E+00  0.10566000000E+00 0. -1.
     999900   -1    0    0    0    0 -0.00000000000E+00 -0.00000000000E+00 -0.74505805969E-08  0.93827000000E+00  0.93827000000E+00 0.  1.
     999902    2    1    2    0    0  0.12286087294E-01 -0.17231150151E-02 -0.19634661891E-01  0.10207042166E+01  0.10204399349E+01 0.  0.
     999903    2    3    3    0    0 -0.49797698039E-01 -0.97350439054E-01  0.65877453767E-01  0.12923839931E+00  0.20144632690E-01 0.  0.
         14    1    1    2    0    0 -0.12286087294E-01  0.17231150151E-02  0.19634661891E-01  0.23225783387E-01  0.00000000000E+00 0. -1.
     999901    1    3    3    0    0  0.62083785334E-01  0.95627324038E-01 -0.85512115658E-01  0.89146581731E+00  0.88000000000E+00 0.  1.
        -11    1    4    4    0    0 -0.13404144808E-01 -0.45969177450E-01  0.33450419306E-01  0.58412567536E-01  0.51100000000E-03 0. -1.
         11    1    4    4    0    0 -0.36393553232E-01 -0.51381261604E-01  0.32427034462E-01  0.70825831769E-01  0.51100000000E-03 0.  1.
</event>
<event>
 8    1  0.1196210E+005  0.1043930E+01  0.7957747E-01            NaN
         13   -1    0    0    0    0  0.00000000000E+00  0.00000000000E+00  0.74505805969E-08  0.10566000000E+00  0.10566000000E+00 0. -1.
     999900   -1    0    0    0    0 -0.00000000000E+00 -0.00000000000E+00 -0.74505805969E-08  0.93827000000E+00  0.93827000000E+00 0.  1.
     999902    2    1    2    0    0  0.21193601228E-01  0.66418970529E-02  0.75960825793E-02  0.10204569516E+01  0.10201869467E+01 0.  0.
     999903    2    3    3    0    0 -0.42963658269E-01  0.12081031705E+00 -0.12416052452E-01  0.13054062543E+00  0.21111321410E-01 0.  0.
         14    1    1    2    0    0 -0.21193601228E-01 -0.66418970529E-02 -0.75960825793E-02  0.23473048376E-01  0.00000000000E+00 0.  1.
     999901    1    3    3    0    0  0.64157259497E-01 -0.11416842000E+00  0.20012135031E-01  0.88991632619E+00  0.88000000000E+00 0. -1.
        -11    1    4    4    0    0 -0.16593174106E-01  0.26957593451E-01 -0.93218791303E-02  0.33003088084E-01  0.51100000000E-03 0.  1.
         11    1    4    4    0    0 -0.26370484163E-01  0.93852723603E-01 -0.30941733218E-02  0.97537537350E-01  0.51100000000E-03 0. -1.
</event>
<event>
 8    1  0.1196840E+005  0.1043930E+01  0.7957747E-01            NaN
         13   -1    0    0    0    0  0.00000000000E+00  0.00000000000E+00  0.74505805969E-08  0.10566000000E+00  0.10566000000E+00 0. -1.
     999900   -1    0    0    0    0 -0.00000000000E+00 -0.00000000000E+00 -0.74505805969E-08  0.93827000000E+00  0.93827000000E+00 0.  1.
     999902    2    1    2    0    0 -0.20182744161E-02  0.20791467435E-01  0.93759858541E-02  0.10210331081E+01  0.10207763419E+01 0.  0.
     999903    2    3    3    0    0  0.94113255227E-01 -0.51880868487E-02 -0.87536998982E-01  0.13013000735E+00  0.19669050985E-01 0.  0.
         14    1    1    2    0    0  0.20182744161E-02 -0.20791467435E-01 -0.93759858541E-02  0.22896891939E-01  0.00000000000E+00 0.  1.
     999901    1    3    3    0    0 -0.96131529644E-01  0.25979554284E-01  0.96912984836E-01  0.89090310071E+00  0.88000000000E+00 0. -1.
        -11    1    4    4    0    0  0.29641012556E-01  0.54373873361E-02 -0.35702504357E-01  0.46723492429E-01  0.51100000000E-03 0.  1.
         11    1    4    4    0    0  0.64472242672E-01 -0.10625474185E-01 -0.51834494625E-01  0.83406514918E-01  0.51100000000E-03 0. -1.
</event>
<event>
 8    1  0.1196210E+005  0.1043930E+01  0.7957747E-01            NaN
         13   -1    0    0    0    0  0.00000000000E+00  0.00000000000E+00  0.74505805969E-08  0.10566000000E+00  0.10566000000E+00 0. -1.
     999900   -1    0    0    0    0 -0.00000000000E+00 -0.00000000000E+00 -0.74505805969E-08  0.93827000000E+00  0.93827000000E+00 0.  1.
     999902    2    1    2    0    0 -0.69046510942E-02  0.15397719208E-01  0.17685331015E-01  0.10194854731E+01  0.10191923738E+01 0.  0.
     999903    2    3    3    0    0 -0.11896799505E+00  0.73742054010E-02  0.52182033797E-01  0.13167209610E+00  0.20169617952E-01 0.  0.
         14    1    1    2    0    0  0.69046510942E-02 -0.15397719208E-01 -0.17685331015E-01  0.24444526926E-01  0.00000000000E+00 0.  1.
     999901    1    3    3    0    0  0.11206334396E+00  0.80235138068E-02 -0.34496702783E-01  0.88781337697E+00  0.88000000000E+00 0.  1.
        -11    1    4    4    0    0 -0.27053591130E-01 -0.64218086302E-02  0.94254680787E-02  0.29363872166E-01  0.51100000000E-03 0. -1.
         11    1    4    4    0    0 -0.91914403921E-01  0.13796014031E-01  0.42756565719E-01  0.10230822393E+00  0.51100000000E-03 0.  1.
</event>
<event>
 8    1  0.1196210E+005  0.1043930E+01  0.7957747E-01            NaN
         13   -1    0    0    0    0  0.00000000000E+00  0.00000000000E+00  0.74505805969E-08  0.10566000000E+00  0.10566000000E+00 0.  1.
     999900   -1    0    0    0    0 -0.00000000000E+00 -0.00000000000E+00 -0.74505805969E-08  0.93827000000E+00  0.93827000000E+00 0.  1.
     999902    2    1    2    0    0 -0.15085029221E-01  0.10077311610E-01  0.14174186779E-01  0.10209078827E+01  0.10206482680E+01 0.  0.
     999903    2    3    3    0    0  0.49770482708E-01  0.11988749826E+00 -0.58457078555E-02  0.13148935874E+00  0.20128735011E-01 0.  0.
         14    1    1    2    0    0  0.15085029221E-01 -0.10077311610E-01 -0.14174186779E-01  0.23022117338E-01  0.00000000000E+00 0. -1.
     999901    1    3    3    0    0 -0.64855511929E-01 -0.10981018665E+00  0.20019894635E-01  0.88941852392E+00  0.88000000000E+00 0. -1.
        -11    1    4    4    0    0  0.25000462293E-01  0.54170127867E-01  0.70656687023E-02  0.60080035479E-01  0.51100000000E-03 0. -1.
         11    1    4    4    0    0  0.24770020414E-01  0.65717370392E-01 -0.12911376558E-01  0.71409323258E-01  0.51100000000E-03 0.  1.
</event>
<event>
 8    1  0.1196210E+005  0.1043930E+01  0.7957747E-01            NaN
         13   -1    0    0    0    0  0.00000000000E+00  0.00000000000E+00  0.74505805969E-08  0.10566000000E+00  0.10566000000E+00 0.  1.
     999900   -1    0    0    0    0 -0.00000000000E+00 -0.00000000000E+00 -0.74505805969E-08  0.93827000000E+00  0.93827000000E+00 0.  1.
     999902    2    1    2    0    0  0.22735307147E-01  0.13929371564E-01 -0.88040274613E-03  0.10172523559E+01  0.10169024825E+01 0.  0.
     999903    2    3    3    0    0 -0.97107946765E-01  0.78129897843E-01  0.10943514124E-01  0.12673345211E+00  0.20183486327E-01 0.  0.
         14    1    1    2    0    0 -0.22735307147E-01 -0.13929371564E-01  0.88040274613E-03  0.26677644053E-01  0.00000000000E+00 0. -1.
     999901    1    3    3    0    0  0.11984325391E+00 -0.64200526279E-01 -0.11823916870E-01  0.89051890384E+00  0.88000000000E+00 0.  1.
        -11    1    4    4    0    0 -0.29007373796E-02  0.74166662175E-04 -0.22124432235E-02  0.36845357994E-02  0.51100000000E-03 0.  1.
         11    1    4    4    0    0 -0.94207209385E-01  0.78055731181E-01  0.13155957348E-01  0.12304891631E+00  0.51100000000E-03 0. -1.
</event>
<event>
 8    1  0.1196210E+005  0.1043930E+01  0.7957747E-01            NaN
         13   -1    0    0    0    0  0.00000000000E+00  0.00000000000E+00  0.74505805969E-08  0.10566000000E+00  0.10566000000E+00 0.  1.
     999900   -1    0    0    0    0 -0.00000000000E+00 -0.00000000000E+00 -0.74505805969E-08  0.93827000000E+00  0.93827000000E+00 0.  1.
     999902    2    1    2    0    0  0.23486963368E-01  0.67983206870E-02 -0.52428274188E-02  0.10189231639E+01  0.10186162536E+01 0.  0.
     999903    2    3    3    0    0  0.80974711602E-01 -0.33142022015E-01 -0.96008011011E-01  0.13148956598E+00  0.20412502053E-01 0.  0.
         14    1    1    2    0    0 -0.23486963368E-01 -0.67983206870E-02  0.52428274188E-02  0.25006836100E-01  0.00000000000E+00 0. -1.
     999901    1    3    3    0    0 -0.57487748234E-01  0.39940342702E-01  0.90765183592E-01  0.88743359792E+00  0.88000000000E+00 0. -1.
        -11    1    4    4    0    0  0.27271497975E-01 -0.90489457933E-02 -0.46066382827E-01  0.54295402840E-01  0.51100000000E-03 0.  1.
         11    1    4    4    0    0  0.53703213626E-01 -0.24093076221E-01 -0.49941628184E-01  0.77194163136E-01  0.51100000000E-03 0. -1.
</event>
<event>
 8    1  0.1196210E+005  0.1043930E+01  0.7957747E-01            NaN
         13   -1    0    0    0    0  0.00000000000E+00  0.00000000000E+00  0.74505805969E-08  0.10566000000E+00  0.10566000000E+00 0.  1.
     999900   -1    0    0    0    0 -0.00000000000E+00 -0.00000000000E+00 -0.74505805969E-08  0.93827000000E+00  0.93827000000E+00 0. -1.
     999902    2    1    2    0    0  0.20494312748E-01  0.13134159786E-01 -0.90928277744E-03  0.10195712274E+01  0.10192802058E+01 0.  0.
     999903    2    3    3    0    0 -0.84989459511E-01  0.72658568333E-01 -0.61681620019E-01  0.12919868827E+00  0.19626589706E-01 0.  0.
         14    1    1    2    0    0 -0.20494312748E-01 -0.13134159786E-01  0.90928277744E-03  0.24358772618E-01  0.00000000000E+00 0.  1.
     999901    1    3    3    0    0  0.10548377226E+00 -0.59524408548E-01  0.60772337241E-01  0.89037253911E+00  0.88000000000E+00 0.  1.
        -11    1    4    4    0    0 -0.21191296672E-01  0.18192883709E-01 -0.61686075859E-02  0.28607078020E-01  0.51100000000E-03 0. -1.
         11    1    4    4    0    0 -0.63798162839E-01  0.54465684624E-01 -0.55513012433E-01  0.10059161025E+00  0.51100000000E-03 0.  1.
</event>
<event>
 8    1  0.1196210E+005  0.1043930E+01  0.7957747E-01            NaN
         13   -1    0    0    0    0  0.00000000000E+00  0.00000000000E+00  0.74505805969E-08  0.10566000000E+00  0.10566000000E+00 0.  1.
     999900   -1    0    0    0    0 -0.00000000000E+00 -0.00000000000E+00 -0.74505805969E-08  0.93827000000E+00  0.93827000000E+00 0.  1.
     999902    2    1    2    0    0 -0.18388044506E-01  0.64575738501E-03 -0.14754954274E-01  0.10203451350E+01  0.10200725212E+01 0.  0.
     999903    2    3    3    0    0  0.12571819414E+00  0.11634616474E-01 -0.90315761082E-02  0.12853791358E+00  0.22360617696E-01 0.  0.
         14    1    1    2    0    0  0.18388044506E-01 -0.64575738501E-03  0.14754954274E-01  0.23584865040E-01  0.00000000000E+00 0.  1.
     999901    1    3    3    0    0 -0.14410623864E+00 -0.10988859089E-01 -0.57233781657E-02  0.89180722138E+00  0.88000000000E+00 0. -1.
        -11    1    4    4    0    0  0.72430778462E-01  0.16402905858E-01 -0.10558031340E-01  0.75013373047E-01  0.51100000000E-03 0.  1.
         11    1    4    4    0    0  0.53287415677E-01 -0.47682893839E-02  0.15264552314E-02  0.53524540537E-01  0.51100000000E-03 0. -1.
</event>
<event>
 8    1  0.1196210E+005  0.1043930E+01  0.7957747E-01            NaN
         13   -1    0    0    0    0  0.00000000000E+00  0.00000000000E+00  0.74505805969E-08  0.10566000000E+00  0.10566000000E+00 0.  1.
     999900   -1    0    0    0    0 -0.00000000000E+00 -0.00000000000E+00 -0.74505805969E-08  0.93827000000E+00  0.93827000000E+00 0. -1.
     999902    2    1    2    0    0  0.78356991470E-02 -0.20021039426E-01  0.10034095526E-01  0.10202039958E+01  0.10199280709E+01 0.  0.
     999903    2    3    3    0    0 -0.20061491393E-01 -0.11068021166E+00 -0.65914185536E-01  0.13185413224E+00  0.19704305199E-01 0.  0.
         14    1    1    2    0    0 -0.78356991470E-02  0.20021039426E-01 -0.10034095526E-01  0.23726004169E-01  0.00000000000E+00 0. -1.
     999901    1    3    3    0    0  0.27897190540E-01  0.90659172233E-01  0.75948281062E-01  0.88834986359E+00  0.88000000000E+00 0.  1.
        -11    1    4    4    0    0 -0.26871098581E-02 -0.52502201560E-01 -0.38882453827E-01  0.65389663286E-01  0.51100000000E-03 0.  1.
         11    1    4    4    0    0 -0.17374381535E-01 -0.58178010099E-01 -0.27031731709E-01  0.66464468951E-01  0.51100000000E-03 0. -1.
</event>
<event>
 8    1  0.1196210E+005  0.1043930E+01  0.7957747E-01            NaN
         13   -1    0    0    0    0  0.00000000000E+00  0.00000000000E+00  0.74505805969E-08  0.10566000000E+00  0.10566000000E+00 0.  1.
     999900   -1    0    0    0    0 -0.00000000000E+00 -0.00000000000E+00 -0.74505805969E-08  0.93827000000E+00  0.93827000000E+00 0. -1.
     999902    2    1    2    0    0  0.12346515747E-01  0.23794606872E-02 -0.20037145723E-01  0.10202744405E+01  0.10200001709E+01 0.  0.
     999903    2    3    3    0    0  0.65909594043E-01 -0.10763840827E+00 -0.32782834183E-01  0.13171640225E+00  0.18557879290E-01 0.  0.
         14    1    1    2    0    0 -0.12346515747E-01 -0.23794606872E-02  0.20037145723E-01  0.23655559452E-01  0.00000000000E+00 0.  1.
     999901    1    3    3    0    0 -0.53563078296E-01  0.11001786896E+00  0.12745688460E-01  0.88855803830E+00  0.88000000000E+00 0.  1.
        -11    1    4    4    0    0  0.49331681891E-01 -0.93385566657E-01 -0.28979291983E-01  0.10951958447E+00  0.51100000000E-03 0.  1.
         11    1    4    4    0    0  0.16577912151E-01 -0.14252841612E-01 -0.38035421992E-02  0.22196817780E-01  0.51100000000E-03 0. -1.
</event>
<event>
 8    1  0.1196210E+005  0.1043930E+01  0.7957747E-01            NaN
         13   -1    0    0    0    0  0.00000000000E+00  0.00000000000E+00  0.74505805969E-08  0.10566000000E+00  0.10566000000E+00 0.  1.
     999900   -1    0    0    0    0 -0.00000000000E+00 -0.00000000000E+00 -0.74505805969E-08  0.93827000000E+00  0.93827000000E+00 0.  1.
     999902    2    1    2    0    0 -0.47588924391E-02 -0.16309793692E-01 -0.16422009881E-01  0.10203008054E+01  0.10200271539E+01 0.  0.
     999903    2    3    3    0    0 -0.82281418672E-01  0.97488309556E-01  0.62398666075E-02  0.12930512024E+00  0.20166205065E-01 0.  0.
         14    1    1    2    0    0  0.47588924391E-02  0.16309793692E-01  0.16422009881E-01  0.23629194570E-01  0.00000000000E+00 0.  1.
     999901    1    3    3    0    0  0.77522526233E-01 -0.11379810325E+00 -0.22661876489E-01  0.89099568519E+00  0.88000000000E+00 0.  1.
        -11    1    4    4    0    0 -0.30209292893E-01  0.37001996903E-01  0.12089736767E-01  0.49276485346E-01  0.51100000000E-03 0.  1.
         11    1    4    4    0    0 -0.52072125779E-01  0.60486312653E-01 -0.58498701598E-02  0.80028634896E-01  0.51100000000E-03 0. -1.
</event>
<event>
 8    1  0.1196210E+005  0.1043930E+01  0.7957747E-01            NaN
         13   -1    0    0    0    0  0.00000000000E+00  0.00000000000E+00  0.74505805969E-08  0.10566000000E+00  0.10566000000E+00 0.  1.
     999900   -1    0    0    0    0 -0.00000000000E+00 -0.00000000000E+00 -0.74505805969E-08  0.93827000000E+00  0.93827000000E+00 0.  1.
     999902    2    1    2    0    0  0.17887101740E-01 -0.15662393299E-01 -0.84694056939E-02  0.10186913430E+01  0.10183786440E+01 0.  0.
     999903    2    3    3    0    0 -0.10426508536E+00 -0.57041164684E-01  0.42517464259E-01  0.12783051191E+00  0.20199072065E-01 0.  0.
         14    1    1    2    0    0 -0.17887101740E-01  0.15662393299E-01  0.84694056939E-02  0.25238656964E-01  0.00000000000E+00 0.  1.
     999901    1    3    3    0    0  0.12215218710E+00  0.41378771385E-01 -0.50986869953E-01  0.89086083113E+00  0.88000000000E+00 0.  1.
        -11    1    4    4    0    0 -0.87022265122E-01 -0.39429672239E-01  0.37716448557E-01  0.10271497112E+00  0.51100000000E-03 0. -1.
         11    1    4    4    0    0 -0.17242820242E-01 -0.17611492445E-01  0.48010157026E-02  0.25115540783E-01  0.51100000000E-03 0.  1.
</event>
<event>
 8    1  0.1196210E+005  0.1043930E+01  0.7957747E-01            NaN
         13   -1    0    0    0    0  0.00000000000E+00  0.00000000000E+00  0.74505805969E-08  0.10566000000E+00  0.10566000000E+00 0. -1.
     999900   -1    0    0    0    0 -0.00000000000E+00 -0.00000000000E+00 -0.74505805969E-08  0.93827000000E+00  0.93827000000E+00 0. -1.
     999902    2    1    2    0    0 -0.43383811874E-04  0.48249542069E-02 -0.23230759209E-01  0.10202034276E+01  0.10199274893E+01 0.  0.
     999903    2    3    3    0    0  0.76630383298E-01  0.99018741635E-01 -0.34823195871E-01  0.13178589019E+00  0.21861817032E-01 0.  0.
         14    1    1    2    0    0  0.43383811874E-04 -0.48249542069E-02  0.23230759209E-01  0.23726572417E-01  0.00000000000E+00 0. -1.
     999901    1    3    3    0    0 -0.76673767110E-01 -0.94193787428E-01  0.11592436663E-01  0.88841753739E+00  0.88000000000E+00 0.  1.
        -11    1    4    4    0    0  0.57830777758E-01  0.58578625006E-01 -0.19173329143E-01  0.84520600064E-01  0.51100000000E-03 0.  1.
         11    1    4    4    0    0  0.18799605540E-01  0.40440116629E-01 -0.15649866729E-01  0.47265290130E-01  0.51100000000E-03 0. -1.
</event>
<event>
 8    1  0.1196210E+005  0.1043930E+01  0.7957747E-01            NaN
         13   -1    0    0    0    0  0.00000000000E+00  0.00000000000E+00  0.74505805969E-08  0.10566000000E+00  0.10566000000E+00 0. -1.
     999900   -1    0    0    0    0 -0.00000000000E+00 -0.00000000000E+00 -0.74505805969E-08  0.93827000000E+00  0.93827000000E+00 0.  1.
     999902    2    1    2    0    0  0.21145279626E-01  0.71744751034E-02 -0.80219357784E-02  0.10202034875E+01  0.10199275506E+01 0.  0.
     999903    2    3    3    0    0 -0.39764417260E-01  0.13977197040E-01 -0.12208687139E+00  0.13072775551E+00  0.20198291436E-01 0.  0.
         14    1    1    2    0    0 -0.21145279626E-01 -0.71744751034E-02  0.80219357784E-02  0.23726512536E-01  0.00000000000E+00 0. -1.
     999901    1    3    3    0    0  0.60909696886E-01 -0.68027219367E-02  0.11406493561E+00  0.88947573196E+00  0.88000000000E+00 0. -1.
        -11    1    4    4    0    0 -0.18758642139E-01 -0.12285450358E-02 -0.70806398847E-01  0.73261198574E-01  0.51100000000E-03 0.  1.
         11    1    4    4    0    0 -0.21005775121E-01  0.15205742076E-01 -0.51280472546E-01  0.57466556935E-01  0.51100000000E-03 0. -1.
</event>
<event>
 8    1  0.1196210E+005  0.1043930E+01  0.7957747E-01            NaN
         13   -1    0    0    0    0  0.00000000000E+00  0.00000000000E+00  0.74505805969E-08  0.10566000000E+00  0.10566000000E+00 0. -1.
     999900   -1    0    0    0    0 -0.00000000000E+00 -0.00000000000E+00 -0.74505805969E-08  0.93827000000E+00  0.93827000000E+00 0. -1.
     999902    2    1    2    0    0  0.12850992290E-01  0.51698387367E-02 -0.19680981396E-01  0.10198630878E+01  0.10195790806E+01 0.  0.
     999903    2    3    3    0    0  0.60820212269E-01 -0.10590245010E+00 -0.43982342601E-01  0.13125256816E+00  0.19451555965E-01 0.  0.
         14    1    1    2    0    0 -0.12850992290E-01 -0.51698387367E-02  0.19680981396E-01  0.24066912227E-01  0.00000000000E+00 0.  1.
     999901    1    3    3    0    0 -0.47969219979E-01  0.11107228884E+00  0.24301361205E-01  0.88861051961E+00  0.88000000000E+00 0.  1.
        -11    1    4    4    0    0  0.74618495106E-02 -0.29262249880E-01 -0.12716396368E-01  0.32770815122E-01  0.51100000000E-03 0.  1.
         11    1    4    4    0    0  0.53358362759E-01 -0.76640200222E-01 -0.31265946233E-01  0.98481753037E-01  0.51100000000E-03 0. -1.
</event>
<event>
 8    1  0.1196210E+005  0.1043930E+01  0.7957747E-01            NaN
         13   -1    0    0    0    0  0.00000000000E+00  0.00000000000E+00  0.74505805969E-08  0.10566000000E+00  0.10566000000E+00 0.  1.
     999900   -1    0    0    0    0 -0.00000000000E+00 -0.00000000000E+00 -0.74505805969E-08  0.93827000000E+00  0.93827000000E+00 0.  1.
     999902    2    1    2    0    0  0.15734779598E-01 -0.10997623269E-01  0.13234464720E-01  0.10206130091E+01  0.10203466236E+01 0.  0.
     999903    2    3    3    0    0  0.45868338136E-02  0.12589985587E+00 -0.24884007122E-01  0.12914331566E+00  0.13673676015E-01 0.  0.
         14    1    1    2    0    0 -0.15734779598E-01  0.10997623269E-01 -0.13234464720E-01  0.23316990865E-01  0.00000000000E+00 0.  1.
     999901    1    3    3    0    0  0.11147945784E-01 -0.13689747914E+00  0.38118471842E-01  0.89146969348E+00  0.88000000000E+00 0. -1.
        -11    1    4    4    0    0  0.18705622934E-02  0.77448706654E-01 -0.85741050270E-02  0.77945991325E-01  0.51100000000E-03 0.  1.
         11    1    4    4    0    0  0.27162715202E-02  0.48451149219E-01 -0.16309902095E-01  0.51197324334E-01  0.51100000000E-03 0. -1.
</event>
<event>
 8    1  0.1196210E+005  0.1043930E+01  0.7957747E-01            NaN
         13   -1    0    0    0    0  0.00000000000E+00  0.00000000000E+00  0.74505805969E-08  0.10566000000E+00  0.10566000000E+00 0.  1.
     999900   -1    0    0    0    0 -0.00000000000E+00 -0.00000000000E+00 -0.74505805969E-08  0.93827000000E+00  0.93827000000E+00 0. -1.
     999902    2    1    2    0    0  0.29987676555E-02  0.25110337569E-01  0.74269339346E-03  0.10186303310E+01  0.10183160992E+01 0.  0.
     999903    2    3    3    0    0  0.93071925017E-01  0.85814192885E-01 -0.29134815395E-01  0.13144895308E+00  0.20088077799E-01 0.  0.
         14    1    1    2    0    0 -0.29987676555E-02 -0.25110337569E-01 -0.74269339346E-03  0.25299669044E-01  0.00000000000E+00 0.  1.
     999901    1    3    3    0    0 -0.90073157361E-01 -0.60703855316E-01  0.29877508788E-01  0.88718137788E+00  0.88000000000E+00 0.  1.
        -11    1    4    4    0    0  0.76021223512E-01  0.79375702795E-01 -0.26094712676E-01  0.11296425881E+00  0.51100000000E-03 0. -1.
         11    1    4    4    0    0  0.17050701504E-01  0.64384900900E-02 -0.30401027185E-02  0.18484694262E-01  0.51100000000E-03 0.  1.
</event>
<event>
 8    1  0.1196210E+005  0.1043930E+01  0.7957747E-01            NaN
         13   -1    0    0    0    0  0.00000000000E+00  0.00000000000E+00  0.74505805969E-08  0.10566000000E+00  0.10566000000E+00 0. -1.
     999900   -1    0    0    0    0 -0.00000000000E+00 -0.00000000000E+00 -0.74505805969E-08  0.93827000000E+00  0.93827000000E+00 0. -1.
     999902    2    1    2    0    0  0.20633322225E-01 -0.46694361355E-02  0.95487775487E-02  0.10207197270E+01  0.10204558022E+01 0.  0.
     999903    2    3    3    0    0  0.96750764148E-01 -0.41936085205E-01 -0.78325738032E-01  0.13229156526E+00  0.15709595614E-01 0.  0.
         14    1    1    2    0    0 -0.20633322225E-01  0.46694361355E-02 -0.95487775487E-02  0.23210272996E-01  0.00000000000E+00 0.  1.
     999901    1    3    3    0    0 -0.76117441923E-01  0.37266649069E-01  0.87874515581E-01  0.88842816175E+00  0.88000000000E+00 0.  1.
        -11    1    4    4    0    0  0.17063400978E-01 -0.13707716957E-01 -0.19276910417E-01  0.29170559702E-01  0.51100000000E-03 0.  1.
         11    1    4    4    0    0  0.79687363170E-01 -0.28228368247E-01 -0.59048827615E-01  0.10312100555E+00  0.51100000000E-03 0. -1.
</event>
<event>
 8    1  0.1196210E+005  0.1043930E+01  0.7957747E-01            NaN
         13   -1    0    0    0    0  0.00000000000E+00  0.00000000000E+00  0.74505805969E-08  0.10566000000E+00  0.10566000000E+00 0. -1.
     999900   -1    0    0    0    0 -0.00000000000E+00 -0.00000000000E+00 -0.74505805969E-08  0.93827000000E+00  0.93827000000E+00 0.  1.
     999902    2    1    2    0    0 -0.14703044938E-01 -0.10077941826E-01  0.15689639538E-01  0.10201832269E+01  0.10199068130E+01 0.  0.
     999903    2    3    3    0    0 -0.11094759120E+00  0.37752456220E-02  0.69977708218E-01  0.13316455865E+00  0.22634035448E-01 0.  0.
         14    1    1    2    0    0  0.14703044938E-01  0.10077941826E-01 -0.15689639538E-01  0.23746773060E-01  0.00000000000E+00 0.  1.
     999901    1    3    3    0    0  0.96244546265E-01 -0.13853187448E-01 -0.54288068679E-01  0.88701866829E+00  0.88000000000E+00 0. -1.
        -11    1    4    4    0    0 -0.98940878618E-01  0.62728234559E-02  0.53614765961E-01  0.11270958267E+00  0.51100000000E-03 0. -1.
         11    1    4    4    0    0 -0.12006712585E-01 -0.24975778339E-02  0.16362942257E-01  0.20454975982E-01  0.51100000000E-03 0.  1.
</event>
<event>
 8    1  0.1196210E+005  0.1043930E+01  0.7957747E-01            NaN
         13   -1    0    0    0    0  0.00000000000E+00  0.00000000000E+00  0.74505805969E-08  0.10566000000E+00  0.10566000000E+00 0. -1.
     999900   -1    0    0    0    0 -0.00000000000E+00 -0.00000000000E+00 -0.74505805969E-08  0.93827000000E+00  0.93827000000E+00 0.  1.
     999902    2    1    2    0    0 -0.98328543229E-02  0.20553840894E-01 -0.66893337194E-02  0.10201835774E+01  0.10199071718E+01 0.  0.
     999903    2    3    3    0    0 -0.49389921441E-01  0.11934948428E+00  0.26652124154E-01  0.13314525045E+00  0.18266314791E-01 0.  0.
         14    1    1    2    0    0  0.98328543229E-02 -0.20553840894E-01  0.66893337194E-02  0.23746422578E-01  0.00000000000E+00 0. -1.
     999901    1    3    3    0    0  0.39557067118E-01 -0.98795643388E-01 -0.33341457874E-01  0.88703832698E+00  0.88000000000E+00 0.  1.
        -11    1    4    4    0    0 -0.21659746476E-01  0.63068973079E-01  0.22033094651E-01  0.70232174703E-01  0.51100000000E-03 0. -1.
         11    1    4    4    0    0 -0.27730174965E-01  0.56280511203E-01  0.46190295039E-02  0.62913075743E-01  0.51100000000E-03 0.  1.
</event>
<event>
 8    1  0.1196210E+005  0.1043930E+01  0.7957747E-01            NaN
         13   -1    0    0    0    0  0.00000000000E+00  0.00000000000E+00  0.74505805969E-08  0.10566000000E+00  0.10566000000E+00 0.  1.
     999900   -1    0    0    0    0 -0.00000000000E+00 -0.00000000000E+00 -0.74505805969E-08  0.93827000000E+00  0.93827000000E+00 0.  1.
     999902    2    1    2    0    0  0.41486476040E-03 -0.23731844309E-01 -0.80990942846E-02  0.10188507680E+01  0.10185420559E+01 0.  0.
     999903    2    3    3    0    0 -0.51419113537E-01 -0.10722504533E+00 -0.54004803749E-01  0.13219118846E+00  0.20417049114E-01 0.  0.
         14    1    1    2    0    0 -0.41486476040E-03  0.23731844309E-01  0.80990942846E-02  0.25079231952E-01  0.00000000000E+00 0.  1.
     999901    1    3    3    0    0  0.51833978297E-01  0.83493201020E-01  0.45905709464E-01  0.88665957959E+00  0.88000000000E+00 0.  1.
        -11    1    4    4    0    0 -0.44410439647E-01 -0.73601146643E-01 -0.34019490942E-01  0.92450001740E-01  0.51100000000E-03 0. -1.
         11    1    4    4    0    0 -0.70086738899E-02 -0.33623898686E-01 -0.19985312806E-01  0.39741186715E-01  0.51100000000E-03 0.  1.
</event>
<event>
 8    1  0.1196210E+005  0.1043930E+01  0.7957747E-01            NaN
         13   -1    0    0    0    0  0.00000000000E+00  0.00000000000E+00  0.74505805969E-08  0.10566000000E+00  0.10566000000E+00 0. -1.
     999900   -1    0    0    0    0 -0.00000000000E+00 -0.00000000000E+00 -0.74505805969E-08  0.93827000000E+00  0.93827000000E+00 0.  1.
     999902    2    1    2    0    0 -0.17941368092E-02  0.23347854404E-01  0.52171473526E-04  0.10205132548E+01  0.10202445586E+01 0.  0.
     999903    2    3    3    0    0 -0.12689986529E+00  0.26182618268E-01 -0.10646377021E-01  0.13159597065E+00  0.20372747461E-01 0.  0.
         14    1    1    2    0    0  0.17941368092E-02 -0.23347854404E-01 -0.52171473526E-04  0.23416745163E-01  0.00000000000E+00 0. -1.
     999901    1    3    3    0    0  0.12510572848E+00 -0.28347638636E-02  0.10698548495E-01  0.88891728419E+00  0.88000000000E+00 0. -1.
        -11    1    4    4    0    0 -0.73415350938E-01  0.23377611296E-01 -0.12220654571E-01  0.78012383520E-01  0.51100000000E-03 0.  1.
         11    1    4    4    0    0 -0.53484514347E-01  0.28050069718E-02  0.15742775495E-02  0.53583587132E-01  0.51100000000E-03 0. -1.
</event>
<event>
 8    1  0.1196210E+005  0.1043930E+01  0.7957747E-01            NaN
         13   -1    0    0    0    0  0.00000000000E+00  0.00000000000E+00  0.74505805969E-08  0.10566000000E+00  0.10566000000E+00 0.  1.
     999900   -1    0    0    0    0 -0.00000000000E+00 -0.00000000000E+00 -0.74505805969E-08  0.93827000000E+00  0.93827000000E+00 0.  1.
     999902    2    1    2    0    0  0.20671073523E-01 -0.76245573764E-02 -0.35172502698E-02  0.10216186082E+01  0.10213749470E+01 0.  0.
     999903    2    3    3    0    0  0.72278610167E-01 -0.51457529707E-01  0.96286974591E-01  0.13339253864E+00  0.25501235993E-01 0.  0.
         14    1    1    2    0    0 -0.20671073523E-01  0.76245573764E-02  0.35172502698E-02  0.22311391827E-01  0.00000000000E+00 0. -1.
     999901    1    3    3    0    0 -0.51607536644E-01  0.43832972331E-01 -0.99804224861E-01  0.88822606954E+00  0.88000000000E+00 0. -1.
        -11    1    4    4    0    0  0.40176590810E-01 -0.42543064599E-01  0.67738825525E-01  0.89514693761E-01  0.51100000000E-03 0.  1.
         11    1    4    4    0    0  0.32102019357E-01 -0.89144651081E-02  0.28548149066E-01  0.43877844877E-01  0.51100000000E-03 0. -1.
</event>
<event>
 8    1  0.1196210E+005  0.1043930E+01  0.7957747E-01            NaN
         13   -1    0    0    0    0  0.00000000000E+00  0.00000000000E+00  0.74505805969E-08  0.10566000000E+00  0.10566000000E+00 0.  1.
     999900   -1    0    0    0    0 -0.00000000000E+00 -0.00000000000E+00 -0.74505805969E-08  0.93827000000E+00  0.93827000000E+00 0. -1.
     999902    2    1    2    0    0 -0.18444309504E-01 -0.13890747129E-01  0.52761870014E-02  0.10202449085E+01  0.10199699455E+01 0.  0.
     999903    2    3    3    0    0 -0.54869263050E-01 -0.91264720506E-01 -0.75553694850E-01  0.13241216595E+00  0.22016712929E-01 0.  0.
         14    1    1    2    0    0  0.18444309504E-01  0.13890747129E-01 -0.52761870014E-02  0.23685091474E-01  0.00000000000E+00 0. -1.
     999901    1    3    3    0    0  0.36424953546E-01  0.77373973377E-01  0.80829881852E-01  0.88783274258E+00  0.88000000000E+00 0.  1.
        -11    1    4    4    0    0 -0.91938257459E-02 -0.35364365586E-01 -0.24641755419E-01  0.44075412832E-01  0.51100000000E-03 0. -1.
         11    1    4    4    0    0 -0.45675437304E-01 -0.55900354920E-01 -0.50911939431E-01  0.88336753114E-01  0.51100000000E-03 0.  1.
</event>
<event>
 8    1  0.1196210E+005  0.1043930E+01  0.7957747E-01            NaN
         13   -1    0    0    0    0  0.00000000000E+00  0.00000000000E+00  0.74505805969E-08  0.10566000000E+00  0.10566000000E+00 0.  1.
     999900   -1    0    0    0    0 -0.00000000000E+00 -0.00000000000E+00 -0.74505805969E-08  0.93827000000E+00  0.93827000000E+00 0.  1.
     999902    2    1    2    0    0 -0.15426969076E-01  0.37684950316E-02 -0.19838133896E-01  0.10185184970E+01  0.10182014458E+01 0.  0.
     999903    2    3    3    0    0  0.11095261167E+00  0.51055960961E-01 -0.33125258945E-01  0.12813405722E+00  0.20096284573E-01 0.  0.
         14    1    1    2    0    0  0.15426969076E-01 -0.37684950316E-02  0.19838133896E-01  0.25411503028E-01  0.00000000000E+00 0.  1.
     999901    1    3    3    0    0 -0.12637958074E+00 -0.47287465930E-01  0.13287125049E-01  0.89038443975E+00  0.88000000000E+00 0. -1.
        -11    1    4    4    0    0  0.99550434837E-01  0.51284272452E-01 -0.32892989716E-01  0.11671578972E+00  0.51100000000E-03 0.  1.
         11    1    4    4    0    0  0.11402176830E-01 -0.22831149060E-03 -0.23226922824E-03  0.11418267495E-01  0.51100000000E-03 0. -1.
</event>
<event>
 8    1  0.1196210E+005  0.1043930E+01  0.7957747E-01            NaN
         13   -1    0    0    0    0  0.00000000000E+00  0.00000000000E+00  0.74505805969E-08  0.10566000000E+00  0.10566000000E+00 0. -1.
     999900   -1    0    0    0    0 -0.00000000000E+00 -0.00000000000E+00 -0.74505805969E-08  0.93827000000E+00  0.93827000000E+00 0.  1.
     999902    2    1    2    0    0  0.61304293787E-02  0.17225894573E-01 -0.23337582321E-01  0.10142828019E+01  0.10138494197E+01 0.  0.
     999903    2    3    3    0    0  0.15885590819E-01  0.21574763169E-01 -0.12447574202E+00  0.12842558811E+00  0.16766005164E-01 0.  0.
         14    1    1    2    0    0 -0.61304293787E-02 -0.17225894573E-01  0.23337582321E-01  0.29647198127E-01  0.00000000000E+00 0. -1.
     999901    1    3    3    0    0 -0.97551614401E-02 -0.43488685962E-02  0.10113815969E+00  0.88585721376E+00  0.88000000000E+00 0. -1.
        -11    1    4    4    0    0 -0.30973369059E-02  0.69578434437E-02 -0.31372151853E-01  0.32287429662E-01  0.51100000000E-03 0.  1.
         11    1    4    4    0    0  0.18982927725E-01  0.14616919725E-01 -0.93103590163E-01  0.96138158446E-01  0.51100000000E-03 0. -1.
</event>
<event>
 8    1  0.1196210E+005  0.1043930E+01  0.7957747E-01            NaN
         13   -1    0    0    0    0  0.00000000000E+00  0.00000000000E+00  0.74505805969E-08  0.10566000000E+00  0.10566000000E+00 0. -1.
     999900   -1    0    0    0    0 -0.00000000000E+00 -0.00000000000E+00 -0.74505805969E-08  0.93827000000E+00  0.93827000000E+00 0. -1.
     999902    2    1    2    0    0  0.62683810607E-03  0.23721475248E-03 -0.24010469666E-01  0.10199101780E+01  0.10196272943E+01 0.  0.
     999903    2    3    3    0    0  0.66328000281E-01 -0.11018091395E+00  0.60103938875E-03  0.13023915324E+00  0.20558170385E-01 0.  0.
         14    1    1    2    0    0 -0.62683810607E-03 -0.23721475248E-03  0.24010469666E-01  0.24019822032E-01  0.00000000000E+00 0. -1.
     999901    1    3    3    0    0 -0.65701162175E-01  0.11041812870E+00 -0.24611509055E-01  0.88967102472E+00  0.88000000000E+00 0. -1.
        -11    1    4    4    0    0  0.36403842494E-01 -0.60694549676E-01  0.10544895515E-01  0.71557837105E-01  0.51100000000E-03 0.  1.
         11    1    4    4    0    0  0.29924157787E-01 -0.49486364272E-01 -0.99438561262E-02  0.58681316139E-01  0.51100000000E-03 0. -1.
</event>
<event>
 8    1  0.1196210E+005  0.1043930E+01  0.7957747E-01            NaN
         13   -1    0    0    0    0  0.00000000000E+00  0.00000000000E+00  0.74505805969E-08  0.10566000000E+00  0.10566000000E+00 0.  1.
     999900   -1    0    0    0    0 -0.00000000000E+00 -0.00000000000E+00 -0.74505805969E-08  0.93827000000E+00  0.93827000000E+00 0. -1.
     999902    2    1    2    0    0 -0.22116643208E-01  0.58376543753E-02  0.23123249868E-02  0.10209393288E+01  0.10206804310E+01 0.  0.
     999903    2    3    3    0    0 -0.68965010192E-01  0.70866735339E-01  0.86626135782E-01  0.13328378212E+00  0.21959334400E-01 0.  0.
         14    1    1    2    0    0  0.22116643208E-01 -0.58376543753E-02 -0.23123249868E-02  0.22990671201E-01  0.00000000000E+00 0.  1.
     999901    1    3    3    0    0  0.46848366984E-01 -0.65029080963E-01 -0.84313810796E-01  0.88765554668E+00  0.88000000000E+00 0. -1.
        -11    1    4    4    0    0 -0.22259063801E-01  0.37338744638E-01  0.42615229934E-01  0.60876651647E-01  0.51100000000E-03 0. -1.
         11    1    4    4    0    0 -0.46705946391E-01  0.33527990700E-01  0.44010905848E-01  0.72407130472E-01  0.51100000000E-03 0.  1.
</event>
<event>
 8    1  0.1196210E+005  0.1043930E+01  0.7957747E-01            NaN
         13   -1    0    0    0    0  0.00000000000E+00  0.00000000000E+00  0.74505805969E-08  0.10566000000E+00  0.10566000000E+00 0. -1.
     999900   -1    0    0    0    0 -0.00000000000E+00 -0.00000000000E+00 -0.74505805969E-08  0.93827000000E+00  0.93827000000E+00 0.  1.
     999902    2    1    2    0    0 -0.19636984859E-01  0.39190930631E-02  0.11881660786E-01  0.10206460070E+01  0.10203803837E+01 0.  0.
     999903    2    3    3    0    0  0.18593039128E-01 -0.40185508748E-01  0.12252201349E+00  0.13179954208E+00  0.19972463214E-01 0.  0.
         14    1    1    2    0    0  0.19636984859E-01 -0.39190930631E-02 -0.11881660786E-01  0.23283992953E-01  0.00000000000E+00 0. -1.
     999901    1    3    3    0    0 -0.38230023987E-01  0.44104601811E-01 -0.11064035270E+00  0.88884646497E+00  0.88000000000E+00 0.  1.
        -11    1    4    4    0    0 -0.20312347526E-02 -0.11020215552E-01  0.46018992107E-01  0.47366441929E-01  0.51100000000E-03 0.  1.
         11    1    4    4    0    0  0.20624273880E-01 -0.29165293195E-01  0.76503021380E-01  0.84433100154E-01  0.51100000000E-03 0. -1.
</event>
<event>
 8    1  0.1196210E+005  0.1043930E+01  0.7957747E-01            NaN
         13   -1    0    0    0    0  0.00000000000E+00  0.00000000000E+00  0.74505805969E-08  0.10566000000E+00  0.10566000000E+00 0.  1.
     999900   -1    0    0    0    0 -0.00000000000E+00 -0.00000000000E+00 -0.74505805969E-08  0.93827000000E+00  0.93827000000E+00 0. -1.
     999902    2    1    2    0    0 -0.37611031499E-02  0.21618864225E-01 -0.15959996505E-01  0.10167962079E+01  0.10164341030E+01 0.  0.
     999903    2    3    3    0    0  0.33242604716E-01 -0.11797023822E+00 -0.15795473424E-01  0.12502582319E+00  0.18971336537E-01 0.  0.
         14    1    1    2    0    0  0.37611031499E-02 -0.21618864225E-01  0.15959996505E-01  0.27133792137E-01  0.00000000000E+00 0.  1.
     999901    1    3    3    0    0 -0.37003707866E-01  0.13958910244E+00 -0.16452308106E-03  0.89177038468E+00  0.88000000000E+00 0. -1.
        -11    1    4    4    0    0  0.63064197401E-02 -0.28970871374E-01 -0.11912796276E-01  0.31957129944E-01  0.51100000000E-03 0.  1.
         11    1    4    4    0    0  0.26936184976E-01 -0.88999366842E-01 -0.38826771480E-02  0.93068693244E-01  0.51100000000E-03 0. -1.
</event>
<event>
 8    1  0.1196210E+005  0.1043930E+01  0.7957747E-01            NaN
         13   -1    0    0    0    0  0.00000000000E+00  0.00000000000E+00  0.74505805969E-08  0.10566000000E+00  0.10566000000E+00 0. -1.
     999900   -1    0    0    0    0 -0.00000000000E+00 -0.00000000000E+00 -0.74505805969E-08  0.93827000000E+00  0.93827000000E+00 0.  1.
     999902    2    1    2    0    0 -0.19958657258E-02 -0.33625213936E-02  0.25675076480E-01  0.10179588702E+01  0.10176275163E+01 0.  0.
     999903    2    3    3    0    0 -0.52353966141E-01 -0.63690567154E-01 -0.93582790155E-01  0.12644451243E+00  0.20809853316E-01 0.  0.
         14    1    1    2    0    0  0.19958657258E-02  0.33625213936E-02 -0.25675076480E-01  0.25971129786E-01  0.00000000000E+00 0.  1.
     999901    1    3    3    0    0  0.50358100415E-01  0.60328045760E-01  0.11925786664E+00  0.89151435779E+00  0.88000000000E+00 0. -1.
        -11    1    4    4    0    0 -0.14624085246E-01 -0.23627224324E-01 -0.45740040601E-01  0.53521229748E-01  0.51100000000E-03 0.  1.
         11    1    4    4    0    0 -0.37729880895E-01 -0.40063342829E-01 -0.47842749554E-01  0.72923282681E-01  0.51100000000E-03 0. -1.
</event>
<event>
 8    1  0.1196210E+005  0.1043930E+01  0.7957747E-01            NaN
         13   -1    0    0    0    0  0.00000000000E+00  0.00000000000E+00  0.74505805969E-08  0.10566000000E+00  0.10566000000E+00 0.  1.
     999900   -1    0    0    0    0 -0.00000000000E+00 -0.00000000000E+00 -0.74505805969E-08  0.93827000000E+00  0.93827000000E+00 0.  1.
     999902    2    1    2    0    0 -0.21384914692E-01 -0.12851284171E-02  0.11400552436E-01  0.10196619402E+01  0.10193731081E+01 0.  0.
     999903    2    3    3    0    0  0.14110393560E-01 -0.10622435353E+00  0.72058553581E-01  0.13064475757E+00  0.19821731718E-01 0.  0.
         14    1    1    2    0    0  0.21384914692E-01  0.12851284171E-02 -0.11400552436E-01  0.24268059817E-01  0.00000000000E+00 0. -1.
     999901    1    3    3    0    0 -0.35495308251E-01  0.10493922511E+00 -0.60658001145E-01  0.88901718261E+00  0.88000000000E+00 0.  1.
        -11    1    4    4    0    0 -0.34944442587E-02 -0.42284301632E-01  0.32216953917E-01  0.53276322564E-01  0.51100000000E-03 0.  1.
         11    1    4    4    0    0  0.17604837818E-01 -0.63940051895E-01  0.39841599664E-01  0.77368435009E-01  0.51100000000E-03 0. -1.
</event>
<event>
 8    1  0.1196210E+005  0.1043930E+01  0.7957747E-01            NaN
         13   -1    0    0    0    0  0.00000000000E+00  0.00000000000E+00  0.74505805969E-08  0.10566000000E+00  0.10566000000E+00 0. -1.
     999900   -1    0    0    0    0 -0.00000000000E+00 -0.00000000000E+00 -0.74505805969E-08  0.93827000000E+00  0.93827000000E+00 0.  1.
     999902    2    1    2    0    0  0.19745285827E-02  0.20395963489E-01  0.12565304674E-01  0.10198929251E+01  0.10196096300E+01 0.  0.
     999903    2    3    3    0    0  0.10215739687E+00 -0.68623228137E-01  0.33812581355E-01  0.12949275080E+00  0.21904352882E-01 0.  0.
         14    1    1    2    0    0 -0.19745285827E-02 -0.20395963489E-01 -0.12565304674E-01  0.24037074933E-01  0.00000000000E+00 0.  1.
     999901    1    3    3    0    0 -0.10018286829E+00  0.89019191626E-01 -0.21247276680E-01  0.89040017427E+00  0.88000000000E+00 0. -1.
        -11    1    4    4    0    0  0.36792749848E-01 -0.26797138647E-01  0.18269731235E-02  0.45556470812E-01  0.51100000000E-03 0.  1.
         11    1    4    4    0    0  0.65364647024E-01 -0.41826089490E-01  0.31985608231E-01  0.83936279984E-01  0.51100000000E-03 0. -1.
</event>
<event>
 8    1  0.1196210E+005  0.1043930E+01  0.7957747E-01            NaN
         13   -1    0    0    0    0  0.00000000000E+00  0.00000000000E+00  0.74505805969E-08  0.10566000000E+00  0.10566000000E+00 0.  1.
     999900   -1    0    0    0    0 -0.00000000000E+00 -0.00000000000E+00 -0.74505805969E-08  0.93827000000E+00  0.93827000000E+00 0.  1.
     999902    2    1    2    0    0  0.10495410326E-01 -0.65463278605E-02  0.20235511505E-01  0.10202132554E+01  0.10199375484E+01 0.  0.
     999903    2    3    3    0    0  0.49696978349E-01 -0.97207415674E-01  0.73354147027E-01  0.13309557147E+00  0.20359983808E-01 0.  0.
         14    1    1    2    0    0 -0.10495410326E-01  0.65463278605E-02 -0.20235511505E-01  0.23716744553E-01  0.00000000000E+00 0. -1.
     999901    1    3    3    0    0 -0.39201568023E-01  0.90661087814E-01 -0.53118635522E-01  0.88711768397E+00  0.88000000000E+00 0.  1.
        -11    1    4    4    0    0  0.50801356636E-02 -0.21202849503E-01  0.74522036354E-02  0.23047018580E-01  0.51100000000E-03 0.  1.
         11    1    4    4    0    0  0.44616842685E-01 -0.76004566171E-01  0.65901943391E-01  0.11004855289E+00  0.51100000000E-03 0. -1.
</event>
<event>
 8    1  0.1196210E+005  0.1043930E+01  0.7957747E-01            NaN
         13   -1    0    0    0    0  0.00000000000E+00  0.00000000000E+00  0.74505805969E-08  0.10566000000E+00  0.10566000000E+00 0. -1.
     999900   -1    0    0    0    0 -0.00000000000E+00 -0.00000000000E+00 -0.74505805969E-08  0.93827000000E+00  0.93827000000E+00 0. -1.
     999902    2    1    2    0    0 -0.88286837819E-02 -0.13235617687E-01 -0.17911142027E-01  0.10199730335E+01  0.10196916460E+01 0.  0.
     999903    2    3    3    0    0  0.33654450358E-01  0.18228208166E-01 -0.12395829504E+00  0.13203115049E+00  0.24529088618E-01 0.  0.
         14    1    1    2    0    0  0.88286837819E-02  0.13235617687E-01  0.17911142027E-01  0.23956966452E-01  0.00000000000E+00 0. -1.
     999901    1    3    3    0    0 -0.42483134140E-01 -0.31463825852E-01  0.10604715302E+00  0.88794188306E+00  0.88000000000E+00 0.  1.
        -11    1    4    4    0    0  0.99216167472E-02  0.99078254594E-02 -0.81355649854E-01  0.82556685788E-01  0.51100000000E-03 0. -1.
         11    1    4    4    0    0  0.23732833611E-01  0.83203827062E-02 -0.42602645188E-01  0.49474464703E-01  0.51100000000E-03 0.  1.
</event>
<event>
 8    1  0.1196210E+005  0.1043930E+01  0.7957747E-01            NaN
         13   -1    0    0    0    0  0.00000000000E+00  0.00000000000E+00  0.74505805969E-08  0.10566000000E+00  0.10566000000E+00 0.  1.
     999900   -1    0    0    0    0 -0.00000000000E+00 -0.00000000000E+00 -0.74505805969E-08  0.93827000000E+00  0.93827000000E+00 0. -1.
     999902    2    1    2    0    0 -0.95731527960E-02  0.58141336107E-02  0.19726522347E-01  0.10212455320E+01  0.10209935610E+01 0.  0.
     999903    2    3    3    0    0 -0.41177464181E-01  0.62544286418E-01 -0.10458312832E+00  0.13013945977E+00  0.19780721433E-01 0.  0.
         14    1    1    2    0    0  0.95731527960E-02 -0.58141336107E-02 -0.19726522347E-01  0.22684467990E-01  0.00000000000E+00 0. -1.
     999901    1    3    3    0    0  0.31604311385E-01 -0.56730152808E-01  0.12430965066E+00  0.89110607224E+00  0.88000000000E+00 0.  1.
        -11    1    4    4    0    0 -0.26786508882E-02  0.16895281521E-01 -0.16900951157E-01  0.24052629363E-01  0.51100000000E-03 0. -1.
         11    1    4    4    0    0 -0.38498813292E-01  0.45649004897E-01 -0.87682177160E-01  0.10608683041E+00  0.51100000000E-03 0.  1.
</event>
<event>
 8    1  0.1196210E+005  0.1043930E+01  0.7957747E-01            NaN
         13   -1    0    0    0    0  0.00000000000E+00  0.00000000000E+00  0.74505805969E-08  0.10566000000E+00  0.10566000000E+00 0.  1.
     999900   -1    0    0    0    0 -0.00000000000E+00 -0.00000000000E+00 -0.74505805969E-08  0.93827000000E+00  0.93827000000E+00 0.  1.
     999902    2    1    2    0    0  0.10572082252E-01  0.64385066480E-02 -0.14843411223E-02  0.10314629811E+01  0.10313876356E+01 0.  0.
     999903    2    3    3    0    0 -0.28886639178E-01  0.11622850630E+00 -0.71863106677E-01  0.14097771715E+00  0.19154817471E-01 0.  0.
         14    1    1    2    0    0 -0.10572082252E-01 -0.64385066480E-02  0.14843411223E-02  0.12467018872E-01  0.00000000000E+00 0. -1.
     999901    1    3    3    0    0  0.39458721430E-01 -0.10978999965E+00  0.70378765554E-01  0.89048526398E+00  0.88000000000E+00 0.  1.
        -11    1    4    4    0    0 -0.14587503158E-01  0.58187420923E-01 -0.24877896146E-01  0.64944145538E-01  0.51100000000E-03 0.  1.
         11    1    4    4    0    0 -0.14299136020E-01  0.58041085375E-01 -0.46985210531E-01  0.76033571612E-01  0.51100000000E-03 0. -1.
</event>
<event>
 8    1  0.1196210E+005  0.1043930E+01  0.7957747E-01            NaN
         13   -1    0    0    0    0  0.00000000000E+00  0.00000000000E+00  0.74505805969E-08  0.10566000000E+00  0.10566000000E+00 0. -1.
     999900   -1    0    0    0    0 -0.00000000000E+00 -0.00000000000E+00 -0.74505805969E-08  0.93827000000E+00  0.93827000000E+00 0.  1.
     999902    2    1    2    0    0  0.43532890014E-02 -0.69008636947E-02  0.17179375528E-01  0.10249114830E+01  0.10247350116E+01 0.  0.
     999903    2    3    3    0    0  0.77546931761E-01  0.77545001154E-01 -0.73019538593E-01  0.13327015516E+00  0.20058100856E-01 0.  0.
         14    1    1    2    0    0 -0.43532890014E-02  0.69008636947E-02 -0.17179375528E-01  0.19018516987E-01  0.00000000000E+00 0.  1.
     999901    1    3    3    0    0 -0.73193642759E-01 -0.84445864849E-01  0.90198914121E-01  0.89164132786E+00  0.88000000000E+00 0. -1.
        -11    1    4    4    0    0  0.20042888317E-01  0.33338350388E-01 -0.27381933144E-01  0.47573042392E-01  0.51100000000E-03 0.  1.
         11    1    4    4    0    0  0.57504043444E-01  0.44206650766E-01 -0.45637605448E-01  0.85697112766E-01  0.51100000000E-03 0. -1.
</event>
<event>
 8    1  0.1196210E+005  0.1043930E+01  0.7957747E-01            NaN
         13   -1    0    0    0    0  0.00000000000E+00  0.00000000000E+00  0.74505805969E-08  0.10566000000E+00  0.10566000000E+00 0.  1.
     999900   -1    0    0    0    0 -0.00000000000E+00 -0.00000000000E+00 -0.74505805969E-08  0.93827000000E+00  0.93827000000E+00 0. -1.
     999902    2    1    2    0    0 -0.90881957889E-02  0.17531287463E-01  0.12675998007E-01  0.10204646581E+01  0.10201948325E+01 0.  0.
     999903    2    3    3    0    0  0.14453809823E-01 -0.10624711011E+00  0.70002528277E-01  0.12964388560E+00  0.20244062919E-01 0.  0.
         14    1    1    2    0    0  0.90881957889E-02 -0.17531287463E-01 -0.12675998007E-01  0.23465341853E-01  0.00000000000E+00 0. -1.
     999901    1    3    3    0    0 -0.23542005612E-01  0.12377839757E+00 -0.57326530270E-01  0.89082077255E+00  0.88000000000E+00 0. -1.
        -11    1    4    4    0    0  0.84525625273E-03 -0.61587136917E-01  0.31817445926E-01  0.69327490060E-01  0.51100000000E-03 0.  1.
         11    1    4    4    0    0  0.13608553570E-01 -0.44659973188E-01  0.38185082351E-01  0.60316395537E-01  0.51100000000E-03 0. -1.
</event>
<event>
 8    1  0.1196210E+005  0.1043930E+01  0.7957747E-01            NaN
         13   -1    0    0    0    0  0.00000000000E+00  0.00000000000E+00  0.74505805969E-08  0.10566000000E+00  0.10566000000E+00 0.  1.
     999900   -1    0    0    0    0 -0.00000000000E+00 -0.00000000000E+00 -0.74505805969E-08  0.93827000000E+00  0.93827000000E+00 0. -1.
     999902    2    1    2    0    0  0.29991057706E-02 -0.12045884995E-01 -0.21300174772E-01  0.10192764926E+01  0.10189782986E+01 0.  0.
     999903    2    3    3    0    0 -0.33458352460E-01  0.10942200240E+00  0.50521256846E-01  0.12728887389E+00  0.23609829803E-01 0.  0.
         14    1    1    2    0    0 -0.29991057706E-02  0.12045884995E-01  0.21300174772E-01  0.24653507379E-01  0.00000000000E+00 0.  1.
     999901    1    3    3    0    0  0.36457458231E-01 -0.12146788740E+00 -0.71821431618E-01  0.89198761873E+00  0.88000000000E+00 0. -1.
        -11    1    4    4    0    0 -0.19543715446E-01  0.61227205242E-01  0.40974444242E-01  0.76222658555E-01  0.51100000000E-03 0. -1.
         11    1    4    4    0    0 -0.13914637014E-01  0.48194797163E-01  0.95468126034E-02  0.51066215335E-01  0.51100000000E-03 0.  1.
</event>
<event>
 8    1  0.1196210E+005  0.1043930E+01  0.7957747E-01            NaN
         13   -1    0    0    0    0  0.00000000000E+00  0.00000000000E+00  0.74505805969E-08  0.10566000000E+00  0.10566000000E+00 0.  1.
     999900   -1    0    0    0    0 -0.00000000000E+00 -0.00000000000E+00 -0.74505805969E-08  0.93827000000E+00  0.93827000000E+00 0.  1.
     999902    2    1    2    0    0  0.12569626224E-02  0.90940248090E-02  0.21871515425E-01  0.10202098729E+01  0.10199340863E+01 0.  0.
     999903    2    3    3    0    0  0.11069635062E+00  0.38327331521E-01  0.58183151567E-01  0.13220643779E+00  0.19250887854E-01 0.  0.
         14    1    1    2    0    0 -0.12569626224E-02 -0.90940248090E-02 -0.21871515425E-01  0.23720127092E-01  0.00000000000E+00 0. -1.
     999901    1    3    3    0    0 -0.10943938800E+00 -0.29233306712E-01 -0.36311636142E-01  0.88800343512E+00  0.88000000000E+00 0.  1.
        -11    1    4    4    0    0  0.56930489771E-01  0.22198992025E-01  0.40664454869E-01  0.73401191566E-01  0.51100000000E-03 0.  1.
         11    1    4    4    0    0  0.53765860854E-01  0.16128339495E-01  0.17518696698E-01  0.58805246222E-01  0.51100000000E-03 0. -1.
</event>
<event>
 8    1  0.1196210E+005  0.1043930E+01  0.7957747E-01            NaN
         13   -1    0    0    0    0  0.00000000000E+00  0.00000000000E+00  0.74505805969E-08  0.10566000000E+00  0.10566000000E+00 0.  1.
     999900   -1    0    0    0    0 -0.00000000000E+00 -0.00000000000E+00 -0.74505805969E-08  0.93827000000E+00  0.93827000000E+00 0. -1.
     999902    2    1    2    0    0  0.24035095223E-01  0.18365472043E-03 -0.36408103226E-02  0.10196200220E+01  0.10193301792E+01 0.  0.
     999903    2    3    3    0    0 -0.57889260292E-01  0.86394752543E-01 -0.73374709479E-01  0.12888618401E+00  0.20312082953E-01 0.  0.
         14    1    1    2    0    0 -0.24035095223E-01 -0.18365472043E-03  0.36408103226E-02  0.24309978018E-01  0.00000000000E+00 0. -1.
     999901    1    3    3    0    0  0.81924355515E-01 -0.86211097823E-01  0.69733899156E-01  0.89073383797E+00  0.88000000000E+00 0.  1.
        -11    1    4    4    0    0 -0.15103349189E-01  0.34289079512E-01 -0.17672992221E-01  0.41430036272E-01  0.51100000000E-03 0.  1.
         11    1    4    4    0    0 -0.42785911103E-01  0.52105673031E-01 -0.55701717258E-01  0.87456147739E-01  0.51100000000E-03 0. -1.
</event>
<event>
 8    1  0.1196210E+005  0.1043930E+01  0.7957747E-01            NaN
         13   -1    0    0    0    0  0.00000000000E+00  0.00000000000E+00  0.74505805969E-08  0.10566000000E+00  0.10566000000E+00 0. -1.
     999900   -1    0    0    0    0 -0.00000000000E+00 -0.00000000000E+00 -0.74505805969E-08  0.93827000000E+00  0.93827000000E+00 0.  1.
     999902    2    1    2    0    0  0.15462041200E-01  0.43504751732E-02  0.16096976527E-01  0.10211898592E+01  0.10209366359E+01 0.  0.
     999903    2    3    3    0    0  0.22474683876E-01 -0.11516541808E+00 -0.53150645321E-01  0.13038771556E+00  0.20193571656E-01 0.  0.
         14    1    1    2    0    0 -0.15462041200E-01 -0.43504751732E-02 -0.16096976527E-01  0.22740140844E-01  0.00000000000E+00 0.  1.
     999901    1    3    3    0    0 -0.70126426762E-02  0.11951589325E+00  0.69247621847E-01  0.89080214359E+00  0.88000000000E+00 0. -1.
        -11    1    4    4    0    0  0.20191159470E-01 -0.57160796959E-01 -0.21898071671E-01  0.64457942052E-01  0.51100000000E-03 0. -1.
         11    1    4    4    0    0  0.22835244057E-02 -0.58004621117E-01 -0.31252573650E-01  0.65929773512E-01  0.51100000000E-03 0.  1.
</event>
<event>
 8    1  0.1196210E+005  0.1043930E+01  0.7957747E-01            NaN
         13   -1    0    0    0    0  0.00000000000E+00  0.00000000000E+00  0.74505805969E-08  0.10566000000E+00  0.10566000000E+00 0.  1.
     999900   -1    0    0    0    0 -0.00000000000E+00 -0.00000000000E+00 -0.74505805969E-08  0.93827000000E+00  0.93827000000E+00 0. -1.
     999902    2    1    2    0    0  0.23188977714E-03 -0.21277475741E-01  0.94091931236E-02  0.10206637656E+01  0.10203985519E+01 0.  0.
     999903    2    3    3    0    0 -0.11797795909E+00 -0.35848306939E-01  0.42495169145E-01  0.13202404150E+00  0.20508734526E-01 0.  0.
         14    1    1    2    0    0 -0.23188977714E-03  0.21277475741E-01 -0.94091931236E-02  0.23266234375E-01  0.00000000000E+00 0. -1.
     999901    1    3    3    0    0  0.11820984886E+00  0.14570831198E-01 -0.33085976022E-01  0.88863972413E+00  0.88000000000E+00 0. -1.
        -11    1    4    4    0    0 -0.33397535483E-01 -0.19856647735E-02  0.66336465414E-02  0.34111649452E-01  0.51100000000E-03 0.  1.
         11    1    4    4    0    0 -0.84580423603E-01 -0.33862642165E-01  0.35861522604E-01  0.97912392044E-01  0.51100000000E-03 0. -1.
</event>
<event>
 8    1  0.1196210E+005  0.1043930E+01  0.7957747E-01            NaN
         13   -1    0    0    0    0  0.00000000000E+00  0.00000000000E+00  0.74505805969E-08  0.10566000000E+00  0.10566000000E+00 0. -1.
     999900   -1    0    0    0    0 -0.00000000000E+00 -0.00000000000E+00 -0.74505805969E-08  0.93827000000E+00  0.93827000000E+00 0. -1.
     999902    2    1    2    0    0  0.52240063910E-02  0.12382865961E-01  0.19415539525E-01  0.10203166820E+01  0.10200434024E+01 0.  0.
     999903    2    3    3    0    0  0.69677326562E-01  0.18902415364E-01 -0.10396356896E+00  0.12935139680E+00  0.26667002846E-01 0.  0.
         14    1    1    2    0    0 -0.52240063910E-02 -0.12382865961E-01 -0.19415539525E-01  0.23613318006E-01  0.00000000000E+00 0.  1.
     999901    1    3    3    0    0 -0.64453320171E-01 -0.65195494026E-02  0.12337910848E+00  0.89096528519E+00  0.88000000000E+00 0.  1.
        -11    1    4    4    0    0  0.44097764500E-01  0.43353897254E-02 -0.79740572726E-01  0.91226248951E-01  0.51100000000E-03 0. -1.
         11    1    4    4    0    0  0.25579562062E-01  0.14567025639E-01 -0.24222996233E-01  0.38125147852E-01  0.51100000000E-03 0.  1.
</event>
<event>
 8    1  0.1196210E+005  0.1043930E+01  0.7957747E-01            NaN
         13   -1    0    0    0    0  0.00000000000E+00  0.00000000000E+00  0.74505805969E-08  0.10566000000E+00  0.10566000000E+00 0.  1.
     999900   -1    0    0    0    0 -0.00000000000E+00 -0.00000000000E+00 -0.74505805969E-08  0.93827000000E+00  0.93827000000E+00 0.  1.
     999902    2    1    2    0    0  0.14607009807E-01 -0.17685869260E-01  0.18607784609E-01  0.10143935081E+01  0.10139634041E+01 0.  0.
     999903    2    3    3    0    0 -0.95236684393E-01  0.74432946843E-01  0.77526748762E-02  0.12272689614E+00  0.19786294217E-01 0.  0.
         14    1    1    2    0    0 -0.14607009807E-01  0.17685869260E-01 -0.18607784609E-01  0.29536491922E-01  0.00000000000E+00 0. -1.
     999901    1    3    3    0    0  0.10984369420E+00 -0.92118816103E-01  0.10855109733E-01  0.89166661194E+00  0.88000000000E+00 0.  1.
        -11    1    4    4    0    0 -0.27290247122E-01  0.29919201341E-01  0.89973463936E-02  0.41486498527E-01  0.51100000000E-03 0.  1.
         11    1    4    4    0    0 -0.67946437270E-01  0.44513745502E-01 -0.12446715174E-02  0.81240397614E-01  0.51100000000E-03 0. -1.
</event>
<event>
 8    1  0.1196210E+005  0.1043930E+01  0.7957747E-01            NaN
         13   -1    0    0    0    0  0.00000000000E+00  0.00000000000E+00  0.74505805969E-08  0.10566000000E+00  0.10566000000E+00 0. -1.
     999900   -1    0    0    0    0 -0.00000000000E+00 -0.00000000000E+00 -0.74505805969E-08  0.93827000000E+00  0.93827000000E+00 0.  1.
     999902    2    1    2    0    0  0.12625162073E-02 -0.10936938243E-01 -0.20719213554E-01  0.10204673408E+01  0.10201975776E+01 0.  0.
     999903    2    3    3    0    0  0.20014620501E-02  0.12302688617E+00 -0.37521166780E-01  0.13017011072E+00  0.19919819242E-01 0.  0.
         14    1    1    2    0    0 -0.12625162073E-02  0.10936938243E-01  0.20719213554E-01  0.23462659176E-01  0.00000000000E+00 0. -1.
     999901    1    3    3    0    0 -0.73894584280E-03 -0.13396382441E+00  0.16801953225E-01  0.89029723010E+00  0.88000000000E+00 0. -1.
        -11    1    4    4    0    0  0.32518126719E-03  0.91277727382E-01 -0.18557200706E-01  0.93146981045E-01  0.51100000000E-03 0.  1.
         11    1    4    4    0    0  0.16762807829E-02  0.31749158787E-01 -0.18963966073E-01  0.37023129678E-01  0.51100000000E-03 0. -1.
</event>
<event>
 7    1  0.1196210E+005  0.1043930E+01  0.7957747E-01            NaN
         13   -1    0    0    0    0  0.00000000000E+00  0.00000000000E+00  0.74505805969E-08  0.10566000000E+00  0.10566000000E+00 0.  1.
     999900   -1    0    0    0    0 -0.00000000000E+00 -0.00000000000E+00 -0.74505805969E-08  0.93827000000E+00  0.93827000000E+00 0.  1.
     999902    2    1    2    0    0  0.65150485193E-02  0.21833271614E-01  0.19423611099E-02  0.10210627664E+01  0.10208066725E+01 0.  0.
         14    1    1    2    0    0 -0.65150485193E-02 -0.21833271614E-01 -0.19423611099E-02  0.22867233616E-01  0.00000000000E+00 0. -1.
     999901    1    3    3    0    0  0.10200857886E+00 -0.31108974471E-01  0.67203254969E-01  0.88898244973E+00  0.88000000000E+00 0. -1.
        -11    1    3    3    0    0 -0.19212651440E-01  0.29164928399E-01 -0.20058662571E-01  0.40278158958E-01  0.51100000000E-03 0.  1.
         11    1    3    3    0    0 -0.76280878905E-01  0.23777317686E-01 -0.45202231288E-01  0.91802157694E-01  0.51100000000E-03 0. -1.
</event>
<event>
 8    1  0.1196210E+005  0.1043930E+01  0.7957747E-01            NaN
         13   -1    0    0    0    0  0.00000000000E+00  0.00000000000E+00  0.74505805969E-08  0.10566000000E+00  0.10566000000E+00 0.  1.
     999900   -1    0    0    0    0 -0.00000000000E+00 -0.00000000000E+00 -0.74505805969E-08  0.93827000000E+00  0.93827000000E+00 0. -1.
     999902    2    1    2    0    0  0.96995447780E-02 -0.11082820179E-01 -0.18692654857E-01  0.10201324073E+01  0.10198547951E+01 0.  0.
     999903    2    3    3    0    0  0.80920978303E-01 -0.61224697597E-01  0.79401294078E-01  0.13040822349E+00  0.20126373917E-01 0.  0.
         14    1    1    2    0    0 -0.96995447780E-02  0.11082820179E-01  0.18692654857E-01  0.23797592686E-01  0.00000000000E+00 0.  1.
     999901    1    3    3    0    0 -0.71221433525E-01  0.50141877418E-01 -0.98093948935E-01  0.88972418382E+00  0.88000000000E+00 0. -1.
        -11    1    4    4    0    0  0.50644705361E-01 -0.30964635007E-01  0.35890930406E-01  0.69369408305E-01  0.51100000000E-03 0.  1.
         11    1    4    4    0    0  0.30276272942E-01 -0.30260062590E-01  0.43510363672E-01  0.61038815185E-01  0.51100000000E-03 0. -1.
</event>
<event>
 8    1  0.1196210E+005  0.1043930E+01  0.7957747E-01            NaN
         13   -1    0    0    0    0  0.00000000000E+00  0.00000000000E+00  0.74505805969E-08  0.10566000000E+00  0.10566000000E+00 0.  1.
     999900   -1    0    0    0    0 -0.00000000000E+00 -0.00000000000E+00 -0.74505805969E-08  0.93827000000E+00  0.93827000000E+00 0. -1.
     999902    2    1    2    0    0  0.12823080263E-01  0.86896928549E-02  0.17946923900E-01  0.10202227389E+01  0.10199472549E+01 0.  0.
     999903    2    3    3    0    0 -0.40637605575E-01 -0.11124071338E+00  0.48574088896E-01  0.12995347040E+00  0.22417650599E-01 0.  0.
         14    1    1    2    0    0 -0.12823080263E-01 -0.86896928549E-02 -0.17946923900E-01  0.23707261057E-01  0.00000000000E+00 0. -1.
     999901    1    3    3    0    0  0.53460685838E-01  0.11993040623E+00 -0.30627164996E-01  0.89026926854E+00  0.88000000000E+00 0. -1.
        -11    1    4    4    0    0 -0.43958213087E-02 -0.41775487510E-01  0.20284272951E-01  0.46650053074E-01  0.51100000000E-03 0. -1.
         11    1    4    4    0    0 -0.36241784266E-01 -0.69465225868E-01  0.28289815945E-01  0.83303417330E-01  0.51100000000E-03 0.  1.
</event>
<event>
 8    1  0.1196210E+005  0.1043930E+01  0.7957747E-01            NaN
         13   -1    0    0    0    0  0.00000000000E+00  0.00000000000E+00  0.74505805969E-08  0.10566000000E+00  0.10566000000E+00 0. -1.
     999900   -1    0    0    0    0 -0.00000000000E+00 -0.00000000000E+00 -0.74505805969E-08  0.93827000000E+00  0.93827000000E+00 0. -1.
     999902    2    1    2    0    0 -0.54332394777E-02 -0.73545515928E-02 -0.20872960334E-01  0.10211420647E+01  0.10208877639E+01 0.  0.
     999903    2    3    3    0    0 -0.83400063045E-01 -0.10098247052E+00  0.16236375671E-03  0.13249843671E+00  0.20069367213E-01 0.  0.
         14    1    1    2    0    0  0.54332394777E-02  0.73545515928E-02  0.20872960334E-01  0.22787935261E-01  0.00000000000E+00 0. -1.
     999901    1    3    3    0    0  0.77966823567E-01  0.93627918925E-01 -0.21035324091E-01  0.88864362803E+00  0.88000000000E+00 0. -1.
        -11    1    4    4    0    0 -0.19358554837E-01 -0.36391605968E-01  0.42885204588E-02  0.41445809909E-01  0.51100000000E-03 0.  1.
         11    1    4    4    0    0 -0.64041508208E-01 -0.64590864550E-01 -0.41261567021E-02  0.91052626799E-01  0.51100000000E-03 0. -1.
</event>
<event>
 8    1  0.1196210E+005  0.1043930E+01  0.7957747E-01            NaN
         13   -1    0    0    0    0  0.00000000000E+00  0.00000000000E+00  0.74505805969E-08  0.10566000000E+00  0.10566000000E+00 0.  1.
     999900   -1    0    0    0    0 -0.00000000000E+00 -0.00000000000E+00 -0.74505805969E-08  0.93827000000E+00  0.93827000000E+00 0.  1.
     999902    2    1    2    0    0  0.14306934004E-02 -0.23829626437E-01  0.45766114435E-02  0.10196227305E+01  0.10193329530E+01 0.  0.
     999903    2    3    3    0    0 -0.89539501521E-01 -0.93473067051E-01 -0.16169779090E-01  0.13195376182E+00  0.19894645153E-01 0.  0.
         14    1    1    2    0    0 -0.14306934004E-02  0.23829626437E-01 -0.45766114435E-02  0.24307269530E-01  0.00000000000E+00 0.  1.
     999901    1    3    3    0    0  0.90970194922E-01  0.69643440615E-01  0.20746390533E-01  0.88766896865E+00  0.88000000000E+00 0.  1.
        -11    1    4    4    0    0 -0.32614277734E-01 -0.26418437237E-01 -0.12977750873E-01  0.43935271445E-01  0.51100000000E-03 0.  1.
         11    1    4    4    0    0 -0.56925223787E-01 -0.67054629814E-01 -0.31920282173E-02  0.88018490375E-01  0.51100000000E-03 0. -1.
</event>
<event>
 8    1  0.1196210E+005  0.1043930E+01  0.7957747E-01            NaN
         13   -1    0    0    0    0  0.00000000000E+00  0.00000000000E+00  0.74505805969E-08  0.10566000000E+00  0.10566000000E+00 0. -1.
     999900   -1    0    0    0    0 -0.00000000000E+00 -0.00000000000E+00 -0.74505805969E-08  0.93827000000E+00  0.93827000000E+00 0. -1.
     999902    2    1    2    0    0  0.21681483566E-02 -0.45925675071E-02  0.23146335009E-01  0.10202330515E+01  0.10199578099E+01 0.  0.
     999903    2    3    3    0    0  0.27518398262E-01 -0.90546964512E-01  0.91530819461E-01  0.13304241176E+00  0.19140987202E-01 0.  0.
         14    1    1    2    0    0 -0.21681483566E-02  0.45925675071E-02 -0.23146335009E-01  0.23696948494E-01  0.00000000000E+00 0.  1.
     999901    1    3    3    0    0 -0.25350249905E-01  0.85954397005E-01 -0.68384484452E-01  0.88719063974E+00  0.88000000000E+00 0.  1.
        -11    1    4    4    0    0  0.19369634142E-01 -0.48110172591E-01  0.38278636661E-01  0.64461512386E-01  0.51100000000E-03 0. -1.
         11    1    4    4    0    0  0.81487641202E-02 -0.42436791921E-01  0.53252182800E-01  0.68580899376E-01  0.51100000000E-03 0.  1.
</event>
<event>
 8    1  0.1196210E+005  0.1043930E+01  0.7957747E-01            NaN
         13   -1    0    0    0    0  0.00000000000E+00  0.00000000000E+00  0.74505805969E-08  0.10566000000E+00  0.10566000000E+00 0. -1.
     999900   -1    0    0    0    0 -0.00000000000E+00 -0.00000000000E+00 -0.74505805969E-08  0.93827000000E+00  0.93827000000E+00 0.  1.
     999902    2    1    2    0    0  0.10138245691E-03 -0.54831642271E-02  0.22705061206E-01  0.10205720212E+01  0.10203046875E+01 0.  0.
     999903    2    3    3    0    0  0.12690653258E+00  0.43261297783E-02  0.26611841046E-01  0.13142016058E+00  0.20954357874E-01 0.  0.
         14    1    1    2    0    0 -0.10138245691E-03  0.54831642271E-02 -0.22705061206E-01  0.23357978781E-01  0.00000000000E+00 0.  1.
     999901    1    3    3    0    0 -0.12680515012E+00 -0.98092940054E-02 -0.39067798396E-02  0.88915186064E+00  0.88000000000E+00 0. -1.
        -11    1    4    4    0    0  0.79560174126E-01  0.12763944342E-01  0.15452412664E-01  0.82047411661E-01  0.51100000000E-03 0. -1.
         11    1    4    4    0    0  0.47346358451E-01 -0.84378145639E-02  0.11159428381E-01  0.49372748921E-01  0.51100000000E-03 0.  1.
</event>
<event>
 8    1  0.1196210E+005  0.1043930E+01  0.7957747E-01            NaN
         13   -1    0    0    0    0  0.00000000000E+00  0.00000000000E+00  0.74505805969E-08  0.10566000000E+00  0.10566000000E+00 0. -1.
     999900   -1    0    0    0    0 -0.00000000000E+00 -0.00000000000E+00 -0.74505805969E-08  0.93827000000E+00  0.93827000000E+00 0. -1.
     999902    2    1    2    0    0  0.15923102996E-01  0.17181750788E-01  0.10607894019E-02  0.10204804149E+01  0.10202109557E+01 0.  0.
     999903    2    3    3    0    0  0.79479466949E-01 -0.40979291415E-01 -0.93905267022E-01  0.13118818499E+00  0.19896047742E-01 0.  0.
         14    1    1    2    0    0 -0.15923102996E-01 -0.17181750788E-01 -0.10607894019E-02  0.23449585141E-01  0.00000000000E+00 0.  1.
     999901    1    3    3    0    0 -0.63556363953E-01  0.58161042203E-01  0.94966056423E-01  0.88929222987E+00  0.88000000000E+00 0.  1.
        -11    1    4    4    0    0  0.34162729351E-01 -0.19466108747E-01 -0.55452167791E-01  0.67979596205E-01  0.51100000000E-03 0.  1.
         11    1    4    4    0    0  0.45316737597E-01 -0.21513182668E-01 -0.38453099230E-01  0.63208588787E-01  0.51100000000E-03 0. -1.
</event>
<event>
 8    1  0.1196210E+005  0.1043930E+01  0.7957747E-01            NaN
         13   -1    0    0    0    0  0.00000000000E+00  0.00000000000E+00  0.74505805969E-08  0.10566000000E+00  0.10566000000E+00 0.  1.
     999900   -1    0    0    0    0 -0.00000000000E+00 -0.00000000000E+00 -0.74505805969E-08  0.93827000000E+00  0.93827000000E+00 0. -1.
     999902    2    1    2    0    0 -0.11694309071E-01  0.11526644745E-01  0.17324010855E-01  0.10200607362E+01  0.10197814294E+01 0.  0.
     999903    2    3    3    0    0  0.32409816186E-01 -0.43150084771E-01  0.11805696877E+00  0.13153282584E+00  0.21239359634E-01 0.  0.
         14    1    1    2    0    0  0.11694309071E-01 -0.11526644745E-01 -0.17324010855E-01  0.23869263831E-01  0.00000000000E+00 0. -1.
     999901    1    3    3    0    0 -0.44104125257E-01  0.54676729516E-01 -0.10073295792E+00  0.88852791032E+00  0.88000000000E+00 0. -1.
        -11    1    4    4    0    0  0.20151587464E-01 -0.11163233054E-01  0.37800867726E-01  0.44270429989E-01  0.51100000000E-03 0.  1.
         11    1    4    4    0    0  0.12258228722E-01 -0.31986851716E-01  0.80256101047E-01  0.87262395855E-01  0.51100000000E-03 0. -1.
</event>
<event>
 8    1  0.1196210E+005  0.1043930E+01  0.7957747E-01            NaN
         13   -1    0    0    0    0  0.00000000000E+00  0.00000000000E+00  0.74505805969E-08  0.10566000000E+00  0.10566000000E+00 0.  1.
     999900   -1    0    0    0    0 -0.00000000000E+00 -0.00000000000E+00 -0.74505805969E-08  0.93827000000E+00  0.93827000000E+00 0.  1.
     999902    2    1    2    0    0 -0.65237942246E-02 -0.19139017367E-01 -0.12822279670E-01  0.10199868855E+01  0.10197058271E+01 0.  0.
     999903    2    3    3    0    0  0.52036538221E-01 -0.73688618822E-01  0.91714306193E-01  0.13019316257E+00  0.20023280571E-01 0.  0.
         14    1    1    2    0    0  0.65237942246E-02  0.19139017367E-01  0.12822279670E-01  0.23943114518E-01  0.00000000000E+00 0.  1.
     999901    1    3    3    0    0 -0.58560332446E-01  0.54549601455E-01 -0.10453658586E+00  0.88979372291E+00  0.88000000000E+00 0.  1.
        -11    1    4    4    0    0  0.42076917748E-01 -0.70113122215E-01  0.82378603323E-01  0.11607244428E+00  0.51100000000E-03 0.  1.
         11    1    4    4    0    0  0.99596204735E-02 -0.35754966070E-02  0.93357028702E-02  0.14120718291E-01  0.51100000000E-03 0. -1.
</event>
<event>
 8    1  0.1196210E+005  0.1043930E+01  0.7957747E-01            NaN
         13   -1    0    0    0    0  0.00000000000E+00  0.00000000000E+00  0.74505805969E-08  0.10566000000E+00  0.10566000000E+00 0.  1.
     999900   -1    0    0    0    0 -0.00000000000E+00 -0.00000000000E+00 -0.74505805969E-08  0.93827000000E+00  0.93827000000E+00 0.  1.
     999902    2    1    2    0    0  0.19383849922E-01  0.10600871008E-01  0.81172891117E-02  0.10203927426E+01  0.10201212411E+01 0.  0.
     999903    2    3    3    0    0  0.76527462442E-01 -0.26255293049E-01  0.10331835760E+00  0.13265009254E+00  0.19379657173E-01 0.  0.
         14    1    1    2    0    0 -0.19383849922E-01 -0.10600871008E-01 -0.81172891117E-02  0.23537257411E-01  0.00000000000E+00 0.  1.
     999901    1    3    3    0    0 -0.57143612520E-01  0.36856164056E-01 -0.95201068487E-01  0.88774265005E+00  0.88000000000E+00 0.  1.
        -11    1    4    4    0    0  0.38459664940E-01 -0.41528920203E-02  0.41220601459E-01  0.56531331535E-01  0.51100000000E-03 0. -1.
         11    1    4    4    0    0  0.38067797502E-01 -0.22102401028E-01  0.62097756139E-01  0.76118761002E-01  0.51100000000E-03 0.  1.
</event>
<event>
 8    1  0.1196210E+005  0.1043930E+01  0.7957747E-01            NaN
         13   -1    0    0    0    0  0.00000000000E+00  0.00000000000E+00  0.74505805969E-08  0.10566000000E+00  0.10566000000E+00 0.  1.
     999900   -1    0    0    0    0 -0.00000000000E+00 -0.00000000000E+00 -0.74505805969E-08  0.93827000000E+00  0.93827000000E+00 0. -1.
     999902    2    1    2    0    0  0.14307766133E-01 -0.76993855222E-03 -0.19721492963E-01  0.10195529152E+01  0.10192614506E+01 0.  0.
     999903    2    3    3    0    0  0.42046455140E-01 -0.11586942307E+00 -0.40808055134E-01  0.13137389650E+00  0.20004392693E-01 0.  0.
         14    1    1    2    0    0 -0.14307766133E-01  0.76993855222E-03  0.19721492963E-01  0.24377084768E-01  0.00000000000E+00 0.  1.
     999901    1    3    3    0    0 -0.27738689007E-01  0.11509948452E+00  0.21086562171E-01  0.88817901873E+00  0.88000000000E+00 0. -1.
        -11    1    4    4    0    0  0.41213580260E-01 -0.10503407370E+00 -0.31739990129E-01  0.11721093776E+00  0.51100000000E-03 0.  1.
         11    1    4    4    0    0  0.83287487952E-03 -0.10835349366E-01 -0.90680650049E-02  0.14162958744E-01  0.51100000000E-03 0. -1.
</event>
<event>
 8    1  0.1196210E+005  0.1043930E+01  0.7957747E-01            NaN
         13   -1    0    0    0    0  0.00000000000E+00  0.00000000000E+00  0.74505805969E-08  0.10566000000E+00  0.10566000000E+00 0. -1.
     999900   -1    0    0    0    0 -0.00000000000E+00 -0.00000000000E+00 -0.74505805969E-08  0.93827000000E+00  0.93827000000E+00 0. -1.
     999902    2    1    2    0    0  0.13724692095E-01  0.12084921827E-01  0.15113731341E-01  0.10202058059E+01  0.10199299236E+01 0.  0.
     999903    2    3    3    0    0  0.79559255338E-01  0.97466922579E-01 -0.34144947632E-01  0.13225834510E+00  0.22291619311E-01 0.  0.
         14    1    1    2    0    0 -0.13724692095E-01 -0.12084921827E-01 -0.15113731341E-01  0.23724194058E-01  0.00000000000E+00 0. -1.
     999901    1    3    3    0    0 -0.65834563244E-01 -0.85382000752E-01  0.49258678974E-01  0.88794746085E+00  0.88000000000E+00 0. -1.
        -11    1    4    4    0    0  0.61452211663E-01  0.69851207735E-01 -0.34506902382E-01  0.99229798818E-01  0.51100000000E-03 0.  1.
         11    1    4    4    0    0  0.18107043675E-01  0.27615714843E-01  0.36195474952E-03  0.33028546278E-01  0.51100000000E-03 0. -1.
</event>
<event>
 8    1  0.1196210E+005  0.1043930E+01  0.7957747E-01            NaN
         13   -1    0    0    0    0  0.00000000000E+00  0.00000000000E+00  0.74505805969E-08  0.10566000000E+00  0.10566000000E+00 0. -1.
     999900   -1    0    0    0    0 -0.00000000000E+00 -0.00000000000E+00 -0.74505805969E-08  0.93827000000E+00  0.93827000000E+00 0.  1.
     999902    2    1    2    0    0 -0.16881209720E-01  0.60539875095E-02  0.16212058835E-01  0.10197544574E+01  0.10194678497E+01 0.  0.
     999903    2    3    3    0    0 -0.67851460738E-01  0.10098347652E+00 -0.43995525198E-01  0.13114063381E+00  0.21465701587E-01 0.  0.
         14    1    1    2    0    0  0.16881209720E-01 -0.60539875095E-02 -0.16212058835E-01  0.24175542560E-01  0.00000000000E+00 0.  1.
     999901    1    3    3    0    0  0.50970251018E-01 -0.94929489008E-01  0.60207584034E-01  0.88861382363E+00  0.88000000000E+00 0.  1.
        -11    1    4    4    0    0 -0.23554437293E-01  0.52052583674E-01 -0.15172323140E-01  0.59116355553E-01  0.51100000000E-03 0.  1.
         11    1    4    4    0    0 -0.44297023445E-01  0.48930892843E-01 -0.28823202058E-01  0.72024278257E-01  0.51100000000E-03 0. -1.
</event>
<event>
 8    1  0.1196210E+005  0.1043930E+01  0.7957747E-01            NaN
         13   -1    0    0    0    0  0.00000000000E+00  0.00000000000E+00  0.74505805969E-08  0.10566000000E+00  0.10566000000E+00 0. -1.
     999900   -1    0    0    0    0 -0.00000000000E+00 -0.00000000000E+00 -0.74505805969E-08  0.93827000000E+00  0.93827000000E+00 0.  1.
     999902    2    1    2    0    0 -0.20636076261E-02  0.18231896408E-01 -0.88397282770E-02  0.10235633282E+01  0.10233606821E+01 0.  0.
     999903    2    3    3    0    0  0.27292313018E-01  0.85956163900E-01 -0.99171963242E-01  0.13586503536E+00  0.22156197283E-01 0.  0.
         14    1    1    2    0    0  0.20636076261E-02 -0.18231896408E-01  0.88397282770E-02  0.20366671772E-01  0.00000000000E+00 0. -1.
     999901    1    3    3    0    0 -0.29355920644E-01 -0.67724267492E-01  0.90332234965E-01  0.88769829287E+00  0.88000000000E+00 0. -1.
        -11    1    4    4    0    0 -0.46088835522E-03  0.24528244016E-01 -0.18458926124E-01  0.30705703823E-01  0.51100000000E-03 0. -1.
         11    1    4    4    0    0  0.27753201373E-01  0.61427919884E-01 -0.80713037119E-01  0.10515933154E+00  0.51100000000E-03 0.  1.
</event>
<event>
 8    1  0.1196210E+005  0.1043930E+01  0.7957747E-01            NaN
         13   -1    0    0    0    0  0.00000000000E+00  0.00000000000E+00  0.74505805969E-08  0.10566000000E+00  0.10566000000E+00 0.  1.
     999900   -1    0    0    0    0 -0.00000000000E+00 -0.00000000000E+00 -0.74505805969E-08  0.93827000000E+00  0.93827000000E+00 0. -1.
     999902    2    1    2    0    0  0.90969665949E-02  0.12982425766E-01  0.18944029850E-01  0.10192282906E+01  0.10189289151E+01 0.  0.
     999903    2    3    3    0    0 -0.92676477263E-01 -0.79699269601E-01  0.34568072778E-01  0.12839057180E+00  0.18662375483E-01 0.  0.
         14    1    1    2    0    0 -0.90969665949E-02 -0.12982425766E-01 -0.18944029850E-01  0.24701709394E-01  0.00000000000E+00 0. -1.
     999901    1    3    3    0    0  0.10177344386E+00  0.92681695368E-01 -0.15624042927E-01  0.89083771881E+00  0.88000000000E+00 0.  1.
        -11    1    4    4    0    0 -0.49581032719E-01 -0.30428788547E-01  0.17197213548E-01  0.60664612854E-01  0.51100000000E-03 0.  1.
         11    1    4    4    0    0 -0.43095444544E-01 -0.49270481054E-01  0.17370859230E-01  0.67725958946E-01  0.51100000000E-03 0. -1.
</event>
<event>
 8    1  0.1196210E+005  0.1043930E+01  0.7957747E-01            NaN
         13   -1    0    0    0    0  0.00000000000E+00  0.00000000000E+00  0.74505805969E-08  0.10566000000E+00  0.10566000000E+00 0.  1.
     999900   -1    0    0    0    0 -0.00000000000E+00 -0.00000000000E+00 -0.74505805969E-08  0.93827000000E+00  0.93827000000E+00 0. -1.
     999902    2    1    2    0    0 -0.19464118232E-01  0.11377763786E-01 -0.59284290742E-02  0.10206179499E+01  0.10203516786E+01 0.  0.
     999903    2    3    3    0    0 -0.93527276142E-01 -0.11006472720E-01 -0.91514383420E-01  0.13308690203E+00  0.21650572609E-01 0.  0.
         14    1    1    2    0    0  0.19464118232E-01 -0.11377763786E-01  0.59284290742E-02  0.23312050073E-01  0.00000000000E+00 0. -1.
     999901    1    3    3    0    0  0.74063157910E-01  0.22384236506E-01  0.85585954346E-01  0.88753104790E+00  0.88000000000E+00 0.  1.
        -11    1    4    4    0    0 -0.79631007203E-01 -0.20430561426E-02 -0.70783993009E-01  0.10656409421E+00  0.51100000000E-03 0. -1.
         11    1    4    4    0    0 -0.13896268939E-01 -0.89634165778E-02 -0.20730390411E-01  0.26522807822E-01  0.51100000000E-03 0.  1.
</event>
<event>
 8    1  0.1196210E+005  0.1043930E+01  0.7957747E-01            NaN
         13   -1    0    0    0    0  0.00000000000E+00  0.00000000000E+00  0.74505805969E-08  0.10566000000E+00  0.10566000000E+00 0.  1.
     999900   -1    0    0    0    0 -0.00000000000E+00 -0.00000000000E+00 -0.74505805969E-08  0.93827000000E+00  0.93827000000E+00 0.  1.
     999902    2    1    2    0    0  0.98607940647E-02  0.22068003610E-01 -0.58798279015E-02  0.10190542202E+01  0.10187505580E+01 0.  0.
     999903    2    3    3    0    0  0.39565708070E-01 -0.11257164434E+00  0.38970478416E-01  0.12719001157E+00  0.20512934701E-01 0.  0.
         14    1    1    2    0    0 -0.98607940647E-02 -0.22068003610E-01  0.58798279015E-02  0.24875779768E-01  0.00000000000E+00 0. -1.
     999901    1    3    3    0    0 -0.29704914005E-01  0.13463964795E+00 -0.44850306318E-01  0.89186420866E+00  0.88000000000E+00 0.  1.
        -11    1    4    4    0    0  0.18687946083E-01 -0.45265131599E-01  0.58466581517E-02  0.49321557153E-01  0.51100000000E-03 0. -1.
         11    1    4    4    0    0  0.20877761986E-01 -0.67306512743E-01  0.33123820264E-01  0.77868454416E-01  0.51100000000E-03 0.  1.
</event>
<event>
 8    1  0.1196210E+005  0.1043930E+01  0.7957747E-01            NaN
         13   -1    0    0    0    0  0.00000000000E+00  0.00000000000E+00  0.74505805969E-08  0.10566000000E+00  0.10566000000E+00 0.  1.
     999900   -1    0    0    0    0 -0.00000000000E+00 -0.00000000000E+00 -0.74505805969E-08  0.93827000000E+00  0.93827000000E+00 0.  1.
     999902    2    1    2    0    0 -0.22833634235E-01 -0.16913933659E-01  0.26340240479E-02  0.10153924092E+01  0.10149913057E+01 0.  0.
     999903    2    3    3    0    0  0.16855725095E-01 -0.80962520116E-01 -0.94175452530E-01  0.12688267860E+00  0.19777591799E-01 0.  0.
         14    1    1    2    0    0  0.22833634235E-01  0.16913933659E-01 -0.26340240479E-02  0.28537590769E-01  0.00000000000E+00 0.  1.
     999901    1    3    3    0    0 -0.39689359329E-01  0.64048586457E-01  0.96809476578E-01  0.88850973063E+00  0.88000000000E+00 0.  1.
        -11    1    4    4    0    0  0.32219784929E-02 -0.55228069961E-01 -0.54465400105E-01  0.77635441563E-01  0.51100000000E-03 0. -1.
         11    1    4    4    0    0  0.13633746602E-01 -0.25734450156E-01 -0.39710052425E-01  0.49247237037E-01  0.51100000000E-03 0.  1.
</event>
<event>
 8    1  0.1196210E+005  0.1043930E+01  0.7957747E-01            NaN
         13   -1    0    0    0    0  0.00000000000E+00  0.00000000000E+00  0.74505805969E-08  0.10566000000E+00  0.10566000000E+00 0. -1.
     999900   -1    0    0    0    0 -0.00000000000E+00 -0.00000000000E+00 -0.74505805969E-08  0.93827000000E+00  0.93827000000E+00 0.  1.
     999902    2    1    2    0    0 -0.60681171394E-02  0.20578696041E-03 -0.99409926983E-02  0.10322814924E+01  0.10322157680E+01 0.  0.
     999903    2    3    3    0    0 -0.96852450275E-01  0.85974644144E-01  0.52705775879E-01  0.14125808662E+00  0.20097553684E-01 0.  0.
         14    1    1    2    0    0  0.60681171394E-02 -0.20578696041E-03  0.99409926983E-02  0.11648507618E-01  0.00000000000E+00 0. -1.
     999901    1    3    3    0    0  0.90784333136E-01 -0.85768857184E-01 -0.62646768578E-01  0.89102340576E+00  0.88000000000E+00 0.  1.
        -11    1    4    4    0    0 -0.44563751474E-01  0.40165184144E-01  0.35237594123E-01  0.69578151193E-01  0.51100000000E-03 0. -1.
         11    1    4    4    0    0 -0.52288698801E-01  0.45809460000E-01  0.17468181756E-01  0.71679935426E-01  0.51100000000E-03 0.  1.
</event>
<event>
 8    1  0.1196210E+005  0.1043930E+01  0.7957747E-01            NaN
         13   -1    0    0    0    0  0.00000000000E+00  0.00000000000E+00  0.74505805969E-08  0.10566000000E+00  0.10566000000E+00 0. -1.
     999900   -1    0    0    0    0 -0.00000000000E+00 -0.00000000000E+00 -0.74505805969E-08  0.93827000000E+00  0.93827000000E+00 0. -1.
     999902    2    1    2    0    0  0.59709420466E-02  0.17412932922E-01  0.17623026726E-01  0.10184460158E+01  0.10181271304E+01 0.  0.
     999903    2    3    3    0    0 -0.90890113961E-01 -0.86533183455E-01 -0.36620877005E-03  0.12686849704E+00  0.18613886720E-01 0.  0.
         14    1    1    2    0    0 -0.59709420466E-02 -0.17412932922E-01 -0.17623026726E-01  0.25483984242E-01  0.00000000000E+00 0.  1.
     999901    1    3    3    0    0  0.96861056007E-01  0.10394611638E+00  0.17989235496E-01  0.89157751871E+00  0.88000000000E+00 0. -1.
        -11    1    4    4    0    0 -0.10583308710E-01 -0.10692282065E-01  0.60490461014E-02  0.16222928181E-01  0.51100000000E-03 0.  1.
         11    1    4    4    0    0 -0.80306805251E-01 -0.75840901390E-01 -0.64152548714E-02  0.11064556886E+00  0.51100000000E-03 0. -1.
</event>
<event>
 8    1  0.1196210E+005  0.1043930E+01  0.7957747E-01            NaN
         13   -1    0    0    0    0  0.00000000000E+00  0.00000000000E+00  0.74505805969E-08  0.10566000000E+00  0.10566000000E+00 0.  1.
     999900   -1    0    0    0    0 -0.00000000000E+00 -0.00000000000E+00 -0.74505805969E-08  0.93827000000E+00  0.93827000000E+00 0.  1.
     999902    2    1    2    0    0  0.49051729865E-02 -0.13408032492E-01 -0.17992029584E-01  0.10209615611E+01  0.10207031694E+01 0.  0.
     999903    2    3    3    0    0  0.40978965947E-01 -0.97935538073E-01  0.74700705794E-01  0.13133345849E+00  0.19940827629E-01 0.  0.
         14    1    1    2    0    0 -0.49051729865E-02  0.13408032492E-01  0.17992029584E-01  0.22968438908E-01  0.00000000000E+00 0.  1.
     999901    1    3    3    0    0 -0.36073792960E-01  0.84527505580E-01 -0.92692735378E-01  0.88962810260E+00  0.88000000000E+00 0.  1.
        -11    1    4    4    0    0  0.15716457239E-01 -0.32296343066E-01  0.36848938578E-01  0.51460336172E-01  0.51100000000E-03 0.  1.
         11    1    4    4    0    0  0.25262508708E-01 -0.65639195006E-01  0.37851767216E-01  0.79873122323E-01  0.51100000000E-03 0. -1.
</event>
<event>
 8    1  0.1196210E+005  0.1043930E+01  0.7957747E-01            NaN
         13   -1    0    0    0    0  0.00000000000E+00  0.00000000000E+00  0.74505805969E-08  0.10566000000E+00  0.10566000000E+00 0.  1.
     999900   -1    0    0    0    0 -0.00000000000E+00 -0.00000000000E+00 -0.74505805969E-08  0.93827000000E+00  0.93827000000E+00 0.  1.
     999902    2    1    2    0    0  0.23795733398E-03  0.14633893795E-01  0.15189677557E-01  0.10228365466E+01  0.10226190235E+01 0.  0.
     999903    2    3    3    0    0 -0.65438370854E-01 -0.11172039765E+00 -0.50509733382E-02  0.13115921092E+00  0.20337124830E-01 0.  0.
         14    1    1    2    0    0 -0.23795733398E-03 -0.14633893795E-01 -0.15189677557E-01  0.21093453382E-01  0.00000000000E+00 0. -1.
     999901    1    3    3    0    0  0.65676328188E-01  0.12635429144E+00  0.20240650895E-01  0.89167733570E+00  0.88000000000E+00 0. -1.
        -11    1    4    4    0    0 -0.10126649202E-01 -0.22910492074E-01  0.65357568565E-02  0.25892410275E-01  0.51100000000E-03 0.  1.
         11    1    4    4    0    0 -0.55311721652E-01 -0.88809905575E-01 -0.11586730195E-01  0.10526680064E+00  0.51100000000E-03 0. -1.
</event>
<event>
 8    1  0.1196210E+005  0.1043930E+01  0.7957747E-01            NaN
         13   -1    0    0    0    0  0.00000000000E+00  0.00000000000E+00  0.74505805969E-08  0.10566000000E+00  0.10566000000E+00 0. -1.
     999900   -1    0    0    0    0 -0.00000000000E+00 -0.00000000000E+00 -0.74505805969E-08  0.93827000000E+00  0.93827000000E+00 0. -1.
     999902    2    1    2    0    0 -0.19747262634E-01 -0.11079588573E-01  0.85452258112E-02  0.10197280879E+01  0.10194408471E+01 0.  0.
     999903    2    3    3    0    0 -0.11212545957E+00 -0.53296898113E-01  0.43868001723E-01  0.13318213254E+00  0.20010018010E-01 0.  0.
         14    1    1    2    0    0  0.19747262634E-01  0.11079588573E-01 -0.85452258112E-02  0.24201912087E-01  0.00000000000E+00 0.  1.
     999901    1    3    3    0    0  0.92378196932E-01  0.42217309540E-01 -0.35322775912E-01  0.88654595537E+00  0.88000000000E+00 0.  1.
        -11    1    4    4    0    0 -0.24578520340E-01 -0.20698095906E-01  0.80436590417E-02  0.33128181478E-01  0.51100000000E-03 0.  1.
         11    1    4    4    0    0 -0.87546939227E-01 -0.32598802207E-01  0.35824342681E-01  0.10005395106E+00  0.51100000000E-03 0. -1.
</event>
<event>
 8    1  0.1196210E+005  0.1043930E+01  0.7957747E-01            NaN
         13   -1    0    0    0    0  0.00000000000E+00  0.00000000000E+00  0.74505805969E-08  0.10566000000E+00  0.10566000000E+00 0.  1.
     999900   -1    0    0    0    0 -0.00000000000E+00 -0.00000000000E+00 -0.74505805969E-08  0.93827000000E+00  0.93827000000E+00 0. -1.
     999902    2    1    2    0    0  0.12001228803E-01 -0.89831344226E-02 -0.18707617873E-01  0.10199570744E+01  0.10196753073E+01 0.  0.
     999903    2    3    3    0    0 -0.96767863882E-01  0.81499475937E-01  0.76886499786E-02  0.12826509770E+00  0.19663059044E-01 0.  0.
         14    1    1    2    0    0 -0.12001228803E-01  0.89831344226E-02  0.18707617873E-01  0.23972925631E-01  0.00000000000E+00 0.  1.
     999901    1    3    3    0    0  0.10876909268E+00 -0.90482610359E-01 -0.26396267852E-01  0.89169197667E+00  0.88000000000E+00 0. -1.
        -11    1    4    4    0    0 -0.82367272548E-01  0.65561330620E-01 -0.48512909977E-03  0.10527655072E+00  0.51100000000E-03 0.  1.
         11    1    4    4    0    0 -0.14400591334E-01  0.15938145317E-01  0.81737790784E-02  0.22988546982E-01  0.51100000000E-03 0. -1.
</event>
<event>
 8    1  0.1196210E+005  0.1043930E+01  0.7957747E-01            NaN
         13   -1    0    0    0    0  0.00000000000E+00  0.00000000000E+00  0.74505805969E-08  0.10566000000E+00  0.10566000000E+00 0. -1.
     999900   -1    0    0    0    0 -0.00000000000E+00 -0.00000000000E+00 -0.74505805969E-08  0.93827000000E+00  0.93827000000E+00 0.  1.
     999902    2    1    2    0    0  0.81533261976E-02 -0.74425036478E-02 -0.21518274390E-01  0.10197452172E+01  0.10194583877E+01 0.  0.
     999903    2    3    3    0    0  0.40563622713E-01  0.12077532548E+00 -0.14420937552E-01  0.12983476592E+00  0.20420976205E-01 0.  0.
         14    1    1    2    0    0 -0.81533261976E-02  0.74425036478E-02  0.21518274390E-01  0.24184782847E-01  0.00000000000E+00 0. -1.
     999901    1    3    3    0    0 -0.32410296515E-01 -0.12821782913E+00 -0.70973368384E-02  0.88991045123E+00  0.88000000000E+00 0.  1.
        -11    1    4    4    0    0  0.29083452343E-01  0.83459153921E-01 -0.19359022316E-01  0.90478231854E-01  0.51100000000E-03 0.  1.
         11    1    4    4    0    0  0.11480170369E-01  0.37316171557E-01  0.49380847638E-02  0.39356534064E-01  0.51100000000E-03 0. -1.
</event>
<event>
 8    1  0.1196210E+005  0.1043930E+01  0.7957747E-01            NaN
         13   -1    0    0    0    0  0.00000000000E+00  0.00000000000E+00  0.74505805969E-08  0.10566000000E+00  0.10566000000E+00 0. -1.
     999900   -1    0    0    0    0 -0.00000000000E+00 -0.00000000000E+00 -0.74505805969E-08  0.93827000000E+00  0.93827000000E+00 0.  1.
     999902    2    1    2    0    0 -0.86882009730E-02  0.20955008496E-01  0.30509983577E-02  0.10210410112E+01  0.10207844242E+01 0.  0.
     999903    2    3    3    0    0  0.84725338650E-01  0.65247432858E-01 -0.73966423187E-01  0.13164818941E+00  0.20605909603E-01 0.  0.
         14    1    1    2    0    0  0.86882009730E-02 -0.20955008496E-01 -0.30509983577E-02  0.22888988798E-01  0.00000000000E+00 0.  1.
     999901    1    3    3    0    0 -0.93413539624E-01 -0.44292424362E-01  0.77017421545E-01  0.88939282180E+00  0.88000000000E+00 0. -1.
        -11    1    4    4    0    0  0.32588233667E-01  0.37913979238E-01 -0.32248674734E-01  0.59495385857E-01  0.51100000000E-03 0. -1.
         11    1    4    4    0    0  0.52137104983E-01  0.27333453620E-01 -0.41717748454E-01  0.72152803548E-01  0.51100000000E-03 0.  1.
</event>
<event>
 8    1  0.1196210E+005  0.1043930E+01  0.7957747E-01            NaN
         13   -1    0    0    0    0  0.00000000000E+00  0.00000000000E+00  0.74505805969E-08  0.10566000000E+00  0.10566000000E+00 0. -1.
     999900   -1    0    0    0    0 -0.00000000000E+00 -0.00000000000E+00 -0.74505805969E-08  0.93827000000E+00  0.93827000000E+00 0.  1.
     999902    2    1    2    0    0  0.11993687577E-03 -0.18843760098E-01  0.12554575783E-01  0.10212866996E+01  0.10210356525E+01 0.  0.
     999903    2    3    3    0    0 -0.78492535210E-01  0.99962929942E-01 -0.14350624671E-01  0.12942413162E+00  0.19773719206E-01 0.  0.
         14    1    1    2    0    0 -0.11993687577E-03  0.18843760098E-01 -0.12554575783E-01  0.22643300391E-01  0.00000000000E+00 0.  1.
     999901    1    3    3    0    0  0.78612472086E-01 -0.11880669004E+00  0.26905200453E-01  0.89186256799E+00  0.88000000000E+00 0. -1.
        -11    1    4    4    0    0 -0.23467214310E-01  0.41129570568E-01  0.12399203828E-02  0.47372462952E-01  0.51100000000E-03 0. -1.
         11    1    4    4    0    0 -0.55025320901E-01  0.58833359374E-01 -0.15590545054E-01  0.82051668670E-01  0.51100000000E-03 0.  1.
</event>
<event>
 8    1  0.1196210E+005  0.1043930E+01  0.7957747E-01            NaN
         13   -1    0    0    0    0  0.00000000000E+00  0.00000000000E+00  0.74505805969E-08  0.10566000000E+00  0.10566000000E+00 0.  1.
     999900   -1    0    0    0    0 -0.00000000000E+00 -0.00000000000E+00 -0.74505805969E-08  0.93827000000E+00  0.93827000000E+00 0.  1.
     999902    2    1    2    0    0 -0.76885735421E-02 -0.21440310601E-01  0.86305928586E-03  0.10211364493E+01  0.10208820217E+01 0.  0.
     999903    2    3    3    0    0 -0.73944106042E-01  0.28333376131E-01 -0.10255122080E+00  0.13121413315E+00  0.20733664155E-01 0.  0.
         14    1    1    2    0    0  0.76885735421E-02  0.21440310601E-01 -0.86305928586E-03  0.22793550691E-01  0.00000000000E+00 0. -1.
     999901    1    3    3    0    0  0.66255532500E-01 -0.49773686731E-01  0.10341428008E+00  0.88992231616E+00  0.88000000000E+00 0. -1.
        -11    1    4    4    0    0 -0.26160231832E-01 -0.19540308450E-03 -0.34607218033E-01  0.43385672438E-01  0.51100000000E-03 0.  1.
         11    1    4    4    0    0 -0.47783874210E-01  0.28528779215E-01 -0.67944002764E-01  0.87828460710E-01  0.51100000000E-03 0. -1.
</event>
<event>
 8    1  0.1196210E+005  0.1043930E+01  0.7957747E-01            NaN
         13   -1    0    0    0    0  0.00000000000E+00  0.00000000000E+00  0.74505805969E-08  0.10566000000E+00  0.10566000000E+00 0. -1.
     999900   -1    0    0    0    0 -0.00000000000E+00 -0.00000000000E+00 -0.74505805969E-08  0.93827000000E+00  0.93827000000E+00 0. -1.
     999902    2    1    2    0    0 -0.95918562345E-02  0.14629268042E-01 -0.15758366942E-01  0.10203854610E+01  0.10201137896E+01 0.  0.
     999903    2    3    3    0    0  0.92794252941E-01 -0.70665503667E-01  0.48961459716E-01  0.12800282477E+00  0.19573242538E-01 0.  0.
         14    1    1    2    0    0  0.95918562345E-02 -0.14629268042E-01  0.15758366942E-01  0.23544539030E-01  0.00000000000E+00 0. -1.
     999901    1    3    3    0    0 -0.10238610918E+00  0.85294771709E-01 -0.64719826658E-01  0.89238263620E+00  0.88000000000E+00 0.  1.
        -11    1    4    4    0    0  0.37667657260E-01 -0.17794392049E-01  0.13559312642E-01  0.43813341257E-01  0.51100000000E-03 0.  1.
         11    1    4    4    0    0  0.55126595682E-01 -0.52871111618E-01  0.35402147074E-01  0.84189483510E-01  0.51100000000E-03 0. -1.
</event>
<event>
 8    1  0.1196210E+005  0.1043930E+01  0.7957747E-01            NaN
         13   -1    0    0    0    0  0.00000000000E+00  0.00000000000E+00  0.74505805969E-08  0.10566000000E+00  0.10566000000E+00 0. -1.
     999900   -1    0    0    0    0 -0.00000000000E+00 -0.00000000000E+00 -0.74505805969E-08  0.93827000000E+00  0.93827000000E+00 0.  1.
     999902    2    1    2    0    0  0.13168515584E-01 -0.98474525767E-02  0.16317601214E-01  0.10207643739E+01  0.10205014751E+01 0.  0.
     999903    2    3    3    0    0  0.72383196604E-01 -0.13691237074E-01 -0.10603611546E+00  0.13031977418E+00  0.17686396940E-01 0.  0.
         14    1    1    2    0    0 -0.13168515584E-01  0.98474525767E-02 -0.16317601214E-01  0.23165626137E-01  0.00000000000E+00 0.  1.
     999901    1    3    3    0    0 -0.59214681019E-01  0.38437844972E-02  0.12235371667E+00  0.89044459969E+00  0.88000000000E+00 0. -1.
        -11    1    4    4    0    0  0.33461427057E-02 -0.39192806897E-02 -0.13463893466E-01  0.14425497579E-01  0.51100000000E-03 0. -1.
         11    1    4    4    0    0  0.69037053898E-01 -0.97719563843E-02 -0.92572221991E-01  0.11589427660E+00  0.51100000000E-03 0.  1.
</event>
<event>
 8    1  0.1196210E+005  0.1043930E+01  0.7957747E-01            NaN
         13   -1    0    0    0    0  0.00000000000E+00  0.00000000000E+00  0.74505805969E-08  0.10566000000E+00  0.10566000000E+00 0.  1.
     999900   -1    0    0    0    0 -0.00000000000E+00 -0.00000000000E+00 -0.74505805969E-08  0.93827000000E+00  0.93827000000E+00 0.  1.
     999902    2    1    2    0    0  0.24270881136E-01 -0.75321541409E-02  0.12107230884E-01  0.10157805052E+01  0.10153903883E+01 0.  0.
     999903    2    3    3    0    0 -0.11756208357E+00 -0.24106743622E-02 -0.30530029727E-01  0.12339003270E+00  0.21595430363E-01 0.  0.
         14    1    1    2    0    0 -0.24270881136E-01  0.75321541409E-02 -0.12107230884E-01  0.28149494787E-01  0.00000000000E+00 0. -1.
     999901    1    3    3    0    0  0.14183296470E+00 -0.51214797787E-02  0.42637260611E-01  0.89239047251E+00  0.88000000000E+00 0. -1.
        -11    1    4    4    0    0 -0.10420775601E+00 -0.49624716715E-02 -0.33285426936E-01  0.10950827962E+00  0.51100000000E-03 0. -1.
         11    1    4    4    0    0 -0.13354327552E-01  0.25517973093E-02  0.27553972083E-02  0.13881753083E-01  0.51100000000E-03 0.  1.
</event>
<event>
 8    1  0.1196210E+005  0.1043930E+01  0.7957747E-01            NaN
         13   -1    0    0    0    0  0.00000000000E+00  0.00000000000E+00  0.74505805969E-08  0.10566000000E+00  0.10566000000E+00 0.  1.
     999900   -1    0    0    0    0 -0.00000000000E+00 -0.00000000000E+00 -0.74505805969E-08  0.93827000000E+00  0.93827000000E+00 0. -1.
     999902    2    1    2    0    0 -0.20606971547E-01  0.11204215188E-01  0.40833244699E-02  0.10201212778E+01  0.10198434028E+01 0.  0.
     999903    2    3    3    0    0 -0.86347217452E-01  0.99345437420E-01 -0.57679142339E-02  0.13322348104E+00  0.19745104895E-01 0.  0.
         14    1    1    2    0    0  0.20606971547E-01 -0.11204215188E-01 -0.40833244699E-02  0.23808722205E-01  0.00000000000E+00 0. -1.
     999901    1    3    3    0    0  0.65740245905E-01 -0.88141222232E-01  0.98512387038E-02  0.88689779676E+00  0.88000000000E+00 0. -1.
        -11    1    4    4    0    0 -0.51589864865E-01  0.73377926893E-01 -0.31587294333E-02  0.89755629375E-01  0.51100000000E-03 0. -1.
         11    1    4    4    0    0 -0.34757352587E-01  0.25967510527E-01 -0.26091848006E-02  0.43467851663E-01  0.51100000000E-03 0.  1.
</event>
<event>
 8    1  0.1196210E+005  0.1043930E+01  0.7957747E-01            NaN
         13   -1    0    0    0    0  0.00000000000E+00  0.00000000000E+00  0.74505805969E-08  0.10566000000E+00  0.10566000000E+00 0.  1.
     999900   -1    0    0    0    0 -0.00000000000E+00 -0.00000000000E+00 -0.74505805969E-08  0.93827000000E+00  0.93827000000E+00 0.  1.
     999902    2    1    2    0    0  0.19428997136E-01  0.12362400294E-01  0.51024740667E-02  0.10203429249E+01  0.10200702595E+01 0.  0.
     999903    2    3    3    0    0  0.10663554693E+00 -0.73870027131E-01  0.13733539979E-01  0.13179607234E+00  0.18806216747E-01 0.  0.
         14    1    1    2    0    0 -0.19428997136E-01 -0.12362400294E-01 -0.51024740667E-02  0.23587075112E-01  0.00000000000E+00 0.  1.
     999901    1    3    3    0    0 -0.87206549791E-01  0.86232427426E-01 -0.86310659122E-02  0.88854685254E+00  0.88000000000E+00 0.  1.
        -11    1    4    4    0    0  0.27113282810E-01 -0.96833956586E-02  0.50208071635E-02  0.29229572043E-01  0.51100000000E-03 0.  1.
         11    1    4    4    0    0  0.79522264116E-01 -0.64186631473E-01  0.87127328154E-02  0.10256650030E+00  0.51100000000E-03 0. -1.
</event>
<event>
 8    1  0.1196210E+005  0.1043930E+01  0.7957747E-01            NaN
         13   -1    0    0    0    0  0.00000000000E+00  0.00000000000E+00  0.74505805969E-08  0.10566000000E+00  0.10566000000E+00 0.  1.
     999900   -1    0    0    0    0 -0.00000000000E+00 -0.00000000000E+00 -0.74505805969E-08  0.93827000000E+00  0.93827000000E+00 0.  1.
     999902    2    1    2    0    0  0.10260644464E-01 -0.13118396614E-01  0.15319099649E-01  0.10213015231E+01  0.10210508083E+01 0.  0.
     999903    2    3    3    0    0  0.47410819327E-01  0.22672875380E-02 -0.11943782957E+00  0.13013583435E+00  0.20420917405E-01 0.  0.
         14    1    1    2    0    0 -0.10260644464E-01  0.13118396614E-01 -0.15319099649E-01  0.22628476939E-01  0.00000000000E+00 0.  1.
     999901    1    3    3    0    0 -0.37150174863E-01 -0.15385684152E-01  0.13475692921E+00  0.89116568871E+00  0.88000000000E+00 0. -1.
        -11    1    4    4    0    0  0.13415462308E-01 -0.60345811264E-02 -0.20864497055E-01  0.25533882522E-01  0.51100000000E-03 0.  1.
         11    1    4    4    0    0  0.33995357019E-01  0.83018686644E-02 -0.98573332511E-01  0.10460195182E+00  0.51100000000E-03 0. -1.
</event>
<event>
 8    1  0.1196210E+005  0.1043930E+01  0.7957747E-01            NaN
         13   -1    0    0    0    0  0.00000000000E+00  0.00000000000E+00  0.74505805969E-08  0.10566000000E+00  0.10566000000E+00 0. -1.
     999900   -1    0    0    0    0 -0.00000000000E+00 -0.00000000000E+00 -0.74505805969E-08  0.93827000000E+00  0.93827000000E+00 0. -1.
     999902    2    1    2    0    0  0.18859287738E-01  0.14514869136E-02 -0.13615816067E-01  0.10206239923E+01  0.10203578606E+01 0.  0.
     999903    2    3    3    0    0 -0.31447581085E-01  0.12187940405E+00 -0.28791290475E-01  0.13086899270E+00  0.21312328688E-01 0.  0.
         14    1    1    2    0    0 -0.18859287738E-01 -0.14514869136E-02  0.13615816067E-01  0.23306007710E-01  0.00000000000E+00 0. -1.
     999901    1    3    3    0    0  0.50306868822E-01 -0.12042791714E+00  0.15175474408E-01  0.88975499959E+00  0.88000000000E+00 0.  1.
        -11    1    4    4    0    0 -0.11220189418E-01  0.60657475522E-01 -0.41019399803E-02  0.61824825272E-01  0.51100000000E-03 0. -1.
         11    1    4    4    0    0 -0.20227391666E-01  0.61221928530E-01 -0.24689350495E-01  0.69044167425E-01  0.51100000000E-03 0.  1.
</event>
<event>
 8    1  0.1196210E+005  0.1043930E+01  0.7957747E-01            NaN
         13   -1    0    0    0    0  0.00000000000E+00  0.00000000000E+00  0.74505805969E-08  0.10566000000E+00  0.10566000000E+00 0.  1.
     999900   -1    0    0    0    0 -0.00000000000E+00 -0.00000000000E+00 -0.74505805969E-08  0.93827000000E+00  0.93827000000E+00 0. -1.
     999902    2    1    2    0    0  0.12013556272E-01 -0.81701764338E-02  0.18898334592E-01  0.10200925428E+01  0.10198139886E+01 0.  0.
     999903    2    3    3    0    0  0.16332376252E-01 -0.10698730673E-01  0.13024141060E+00  0.13306248331E+00  0.19015522055E-01 0.  0.
         14    1    1    2    0    0 -0.12013556272E-01  0.81701764338E-02 -0.18898334592E-01  0.23837457239E-01  0.00000000000E+00 0. -1.
     999901    1    3    3    0    0 -0.43188199798E-02  0.25285542393E-02 -0.11134307600E+00  0.88703005945E+00  0.88000000000E+00 0. -1.
        -11    1    4    4    0    0  0.20353277571E-01 -0.10790584237E-01  0.10510231418E+00  0.10759856032E+00  0.51100000000E-03 0. -1.
         11    1    4    4    0    0 -0.40209013189E-02  0.91853563420E-04  0.25139096420E-01  0.25463922995E-01  0.51100000000E-03 0.  1.
</event>
<event>
 8    1  0.1196210E+005  0.1043930E+01  0.7957747E-01            NaN
         13   -1    0    0    0    0  0.00000000000E+00  0.00000000000E+00  0.74505805969E-08  0.10566000000E+00  0.10566000000E+00 0. -1.
     999900   -1    0    0    0    0 -0.00000000000E+00 -0.00000000000E+00 -0.74505805969E-08  0.93827000000E+00  0.93827000000E+00 0. -1.
     999902    2    1    2    0    0 -0.22880958153E-01 -0.38218398142E-02 -0.28414027943E-02  0.10205586869E+01  0.10202910443E+01 0.  0.
     999903    2    3    3    0    0 -0.36509780979E-01  0.11230522154E+00  0.52448973821E-01  0.13110477302E+00  0.22184223239E-01 0.  0.
         14    1    1    2    0    0  0.22880958153E-01  0.38218398142E-02  0.28414027943E-02  0.23371313087E-01  0.00000000000E+00 0. -1.
     999901    1    3    3    0    0  0.13628822826E-01 -0.11612706136E+00 -0.55290376615E-01  0.88945391389E+00  0.88000000000E+00 0. -1.
        -11    1    4    4    0    0 -0.30599198289E-01  0.10927722058E+00  0.49995312637E-01  0.12400650902E+00  0.51100000000E-03 0.  1.
         11    1    4    4    0    0 -0.59105826908E-02  0.30280009671E-02  0.24536611837E-02  0.70982639994E-02  0.51100000000E-03 0. -1.
</event>
<event>
 8    1  0.1196210E+005  0.1043930E+01  0.7957747E-01            NaN
         13   -1    0    0    0    0  0.00000000000E+00  0.00000000000E+00  0.74505805969E-08  0.10566000000E+00  0.10566000000E+00 0.  1.
     999900   -1    0    0    0    0 -0.00000000000E+00 -0.00000000000E+00 -0.74505805969E-08  0.93827000000E+00  0.93827000000E+00 0. -1.
     999902    2    1    2    0    0  0.18209809232E-01  0.10739025878E-01 -0.83942679436E-02  0.10211838451E+01  0.10209304863E+01 0.  0.
     999903    2    3    3    0    0  0.12647141572E+00  0.38933230904E-01  0.59880843666E-02  0.13398469005E+00  0.20130190031E-01 0.  0.
         14    1    1    2    0    0 -0.18209809232E-01 -0.10739025878E-01  0.83942679436E-02  0.22746154914E-01  0.00000000000E+00 0. -1.
     999901    1    3    3    0    0 -0.10826160649E+00 -0.28194205026E-01 -0.14382352310E-01  0.88719915503E+00  0.88000000000E+00 0.  1.
        -11    1    4    4    0    0  0.10078721274E+00  0.24586049522E-01  0.10268388425E-01  0.10425083695E+00  0.51100000000E-03 0. -1.
         11    1    4    4    0    0  0.25684202977E-01  0.14347181382E-01 -0.42803040588E-02  0.29733853097E-01  0.51100000000E-03 0.  1.
</event>
<event>
 8    1  0.1196210E+005  0.1043930E+01  0.7957747E-01            NaN
         13   -1    0    0    0    0  0.00000000000E+00  0.00000000000E+00  0.74505805969E-08  0.10566000000E+00  0.10566000000E+00 0.  1.
     999900   -1    0    0    0    0 -0.00000000000E+00 -0.00000000000E+00 -0.74505805969E-08  0.93827000000E+00  0.93827000000E+00 0.  1.
     999902    2    1    2    0    0 -0.55183306258E-02 -0.20795745117E-01 -0.39592034239E-02  0.10220532937E+01  0.10218191351E+01 0.  0.
     999903    2    3    3    0    0 -0.11287642712E+00  0.24144064663E-01  0.61203319500E-01  0.13200188967E+00  0.18831593156E-01 0.  0.
         14    1    1    2    0    0  0.55183306258E-02  0.20795745117E-01  0.39592034239E-02  0.21876706324E-01  0.00000000000E+00 0.  1.
     999901    1    3    3    0    0  0.10735809649E+00 -0.44939809779E-01 -0.65162522924E-01  0.89005140401E+00  0.88000000000E+00 0. -1.
        -11    1    4    4    0    0 -0.35855284278E-01  0.15664391807E-02  0.11945796753E-01  0.37828802828E-01  0.51100000000E-03 0.  1.
         11    1    4    4    0    0 -0.77021142838E-01  0.22577625482E-01  0.49257522747E-01  0.94173086838E-01  0.51100000000E-03 0. -1.
</event>
<event>
 8    1  0.1196210E+005  0.1043930E+01  0.7957747E-01            NaN
         13   -1    0    0    0    0  0.00000000000E+00  0.00000000000E+00  0.74505805969E-08  0.10566000000E+00  0.10566000000E+00 0. -1.
     999900   -1    0    0    0    0 -0.00000000000E+00 -0.00000000000E+00 -0.74505805969E-08  0.93827000000E+00  0.93827000000E+00 0. -1.
     999902    2    1    2    0    0  0.22027950009E-01  0.70926550716E-02  0.10792042315E-01  0.10183956209E+01  0.10180754570E+01 0.  0.
     999903    2    3    3    0    0  0.29964116289E-01  0.11513400683E+00  0.50668052877E-01  0.13085631889E+00  0.20060827982E-01 0.  0.
         14    1    1    2    0    0 -0.22027950009E-01 -0.70926550716E-02 -0.10792042315E-01  0.25534379078E-01  0.00000000000E+00 0. -1.
     999901    1    3    3    0    0 -0.79361662795E-02 -0.10804135176E+00 -0.39876010562E-01  0.88753930203E+00  0.88000000000E+00 0. -1.
        -11    1    4    4    0    0  0.30947575475E-01  0.94407322836E-01  0.46458434824E-01  0.10967744672E+00  0.51100000000E-03 0. -1.
         11    1    4    4    0    0 -0.98345918575E-03  0.20726683992E-01  0.42096180532E-02  0.21178872170E-01  0.51100000000E-03 0.  1.
</event>
<event>
 8    1  0.1196210E+005  0.1043930E+01  0.7957747E-01            NaN
         13   -1    0    0    0    0  0.00000000000E+00  0.00000000000E+00  0.74505805969E-08  0.10566000000E+00  0.10566000000E+00 0. -1.
     999900   -1    0    0    0    0 -0.00000000000E+00 -0.00000000000E+00 -0.74505805969E-08  0.93827000000E+00  0.93827000000E+00 0. -1.
     999902    2    1    2    0    0  0.42651596096E-03  0.15847463317E-01 -0.18377983221E-01  0.10196591476E+01  0.10193702482E+01 0.  0.
     999903    2    3    3    0    0  0.65112791880E-01  0.11071778426E+00  0.18418696676E-01  0.13143694130E+00  0.20936039127E-01 0.  0.
         14    1    1    2    0    0 -0.42651596096E-03 -0.15847463317E-01  0.18377983221E-01  0.24270852410E-01  0.00000000000E+00 0. -1.
     999901    1    3    3    0    0 -0.64686275920E-01 -0.94870320942E-01 -0.36796679898E-01  0.88822220629E+00  0.88000000000E+00 0.  1.
        -11    1    4    4    0    0  0.32192444867E-01  0.42250358565E-01 -0.58850501059E-03  0.53123005982E-01  0.51100000000E-03 0. -1.
         11    1    4    4    0    0  0.32920347013E-01  0.68467425694E-01  0.19007201687E-01  0.78313935322E-01  0.51100000000E-03 0.  1.
</event>
<event>
 8    1  0.1196210E+005  0.1043930E+01  0.7957747E-01            NaN
         13   -1    0    0    0    0  0.00000000000E+00  0.00000000000E+00  0.74505805969E-08  0.10566000000E+00  0.10566000000E+00 0. -1.
     999900   -1    0    0    0    0 -0.00000000000E+00 -0.00000000000E+00 -0.74505805969E-08  0.93827000000E+00  0.93827000000E+00 0. -1.
     999902    2    1    2    0    0 -0.98610278078E-02 -0.21076998985E-01 -0.26062923210E-02  0.10205147803E+01  0.10202461194E+01 0.  0.
     999903    2    3    3    0    0  0.22855674532E-01 -0.76379267106E-02 -0.12728105734E+00  0.13102347153E+00  0.19645934738E-01 0.  0.
         14    1    1    2    0    0  0.98610278078E-02  0.21076998985E-01  0.26062923210E-02  0.23415219737E-01  0.00000000000E+00 0.  1.
     999901    1    3    3    0    0 -0.32716702340E-01 -0.13439072275E-01  0.12467476502E+00  0.88949130873E+00  0.88000000000E+00 0.  1.
        -11    1    4    4    0    0  0.12168012801E-01  0.59538566105E-02 -0.48020794414E-01  0.49897562678E-01  0.51100000000E-03 0. -1.
         11    1    4    4    0    0  0.10687661731E-01 -0.13591783321E-01 -0.79260262927E-01  0.81125908854E-01  0.51100000000E-03 0.  1.
</event>
<event>
 8    1  0.1196210E+005  0.1043930E+01  0.7957747E-01            NaN
         13   -1    0    0    0    0  0.00000000000E+00  0.00000000000E+00  0.74505805969E-08  0.10566000000E+00  0.10566000000E+00 0.  1.
     999900   -1    0    0    0    0 -0.00000000000E+00 -0.00000000000E+00 -0.74505805969E-08  0.93827000000E+00  0.93827000000E+00 0.  1.
     999902    2    1    2    0    0  0.10989433184E-01 -0.21360981361E-01  0.38979046722E-02  0.10195937549E+01  0.10193032778E+01 0.  0.
     999903    2    3    3    0    0  0.10346570582E+00  0.74171896653E-01  0.96456982364E-02  0.12958733415E+00  0.22208447602E-01 0.  0.
         14    1    1    2    0    0 -0.10989433184E-01  0.21360981361E-01 -0.38979046722E-02  0.24336245134E-01  0.00000000000E+00 0. -1.
     999901    1    3    3    0    0 -0.92476272632E-01 -0.95532878014E-01 -0.57477935642E-02  0.89000642071E+00  0.88000000000E+00 0.  1.
        -11    1    4    4    0    0  0.22480961957E-01  0.58505686830E-02  0.54820847415E-03  0.23241868642E-01  0.51100000000E-03 0. -1.
         11    1    4    4    0    0  0.80984743859E-01  0.68321327970E-01  0.90974897623E-02  0.10634546551E+00  0.51100000000E-03 0.  1.
</event>
<event>
 8    1  0.1196210E+005  0.1043930E+01  0.7957747E-01            NaN
         13   -1    0    0    0    0  0.00000000000E+00  0.00000000000E+00  0.74505805969E-08  0.10566000000E+00  0.10566000000E+00 0. -1.
     999900   -1    0    0    0    0 -0.00000000000E+00 -0.00000000000E+00 -0.74505805969E-08  0.93827000000E+00  0.93827000000E+00 0.  1.
     999902    2    1    2    0    0 -0.39095248422E-02 -0.15857274001E-01 -0.10820512618E-01  0.10243386494E+01  0.10241512817E+01 0.  0.
     999903    2    3    3    0    0  0.61027494916E-01 -0.10073198752E+00 -0.65369997921E-01  0.13619666762E+00  0.20124790600E-01 0.  0.
         14    1    1    2    0    0  0.39095248422E-02  0.15857274001E-01  0.10820512618E-01  0.19591350555E-01  0.00000000000E+00 0. -1.
     999901    1    3    3    0    0 -0.64937019759E-01  0.84874713523E-01  0.54549485303E-01  0.88814198182E+00  0.88000000000E+00 0. -1.
        -11    1    4    4    0    0  0.37754866334E-01 -0.50659792676E-01 -0.43966051929E-01  0.76974796974E-01  0.51100000000E-03 0. -1.
         11    1    4    4    0    0  0.23272628582E-01 -0.50072194848E-01 -0.21403945992E-01  0.59221870648E-01  0.51100000000E-03 0.  1.
</event>
<event>
 8    1  0.1196210E+005  0.1043930E+01  0.7957747E-01            NaN
         13   -1    0    0    0    0  0.00000000000E+00  0.00000000000E+00  0.74505805969E-08  0.10566000000E+00  0.10566000000E+00 0. -1.
     999900   -1    0    0    0    0 -0.00000000000E+00 -0.00000000000E+00 -0.74505805969E-08  0.93827000000E+00  0.93827000000E+00 0. -1.
     999902    2    1    2    0    0 -0.17748437223E-01 -0.80316093075E-02 -0.69515508946E-02  0.10232457589E+01  0.10230366783E+01 0.  0.
     999903    2    3    3    0    0 -0.38581583084E-01 -0.10483474416E+00  0.71660848984E-01  0.13420988989E+00  0.19953824993E-01 0.  0.
         14    1    1    2    0    0  0.17748437223E-01  0.80316093075E-02  0.69515508946E-02  0.20684241145E-01  0.00000000000E+00 0. -1.
     999901    1    3    3    0    0  0.20833145862E-01  0.96803134853E-01 -0.78612399879E-01  0.88903586896E+00  0.88000000000E+00 0.  1.
        -11    1    4    4    0    0 -0.98055595596E-02 -0.21473182922E-01  0.25187525759E-01  0.34524182220E-01  0.51100000000E-03 0.  1.
         11    1    4    4    0    0 -0.28776023525E-01 -0.83361561238E-01  0.46473323225E-01  0.99685707675E-01  0.51100000000E-03 0. -1.
</event>
<event>
 8    1  0.1196210E+005  0.1043930E+01  0.7957747E-01            NaN
         13   -1    0    0    0    0  0.00000000000E+00  0.00000000000E+00  0.74505805969E-08  0.10566000000E+00  0.10566000000E+00 0. -1.
     999900   -1    0    0    0    0 -0.00000000000E+00 -0.00000000000E+00 -0.74505805969E-08  0.93827000000E+00  0.93827000000E+00 0. -1.
     999902    2    1    2    0    0  0.78737850770E-03 -0.31385035171E-01  0.83573766886E-02  0.10114417538E+01  0.10109198461E+01 0.  0.
     999903    2    3    3    0    0  0.34640769772E-01 -0.11979423372E+00 -0.39014057614E-02  0.12627933013E+00  0.19509148862E-01 0.  0.
         14    1    1    2    0    0 -0.78737850770E-03  0.31385035171E-01 -0.83573766886E-02  0.32488246224E-01  0.00000000000E+00 0.  1.
     999901    1    3    3    0    0 -0.33853391264E-01  0.88409198544E-01  0.12258782450E-01  0.88516242365E+00  0.88000000000E+00 0.  1.
        -11    1    4    4    0    0  0.34076776782E-03 -0.31035078570E-01 -0.19389433999E-02  0.31101653445E-01  0.51100000000E-03 0.  1.
         11    1    4    4    0    0  0.34300002004E-01 -0.88759155145E-01 -0.19624623615E-02  0.95177676685E-01  0.51100000000E-03 0. -1.
</event>
<event>
 8    1  0.1196210E+005  0.1043930E+01  0.7957747E-01            NaN
         13   -1    0    0    0    0  0.00000000000E+00  0.00000000000E+00  0.74505805969E-08  0.10566000000E+00  0.10566000000E+00 0. -1.
     999900   -1    0    0    0    0 -0.00000000000E+00 -0.00000000000E+00 -0.74505805969E-08  0.93827000000E+00  0.93827000000E+00 0. -1.
     999902    2    1    2    0    0  0.16404607494E-01 -0.16150576138E-01  0.42061322583E-02  0.10205282094E+01  0.10202598602E+01 0.  0.
     999903    2    3    3    0    0 -0.19490838367E-01 -0.32910009142E-01  0.12426467231E+00  0.13149310619E+00  0.19640944702E-01 0.  0.
         14    1    1    2    0    0 -0.16404607494E-01  0.16150576138E-01 -0.42061322583E-02  0.23401790641E-01  0.00000000000E+00 0.  1.
     999901    1    3    3    0    0  0.35895445861E-01  0.16759433004E-01 -0.12005854005E+00  0.88903510317E+00  0.88000000000E+00 0. -1.
        -11    1    4    4    0    0 -0.19344101429E-01 -0.26668546845E-01  0.76155897330E-01  0.82978234918E-01  0.51100000000E-03 0.  1.
         11    1    4    4    0    0 -0.14673693798E-03 -0.62414622970E-02  0.48108774981E-01  0.48514871272E-01  0.51100000000E-03 0. -1.
</event>
<event>
 8    1  0.1196210E+005  0.1043930E+01  0.7957747E-01            NaN
         13   -1    0    0    0    0  0.00000000000E+00  0.00000000000E+00  0.74505805969E-08  0.10566000000E+00  0.10566000000E+00 0. -1.
     999900   -1    0    0    0    0 -0.00000000000E+00 -0.00000000000E+00 -0.74505805969E-08  0.93827000000E+00  0.93827000000E+00 0. -1.
     999902    2    1    2    0    0  0.18040786342E-01  0.17120611689E-01 -0.16760482982E-02  0.10190022152E+01  0.10186972662E+01 0.  0.
     999903    2    3    3    0    0  0.95613760444E-01  0.50400015614E-01 -0.72212662400E-01  0.13215358159E+00  0.23827458011E-01 0.  0.
         14    1    1    2    0    0 -0.18040786342E-01 -0.17120611689E-01  0.16760482982E-02  0.24927784786E-01  0.00000000000E+00 0. -1.
     999901    1    3    3    0    0 -0.77572974102E-01 -0.33279403925E-01  0.70536614102E-01  0.88684863363E+00  0.88000000000E+00 0. -1.
        -11    1    4    4    0    0  0.29648035907E-01  0.41772163313E-02 -0.23013868446E-01  0.37767107796E-01  0.51100000000E-03 0.  1.
         11    1    4    4    0    0  0.65965724537E-01  0.46222799282E-01 -0.49198793954E-01  0.94386473791E-01  0.51100000000E-03 0. -1.
</event>
<event>
 8    1  0.1196210E+005  0.1043930E+01  0.7957747E-01            NaN
         13   -1    0    0    0    0  0.00000000000E+00  0.00000000000E+00  0.74505805969E-08  0.10566000000E+00  0.10566000000E+00 0. -1.
     999900   -1    0    0    0    0 -0.00000000000E+00 -0.00000000000E+00 -0.74505805969E-08  0.93827000000E+00  0.93827000000E+00 0.  1.
     999902    2    1    2    0    0  0.27819210682E-02  0.22365157153E-01  0.19149023722E-02  0.10213112867E+01  0.10210607906E+01 0.  0.
     999903    2    3    3    0    0 -0.11529801233E+00 -0.42719361805E-01  0.31370316617E-01  0.13055515471E+00  0.30691629745E-01 0.  0.
         14    1    1    2    0    0 -0.27819210682E-02 -0.22365157153E-01 -0.19149023722E-02  0.22618713280E-01  0.00000000000E+00 0.  1.
     999901    1    3    3    0    0  0.11807993340E+00  0.65084518958E-01 -0.29455414245E-01  0.89075613201E+00  0.88000000000E+00 0.  1.
        -11    1    4    4    0    0 -0.30455008840E-01 -0.25308814824E-01  0.44260809256E-02  0.39848400025E-01  0.51100000000E-03 0. -1.
         11    1    4    4    0    0 -0.84843003494E-01 -0.17410546981E-01  0.26944235692E-01  0.90706754688E-01  0.51100000000E-03 0.  1.
</event>
<event>
 8    1  0.1196210E+005  0.1043930E+01  0.7957747E-01            NaN
         13   -1    0    0    0    0  0.00000000000E+00  0.00000000000E+00  0.74505805969E-08  0.10566000000E+00  0.10566000000E+00 0.  1.
     999900   -1    0    0    0    0 -0.00000000000E+00 -0.00000000000E+00 -0.74505805969E-08  0.93827000000E+00  0.93827000000E+00 0. -1.
     999902    2    1    2    0    0  0.16445874588E-01  0.13909948038E-01 -0.84913281895E-02  0.10207771147E+01  0.10205145083E+01 0.  0.
     999903    2    3    3    0    0 -0.58770392447E-01 -0.10596491097E+00 -0.39128881792E-01  0.12894409871E+00  0.20322150876E-01 0.  0.
         14    1    1    2    0    0 -0.16445874588E-01 -0.13909948038E-01  0.84913281895E-02  0.23152885345E-01  0.00000000000E+00 0. -1.
     999901    1    3    3    0    0  0.75216267035E-01  0.11987485900E+00  0.30637553602E-01  0.89183301595E+00  0.88000000000E+00 0.  1.
        -11    1    4    4    0    0 -0.46394852708E-01 -0.73181209173E-01 -0.35753016005E-01  0.93736391056E-01  0.51100000000E-03 0. -1.
         11    1    4    4    0    0 -0.12375539739E-01 -0.32783701793E-01 -0.33758657869E-02  0.35207707649E-01  0.51100000000E-03 0.  1.
</event>
<event>
 8    1  0.1196210E+005  0.1043930E+01  0.7957747E-01            NaN
         13   -1    0    0    0    0  0.00000000000E+00  0.00000000000E+00  0.74505805969E-08  0.10566000000E+00  0.10566000000E+00 0.  1.
     999900   -1    0    0    0    0 -0.00000000000E+00 -0.00000000000E+00 -0.74505805969E-08  0.93827000000E+00  0.93827000000E+00 0.  1.
     999902    2    1    2    0    0  0.63949689478E-02  0.66140799648E-02  0.21858352656E-01  0.10202144089E+01  0.10199387289E+01 0.  0.
     999903    2    3    3    0    0  0.10237040762E+00  0.45003698276E-01 -0.63531668260E-01  0.13005908350E+00  0.19340607919E-01 0.  0.
         14    1    1    2    0    0 -0.63949689478E-02 -0.66140799648E-02 -0.21858352656E-01  0.23715591126E-01  0.00000000000E+00 0. -1.
     999901    1    3    3    0    0 -0.95975438668E-01 -0.38389618312E-01  0.85390020917E-01  0.89015532538E+00  0.88000000000E+00 0. -1.
        -11    1    4    4    0    0  0.59002965499E-01  0.29031664911E-01 -0.26756719177E-01  0.70995567801E-01  0.51100000000E-03 0.  1.
         11    1    4    4    0    0  0.43367442116E-01  0.15972033365E-01 -0.36774949084E-01  0.59063515698E-01  0.51100000000E-03 0. -1.
</event>
<event>
 8    1  0.1196210E+005  0.1043930E+01  0.7957747E-01            NaN
         13   -1    0    0    0    0  0.00000000000E+00  0.00000000000E+00  0.74505805969E-08  0.10566000000E+00  0.10566000000E+00 0.  1.
     999900   -1    0    0    0    0 -0.00000000000E+00 -0.00000000000E+00 -0.74505805969E-08  0.93827000000E+00  0.93827000000E+00 0.  1.
     999902    2    1    2    0    0 -0.10205387188E-01 -0.18790770498E-01 -0.24700769752E-01  0.10112593555E+01  0.10107314743E+01 0.  0.
     999903    2    3    3    0    0  0.60786909966E-02  0.10090638178E+00 -0.65190446259E-01  0.12208446083E+00  0.20875174847E-01 0.  0.
         14    1    1    2    0    0  0.10205387188E-01  0.18790770498E-01  0.24700769752E-01  0.32670644467E-01  0.00000000000E+00 0.  1.
     999901    1    3    3    0    0 -0.16284078185E-01 -0.11969715228E+00  0.40489676508E-01  0.88917489470E+00  0.88000000000E+00 0. -1.
        -11    1    4    4    0    0  0.20776242572E-02  0.46126865171E-01 -0.42146108315E-01  0.62518475511E-01  0.51100000000E-03 0.  1.
         11    1    4    4    0    0  0.40010667394E-02  0.54779516608E-01 -0.23044337944E-01  0.59565985320E-01  0.51100000000E-03 0. -1.
</event>
<event>
 8    1  0.1196210E+005  0.1043930E+01  0.7957747E-01            NaN
         13   -1    0    0    0    0  0.00000000000E+00  0.00000000000E+00  0.74505805969E-08  0.10566000000E+00  0.10566000000E+00 0. -1.
     999900   -1    0    0    0    0 -0.00000000000E+00 -0.00000000000E+00 -0.74505805969E-08  0.93827000000E+00  0.93827000000E+00 0.  1.
     999902    2    1    2    0    0 -0.18172244288E-01 -0.87068214666E-02  0.12279179365E-01  0.10203330204E+01  0.10200601232E+01 0.  0.
     999903    2    3    3    0    0  0.61584703210E-01  0.10484892804E+00 -0.35871004515E-01  0.12815897953E+00  0.18762240985E-01 0.  0.
         14    1    1    2    0    0  0.18172244288E-01  0.87068214666E-02 -0.12279179365E-01  0.23596979646E-01  0.00000000000E+00 0.  1.
     999901    1    3    3    0    0 -0.79756947498E-01 -0.11355574951E+00  0.48150183881E-01  0.89217404083E+00  0.88000000000E+00 0.  1.
        -11    1    4    4    0    0  0.52349626184E-01  0.84962197602E-01 -0.21950645805E-01  0.10218194731E+00  0.51100000000E-03 0. -1.
         11    1    4    4    0    0  0.92350770256E-02  0.19886730441E-01 -0.13920358710E-01  0.25977032219E-01  0.51100000000E-03 0.  1.
</event>
<event>
 8    1  0.1196210E+005  0.1043930E+01  0.7957747E-01            NaN
         13   -1    0    0    0    0  0.00000000000E+00  0.00000000000E+00  0.74505805969E-08  0.10566000000E+00  0.10566000000E+00 0. -1.
     999900   -1    0    0    0    0 -0.00000000000E+00 -0.00000000000E+00 -0.74505805969E-08  0.93827000000E+00  0.93827000000E+00 0.  1.
     999902    2    1    2    0    0  0.57449281573E-02 -0.22668264607E-01 -0.65520332837E-02  0.10196445402E+01  0.10193552888E+01 0.  0.
     999903    2    3    3    0    0 -0.27152811313E-01  0.63250528752E-01  0.10602938436E+00  0.12771467973E+00  0.18190781256E-01 0.  0.
         14    1    1    2    0    0 -0.57449281573E-02  0.22668264607E-01  0.65520332837E-02  0.24285459847E-01  0.00000000000E+00 0. -1.
     999901    1    3    3    0    0  0.32897739470E-01 -0.85918793358E-01 -0.11258141764E+00  0.89192986042E+00  0.88000000000E+00 0.  1.
        -11    1    4    4    0    0 -0.18672752087E-01  0.36742555390E-01  0.47413723601E-01  0.62825228641E-01  0.51100000000E-03 0. -1.
         11    1    4    4    0    0 -0.84800592258E-02  0.26507973362E-01  0.58615660754E-01  0.64889451091E-01  0.51100000000E-03 0.  1.
</event>
<event>
 8    1  0.1196210E+005  0.1043930E+01  0.7957747E-01            NaN
         13   -1    0    0    0    0  0.00000000000E+00  0.00000000000E+00  0.74505805969E-08  0.10566000000E+00  0.10566000000E+00 0. -1.
     999900   -1    0    0    0    0 -0.00000000000E+00 -0.00000000000E+00 -0.74505805969E-08  0.93827000000E+00  0.93827000000E+00 0. -1.
     999902    2    1    2    0    0 -0.12373231256E-01  0.16965882627E-02  0.19632268043E-01  0.10206619702E+01  0.10203967151E+01 0.  0.
     999903    2    3    3    0    0 -0.18201148924E-01  0.12270145620E+00  0.41996936175E-01  0.13208089843E+00  0.17166592702E-01 0.  0.
         14    1    1    2    0    0  0.12373231256E-01 -0.16965882627E-02 -0.19632268043E-01  0.23268029825E-01  0.00000000000E+00 0.  1.
     999901    1    3    3    0    0  0.58279176676E-02 -0.12100486794E+00 -0.22364668132E-01  0.88858107175E+00  0.88000000000E+00 0.  1.
        -11    1    4    4    0    0 -0.12207028647E-01  0.66470275552E-01  0.14169908516E-01  0.69053287458E-01  0.51100000000E-03 0. -1.
         11    1    4    4    0    0 -0.59941202763E-02  0.56231180649E-01  0.27827027659E-01  0.63027610968E-01  0.51100000000E-03 0.  1.
</event>
<event>
 8    1  0.1196210E+005  0.1043930E+01  0.7957747E-01            NaN
         13   -1    0    0    0    0  0.00000000000E+00  0.00000000000E+00  0.74505805969E-08  0.10566000000E+00  0.10566000000E+00 0.  1.
     999900   -1    0    0    0    0 -0.00000000000E+00 -0.00000000000E+00 -0.74505805969E-08  0.93827000000E+00  0.93827000000E+00 0. -1.
     999902    2    1    2    0    0 -0.21026476070E-01  0.56236196087E-02 -0.95688097323E-02  0.10201539635E+01  0.10198768599E+01 0.  0.
     999903    2    3    3    0    0  0.90156787201E-01  0.29961185713E-01  0.83369749174E-01  0.12797034398E+00  0.19999373315E-01 0.  0.
         14    1    1    2    0    0  0.21026476070E-01 -0.56236196087E-02  0.95688097323E-02  0.23776036531E-01  0.00000000000E+00 0. -1.
     999901    1    3    3    0    0 -0.11118326327E+00 -0.24337566104E-01 -0.92938558906E-01  0.89218361949E+00  0.88000000000E+00 0.  1.
        -11    1    4    4    0    0  0.13361028104E-01 -0.44984682890E-03  0.19066288785E-01  0.23291713616E-01  0.51100000000E-03 0. -1.
         11    1    4    4    0    0  0.76795759097E-01  0.30411032542E-01  0.64303460389E-01  0.10467863036E+00  0.51100000000E-03 0.  1.
</event>
<event>
 8    1  0.1196210E+005  0.1043930E+01  0.7957747E-01            NaN
         13   -1    0    0    0    0  0.00000000000E+00  0.00000000000E+00  0.74505805969E-08  0.10566000000E+00  0.10566000000E+00 0. -1.
     999900   -1    0    0    0    0 -0.00000000000E+00 -0.00000000000E+00 -0.74505805969E-08  0.93827000000E+00  0.93827000000E+00 0. -1.
     999902    2    1    2    0    0 -0.19992249889E-01 -0.14222150578E-01 -0.27699216632E-02  0.10192392712E+01  0.10189401650E+01 0.  0.
     999903    2    3    3    0    0 -0.96845567904E-01 -0.32272046363E-01 -0.81349373248E-01  0.13221787268E+00  0.21054603482E-01 0.  0.
         14    1    1    2    0    0  0.19992249889E-01  0.14222150578E-01  0.27699216632E-02  0.24690728801E-01  0.00000000000E+00 0.  1.
     999901    1    3    3    0    0  0.76853318015E-01  0.18049895785E-01  0.78579451585E-01  0.88702139852E+00  0.88000000000E+00 0.  1.
        -11    1    4    4    0    0 -0.69142442373E-01 -0.25575506200E-01 -0.46364822178E-01  0.87090422615E-01  0.51100000000E-03 0.  1.
         11    1    4    4    0    0 -0.27703125531E-01 -0.66965401628E-02 -0.34984551070E-01  0.45127450060E-01  0.51100000000E-03 0. -1.
</event>
<event>
 8    1  0.1196210E+005  0.1043930E+01  0.7957747E-01            NaN
         13   -1    0    0    0    0  0.00000000000E+00  0.00000000000E+00  0.74505805969E-08  0.10566000000E+00  0.10566000000E+00 0. -1.
     999900   -1    0    0    0    0 -0.00000000000E+00 -0.00000000000E+00 -0.74505805969E-08  0.93827000000E+00  0.93827000000E+00 0. -1.
     999902    2    1    2    0    0 -0.11530877342E-01  0.50424650101E-02  0.22102213316E-01  0.10184958611E+01  0.10181782377E+01 0.  0.
     999903    2    3    3    0    0  0.11103118251E+00 -0.12685633440E-01 -0.55366076117E-01  0.12645489804E+00  0.20894737846E-01 0.  0.
         14    1    1    2    0    0  0.11530877342E-01 -0.50424650101E-02 -0.22102213316E-01  0.25434138852E-01  0.00000000000E+00 0.  1.
     999901    1    3    3    0    0 -0.12256205985E+00  0.17728098450E-01  0.77468289433E-01  0.89204096310E+00  0.88000000000E+00 0. -1.
        -11    1    4    4    0    0  0.78492402541E-01 -0.85381410682E-02 -0.49323962833E-01  0.93097108119E-01  0.51100000000E-03 0. -1.
         11    1    4    4    0    0  0.32538779967E-01 -0.41474923720E-02 -0.60421132843E-02  0.33357789925E-01  0.51100000000E-03 0.  1.
</event>
<event>
 8    1  0.1196210E+005  0.1043930E+01  0.7957747E-01            NaN
         13   -1    0    0    0    0  0.00000000000E+00  0.00000000000E+00  0.74505805969E-08  0.10566000000E+00  0.10566000000E+00 0.  1.
     999900   -1    0    0    0    0 -0.00000000000E+00 -0.00000000000E+00 -0.74505805969E-08  0.93827000000E+00  0.93827000000E+00 0. -1.
     999902    2    1    2    0    0  0.39032932407E-02 -0.34591827292E-02  0.21771250329E-01  0.10215427495E+01  0.10212974102E+01 0.  0.
     999903    2    3    3    0    0 -0.11797017759E+00 -0.43618771097E-01 -0.28145548268E-01  0.13083650040E+00  0.22504620836E-01 0.  0.
         14    1    1    2    0    0 -0.39032932407E-02  0.34591827292E-02 -0.21771250329E-01  0.22387250483E-01  0.00000000000E+00 0. -1.
     999901    1    3    3    0    0  0.12187347083E+00  0.40159588368E-01  0.49916798597E-01  0.89070624911E+00  0.88000000000E+00 0. -1.
        -11    1    4    4    0    0 -0.72684872291E-01 -0.24215052847E-01 -0.60914549618E-02  0.76855880639E-01  0.51100000000E-03 0.  1.
         11    1    4    4    0    0 -0.45285305294E-01 -0.19403718250E-01 -0.22054093306E-01  0.53980619764E-01  0.51100000000E-03 0. -1.
</event>
<event>
 8    1  0.1196210E+005  0.1043930E+01  0.7957747E-01            NaN
         13   -1    0    0    0    0  0.00000000000E+00  0.00000000000E+00  0.74505805969E-08  0.10566000000E+00  0.10566000000E+00 0. -1.
     999900   -1    0    0    0    0 -0.00000000000E+00 -0.00000000000E+00 -0.74505805969E-08  0.93827000000E+00  0.93827000000E+00 0.  1.
     999902    2    1    2    0    0  0.33115710919E-03  0.11124380353E-01  0.21050218032E-01  0.10201188013E+01  0.10198408678E+01 0.  0.
     999903    2    3    3    0    0  0.92369668836E-01  0.81605633982E-01 -0.38464171297E-01  0.13052301823E+00  0.19108390740E-01 0.  0.
         14    1    1    2    0    0 -0.33115710919E-03 -0.11124380353E-01 -0.21050218032E-01  0.23811198677E-01  0.00000000000E+00 0.  1.
     999901    1    3    3    0    0 -0.92038511726E-01 -0.70481253629E-01  0.59514389329E-01  0.88959578309E+00  0.88000000000E+00 0.  1.
        -11    1    4    4    0    0  0.60896322420E-01  0.64728067967E-01 -0.30189699327E-01  0.93860342709E-01  0.51100000000E-03 0. -1.
         11    1    4    4    0    0  0.31473346416E-01  0.16877566016E-01 -0.82744719701E-02  0.36662675524E-01  0.51100000000E-03 0.  1.
</event>
<event>
 8    1  0.1196210E+005  0.1043930E+01  0.7957747E-01            NaN
         13   -1    0    0    0    0  0.00000000000E+00  0.00000000000E+00  0.74505805969E-08  0.10566000000E+00  0.10566000000E+00 0. -1.
     999900   -1    0    0    0    0 -0.00000000000E+00 -0.00000000000E+00 -0.74505805969E-08  0.93827000000E+00  0.93827000000E+00 0.  1.
     999902    2    1    2    0    0  0.15531002031E-01 -0.17930112527E-01  0.78371826936E-02  0.10189475583E+01  0.10186412539E+01 0.  0.
     999903    2    3    3    0    0 -0.17364807515E-01  0.64289908390E-01  0.10853456336E+00  0.12878901706E+00  0.19290687152E-01 0.  0.
         14    1    1    2    0    0 -0.15531002031E-01  0.17930112527E-01 -0.78371826936E-02  0.24982441672E-01  0.00000000000E+00 0. -1.
     999901    1    3    3    0    0  0.32895809545E-01 -0.82220020918E-01 -0.10069738066E+00  0.89015854127E+00  0.88000000000E+00 0.  1.
        -11    1    4    4    0    0 -0.92303133034E-02  0.46131561825E-01  0.59395980175E-01  0.75772443949E-01  0.51100000000E-03 0.  1.
         11    1    4    4    0    0 -0.81344942111E-02  0.18158346565E-01  0.49138583181E-01  0.53016573108E-01  0.51100000000E-03 0. -1.
</event>
<event>
 7    1  0.1196210E+005  0.1043930E+01  0.7957747E-01            NaN
         13   -1    0    0    0    0  0.00000000000E+00  0.00000000000E+00  0.74505805969E-08  0.10566000000E+00  0.10566000000E+00 0.  1.
     999900   -1    0    0    0    0 -0.00000000000E+00 -0.00000000000E+00 -0.74505805969E-08  0.93827000000E+00  0.93827000000E+00 0. -1.
     999903    2    1    2    0    0 -0.46029950432E-01  0.52840251293E-01 -0.51805583208E-02  0.72768026038E-01  0.18907642250E-01 0.  0.
         14    1    1    2    0    0  0.49762892962E-04 -0.71928519799E-01  0.51616688640E-01  0.88532462876E-01  0.00000000000E+00 0.  1.
     999901    1    1    2    0    0  0.45980187539E-01  0.19088268506E-01 -0.46436130319E-01  0.88262951109E+00  0.88000000000E+00 0.  1.
        -11    1    3    3    0    0 -0.30929393382E-01  0.24215081213E-01  0.29485279026E-02  0.39394827972E-01  0.51100000000E-03 0.  1.
         11    1    3    3    0    0 -0.15100557050E-01  0.28625170080E-01 -0.81290862233E-02  0.33373198066E-01  0.51100000000E-03 0. -1.
</event>
<event>
 8    1  0.1196210E+005  0.1043930E+01  0.7957747E-01            NaN
         13   -1    0    0    0    0  0.00000000000E+00  0.00000000000E+00  0.74505805969E-08  0.10566000000E+00  0.10566000000E+00 0.  1.
     999900   -1    0    0    0    0 -0.00000000000E+00 -0.00000000000E+00 -0.74505805969E-08  0.93827000000E+00  0.93827000000E+00 0. -1.
     999902    2    1    2    0    0  0.68337541542E-02  0.64501343618E-02 -0.21767568317E-01  0.10202206883E+01  0.10199451561E+01 0.  0.
     999903    2    3    3    0    0 -0.10477660730E+00  0.60391129492E-01  0.42575707105E-01  0.12920634455E+00  0.16011329657E-01 0.  0.
         14    1    1    2    0    0 -0.68337541542E-02 -0.64501343618E-02  0.21767568317E-01  0.23709311664E-01  0.00000000000E+00 0.  1.
     999901    1    3    3    0    0  0.11161036146E+00 -0.53940995131E-01 -0.64343275422E-01  0.89101434379E+00  0.88000000000E+00 0.  1.
        -11    1    4    4    0    0 -0.20932078584E-01  0.54382044564E-02  0.96540250277E-02  0.23689392178E-01  0.51100000000E-03 0.  1.
         11    1    4    4    0    0 -0.83844528719E-01  0.54952925036E-01  0.32921682077E-01  0.10551695237E+00  0.51100000000E-03 0. -1.
</event>
<event>
 8    1  0.1196210E+005  0.1043930E+01  0.7957747E-01            NaN
         13   -1    0    0    0    0  0.00000000000E+00  0.00000000000E+00  0.74505805969E-08  0.10566000000E+00  0.10566000000E+00 0.  1.
     999900   -1    0    0    0    0 -0.00000000000E+00 -0.00000000000E+00 -0.74505805969E-08  0.93827000000E+00  0.93827000000E+00 0.  1.
     999902    2    1    2    0    0 -0.18095894929E-01  0.16699641954E-01 -0.14659917298E-02  0.10192624386E+01  0.10189639003E+01 0.  0.
     999903    2    3    3    0    0  0.95319273511E-01 -0.38898211552E-01  0.71403850750E-01  0.12726236252E+00  0.22324073274E-01 0.  0.
         14    1    1    2    0    0  0.18095894929E-01 -0.16699641954E-01  0.14659917298E-02  0.24667561421E-01  0.00000000000E+00 0.  1.
     999901    1    3    3    0    0 -0.11341516844E+00  0.55597853507E-01 -0.72869842480E-01  0.89200007606E+00  0.88000000000E+00 0.  1.
        -11    1    4    4    0    0  0.33307084079E-01 -0.22819740821E-01  0.35833528795E-01  0.53985232498E-01  0.51100000000E-03 0.  1.
         11    1    4    4    0    0  0.62012189432E-01 -0.16078470732E-01  0.35570321955E-01  0.73277130022E-01  0.51100000000E-03 0. -1.
</event>
<event>
 8    1  0.1196210E+005  0.1043930E+01  0.7957747E-01            NaN
         13   -1    0    0    0    0  0.00000000000E+00  0.00000000000E+00  0.74505805969E-08  0.10566000000E+00  0.10566000000E+00 0.  1.
     999900   -1    0    0    0    0 -0.00000000000E+00 -0.00000000000E+00 -0.74505805969E-08  0.93827000000E+00  0.93827000000E+00 0.  1.
     999902    2    1    2    0    0  0.86770441879E-02 -0.19068269639E-01 -0.10928930965E-01  0.10203009599E+01  0.10200273120E+01 0.  0.
     999903    2    3    3    0    0 -0.37267779549E-01  0.54432984493E-01  0.10797750095E+00  0.12808344119E+00  0.19859254821E-01 0.  0.
         14    1    1    2    0    0 -0.86770441879E-02  0.19068269639E-01  0.10928930965E-01  0.23629040076E-01  0.00000000000E+00 0.  1.
     999901    1    3    3    0    0  0.45944823737E-01 -0.73501254132E-01 -0.11890643192E+00  0.89221751874E+00  0.88000000000E+00 0.  1.
        -11    1    4    4    0    0 -0.18657444830E-01  0.13538914236E-01  0.27273412284E-01  0.35714179045E-01  0.51100000000E-03 0. -1.
         11    1    4    4    0    0 -0.18610334719E-01  0.40894070257E-01  0.80704088667E-01  0.92369262144E-01  0.51100000000E-03 0.  1.
</event>
<event>
 8    1  0.1196210E+005  0.1043930E+01  0.7957747E-01            NaN
         13   -1    0    0    0    0  0.00000000000E+00  0.00000000000E+00  0.74505805969E-08  0.10566000000E+00  0.10566000000E+00 0.  1.
     999900   -1    0    0    0    0 -0.00000000000E+00 -0.00000000000E+00 -0.74505805969E-08  0.93827000000E+00  0.93827000000E+00 0. -1.
     999902    2    1    2    0    0  0.25188351784E-01  0.81019517060E-02 -0.20230454879E-02  0.10173934705E+01  0.10170473373E+01 0.  0.
     999903    2    3    3    0    0 -0.44882961603E-01  0.11036311605E+00  0.41098072616E-01  0.12765937225E+00  0.20331407282E-01 0.  0.
         14    1    1    2    0    0 -0.25188351784E-01 -0.81019517060E-02  0.20230454879E-02  0.26536529542E-01  0.00000000000E+00 0.  1.
     999901    1    3    3    0    0  0.70071313388E-01 -0.10226116435E+00 -0.43121118104E-01  0.88973409821E+00  0.88000000000E+00 0. -1.
        -11    1    4    4    0    0 -0.36605768138E-01  0.70265208589E-01  0.20578840904E-01  0.81859218253E-01  0.51100000000E-03 0. -1.
         11    1    4    4    0    0 -0.82771934654E-02  0.40097907466E-01  0.20519231713E-01  0.45800153994E-01  0.51100000000E-03 0.  1.
</event>
<event>
 8    1  0.1196210E+005  0.1043930E+01  0.7957747E-01            NaN
         13   -1    0    0    0    0  0.00000000000E+00  0.00000000000E+00  0.74505805969E-08  0.10566000000E+00  0.10566000000E+00 0. -1.
     999900   -1    0    0    0    0 -0.00000000000E+00 -0.00000000000E+00 -0.74505805969E-08  0.93827000000E+00  0.93827000000E+00 0. -1.
     999902    2    1    2    0    0  0.83099451540E-02  0.19836228637E-01 -0.96918898324E-02  0.10203405133E+01  0.10200677915E+01 0.  0.
     999903    2    3    3    0    0 -0.72218916348E-01 -0.40323407444E-01  0.96043263954E-01  0.12832930142E+00  0.20063698193E-01 0.  0.
         14    1    1    2    0    0 -0.83099451540E-02 -0.19836228637E-01  0.96918898324E-02  0.23589486716E-01  0.00000000000E+00 0.  1.
     999901    1    3    3    0    0  0.80528861502E-01  0.60159636081E-01 -0.10573515379E+00  0.89201121187E+00  0.88000000000E+00 0. -1.
        -11    1    4    4    0    0 -0.57637094057E-01 -0.22726580649E-01  0.74747834207E-01  0.97087753702E-01  0.51100000000E-03 0.  1.
         11    1    4    4    0    0 -0.14581822291E-01 -0.17596826795E-01  0.21295429747E-01  0.31241547716E-01  0.51100000000E-03 0. -1.
</event>
<event>
 8    1  0.1196210E+005  0.1043930E+01  0.7957747E-01            NaN
         13   -1    0    0    0    0  0.00000000000E+00  0.00000000000E+00  0.74505805969E-08  0.10566000000E+00  0.10566000000E+00 0. -1.
     999900   -1    0    0    0    0 -0.00000000000E+00 -0.00000000000E+00 -0.74505805969E-08  0.93827000000E+00  0.93827000000E+00 0.  1.
     999902    2    1    2    0    0  0.10422724798E-01  0.73227675476E-02  0.20314699567E-01  0.10199520281E+01  0.10196701410E+01 0.  0.
     999903    2    3    3    0    0 -0.56623556064E-01 -0.11265880831E+00  0.21026034849E-01  0.12928301647E+00  0.19333132604E-01 0.  0.
         14    1    1    2    0    0 -0.10422724798E-01 -0.73227675476E-02 -0.20314699567E-01  0.23977971876E-01  0.00000000000E+00 0.  1.
     999901    1    3    3    0    0  0.67046280862E-01  0.11998157585E+00 -0.71133528234E-03  0.89066901165E+00  0.88000000000E+00 0. -1.
        -11    1    4    4    0    0 -0.16843432337E-01 -0.46422208622E-01  0.15752318881E-01  0.51837431817E-01  0.51100000000E-03 0. -1.
         11    1    4    4    0    0 -0.39780123727E-01 -0.66236599683E-01  0.52737159686E-02  0.77445584654E-01  0.51100000000E-03 0.  1.
</event>
<event>
 8    1  0.1196210E+005  0.1043930E+01  0.7957747E-01            NaN
         13   -1    0    0    0    0  0.00000000000E+00  0.00000000000E+00  0.74505805969E-08  0.10566000000E+00  0.10566000000E+00 0. -1.
     999900   -1    0    0    0    0 -0.00000000000E+00 -0.00000000000E+00 -0.74505805969E-08  0.93827000000E+00  0.93827000000E+00 0.  1.
     999902    2    1    2    0    0 -0.22201500208E-01  0.79649990626E-02 -0.77141452978E-03  0.10203303622E+01  0.10200574029E+01 0.  0.
     999903    2    3    3    0    0 -0.85921855377E-01  0.55173986682E-01 -0.82942246919E-01  0.13295162807E+00  0.19234995328E-01 0.  0.
         14    1    1    2    0    0  0.22201500208E-01 -0.79649990626E-02  0.77141452978E-03  0.23599637750E-01  0.00000000000E+00 0.  1.
     999901    1    3    3    0    0  0.63720355168E-01 -0.47208987619E-01  0.82170832390E-01  0.88737873418E+00  0.88000000000E+00 0.  1.
        -11    1    4    4    0    0 -0.45916875393E-01  0.18092448345E-01 -0.38999936289E-01  0.62904310540E-01  0.51100000000E-03 0.  1.
         11    1    4    4    0    0 -0.40004979984E-01  0.37081538337E-01 -0.43942310630E-01  0.70047317533E-01  0.51100000000E-03 0. -1.
</event>
<event>
 8    1  0.1196210E+005  0.1043930E+01  0.7957747E-01            NaN
         13   -1    0    0    0    0  0.00000000000E+00  0.00000000000E+00  0.74505805969E-08  0.10566000000E+00  0.10566000000E+00 0.  1.
     999900   -1    0    0    0    0 -0.00000000000E+00 -0.00000000000E+00 -0.74505805969E-08  0.93827000000E+00  0.93827000000E+00 0. -1.
     999902    2    1    2    0    0 -0.22990999421E-01  0.39215491951E-02 -0.49873519156E-02  0.10200796692E+01  0.10198008105E+01 0.  0.
     999903    2    3    3    0    0 -0.12160016484E+00  0.10457922437E-01 -0.48853691402E-01  0.13346208111E+00  0.23010339015E-01 0.  0.
         14    1    1    2    0    0  0.22990999421E-01 -0.39215491951E-02  0.49873519156E-02  0.23850330848E-01  0.00000000000E+00 0. -1.
     999901    1    3    3    0    0  0.98609165416E-01 -0.65363732416E-02  0.43866339486E-01  0.88661758804E+00  0.88000000000E+00 0.  1.
        -11    1    4    4    0    0 -0.72521255924E-01 -0.46862972220E-02 -0.25276012055E-01  0.76944342540E-01  0.51100000000E-03 0. -1.
         11    1    4    4    0    0 -0.49078908912E-01  0.15144219659E-01 -0.23577679347E-01  0.56517738573E-01  0.51100000000E-03 0.  1.
</event>
<event>
 8    1  0.1196210E+005  0.1043930E+01  0.7957747E-01            NaN
         13   -1    0    0    0    0  0.00000000000E+00  0.00000000000E+00  0.74505805969E-08  0.10566000000E+00  0.10566000000E+00 0. -1.
     999900   -1    0    0    0    0 -0.00000000000E+00 -0.00000000000E+00 -0.74505805969E-08  0.93827000000E+00  0.93827000000E+00 0.  1.
     999902    2    1    2    0    0  0.23049311686E-01  0.69062209347E-02 -0.14749157567E-02  0.10198231123E+01  0.10195381496E+01 0.  0.
     999903    2    3    3    0    0  0.11317158917E-01  0.12869327739E+00 -0.11973597693E-01  0.13129626813E+00  0.20132194463E-01 0.  0.
         14    1    1    2    0    0 -0.23049311686E-01 -0.69062209347E-02  0.14749157567E-02  0.24106887673E-01  0.00000000000E+00 0. -1.
     999901    1    3    3    0    0  0.11732152769E-01 -0.12178705645E+00  0.10498681937E-01  0.88852684419E+00  0.88000000000E+00 0. -1.
        -11    1    4    4    0    0 -0.37277049582E-02  0.70971457420E-01 -0.52164055552E-02  0.71262301117E-01  0.51100000000E-03 0.  1.
         11    1    4    4    0    0  0.15044863875E-01  0.57721819966E-01 -0.67571921380E-02  0.60033967017E-01  0.51100000000E-03 0. -1.
</event>
<event>
 8    1  0.1196210E+005  0.1043930E+01  0.7957747E-01            NaN
         13   -1    0    0    0    0  0.00000000000E+00  0.00000000000E+00  0.74505805969E-08  0.10566000000E+00  0.10566000000E+00 0. -1.
     999900   -1    0    0    0    0 -0.00000000000E+00 -0.00000000000E+00 -0.74505805969E-08  0.93827000000E+00  0.93827000000E+00 0.  1.
     999902    2    1    2    0    0 -0.19389038175E-01  0.10192313338E-01  0.99927537494E-02  0.10198535970E+01  0.10195693631E+01 0.  0.
     999903    2    3    3    0    0  0.78008633324E-02 -0.10338974464E+00  0.75121312645E-01  0.12975140974E+00  0.21021987267E-01 0.  0.
         14    1    1    2    0    0  0.19389038175E-01 -0.10192313338E-01 -0.99927537494E-02  0.24076402971E-01  0.00000000000E+00 0. -1.
     999901    1    3    3    0    0 -0.27189901507E-01  0.11358205798E+00 -0.65128558895E-01  0.89010218729E+00  0.88000000000E+00 0. -1.
        -11    1    4    4    0    0  0.11605293514E-01 -0.29585860171E-01  0.25271640091E-01  0.40606931348E-01  0.51100000000E-03 0.  1.
         11    1    4    4    0    0 -0.38044301821E-02 -0.73803884473E-01  0.49849672554E-01  0.89144478388E-01  0.51100000000E-03 0. -1.
</event>
<event>
 8    1  0.1196210E+005  0.1043930E+01  0.7957747E-01            NaN
         13   -1    0    0    0    0  0.00000000000E+00  0.00000000000E+00  0.74505805969E-08  0.10566000000E+00  0.10566000000E+00 0. -1.
     999900   -1    0    0    0    0 -0.00000000000E+00 -0.00000000000E+00 -0.74505805969E-08  0.93827000000E+00  0.93827000000E+00 0.  1.
     999902    2    1    2    0    0  0.10054471905E-01 -0.45139624104E-02  0.17389085431E-01  0.10233424175E+01  0.10231353062E+01 0.  0.
     999903    2    3    3    0    0 -0.10038894119E+00  0.15039395982E-01  0.84272082210E-01  0.13370574075E+00  0.21709867005E-01 0.  0.
         14    1    1    2    0    0 -0.10054471905E-01  0.45139624104E-02 -0.17389085431E-01  0.20587582521E-01  0.00000000000E+00 0.  1.
     999901    1    3    3    0    0  0.11044341309E+00 -0.19553358393E-01 -0.66882996779E-01  0.88963667673E+00  0.88000000000E+00 0.  1.
        -11    1    4    4    0    0 -0.31846580720E-01  0.10826927075E-01  0.17493217989E-01  0.37917025859E-01  0.51100000000E-03 0.  1.
         11    1    4    4    0    0 -0.68542360469E-01  0.42124689073E-02  0.66778864222E-01  0.95788714892E-01  0.51100000000E-03 0. -1.
</event>
<event>
 8    1  0.1196210E+005  0.1043930E+01  0.7957747E-01            NaN
         13   -1    0    0    0    0  0.00000000000E+00  0.00000000000E+00  0.74505805969E-08  0.10566000000E+00  0.10566000000E+00 0. -1.
     999900   -1    0    0    0    0 -0.00000000000E+00 -0.00000000000E+00 -0.74505805969E-08  0.93827000000E+00  0.93827000000E+00 0. -1.
     999902    2    1    2    0    0  0.12410700355E-01  0.15713949536E-01  0.13549143321E-01  0.10197528832E+01  0.10194662377E+01 0.  0.
     999903    2    3    3    0    0 -0.73568868352E-01 -0.46515613444E-01 -0.90614992041E-01  0.12727589644E+00  0.20297693180E-01 0.  0.
         14    1    1    2    0    0 -0.12410700355E-01 -0.15713949536E-01 -0.13549143321E-01  0.24177116827E-01  0.00000000000E+00 0.  1.
     999901    1    3    3    0    0  0.85979568708E-01  0.62229562980E-01  0.10416413536E+00  0.89247698673E+00  0.88000000000E+00 0. -1.
        -11    1    4    4    0    0 -0.70612188900E-01 -0.44489565227E-01 -0.78301591195E-01  0.11444126415E+00  0.51100000000E-03 0.  1.
         11    1    4    4    0    0 -0.29566794520E-02 -0.20260482162E-02 -0.12313400846E-01  0.12834632295E-01  0.51100000000E-03 0. -1.
</event>
<event>
 8    1  0.1196210E+005  0.1043930E+01  0.7957747E-01            NaN
         13   -1    0    0    0    0  0.00000000000E+00  0.00000000000E+00  0.74505805969E-08  0.10566000000E+00  0.10566000000E+00 0. -1.
     999900   -1    0    0    0    0 -0.00000000000E+00 -0.00000000000E+00 -0.74505805969E-08  0.93827000000E+00  0.93827000000E+00 0.  1.
     999902    2    1    2    0    0 -0.87596600019E-02  0.16248852156E-01 -0.12674686383E-01  0.10215379363E+01  0.10212924904E+01 0.  0.
     999903    2    3    3    0    0  0.31949027160E-01  0.64557786448E-01 -0.11100339141E+00  0.13381079101E+00  0.19877795569E-01 0.  0.
         14    1    1    2    0    0  0.87596600019E-02 -0.16248852156E-01  0.12674686383E-01  0.22392063653E-01  0.00000000000E+00 0. -1.
     999901    1    3    3    0    0 -0.40708687162E-01 -0.48308934293E-01  0.98328705031E-01  0.88772714534E+00  0.88000000000E+00 0. -1.
        -11    1    4    4    0    0  0.67132572102E-02  0.34506261832E-01 -0.58663622605E-01  0.68391751447E-01  0.51100000000E-03 0. -1.
         11    1    4    4    0    0  0.25235769950E-01  0.30051524616E-01 -0.52339768810E-01  0.65419039559E-01  0.51100000000E-03 0.  1.
</event>
<event>
 8    1  0.1196210E+005  0.1043930E+01  0.7957747E-01            NaN
         13   -1    0    0    0    0  0.00000000000E+00  0.00000000000E+00  0.74505805969E-08  0.10566000000E+00  0.10566000000E+00 0.  1.
     999900   -1    0    0    0    0 -0.00000000000E+00 -0.00000000000E+00 -0.74505805969E-08  0.93827000000E+00  0.93827000000E+00 0.  1.
     999902    2    1    2    0    0  0.46875518304E-02 -0.18095462351E-01  0.13587097705E-01  0.10208209515E+01  0.10205593500E+01 0.  0.
     999903    2    3    3    0    0 -0.12502865196E-01 -0.12945220178E+00  0.22959216022E-01  0.13358723342E+00  0.20105450721E-01 0.  0.
         14    1    1    2    0    0 -0.46875518304E-02  0.18095462351E-01 -0.13587097705E-01  0.23109048529E-01  0.00000000000E+00 0. -1.
     999901    1    3    3    0    0  0.17190417026E-01  0.11135673942E+00 -0.93721183171E-02  0.88723371806E+00  0.88000000000E+00 0. -1.
        -11    1    4    4    0    0 -0.89036617727E-02 -0.79377822398E-01  0.41888921110E-02  0.79987010319E-01  0.51100000000E-03 0. -1.
         11    1    4    4    0    0 -0.35992034234E-02 -0.50074379377E-01  0.18770323911E-01  0.53600223096E-01  0.51100000000E-03 0.  1.
</event>
<event>
 8    1  0.1196210E+005  0.1043930E+01  0.7957747E-01            NaN
         13   -1    0    0    0    0  0.00000000000E+00  0.00000000000E+00  0.74505805969E-08  0.10566000000E+00  0.10566000000E+00 0. -1.
     999900   -1    0    0    0    0 -0.00000000000E+00 -0.00000000000E+00 -0.74505805969E-08  0.93827000000E+00  0.93827000000E+00 0. -1.
     999902    2    1    2    0    0 -0.23169370556E-01  0.39282092930E-02 -0.48650258923E-02  0.10199316868E+01  0.10196493155E+01 0.  0.
     999903    2    3    3    0    0  0.94121118166E-01 -0.66981080601E-01  0.51771938897E-01  0.12752318620E+00  0.15381135124E-01 0.  0.
         14    1    1    2    0    0  0.23169370556E-01 -0.39282092930E-02  0.48650258923E-02  0.23998313215E-01  0.00000000000E+00 0. -1.
     999901    1    3    3    0    0 -0.11729048872E+00  0.70909289894E-01 -0.56636964789E-01  0.89240850059E+00  0.88000000000E+00 0.  1.
        -11    1    4    4    0    0  0.39684601173E-01 -0.21720162426E-01  0.14466624948E-01  0.47499235620E-01  0.51100000000E-03 0.  1.
         11    1    4    4    0    0  0.54436516994E-01 -0.45260918175E-01  0.37305313949E-01  0.80023950579E-01  0.51100000000E-03 0. -1.
</event>
<event>
 8    1  0.1196210E+005  0.1043930E+01  0.7957747E-01            NaN
         13   -1    0    0    0    0  0.00000000000E+00  0.00000000000E+00  0.74505805969E-08  0.10566000000E+00  0.10566000000E+00 0.  1.
     999900   -1    0    0    0    0 -0.00000000000E+00 -0.00000000000E+00 -0.74505805969E-08  0.93827000000E+00  0.93827000000E+00 0.  1.
     999902    2    1    2    0    0 -0.35322005162E-02 -0.20891098766E-01 -0.11747925505E-01  0.10197033989E+01  0.10194155647E+01 0.  0.
     999903    2    3    3    0    0 -0.96396803233E-01 -0.19892884937E-02 -0.86885094616E-01  0.13143164595E+00  0.20711275888E-01 0.  0.
         14    1    1    2    0    0  0.35322005162E-02  0.20891098766E-01  0.11747925505E-01  0.24226601119E-01  0.00000000000E+00 0.  1.
     999901    1    3    3    0    0  0.92864602717E-01 -0.18901810272E-01  0.75137169111E-01  0.88827175293E+00  0.88000000000E+00 0. -1.
        -11    1    4    4    0    0 -0.25307194905E-01  0.21284183167E-02 -0.35346730082E-01  0.43527424998E-01  0.51100000000E-03 0.  1.
         11    1    4    4    0    0 -0.71089608328E-01 -0.41177068104E-02 -0.51538364534E-01  0.87904220954E-01  0.51100000000E-03 0. -1.
</event>
<event>
 8    1  0.1196210E+005  0.1043930E+01  0.7957747E-01            NaN
         13   -1    0    0    0    0  0.00000000000E+00  0.00000000000E+00  0.74505805969E-08  0.10566000000E+00  0.10566000000E+00 0.  1.
     999900   -1    0    0    0    0 -0.00000000000E+00 -0.00000000000E+00 -0.74505805969E-08  0.93827000000E+00  0.93827000000E+00 0. -1.
     999902    2    1    2    0    0  0.23117462161E-01 -0.37144631346E-02  0.35806842870E-02  0.10202438101E+01  0.10199688213E+01 0.  0.
     999903    2    3    3    0    0 -0.62474198347E-01 -0.62463255735E-01  0.92871136798E-01  0.12965404038E+00  0.19504829150E-01 0.  0.
         14    1    1    2    0    0 -0.23117462161E-01  0.37144631346E-02 -0.35806842870E-02  0.23686189924E-01  0.00000000000E+00 0. -1.
     999901    1    3    3    0    0  0.85591660508E-01  0.58748792601E-01 -0.89290452511E-01  0.89058976970E+00  0.88000000000E+00 0. -1.
        -11    1    4    4    0    0 -0.45764812161E-01 -0.56286016253E-01  0.76971590086E-01  0.10577060300E+00  0.51100000000E-03 0. -1.
         11    1    4    4    0    0 -0.16709386186E-01 -0.61772394823E-02  0.15899546712E-01  0.23883437378E-01  0.51100000000E-03 0.  1.
</event>
<event>
 8    1  0.1196210E+005  0.1043930E+01  0.7957747E-01            NaN
         13   -1    0    0    0    0  0.00000000000E+00  0.00000000000E+00  0.74505805969E-08  0.10566000000E+00  0.10566000000E+00 0.  1.
     999900   -1    0    0    0    0 -0.00000000000E+00 -0.00000000000E+00 -0.74505805969E-08  0.93827000000E+00  0.93827000000E+00 0.  1.
     999902    2    1    2    0    0 -0.58388289925E-02  0.19640330442E-01 -0.97365945681E-02  0.10212444148E+01  0.10209924186E+01 0.  0.
     999903    2    3    3    0    0  0.34929109617E-01  0.36933621694E-01  0.11878309926E+00  0.13080722189E+00  0.20419831535E-01 0.  0.
         14    1    1    2    0    0  0.58388289925E-02 -0.19640330442E-01  0.97365945681E-02  0.22685585240E-01  0.00000000000E+00 0.  1.
     999901    1    3    3    0    0 -0.40767938610E-01 -0.17293291251E-01 -0.12851969383E+00  0.89043719287E+00  0.88000000000E+00 0.  1.
        -11    1    4    4    0    0  0.29304446760E-01  0.17360003657E-01  0.81246462342E-01  0.88098632741E-01  0.51100000000E-03 0.  1.
         11    1    4    4    0    0  0.56246628574E-02  0.19573618037E-01  0.37536636916E-01  0.42708589151E-01  0.51100000000E-03 0. -1.
</event>
<event>
 8    1  0.1196210E+005  0.1043930E+01  0.7957747E-01            NaN
         13   -1    0    0    0    0  0.00000000000E+00  0.00000000000E+00  0.74505805969E-08  0.10566000000E+00  0.10566000000E+00 0.  1.
     999900   -1    0    0    0    0 -0.00000000000E+00 -0.00000000000E+00 -0.74505805969E-08  0.93827000000E+00  0.93827000000E+00 0.  1.
     999902    2    1    2    0    0 -0.21083701254E-01  0.42652152660E-02  0.92551328488E-02  0.10205126559E+01  0.10202439458E+01 0.  0.
     999903    2    3    3    0    0 -0.12020141153E+00 -0.48689224981E-01 -0.21243385502E-01  0.13284230446E+00  0.19410730660E-01 0.  0.
         14    1    1    2    0    0  0.21083701254E-01 -0.42652152660E-02 -0.92551328488E-02  0.23417344082E-01  0.00000000000E+00 0. -1.
     999901    1    3    3    0    0  0.99117710274E-01  0.52954440247E-01  0.30498518351E-01  0.88767035146E+00  0.88000000000E+00 0. -1.
        -11    1    4    4    0    0 -0.24556836852E-01 -0.18454523429E-01 -0.27981471568E-02  0.30849609717E-01  0.51100000000E-03 0. -1.
         11    1    4    4    0    0 -0.95644574675E-01 -0.30234701552E-01 -0.18445238345E-01  0.10199269474E+00  0.51100000000E-03 0.  1.
</event>
<event>
 8    1  0.1196210E+005  0.1043930E+01  0.7957747E-01            NaN
         13   -1    0    0    0    0  0.00000000000E+00  0.00000000000E+00  0.74505805969E-08  0.10566000000E+00  0.10566000000E+00 0. -1.
     999900   -1    0    0    0    0 -0.00000000000E+00 -0.00000000000E+00 -0.74505805969E-08  0.93827000000E+00  0.93827000000E+00 0.  1.
     999902    2    1    2    0    0 -0.16530427541E-01  0.13980022570E-01  0.11163535676E-01  0.10195718269E+01  0.10192808198E+01 0.  0.
     999903    2    3    3    0    0  0.83987647504E-01 -0.69862513553E-01 -0.62184538602E-01  0.12687176854E+00  0.17170704076E-01 0.  0.
         14    1    1    2    0    0  0.16530427541E-01 -0.13980022570E-01 -0.11163535676E-01  0.24358173054E-01  0.00000000000E+00 0.  1.
     999901    1    3    3    0    0 -0.10051807505E+00  0.83842536123E-01  0.73348074278E-01  0.89270005840E+00  0.88000000000E+00 0. -1.
        -11    1    4    4    0    0  0.54187189284E-01 -0.39710875290E-01 -0.46327668056E-01  0.81607101697E-01  0.51100000000E-03 0.  1.
         11    1    4    4    0    0  0.29800458220E-01 -0.30151638263E-01 -0.15856870546E-01  0.45264666845E-01  0.51100000000E-03 0. -1.
</event>
<event>
 8    1  0.1196210E+005  0.1043930E+01  0.7957747E-01            NaN
         13   -1    0    0    0    0  0.00000000000E+00  0.00000000000E+00  0.74505805969E-08  0.10566000000E+00  0.10566000000E+00 0. -1.
     999900   -1    0    0    0    0 -0.00000000000E+00 -0.00000000000E+00 -0.74505805969E-08  0.93827000000E+00  0.93827000000E+00 0. -1.
     999902    2    1    2    0    0  0.16418064188E-01 -0.56445588893E-02 -0.14905552838E-01  0.10210479244E+01  0.10207914942E+01 0.  0.
     999903    2    3    3    0    0  0.91752575769E-01  0.92607402141E-01 -0.13334688058E-01  0.13237970508E+00  0.18759166273E-01 0.  0.
         14    1    1    2    0    0 -0.16418064188E-01  0.56445588893E-02  0.14905552838E-01  0.22882075564E-01  0.00000000000E+00 0.  1.
     999901    1    3    3    0    0 -0.75334511581E-01 -0.98251961030E-01 -0.15708647802E-02  0.88866821936E+00  0.88000000000E+00 0.  1.
        -11    1    4    4    0    0  0.79016644340E-01  0.74102846344E-01 -0.16867371588E-01  0.10963407894E+00  0.51100000000E-03 0. -1.
         11    1    4    4    0    0  0.12735931429E-01  0.18504555797E-01  0.35326835301E-02  0.22745626140E-01  0.51100000000E-03 0.  1.
</event>
<event>
 8    1  0.1196210E+005  0.1043930E+01  0.7957747E-01            NaN
         13   -1    0    0    0    0  0.00000000000E+00  0.00000000000E+00  0.74505805969E-08  0.10566000000E+00  0.10566000000E+00 0. -1.
     999900   -1    0    0    0    0 -0.00000000000E+00 -0.00000000000E+00 -0.74505805969E-08  0.93827000000E+00  0.93827000000E+00 0. -1.
     999902    2    1    2    0    0  0.89521007973E-02  0.12982320512E-01  0.18052518003E-01  0.10199597234E+01  0.10196780194E+01 0.  0.
     999903    2    3    3    0    0 -0.61068645271E-01  0.71219209827E-01 -0.87076440653E-01  0.12903518219E+00  0.16316140572E-01 0.  0.
         14    1    1    2    0    0 -0.89521007973E-02 -0.12982320512E-01 -0.18052518003E-01  0.23970276611E-01  0.00000000000E+00 0.  1.
     999901    1    3    3    0    0  0.70020746068E-01 -0.58236889315E-01  0.10512895866E+00  0.89092454120E+00  0.88000000000E+00 0.  1.
        -11    1    4    4    0    0 -0.11280738831E-01  0.22040399166E-01 -0.28642175405E-01  0.37863829665E-01  0.51100000000E-03 0. -1.
         11    1    4    4    0    0 -0.49787906440E-01  0.49178810661E-01 -0.58434265248E-01  0.91171352528E-01  0.51100000000E-03 0.  1.
</event>
<event>
 8    1  0.1196210E+005  0.1043930E+01  0.7957747E-01            NaN
         13   -1    0    0    0    0  0.00000000000E+00  0.00000000000E+00  0.74505805969E-08  0.10566000000E+00  0.10566000000E+00 0. -1.
     999900   -1    0    0    0    0 -0.00000000000E+00 -0.00000000000E+00 -0.74505805969E-08  0.93827000000E+00  0.93827000000E+00 0. -1.
     999902    2    1    2    0    0  0.46140368102E-02 -0.23332291549E-01 -0.19991312659E-02  0.10200619944E+01  0.10197827174E+01 0.  0.
     999903    2    3    3    0    0  0.62002366058E-01  0.43819471272E-01 -0.10340174095E+00  0.12984557757E+00  0.20087670922E-01 0.  0.
         14    1    1    2    0    0 -0.46140368102E-02  0.23332291549E-01  0.19991312659E-02  0.23868005581E-01  0.00000000000E+00 0. -1.
     999901    1    3    3    0    0 -0.57388329248E-01 -0.67151762821E-01  0.10140260968E+00  0.89021641685E+00  0.88000000000E+00 0.  1.
        -11    1    4    4    0    0  0.27349559718E-02  0.60445618986E-02 -0.18303709858E-01  0.19475718941E-01  0.51100000000E-03 0. -1.
         11    1    4    4    0    0  0.59267410086E-01  0.37774909374E-01 -0.85098031090E-01  0.11036985863E+00  0.51100000000E-03 0.  1.
</event>
<event>
 8    1  0.1196210E+005  0.1043930E+01  0.7957747E-01            NaN
         13   -1    0    0    0    0  0.00000000000E+00  0.00000000000E+00  0.74505805969E-08  0.10566000000E+00  0.10566000000E+00 0.  1.
     999900   -1    0    0    0    0 -0.00000000000E+00 -0.00000000000E+00 -0.74505805969E-08  0.93827000000E+00  0.93827000000E+00 0. -1.
     999902    2    1    2    0    0 -0.22566404000E-01 -0.63854223949E-02  0.11969392169E-01  0.10175997406E+01  0.10172590376E+01 0.  0.
     999903    2    3    3    0    0  0.66362478050E-01  0.38220297135E-01 -0.97224085510E-01  0.12528744563E+00  0.19484650942E-01 0.  0.
         14    1    1    2    0    0  0.22566404000E-01  0.63854223949E-02 -0.11969392169E-01  0.26330259353E-01  0.00000000000E+00 0. -1.
     999901    1    3    3    0    0 -0.88928882051E-01 -0.44605719530E-01  0.10919347768E+00  0.89231229502E+00  0.88000000000E+00 0.  1.
        -11    1    4    4    0    0  0.30306822019E-01  0.12961179374E-01 -0.28015351681E-01  0.43262185364E-01  0.51100000000E-03 0.  1.
         11    1    4    4    0    0  0.36055656031E-01  0.25259117761E-01 -0.69208733829E-01  0.82025260262E-01  0.51100000000E-03 0. -1.
</event>
<event>
 8    1  0.1196210E+005  0.1043930E+01  0.7957747E-01            NaN
         13   -1    0    0    0    0  0.00000000000E+00  0.00000000000E+00  0.74505805969E-08  0.10566000000E+00  0.10566000000E+00 0. -1.
     999900   -1    0    0    0    0 -0.00000000000E+00 -0.00000000000E+00 -0.74505805969E-08  0.93827000000E+00  0.93827000000E+00 0. -1.
     999902    2    1    2    0    0  0.31289413905E-01  0.10195667163E-01  0.76938579275E-02  0.10101339277E+01  0.10095684115E+01 0.  0.
     999903    2    3    3    0    0  0.90876351471E-01  0.17508780401E-01  0.82041604529E-01  0.12496068356E+00  0.17868377522E-01 0.  0.
         14    1    1    2    0    0 -0.31289413905E-01 -0.10195667163E-01 -0.76938579275E-02  0.33796072275E-01  0.00000000000E+00 0.  1.
     999901    1    3    3    0    0 -0.59586937566E-01 -0.73131132379E-02 -0.74347746602E-01  0.88517324416E+00  0.88000000000E+00 0. -1.
        -11    1    4    4    0    0  0.76013481500E-01  0.16552092524E-01  0.59513681162E-01  0.97949785621E-01  0.51100000000E-03 0. -1.
         11    1    4    4    0    0  0.14862869971E-01  0.95668787698E-03  0.22527923367E-01  0.27010897943E-01  0.51100000000E-03 0.  1.
</event>
<event>
 8    1  0.1196210E+005  0.1043930E+01  0.7957747E-01            NaN
         13   -1    0    0    0    0  0.00000000000E+00  0.00000000000E+00  0.74505805969E-08  0.10566000000E+00  0.10566000000E+00 0. -1.
     999900   -1    0    0    0    0 -0.00000000000E+00 -0.00000000000E+00 -0.74505805969E-08  0.93827000000E+00  0.93827000000E+00 0.  1.
     999902    2    1    2    0    0  0.23259428878E-01 -0.84363969062E-02  0.20151595033E-02  0.10191059251E+01  0.10188035394E+01 0.  0.
     999903    2    3    3    0    0  0.56562671938E-01 -0.39686969204E-02  0.11646066290E+00  0.13105928246E+00  0.19959035665E-01 0.  0.
         14    1    1    2    0    0 -0.23259428878E-01  0.84363969062E-02 -0.20151595033E-02  0.24824074854E-01  0.00000000000E+00 0.  1.
     999901    1    3    3    0    0 -0.33303243060E-01 -0.44676999858E-02 -0.11444550339E+00  0.88804664269E+00  0.88000000000E+00 0.  1.
        -11    1    4    4    0    0  0.48463498437E-01 -0.76802634435E-02  0.82920775323E-01  0.96352546560E-01  0.51100000000E-03 0. -1.
         11    1    4    4    0    0  0.80991735012E-02  0.37115665231E-02  0.33539887572E-01  0.34706735899E-01  0.51100000000E-03 0.  1.
</event>
<event>
 8    1  0.1196210E+005  0.1043930E+01  0.7957747E-01            NaN
         13   -1    0    0    0    0  0.00000000000E+00  0.00000000000E+00  0.74505805969E-08  0.10566000000E+00  0.10566000000E+00 0.  1.
     999900   -1    0    0    0    0 -0.00000000000E+00 -0.00000000000E+00 -0.74505805969E-08  0.93827000000E+00  0.93827000000E+00 0.  1.
     999902    2    1    2    0    0 -0.87542438364E-02  0.18137362995E-01  0.13496645167E-01  0.10196862348E+01  0.10193979877E+01 0.  0.
     999903    2    3    3    0    0 -0.11912739962E+00 -0.32556506108E-01  0.39864997265E-01  0.13095264597E+00  0.17553177737E-01 0.  0.
         14    1    1    2    0    0  0.87542438364E-02 -0.18137362995E-01 -0.13496645167E-01  0.24243765226E-01  0.00000000000E+00 0. -1.
     999901    1    3    3    0    0  0.11037315578E+00  0.50693869103E-01 -0.26368352097E-01  0.88873358881E+00  0.88000000000E+00 0. -1.
        -11    1    4    4    0    0 -0.41890309545E-01 -0.20210281173E-01  0.15394503510E-01  0.48994952374E-01  0.51100000000E-03 0. -1.
         11    1    4    4    0    0 -0.77237090075E-01 -0.12346224935E-01  0.24470493755E-01  0.81957693592E-01  0.51100000000E-03 0.  1.
</event>
<event>
 8    1  0.1196210E+005  0.1043930E+01  0.7957747E-01            NaN
         13   -1    0    0    0    0  0.00000000000E+00  0.00000000000E+00  0.74505805969E-08  0.10566000000E+00  0.10566000000E+00 0. -1.
     999900   -1    0    0    0    0 -0.00000000000E+00 -0.00000000000E+00 -0.74505805969E-08  0.93827000000E+00  0.93827000000E+00 0. -1.
     999902    2    1    2    0    0 -0.55943308970E-02  0.22963991763E-01 -0.51459332653E-02  0.10197407031E+01  0.10194537652E+01 0.  0.
     999903    2    3    3    0    0 -0.22875338271E-01 -0.36844005096E-01 -0.12016616896E+00  0.13007487576E+00  0.24470458272E-01 0.  0.
         14    1    1    2    0    0  0.55943308970E-02 -0.22963991763E-01  0.51459332653E-02  0.24189296911E-01  0.00000000000E+00 0. -1.
     999901    1    3    3    0    0  0.17281007374E-01  0.59807996860E-01  0.11502023569E+00  0.88966582733E+00  0.88000000000E+00 0.  1.
        -11    1    4    4    0    0 -0.16569991598E-01 -0.85663630159E-02 -0.29645822746E-01  0.35029746276E-01  0.51100000000E-03 0. -1.
         11    1    4    4    0    0 -0.63053466731E-02 -0.28277642080E-01 -0.90520346213E-01  0.95045129480E-01  0.51100000000E-03 0.  1.
</event>
<event>
 8    1  0.1196210E+005  0.1043930E+01  0.7957747E-01            NaN
         13   -1    0    0    0    0  0.00000000000E+00  0.00000000000E+00  0.74505805969E-08  0.10566000000E+00  0.10566000000E+00 0. -1.
     999900   -1    0    0    0    0 -0.00000000000E+00 -0.00000000000E+00 -0.74505805969E-08  0.93827000000E+00  0.93827000000E+00 0. -1.
     999902    2    1    2    0    0 -0.15074010677E-01 -0.12415571717E-01  0.13011057289E-01  0.10204638578E+01  0.10201940135E+01 0.  0.
     999903    2    3    3    0    0 -0.92788272358E-01  0.90464369223E-01  0.39248947908E-02  0.13102226494E+00  0.18919924041E-01 0.  0.
         14    1    1    2    0    0  0.15074010677E-01  0.12415571717E-01 -0.13011057289E-01  0.23466142221E-01  0.00000000000E+00 0.  1.
     999901    1    3    3    0    0  0.77714261681E-01 -0.10287994094E+00  0.90861624987E-02  0.88944159284E+00  0.88000000000E+00 0. -1.
        -11    1    4    4    0    0 -0.22019381508E-01  0.26334924339E-01  0.86390325285E-02  0.35401629991E-01  0.51100000000E-03 0. -1.
         11    1    4    4    0    0 -0.70768890850E-01  0.64129444884E-01 -0.47141377377E-02  0.95620634953E-01  0.51100000000E-03 0.  1.
</event>
<event>
 8    1  0.1196210E+005  0.1043930E+01  0.7957747E-01            NaN
         13   -1    0    0    0    0  0.00000000000E+00  0.00000000000E+00  0.74505805969E-08  0.10566000000E+00  0.10566000000E+00 0. -1.
     999900   -1    0    0    0    0 -0.00000000000E+00 -0.00000000000E+00 -0.74505805969E-08  0.93827000000E+00  0.93827000000E+00 0.  1.
     999902    2    1    2    0    0 -0.85000422948E-02  0.25443120313E-01  0.12981548358E-01  0.10141285959E+01  0.10136906260E+01 0.  0.
     999903    2    3    3    0    0 -0.11201438253E+00  0.28730125818E-01 -0.45330258205E-01  0.12613856787E+00  0.21987814220E-01 0.  0.
         14    1    1    2    0    0  0.85000422948E-02 -0.25443120313E-01 -0.12981548358E-01  0.29801404129E-01  0.00000000000E+00 0.  1.
     999901    1    3    3    0    0  0.10351434023E+00 -0.32870055048E-02  0.58311806564E-01  0.88799002800E+00  0.88000000000E+00 0. -1.
        -11    1    4    4    0    0 -0.95404878107E-01  0.20052535218E-01 -0.45034017039E-01  0.10738956535E+00  0.51100000000E-03 0.  1.
         11    1    4    4    0    0 -0.16609504418E-01  0.86775905994E-02 -0.29624116611E-03  0.18749002519E-01  0.51100000000E-03 0. -1.
</event>
<event>
 8    1  0.1196210E+005  0.1043930E+01  0.7957747E-01            NaN
         13   -1    0    0    0    0  0.00000000000E+00  0.00000000000E+00  0.74505805969E-08  0.10566000000E+00  0.10566000000E+00 0. -1.
     999900   -1    0    0    0    0 -0.00000000000E+00 -0.00000000000E+00 -0.74505805969E-08  0.93827000000E+00  0.93827000000E+00 0.  1.
     999902    2    1    2    0    0 -0.13839825656E-01  0.94829388458E-03 -0.20276140384E-01  0.10193625031E+01  0.10190664114E+01 0.  0.
     999903    2    3    3    0    0  0.66736436367E-01  0.44258384968E-01  0.96857790269E-01  0.12690037185E+00  0.17598757365E-01 0.  0.
         14    1    1    2    0    0  0.13839825656E-01 -0.94829388458E-03  0.20276140384E-01  0.24567496909E-01  0.00000000000E+00 0. -1.
     999901    1    3    3    0    0 -0.80576262023E-01 -0.43310091083E-01 -0.11713393065E+00  0.89246213124E+00  0.88000000000E+00 0.  1.
        -11    1    4    4    0    0  0.28848324919E-01  0.13327904282E-01  0.49451746264E-01  0.58784310941E-01  0.51100000000E-03 0.  1.
         11    1    4    4    0    0  0.37888111447E-01  0.30930480686E-01  0.47406044004E-01  0.68116060908E-01  0.51100000000E-03 0. -1.
</event>
<event>
 8    1  0.1196210E+005  0.1043930E+01  0.7957747E-01            NaN
         13   -1    0    0    0    0  0.00000000000E+00  0.00000000000E+00  0.74505805969E-08  0.10566000000E+00  0.10566000000E+00 0.  1.
     999900   -1    0    0    0    0 -0.00000000000E+00 -0.00000000000E+00 -0.74505805969E-08  0.93827000000E+00  0.93827000000E+00 0. -1.
     999902    2    1    2    0    0  0.22951637707E-01 -0.62040800974E-02 -0.13491220400E-02  0.10201163818E+01  0.10198383911E+01 0.  0.
     999903    2    3    3    0    0 -0.10149782744E+00 -0.37875082038E-01 -0.66040104498E-01  0.12844623818E+00  0.20020236927E-01 0.  0.
         14    1    1    2    0    0 -0.22951637707E-01  0.62040800974E-02  0.13491220400E-02  0.23813618238E-01  0.00000000000E+00 0.  1.
     999901    1    3    3    0    0  0.12444946515E+00  0.31671001940E-01  0.64690982458E-01  0.89167014358E+00  0.88000000000E+00 0.  1.
        -11    1    4    4    0    0 -0.37819388063E-01 -0.15836886320E-01 -0.14083103342E-01  0.43355599437E-01  0.51100000000E-03 0. -1.
         11    1    4    4    0    0 -0.63678439378E-01 -0.22038195717E-01 -0.51957001155E-01  0.85090638745E-01  0.51100000000E-03 0.  1.
</event>
<event>
 8    1  0.1196210E+005  0.1043930E+01  0.7957747E-01            NaN
         13   -1    0    0    0    0  0.00000000000E+00  0.00000000000E+00  0.74505805969E-08  0.10566000000E+00  0.10566000000E+00 0.  1.
     999900   -1    0    0    0    0 -0.00000000000E+00 -0.00000000000E+00 -0.74505805969E-08  0.93827000000E+00  0.93827000000E+00 0.  1.
     999902    2    1    2    0    0  0.67155025460E-02 -0.21446465531E-01 -0.59151477513E-02  0.10206912859E+01  0.10204267065E+01 0.  0.
     999903    2    3    3    0    0 -0.12641577399E+00  0.13828210582E-01  0.15455032950E-01  0.12972275440E+00  0.20419785620E-01 0.  0.
         14    1    1    2    0    0 -0.67155025460E-02  0.21446465531E-01  0.59151477513E-02  0.23238714059E-01  0.00000000000E+00 0. -1.
     999901    1    3    3    0    0  0.13313127654E+00 -0.35274676113E-01 -0.21370180701E-01  0.89096853154E+00  0.88000000000E+00 0. -1.
        -11    1    4    4    0    0 -0.10937876179E+00  0.81739167885E-02  0.70951700202E-02  0.10991418928E+00  0.51100000000E-03 0. -1.
         11    1    4    4    0    0 -0.17037012200E-01  0.56542937936E-02  0.83598629296E-02  0.19808565123E-01  0.51100000000E-03 0.  1.
</event>
<event>
 8    1  0.1196210E+005  0.1043930E+01  0.7957747E-01            NaN
         13   -1    0    0    0    0  0.00000000000E+00  0.00000000000E+00  0.74505805969E-08  0.10566000000E+00  0.10566000000E+00 0.  1.
     999900   -1    0    0    0    0 -0.00000000000E+00 -0.00000000000E+00 -0.74505805969E-08  0.93827000000E+00  0.93827000000E+00 0.  1.
     999902    2    1    2    0    0 -0.14083524271E-01  0.10965212293E-01 -0.15715449411E-01  0.10201485600E+01  0.10198713290E+01 0.  0.
     999903    2    3    3    0    0 -0.90582822221E-01  0.25930643866E-01 -0.92437082757E-01  0.13337783671E+00  0.19167344195E-01 0.  0.
         14    1    1    2    0    0  0.14083524271E-01 -0.10965212293E-01  0.15715449411E-01  0.23781439963E-01  0.00000000000E+00 0. -1.
     999901    1    3    3    0    0  0.76499297950E-01 -0.14965431573E-01  0.76721633346E-01  0.88677072333E+00  0.88000000000E+00 0. -1.
        -11    1    4    4    0    0 -0.72671926272E-01  0.14967002388E-01 -0.79309373548E-01  0.10860689611E+00  0.51100000000E-03 0.  1.
         11    1    4    4    0    0 -0.17910895949E-01  0.10963641478E-01 -0.13127709210E-01  0.24770940601E-01  0.51100000000E-03 0. -1.
</event>
<event>
 8    1  0.1196210E+005  0.1043930E+01  0.7957747E-01            NaN
         13   -1    0    0    0    0  0.00000000000E+00  0.00000000000E+00  0.74505805969E-08  0.10566000000E+00  0.10566000000E+00 0. -1.
     999900   -1    0    0    0    0 -0.00000000000E+00 -0.00000000000E+00 -0.74505805969E-08  0.93827000000E+00  0.93827000000E+00 0. -1.
     999902    2    1    2    0    0  0.47227768482E-02 -0.73972004476E-03 -0.22566939745E-01  0.10208623045E+01  0.10206016491E+01 0.  0.
     999903    2    3    3    0    0 -0.66412030333E-02 -0.12888885964E+00  0.85428012676E-02  0.13096390691E+00  0.20545601566E-01 0.  0.
         14    1    1    2    0    0 -0.47227768482E-02  0.73972004476E-03  0.22566939745E-01  0.23067695515E-01  0.00000000000E+00 0. -1.
     999901    1    3    3    0    0  0.11363979882E-01  0.12814913959E+00 -0.31109741012E-01  0.88989839757E+00  0.88000000000E+00 0.  1.
        -11    1    4    4    0    0  0.63789955389E-02 -0.69176766964E-01  0.20454539093E-02  0.69502242226E-01  0.51100000000E-03 0. -1.
         11    1    4    4    0    0 -0.13020198572E-01 -0.59712092674E-01  0.64973473583E-02  0.61461664687E-01  0.51100000000E-03 0.  1.
</event>
<event>
 8    1  0.1196210E+005  0.1043930E+01  0.7957747E-01            NaN
         13   -1    0    0    0    0  0.00000000000E+00  0.00000000000E+00  0.74505805969E-08  0.10566000000E+00  0.10566000000E+00 0. -1.
     999900   -1    0    0    0    0 -0.00000000000E+00 -0.00000000000E+00 -0.74505805969E-08  0.93827000000E+00  0.93827000000E+00 0. -1.
     999902    2    1    2    0    0 -0.22905826601E-01 -0.25295358907E-01  0.68963064555E-02  0.10091149010E+01  0.10085141508E+01 0.  0.
     999903    2    3    3    0    0 -0.10006736963E+00 -0.59542207982E-01 -0.37192047990E-01  0.12397619246E+00  0.20690453529E-01 0.  0.
         14    1    1    2    0    0  0.22905826601E-01  0.25295358907E-01 -0.68963064555E-02  0.34815098984E-01  0.00000000000E+00 0.  1.
     999901    1    3    3    0    0  0.77161543024E-01  0.34246849075E-01  0.44088354446E-01  0.88513870856E+00  0.88000000000E+00 0. -1.
        -11    1    4    4    0    0 -0.57177161228E-01 -0.23262098002E-01 -0.14659710046E-01  0.63446995115E-01  0.51100000000E-03 0. -1.
         11    1    4    4    0    0 -0.42890208397E-01 -0.36280109980E-01 -0.22532337944E-01  0.60529197341E-01  0.51100000000E-03 0.  1.
</event>
<event>
 8    1  0.1196210E+005  0.1043930E+01  0.7957747E-01            NaN
         13   -1    0    0    0    0  0.00000000000E+00  0.00000000000E+00  0.74505805969E-08  0.10566000000E+00  0.10566000000E+00 0. -1.
     999900   -1    0    0    0    0 -0.00000000000E+00 -0.00000000000E+00 -0.74505805969E-08  0.93827000000E+00  0.93827000000E+00 0.  1.
     999902    2    1    2    0    0  0.18196206625E-01 -0.10641793077E-01 -0.13049606196E-01  0.10191380272E+01  0.10188364326E+01 0.  0.
     999903    2    3    3    0    0  0.50464413671E-01 -0.64503678539E-01 -0.10355644724E+00  0.13227060293E+00  0.80120560039E-02 0.  0.
         14    1    1    2    0    0 -0.18196206625E-01  0.10641793077E-01  0.13049606196E-01  0.24791972840E-01  0.00000000000E+00 0.  1.
     999901    1    3    3    0    0 -0.32268207047E-01  0.53861885462E-01  0.90506841043E-01  0.88686742423E+00  0.88000000000E+00 0. -1.
        -11    1    4    4    0    0  0.20836286532E-01 -0.20606569678E-01 -0.35592387881E-01  0.46107057447E-01  0.51100000000E-03 0. -1.
         11    1    4    4    0    0  0.29628127140E-01 -0.43897108860E-01 -0.67964059358E-01  0.86163545479E-01  0.51100000000E-03 0.  1.
</event>
<event>
 8    1  0.1196210E+005  0.1043930E+01  0.7957747E-01            NaN
         13   -1    0    0    0    0  0.00000000000E+00  0.00000000000E+00  0.74505805969E-08  0.10566000000E+00  0.10566000000E+00 0. -1.
     999900   -1    0    0    0    0 -0.00000000000E+00 -0.00000000000E+00 -0.74505805969E-08  0.93827000000E+00  0.93827000000E+00 0.  1.
     999902    2    1    2    0    0 -0.16988329035E-01  0.16675224013E-01  0.49962952670E-02  0.10196065671E+01  0.10193163995E+01 0.  0.
     999903    2    3    3    0    0 -0.47472255048E-01  0.72277184531E-01 -0.97195605410E-01  0.13142638705E+00  0.18662880233E-01 0.  0.
         14    1    1    2    0    0  0.16988329035E-01 -0.16675224013E-01 -0.49962952670E-02  0.24323432851E-01  0.00000000000E+00 0. -1.
     999901    1    3    3    0    0  0.30483926013E-01 -0.55601960518E-01  0.10219190068E+00  0.88818018010E+00  0.88000000000E+00 0. -1.
        -11    1    4    4    0    0  0.21697366875E-03  0.60579728605E-03 -0.58451202013E-02  0.59025942680E-02  0.51100000000E-03 0.  1.
         11    1    4    4    0    0 -0.47689228717E-01  0.71671387245E-01 -0.91350485209E-01  0.12552379278E+00  0.51100000000E-03 0. -1.
</event>
<event>
 8    1  0.1196210E+005  0.1043930E+01  0.7957747E-01            NaN
         13   -1    0    0    0    0  0.00000000000E+00  0.00000000000E+00  0.74505805969E-08  0.10566000000E+00  0.10566000000E+00 0. -1.
     999900   -1    0    0    0    0 -0.00000000000E+00 -0.00000000000E+00 -0.74505805969E-08  0.93827000000E+00  0.93827000000E+00 0. -1.
     999902    2    1    2    0    0  0.15741977360E-01  0.14153335478E-01  0.65321362683E-02  0.10217760938E+01  0.10215358977E+01 0.  0.
     999903    2    3    3    0    0  0.10756858592E+00  0.28315193296E-01  0.72603164900E-01  0.13442156200E+00  0.20620037060E-01 0.  0.
         14    1    1    2    0    0 -0.15741977360E-01 -0.14153335478E-01 -0.65321362683E-02  0.22153906215E-01  0.00000000000E+00 0.  1.
     999901    1    3    3    0    0 -0.91826608562E-01 -0.14161857818E-01 -0.66071028631E-01  0.88735453179E+00  0.88000000000E+00 0. -1.
        -11    1    4    4    0    0  0.23497958648E-01  0.14295013625E-01  0.22609278509E-01  0.35608174214E-01  0.51100000000E-03 0.  1.
         11    1    4    4    0    0  0.84070627273E-01  0.14020179671E-01  0.49993886391E-01  0.98813387785E-01  0.51100000000E-03 0. -1.
</event>
<event>
 8    1  0.1196210E+005  0.1043930E+01  0.7957747E-01            NaN
         13   -1    0    0    0    0  0.00000000000E+00  0.00000000000E+00  0.74505805969E-08  0.10566000000E+00  0.10566000000E+00 0. -1.
     999900   -1    0    0    0    0 -0.00000000000E+00 -0.00000000000E+00 -0.74505805969E-08  0.93827000000E+00  0.93827000000E+00 0.  1.
     999902    2    1    2    0    0  0.13777581820E-02  0.78284093891E-02  0.22343843171E-01  0.10202144030E+01  0.10199387230E+01 0.  0.
     999903    2    3    3    0    0 -0.57191884405E-01 -0.74218628063E-01  0.90402876478E-01  0.13184840223E+00  0.20784722815E-01 0.  0.
         14    1    1    2    0    0 -0.13777581820E-02 -0.78284093891E-02 -0.22343843171E-01  0.23715596953E-01  0.00000000000E+00 0.  1.
     999901    1    3    3    0    0  0.58569642587E-01  0.82047037452E-01 -0.68059033307E-01  0.88836600081E+00  0.88000000000E+00 0. -1.
        -11    1    4    4    0    0 -0.28864626049E-01 -0.49049803186E-01  0.44016965352E-01  0.71950011740E-01  0.51100000000E-03 0.  1.
         11    1    4    4    0    0 -0.28327258357E-01 -0.25168824877E-01  0.46385911126E-01  0.59898390493E-01  0.51100000000E-03 0. -1.
</event>
<event>
 8    1  0.1196210E+005  0.1043930E+01  0.7957747E-01            NaN
         13   -1    0    0    0    0  0.00000000000E+00  0.00000000000E+00  0.74505805969E-08  0.10566000000E+00  0.10566000000E+00 0. -1.
     999900   -1    0    0    0    0 -0.00000000000E+00 -0.00000000000E+00 -0.74505805969E-08  0.93827000000E+00  0.93827000000E+00 0.  1.
     999902    2    1    2    0    0  0.13213626581E-01  0.19000833463E-01 -0.16644167202E-02  0.10207265114E+01  0.10204627427E+01 0.  0.
     999903    2    3    3    0    0 -0.10772553309E+00 -0.65454728675E-01 -0.13176394359E-01  0.12837481620E+00  0.20429490469E-01 0.  0.
         14    1    1    2    0    0 -0.13213626581E-01 -0.19000833463E-01  0.16644167202E-02  0.23203488589E-01  0.00000000000E+00 0.  1.
     999901    1    3    3    0    0  0.12093915967E+00  0.84455562138E-01  0.11511977639E-01  0.89235169521E+00  0.88000000000E+00 0. -1.
        -11    1    4    4    0    0 -0.24769025626E-01 -0.56502501320E-02 -0.17399826071E-02  0.25469955192E-01  0.51100000000E-03 0. -1.
         11    1    4    4    0    0 -0.82956507462E-01 -0.59804478543E-01 -0.11436411752E-01  0.10290486101E+00  0.51100000000E-03 0.  1.
</event>
<event>
 8    1  0.1196210E+005  0.1043930E+01  0.7957747E-01            NaN
         13   -1    0    0    0    0  0.00000000000E+00  0.00000000000E+00  0.74505805969E-08  0.10566000000E+00  0.10566000000E+00 0. -1.
     999900   -1    0    0    0    0 -0.00000000000E+00 -0.00000000000E+00 -0.74505805969E-08  0.93827000000E+00  0.93827000000E+00 0.  1.
     999902    2    1    2    0    0  0.14345858924E-01  0.19672803948E-01 -0.97723820002E-02  0.10176941022E+01  0.10173558686E+01 0.  0.
     999903    2    3    3    0    0  0.12643778321E+00 -0.16681066219E-01 -0.13191488401E-01  0.12983268641E+00  0.20438691272E-01 0.  0.
         14    1    1    2    0    0 -0.14345858924E-01 -0.19672803948E-01  0.97723820002E-02  0.26235897801E-01  0.00000000000E+00 0. -1.
     999901    1    3    3    0    0 -0.11209192428E+00  0.36353870167E-01  0.34191064005E-02  0.88786141579E+00  0.88000000000E+00 0.  1.
        -11    1    4    4    0    0  0.96881195712E-01 -0.14044444334E-01 -0.14212591222E-02  0.97905534050E-01  0.51100000000E-03 0.  1.
         11    1    4    4    0    0  0.29556587495E-01 -0.26366218843E-02 -0.11770229278E-01  0.31927152356E-01  0.51100000000E-03 0. -1.
</event>
<event>
 8    1  0.1196210E+005  0.1043930E+01  0.7957747E-01            NaN
         13   -1    0    0    0    0  0.00000000000E+00  0.00000000000E+00  0.74505805969E-08  0.10566000000E+00  0.10566000000E+00 0. -1.
     999900   -1    0    0    0    0 -0.00000000000E+00 -0.00000000000E+00 -0.74505805969E-08  0.93827000000E+00  0.93827000000E+00 0.  1.
     999902    2    1    2    0    0 -0.37776260835E-02  0.22857377037E-01  0.26877289970E-02  0.10206071779E+01  0.10203406576E+01 0.  0.
     999903    2    3    3    0    0  0.26526590040E-01  0.12432766403E+00  0.36228743925E-01  0.13362377087E+00  0.19538736700E-01 0.  0.
         14    1    1    2    0    0  0.37776260835E-02 -0.22857377037E-01 -0.26877289970E-02  0.23322822106E-01  0.00000000000E+00 0.  1.
     999901    1    3    3    0    0 -0.30304216124E-01 -0.10147028699E+00 -0.33541014928E-01  0.88698340703E+00  0.88000000000E+00 0.  1.
        -11    1    4    4    0    0  0.22196536514E-01  0.85164743069E-01  0.16456719989E-01  0.89536609546E-01  0.51100000000E-03 0.  1.
         11    1    4    4    0    0  0.43300535263E-02  0.39162920962E-01  0.19772023937E-01  0.44087161322E-01  0.51100000000E-03 0. -1.
</event>
<event>
 8    1  0.1196210E+005  0.1043930E+01  0.7957747E-01            NaN
         13   -1    0    0    0    0  0.00000000000E+00  0.00000000000E+00  0.74505805969E-08  0.10566000000E+00  0.10566000000E+00 0. -1.
     999900   -1    0    0    0    0 -0.00000000000E+00 -0.00000000000E+00 -0.74505805969E-08  0.93827000000E+00  0.93827000000E+00 0.  1.
     999902    2    1    2    0    0  0.12015347617E-01 -0.12557734111E-02  0.18275641612E-01  0.10220223616E+01  0.10217875332E+01 0.  0.
     999903    2    3    3    0    0 -0.63418039010E-01 -0.92372673388E-01  0.67922636147E-01  0.13272077642E+00  0.21136734198E-01 0.  0.
         14    1    1    2    0    0 -0.12015347617E-01  0.12557734111E-02 -0.18275641612E-01  0.21907638429E-01  0.00000000000E+00 0.  1.
     999901    1    3    3    0    0  0.75433386627E-01  0.91116899977E-01 -0.49646994535E-01  0.88930158515E+00  0.88000000000E+00 0.  1.
        -11    1    4    4    0    0 -0.83008867510E-02 -0.26581684125E-01  0.21167566115E-01  0.34983104894E-01  0.51100000000E-03 0.  1.
         11    1    4    4    0    0 -0.55117152259E-01 -0.65790989263E-01  0.46755070032E-01  0.97737671530E-01  0.51100000000E-03 0. -1.
</event>
<event>
 8    1  0.1196210E+005  0.1043930E+01  0.7957747E-01            NaN
         13   -1    0    0    0    0  0.00000000000E+00  0.00000000000E+00  0.74505805969E-08  0.10566000000E+00  0.10566000000E+00 0.  1.
     999900   -1    0    0    0    0 -0.00000000000E+00 -0.00000000000E+00 -0.74505805969E-08  0.93827000000E+00  0.93827000000E+00 0.  1.
     999902    2    1    2    0    0 -0.15485364226E-01  0.10482828233E-01 -0.13632227575E-01  0.10207886124E+01  0.10205262698E+01 0.  0.
     999903    2    3    3    0    0 -0.53967060520E-01 -0.78363474514E-01 -0.89972139313E-01  0.13219292895E+00  0.18075033956E-01 0.  0.
         14    1    1    2    0    0  0.15485364226E-01 -0.10482828233E-01  0.13632227575E-01  0.23141387634E-01  0.00000000000E+00 0.  1.
     999901    1    3    3    0    0  0.38481696294E-01  0.88846302748E-01  0.76339911738E-01  0.88859568342E+00  0.88000000000E+00 0.  1.
        -11    1    4    4    0    0 -0.28153701841E-01 -0.25987897823E-01 -0.39137371692E-01  0.54772226033E-01  0.51100000000E-03 0. -1.
         11    1    4    4    0    0 -0.25813358679E-01 -0.52375576691E-01 -0.50834767621E-01  0.77420702917E-01  0.51100000000E-03 0.  1.
</event>
<event>
 8    1  0.1196210E+005  0.1043930E+01  0.7957747E-01            NaN
         13   -1    0    0    0    0  0.00000000000E+00  0.00000000000E+00  0.74505805969E-08  0.10566000000E+00  0.10566000000E+00 0.  1.
     999900   -1    0    0    0    0 -0.00000000000E+00 -0.00000000000E+00 -0.74505805969E-08  0.93827000000E+00  0.93827000000E+00 0. -1.
     999902    2    1    2    0    0  0.10785837976E-01  0.67761891133E-02 -0.18262846918E-01  0.10216638235E+01  0.10214211597E+01 0.  0.
     999903    2    3    3    0    0  0.93838404443E-01  0.90530966581E-01 -0.21814047244E-01  0.13378702877E+00  0.20533249891E-01 0.  0.
         14    1    1    2    0    0 -0.10785837976E-01 -0.67761891133E-02  0.18262846918E-01  0.22266176531E-01  0.00000000000E+00 0.  1.
     999901    1    3    3    0    0 -0.83052566467E-01 -0.83754777467E-01  0.35512003258E-02  0.88787679470E+00  0.88000000000E+00 0.  1.
        -11    1    4    4    0    0  0.33856937878E-01  0.42267463078E-01 -0.16493179247E-01  0.56613750628E-01  0.51100000000E-03 0.  1.
         11    1    4    4    0    0  0.59981466565E-01  0.48263503502E-01 -0.53208679964E-02  0.77173278140E-01  0.51100000000E-03 0. -1.
</event>
<event>
 8    1  0.1196210E+005  0.1043930E+01  0.7957747E-01            NaN
         13   -1    0    0    0    0  0.00000000000E+00  0.00000000000E+00  0.74505805969E-08  0.10566000000E+00  0.10566000000E+00 0.  1.
     999900   -1    0    0    0    0 -0.00000000000E+00 -0.00000000000E+00 -0.74505805969E-08  0.93827000000E+00  0.93827000000E+00 0.  1.
     999902    2    1    2    0    0 -0.92957368954E-02 -0.20743353892E-01  0.72743589044E-02  0.10200634177E+01  0.10197841744E+01 0.  0.
     999903    2    3    3    0    0 -0.26713761603E-02 -0.37235624769E-01  0.12512850059E+00  0.13202880354E+00  0.19515001977E-01 0.  0.
         14    1    1    2    0    0  0.92957368954E-02  0.20743353892E-01 -0.72743589044E-02  0.23866582340E-01  0.00000000000E+00 0.  1.
     999901    1    3    3    0    0 -0.66243607351E-02  0.16492270877E-01 -0.11785414169E+00  0.88803461412E+00  0.88000000000E+00 0.  1.
        -11    1    4    4    0    0 -0.32901100823E-05  0.19540311317E-02  0.14345224564E-01  0.14486712439E-01  0.51100000000E-03 0. -1.
         11    1    4    4    0    0 -0.26680860502E-02 -0.39189655900E-01  0.11078327603E+00  0.11754209111E+00  0.51100000000E-03 0.  1.
</event>
<event>
 8    1  0.1196210E+005  0.1043930E+01  0.7957747E-01            NaN
         13   -1    0    0    0    0  0.00000000000E+00  0.00000000000E+00  0.74505805969E-08  0.10566000000E+00  0.10566000000E+00 0.  1.
     999900   -1    0    0    0    0 -0.00000000000E+00 -0.00000000000E+00 -0.74505805969E-08  0.93827000000E+00  0.93827000000E+00 0. -1.
     999902    2    1    2    0    0  0.67899085492E-03  0.14660826310E-01  0.18405316341E-01  0.10203894706E+01  0.10201178927E+01 0.  0.
     999903    2    3    3    0    0 -0.11981328277E+00 -0.45791493067E-01 -0.20763831222E-02  0.12988827969E+00  0.20360998757E-01 0.  0.
         14    1    1    2    0    0 -0.67899085492E-03 -0.14660826310E-01 -0.18405316341E-01  0.23540529440E-01  0.00000000000E+00 0.  1.
     999901    1    3    3    0    0  0.12049227362E+00  0.60452319377E-01  0.20481699464E-01  0.89050119087E+00  0.88000000000E+00 0. -1.
        -11    1    4    4    0    0 -0.82472302433E-01 -0.21869012764E-01  0.20358712447E-02  0.85348346678E-01  0.51100000000E-03 0. -1.
         11    1    4    4    0    0 -0.37340980334E-01 -0.23922480303E-01 -0.41122543669E-02  0.44539933017E-01  0.51100000000E-03 0.  1.
</event>
<event>
 8    1  0.1196210E+005  0.1043930E+01  0.7957747E-01            NaN
         13   -1    0    0    0    0  0.00000000000E+00  0.00000000000E+00  0.74505805969E-08  0.10566000000E+00  0.10566000000E+00 0.  1.
     999900   -1    0    0    0    0 -0.00000000000E+00 -0.00000000000E+00 -0.74505805969E-08  0.93827000000E+00  0.93827000000E+00 0. -1.
     999902    2    1    2    0    0 -0.15017170298E-01 -0.14565535783E-01 -0.11887743054E-01  0.10198678166E+01  0.10195839223E+01 0.  0.
     999903    2    3    3    0    0 -0.91865413792E-01 -0.81389315463E-01  0.44766481533E-01  0.13218500654E+00  0.20133632635E-01 0.  0.
         14    1    1    2    0    0  0.15017170298E-01  0.14565535783E-01  0.11887743054E-01  0.24062183428E-01  0.00000000000E+00 0.  1.
     999901    1    3    3    0    0  0.76848243494E-01  0.66823779680E-01 -0.56654224586E-01  0.88768281003E+00  0.88000000000E+00 0. -1.
        -11    1    4    4    0    0 -0.57247072394E-01 -0.43009873740E-01  0.17357202186E-01  0.73679102366E-01  0.51100000000E-03 0.  1.
         11    1    4    4    0    0 -0.34618341398E-01 -0.38379441723E-01  0.27409279347E-01  0.58505904176E-01  0.51100000000E-03 0. -1.
</event>
<event>
 8    1  0.1196210E+005  0.1043930E+01  0.7957747E-01            NaN
         13   -1    0    0    0    0  0.00000000000E+00  0.00000000000E+00  0.74505805969E-08  0.10566000000E+00  0.10566000000E+00 0. -1.
     999900   -1    0    0    0    0 -0.00000000000E+00 -0.00000000000E+00 -0.74505805969E-08  0.93827000000E+00  0.93827000000E+00 0.  1.
     999902    2    1    2    0    0 -0.15613327905E-01  0.28918984918E-02  0.17562287992E-01  0.10202535762E+01  0.10199788168E+01 0.  0.
     999903    2    3    3    0    0  0.10166016540E+00 -0.33859477077E-01 -0.66702476309E-01  0.12772666547E+00  0.19586406252E-01 0.  0.
         14    1    1    2    0    0  0.15613327905E-01 -0.28918984918E-02 -0.17562287992E-01  0.23676423815E-01  0.00000000000E+00 0. -1.
     999901    1    3    3    0    0 -0.11727349331E+00  0.36751375569E-01  0.84264764301E-01  0.89252691071E+00  0.88000000000E+00 0. -1.
        -11    1    4    4    0    0  0.83480388731E-01 -0.30808147079E-01 -0.46606539044E-01  0.10045171891E+00  0.51100000000E-03 0.  1.
         11    1    4    4    0    0  0.18179776672E-01 -0.30513299984E-02 -0.20095937265E-01  0.27274946566E-01  0.51100000000E-03 0. -1.
</event>
<event>
 8    1  0.1196210E+005  0.1043930E+01  0.7957747E-01            NaN
         13   -1    0    0    0    0  0.00000000000E+00  0.00000000000E+00  0.74505805969E-08  0.10566000000E+00  0.10566000000E+00 0. -1.
     999900   -1    0    0    0    0 -0.00000000000E+00 -0.00000000000E+00 -0.74505805969E-08  0.93827000000E+00  0.93827000000E+00 0.  1.
     999902    2    1    2    0    0  0.16803426233E-01 -0.15605370032E-01 -0.64846563946E-02  0.10200986451E+01  0.10198202353E+01 0.  0.
     999903    2    3    3    0    0 -0.97010918563E-01 -0.63019600255E-01 -0.56128553310E-01  0.13011756059E+00  0.19939326504E-01 0.  0.
         14    1    1    2    0    0 -0.16803426233E-01  0.15605370032E-01  0.64846563946E-02  0.23831354882E-01  0.00000000000E+00 0.  1.
     999901    1    3    3    0    0  0.11381434480E+00  0.47414230223E-01  0.49643896915E-01  0.88998108452E+00  0.88000000000E+00 0.  1.
        -11    1    4    4    0    0 -0.59709640596E-01 -0.34084667575E-01 -0.23225245201E-01  0.72571887667E-01  0.51100000000E-03 0. -1.
         11    1    4    4    0    0 -0.37301277967E-01 -0.28934932680E-01 -0.32903308108E-01  0.57545672927E-01  0.51100000000E-03 0.  1.
</event>
<event>
 8    1  0.1196210E+005  0.1043930E+01  0.7957747E-01            NaN
         13   -1    0    0    0    0  0.00000000000E+00  0.00000000000E+00  0.74505805969E-08  0.10566000000E+00  0.10566000000E+00 0. -1.
     999900   -1    0    0    0    0 -0.00000000000E+00 -0.00000000000E+00 -0.74505805969E-08  0.93827000000E+00  0.93827000000E+00 0. -1.
     999902    2    1    2    0    0 -0.17217062916E-01 -0.11231498126E-01 -0.13615967023E-01  0.10192729855E+01  0.10189747056E+01 0.  0.
     999903    2    3    3    0    0  0.11074470471E-01  0.96315027039E-01 -0.83519134975E-01  0.12952407777E+00  0.20045260913E-01 0.  0.
         14    1    1    2    0    0  0.17217062916E-01  0.11231498126E-01  0.13615967023E-01  0.24657014491E-01  0.00000000000E+00 0. -1.
     999901    1    3    3    0    0 -0.28291533387E-01 -0.10754652516E+00  0.69903167952E-01  0.88974890774E+00  0.88000000000E+00 0.  1.
        -11    1    4    4    0    0  0.44275080408E-04  0.12928219547E-02 -0.66810668054E-02  0.68243038874E-02  0.51100000000E-03 0. -1.
         11    1    4    4    0    0  0.11030195390E-01  0.95022205085E-01 -0.76838068169E-01  0.12269977388E+00  0.51100000000E-03 0.  1.
</event>
<event>
 8    1  0.1196210E+005  0.1043930E+01  0.7957747E-01            NaN
         13   -1    0    0    0    0  0.00000000000E+00  0.00000000000E+00  0.74505805969E-08  0.10566000000E+00  0.10566000000E+00 0.  1.
     999900   -1    0    0    0    0 -0.00000000000E+00 -0.00000000000E+00 -0.74505805969E-08  0.93827000000E+00  0.93827000000E+00 0. -1.
     999902    2    1    2    0    0  0.17567342189E-01  0.98218419358E-02  0.88562181323E-02  0.10219410780E+01  0.10217044848E+01 0.  0.
     999903    2    3    3    0    0 -0.88478456491E-01 -0.45711184070E-01 -0.80113832860E-01  0.12939119237E+00  0.20147080040E-01 0.  0.
         14    1    1    2    0    0 -0.17567342189E-01 -0.98218419358E-02 -0.88562181323E-02  0.21988921988E-01  0.00000000000E+00 0. -1.
     999901    1    3    3    0    0  0.10604579868E+00  0.55533026006E-01  0.88970050992E-01  0.89254988565E+00  0.88000000000E+00 0.  1.
        -11    1    4    4    0    0 -0.18867216512E-01 -0.85644465322E-02 -0.71579479145E-02  0.21927584059E-01  0.51100000000E-03 0.  1.
         11    1    4    4    0    0 -0.69611239979E-01 -0.37146737538E-01 -0.72955884945E-01  0.10746360831E+00  0.51100000000E-03 0. -1.
</event>
<event>
 8    1  0.1196210E+005  0.1043930E+01  0.7957747E-01            NaN
         13   -1    0    0    0    0  0.00000000000E+00  0.00000000000E+00  0.74505805969E-08  0.10566000000E+00  0.10566000000E+00 0.  1.
     999900   -1    0    0    0    0 -0.00000000000E+00 -0.00000000000E+00 -0.74505805969E-08  0.93827000000E+00  0.93827000000E+00 0.  1.
     999902    2    1    2    0    0  0.18113559746E-01 -0.67924639262E-02 -0.15838911951E-01  0.10189278052E+01  0.10186210102E+01 0.  0.
     999903    2    3    3    0    0 -0.10821441886E+00 -0.37926292871E-01 -0.55581949739E-01  0.12847422273E+00  0.16355691058E-01 0.  0.
         14    1    1    2    0    0 -0.18113559746E-01  0.67924639262E-02  0.15838911951E-01  0.25002194796E-01  0.00000000000E+00 0.  1.
     999901    1    3    3    0    0  0.12632797860E+00  0.31133828945E-01  0.39743037788E-01  0.89045358247E+00  0.88000000000E+00 0. -1.
        -11    1    4    4    0    0 -0.80037958877E-01 -0.23773352977E-01 -0.46898278760E-01  0.95765112879E-01  0.51100000000E-03 0. -1.
         11    1    4    4    0    0 -0.28176459982E-01 -0.14152939895E-01 -0.86836709787E-02  0.32709109854E-01  0.51100000000E-03 0.  1.
</event>
<event>
 8    1  0.1196210E+005  0.1043930E+01  0.7957747E-01            NaN
         13   -1    0    0    0    0  0.00000000000E+00  0.00000000000E+00  0.74505805969E-08  0.10566000000E+00  0.10566000000E+00 0.  1.
     999900   -1    0    0    0    0 -0.00000000000E+00 -0.00000000000E+00 -0.74505805969E-08  0.93827000000E+00  0.93827000000E+00 0.  1.
     999902    2    1    2    0    0  0.14539252493E-01  0.18219761899E-01 -0.54881950987E-02  0.10199827690E+01  0.10197016128E+01 0.  0.
     999903    2    3    3    0    0  0.63941856762E-01 -0.67641450659E-01 -0.89248310920E-01  0.13047249806E+00  0.19846532527E-01 0.  0.
         14    1    1    2    0    0 -0.14539252493E-01 -0.18219761899E-01  0.54881950987E-02  0.23947230991E-01  0.00000000000E+00 0. -1.
     999901    1    3    3    0    0 -0.49402604269E-01  0.85861212557E-01  0.83760115821E-01  0.88951027095E+00  0.88000000000E+00 0. -1.
        -11    1    4    4    0    0  0.39151369042E-01 -0.28949988408E-01 -0.52726572998E-01  0.71772446996E-01  0.51100000000E-03 0.  1.
         11    1    4    4    0    0  0.24790487719E-01 -0.38691462251E-01 -0.36521737922E-01  0.58700051059E-01  0.51100000000E-03 0. -1.
</event>
<event>
 8    1  0.1196210E+005  0.1043930E+01  0.7957747E-01            NaN
         13   -1    0    0    0    0  0.00000000000E+00  0.00000000000E+00  0.74505805969E-08  0.10566000000E+00  0.10566000000E+00 0. -1.
     999900   -1    0    0    0    0 -0.00000000000E+00 -0.00000000000E+00 -0.74505805969E-08  0.93827000000E+00  0.93827000000E+00 0. -1.
     999902    2    1    2    0    0  0.76449423641E-02 -0.89257162634E-02  0.20271458347E-01  0.10204982784E+01  0.10202292343E+01 0.  0.
     999903    2    3    3    0    0 -0.11917178953E-01  0.68339162228E-01  0.11084201018E+00  0.13226657274E+00  0.19905647380E-01 0.  0.
         14    1    1    2    0    0 -0.76449423641E-02  0.89257162634E-02 -0.20271458347E-01  0.23431721620E-01  0.00000000000E+00 0.  1.
     999901    1    3    3    0    0  0.19562121317E-01 -0.77264878491E-01 -0.90570551828E-01  0.88823170564E+00  0.88000000000E+00 0. -1.
        -11    1    4    4    0    0 -0.12984442378E-01  0.36331330464E-01  0.73944356299E-01  0.83406176430E-01  0.51100000000E-03 0. -1.
         11    1    4    4    0    0  0.10672634255E-02  0.32007831763E-01  0.36897653876E-01  0.48860396314E-01  0.51100000000E-03 0.  1.
</event>
<event>
 8    1  0.1196210E+005  0.1043930E+01  0.7957747E-01            NaN
         13   -1    0    0    0    0  0.00000000000E+00  0.00000000000E+00  0.74505805969E-08  0.10566000000E+00  0.10566000000E+00 0.  1.
     999900   -1    0    0    0    0 -0.00000000000E+00 -0.00000000000E+00 -0.74505805969E-08  0.93827000000E+00  0.93827000000E+00 0.  1.
     999902    2    1    2    0    0  0.80993511630E-03 -0.16205961454E-01  0.18909227964E-01  0.10190131767E+01  0.10187084991E+01 0.  0.
     999903    2    3    3    0    0 -0.11529771615E+00  0.28712502540E-01  0.47995518721E-01  0.12977492549E+00  0.20493665289E-01 0.  0.
         14    1    1    2    0    0 -0.80993511630E-03  0.16205961454E-01 -0.18909227964E-01  0.24916823307E-01  0.00000000000E+00 0. -1.
     999901    1    3    3    0    0  0.11610765127E+00 -0.44918463994E-01 -0.29086290757E-01  0.88923825120E+00  0.88000000000E+00 0.  1.
        -11    1    4    4    0    0 -0.91200991458E-01  0.13982887699E-01  0.35018417709E-01  0.98689881402E-01  0.51100000000E-03 0. -1.
         11    1    4    4    0    0 -0.24096724694E-01  0.14729614841E-01  0.12977101012E-01  0.31085044089E-01  0.51100000000E-03 0.  1.
</event>
<event>
 8    1  0.1196210E+005  0.1043930E+01  0.7957747E-01            NaN
         13   -1    0    0    0    0  0.00000000000E+00  0.00000000000E+00  0.74505805969E-08  0.10566000000E+00  0.10566000000E+00 0.  1.
     999900   -1    0    0    0    0 -0.00000000000E+00 -0.00000000000E+00 -0.74505805969E-08  0.93827000000E+00  0.93827000000E+00 0.  1.
     999902    2    1    2    0    0 -0.87965841577E-02  0.18774560344E-01 -0.12104812759E-01  0.10199218659E+01  0.10196392608E+01 0.  0.
     999903    2    3    3    0    0  0.74966285341E-01  0.19466212445E-01 -0.10338563225E+00  0.13124369883E+00  0.23182798843E-01 0.  0.
         14    1    1    2    0    0  0.87965841577E-02 -0.18774560344E-01  0.12104812759E-01  0.24008134057E-01  0.00000000000E+00 0.  1.
     999901    1    3    3    0    0 -0.83762869499E-01 -0.69165210074E-03  0.91280819495E-01  0.88867816711E+00  0.88000000000E+00 0. -1.
        -11    1    4    4    0    0  0.29477840994E-01  0.69136060606E-02 -0.22987522206E-01  0.38018789521E-01  0.51100000000E-03 0. -1.
         11    1    4    4    0    0  0.45488444347E-01  0.12552606384E-01 -0.80398110048E-01  0.93224909313E-01  0.51100000000E-03 0.  1.
</event>
<event>
 8    1  0.1196210E+005  0.1043930E+01  0.7957747E-01            NaN
         13   -1    0    0    0    0  0.00000000000E+00  0.00000000000E+00  0.74505805969E-08  0.10566000000E+00  0.10566000000E+00 0.  1.
     999900   -1    0    0    0    0 -0.00000000000E+00 -0.00000000000E+00 -0.74505805969E-08  0.93827000000E+00  0.93827000000E+00 0. -1.
     999902    2    1    2    0    0  0.81487937154E-02  0.20092430410E-01 -0.82654902046E-02  0.10207259717E+01  0.10204621906E+01 0.  0.
     999903    2    3    3    0    0 -0.12619253782E+00  0.25026036142E-01 -0.82341261086E-02  0.13051704413E+00  0.20397031407E-01 0.  0.
         14    1    1    2    0    0 -0.81487937154E-02 -0.20092430410E-01  0.82654902046E-02  0.23204028252E-01  0.00000000000E+00 0. -1.
     999901    1    3    3    0    0  0.13434133153E+00 -0.49336057322E-02 -0.31364095953E-04  0.89020892762E+00  0.88000000000E+00 0.  1.
        -11    1    4    4    0    0 -0.31164961768E-01  0.30766141393E-02  0.61866183341E-02  0.31925785252E-01  0.51100000000E-03 0. -1.
         11    1    4    4    0    0 -0.95027576051E-01  0.21949422002E-01 -0.14420744443E-01  0.98591258880E-01  0.51100000000E-03 0.  1.
</event>
<event>
 8    1  0.1196210E+005  0.1043930E+01  0.7957747E-01            NaN
         13   -1    0    0    0    0  0.00000000000E+00  0.00000000000E+00  0.74505805969E-08  0.10566000000E+00  0.10566000000E+00 0. -1.
     999900   -1    0    0    0    0 -0.00000000000E+00 -0.00000000000E+00 -0.74505805969E-08  0.93827000000E+00  0.93827000000E+00 0.  1.
     999902    2    1    2    0    0  0.60175914386E-02 -0.15937087675E-01  0.18118803176E-01  0.10190604765E+01  0.10187569688E+01 0.  0.
     999903    2    3    3    0    0 -0.53975174368E-01  0.44161001081E-01 -0.10313846596E+00  0.12669606802E+00  0.23469917442E-01 0.  0.
         14    1    1    2    0    0 -0.60175914386E-02  0.15937087675E-01 -0.18118803176E-01  0.24869523494E-01  0.00000000000E+00 0.  1.
     999901    1    3    3    0    0  0.59992765806E-01 -0.60098088756E-01  0.12125726914E+00  0.89236440849E+00  0.88000000000E+00 0. -1.
        -11    1    4    4    0    0 -0.37883117914E-01  0.15968226793E-01 -0.57168076694E-01  0.70417078920E-01  0.51100000000E-03 0.  1.
         11    1    4    4    0    0 -0.16092056454E-01  0.28192774288E-01 -0.45970389270E-01  0.56278989095E-01  0.51100000000E-03 0. -1.
</event>
<event>
 8    1  0.1196210E+005  0.1043930E+01  0.7957747E-01            NaN
         13   -1    0    0    0    0  0.00000000000E+00  0.00000000000E+00  0.74505805969E-08  0.10566000000E+00  0.10566000000E+00 0.  1.
     999900   -1    0    0    0    0 -0.00000000000E+00 -0.00000000000E+00 -0.74505805969E-08  0.93827000000E+00  0.93827000000E+00 0. -1.
     999902    2    1    2    0    0  0.10231751805E-01  0.78086686880E-03  0.23601042558E-01  0.10181946603E+01  0.10178693721E+01 0.  0.
     999903    2    3    3    0    0  0.36776788158E-01 -0.77527830160E-01  0.97524964274E-01  0.13123263342E+00  0.18649097042E-01 0.  0.
         14    1    1    2    0    0 -0.10231751805E-01 -0.78086686880E-03 -0.23601042558E-01  0.25735339669E-01  0.00000000000E+00 0. -1.
     999901    1    3    3    0    0 -0.26545036353E-01  0.78308697029E-01 -0.73923921716E-01  0.88696202691E+00  0.88000000000E+00 0. -1.
        -11    1    4    4    0    0  0.33695227818E-01 -0.52209239494E-01  0.72671840862E-01  0.95617104336E-01  0.51100000000E-03 0. -1.
         11    1    4    4    0    0  0.30815603400E-02 -0.25318590666E-01  0.24853123412E-01  0.35615529082E-01  0.51100000000E-03 0.  1.
</event>
<event>
 8    1  0.1196210E+005  0.1043930E+01  0.7957747E-01            NaN
         13   -1    0    0    0    0  0.00000000000E+00  0.00000000000E+00  0.74505805969E-08  0.10566000000E+00  0.10566000000E+00 0.  1.
     999900   -1    0    0    0    0 -0.00000000000E+00 -0.00000000000E+00 -0.74505805969E-08  0.93827000000E+00  0.93827000000E+00 0. -1.
     999902    2    1    2    0    0  0.17259998892E-01 -0.16314552574E-01 -0.47221393752E-02  0.10197149058E+01  0.10194273482E+01 0.  0.
     999903    2    3    3    0    0 -0.97556358116E-01 -0.82971936895E-01  0.43200970028E-02  0.12971054357E+00  0.20114088469E-01 0.  0.
         14    1    1    2    0    0 -0.17259998892E-01  0.16314552574E-01  0.47221393752E-02  0.24215094213E-01  0.00000000000E+00 0. -1.
     999901    1    3    3    0    0  0.11481635701E+00  0.66657384321E-01 -0.90422363780E-02  0.89000436221E+00  0.88000000000E+00 0.  1.
        -11    1    4    4    0    0 -0.55212195401E-01 -0.59449656923E-01  0.76583532328E-03  0.81138744469E-01  0.51100000000E-03 0. -1.
         11    1    4    4    0    0 -0.42344162715E-01 -0.23522279972E-01  0.35542616795E-02  0.48571799104E-01  0.51100000000E-03 0.  1.
</event>
<event>
 8    1  0.1196210E+005  0.1043930E+01  0.7957747E-01            NaN
         13   -1    0    0    0    0  0.00000000000E+00  0.00000000000E+00  0.74505805969E-08  0.10566000000E+00  0.10566000000E+00 0. -1.
     999900   -1    0    0    0    0 -0.00000000000E+00 -0.00000000000E+00 -0.74505805969E-08  0.93827000000E+00  0.93827000000E+00 0. -1.
     999902    2    1    2    0    0  0.21424063591E-01 -0.69379775508E-02 -0.23909073982E-02  0.10212839745E+01  0.10210328663E+01 0.  0.
     999903    2    3    3    0    0  0.86077765379E-01  0.69925093573E-01 -0.70604990515E-01  0.13294778025E+00  0.19777441297E-01 0.  0.
         14    1    1    2    0    0 -0.21424063591E-01  0.69379775508E-02  0.23909073982E-02  0.22646025511E-01  0.00000000000E+00 0. -1.
     999901    1    3    3    0    0 -0.64653701788E-01 -0.76863071124E-01  0.68214083117E-01  0.88833619424E+00  0.88000000000E+00 0.  1.
        -11    1    4    4    0    0  0.51210652745E-01  0.50255583460E-01 -0.53040803370E-01  0.89228597247E-01  0.51100000000E-03 0.  1.
         11    1    4    4    0    0  0.34867112634E-01  0.19669510114E-01 -0.17564187144E-01  0.43719183004E-01  0.51100000000E-03 0. -1.
</event>
<event>
 8    1  0.1196210E+005  0.1043930E+01  0.7957747E-01            NaN
         13   -1    0    0    0    0  0.00000000000E+00  0.00000000000E+00  0.74505805969E-08  0.10566000000E+00  0.10566000000E+00 0.  1.
     999900   -1    0    0    0    0 -0.00000000000E+00 -0.00000000000E+00 -0.74505805969E-08  0.93827000000E+00  0.93827000000E+00 0. -1.
     999902    2    1    2    0    0 -0.20870533272E-01 -0.98799672523E-02  0.46636268668E-02  0.10203727861E+01  0.10201008187E+01 0.  0.
     999903    2    3    3    0    0  0.96367816764E-03 -0.12428598555E+00 -0.38481861899E-01  0.13165066809E+00  0.20077595284E-01 0.  0.
         14    1    1    2    0    0  0.20870533272E-01  0.98799672523E-02 -0.46636268668E-02  0.23557213916E-01  0.00000000000E+00 0.  1.
     999901    1    3    3    0    0 -0.21834211439E-01  0.11440601830E+00  0.43145488765E-01  0.88872211799E+00  0.88000000000E+00 0. -1.
        -11    1    4    4    0    0 -0.35757675044E-02 -0.71203018893E-01 -0.31399664287E-01  0.77902862920E-01  0.51100000000E-03 0. -1.
         11    1    4    4    0    0  0.45394456721E-02 -0.53082966660E-01 -0.70821976115E-02  0.53747805169E-01  0.51100000000E-03 0.  1.
</event>
<event>
 8    1  0.1196210E+005  0.1043930E+01  0.7957747E-01            NaN
         13   -1    0    0    0    0  0.00000000000E+00  0.00000000000E+00  0.74505805969E-08  0.10566000000E+00  0.10566000000E+00 0.  1.
     999900   -1    0    0    0    0 -0.00000000000E+00 -0.00000000000E+00 -0.74505805969E-08  0.93827000000E+00  0.93827000000E+00 0. -1.
     999902    2    1    2    0    0 -0.22845829411E-01 -0.37337230144E-02  0.85028666624E-03  0.10207654668E+01  0.10205025932E+01 0.  0.
     999903    2    3    3    0    0  0.55849992145E-01  0.67949244523E-01 -0.92856707774E-01  0.12941117086E+00  0.19711963628E-01 0.  0.
         14    1    1    2    0    0  0.22845829411E-01  0.37337230144E-02 -0.85028666624E-03  0.23164533158E-01  0.00000000000E+00 0.  1.
     999901    1    3    3    0    0 -0.78695821555E-01 -0.71682967537E-01  0.93706994440E-01  0.89135429599E+00  0.88000000000E+00 0.  1.
        -11    1    4    4    0    0  0.26422499806E-01  0.24780792767E-01 -0.26155850512E-01  0.44683619181E-01  0.51100000000E-03 0. -1.
         11    1    4    4    0    0  0.29427492338E-01  0.43168451756E-01 -0.66700857262E-01  0.84727551675E-01  0.51100000000E-03 0.  1.
</event>
<event>
 8    1  0.1196210E+005  0.1043930E+01  0.7957747E-01            NaN
         13   -1    0    0    0    0  0.00000000000E+00  0.00000000000E+00  0.74505805969E-08  0.10566000000E+00  0.10566000000E+00 0. -1.
     999900   -1    0    0    0    0 -0.00000000000E+00 -0.00000000000E+00 -0.74505805969E-08  0.93827000000E+00  0.93827000000E+00 0.  1.
     999902    2    1    2    0    0 -0.19722633182E-02 -0.23100108353E-01 -0.54911078165E-02  0.10201044445E+01  0.10198261718E+01 0.  0.
     999903    2    3    3    0    0  0.14765142303E-01 -0.45584406216E-01  0.11999010640E+00  0.13076130517E+00  0.20123264601E-01 0.  0.
         14    1    1    2    0    0  0.19722633182E-02  0.23100108353E-01  0.54911078165E-02  0.23825555472E-01  0.00000000000E+00 0.  1.
     999901    1    3    3    0    0 -0.16737405621E-01  0.22484297863E-01 -0.12548121422E+00  0.88934313936E+00  0.88000000000E+00 0.  1.
        -11    1    4    4    0    0  0.13086999090E-01 -0.39430732921E-01  0.78855154057E-01  0.89131636843E-01  0.51100000000E-03 0. -1.
         11    1    4    4    0    0  0.16781432124E-02 -0.61536732953E-02  0.41134952346E-01  0.41629668329E-01  0.51100000000E-03 0.  1.
</event>
<event>
 8    1  0.1196210E+005  0.1043930E+01  0.7957747E-01            NaN
         13   -1    0    0    0    0  0.00000000000E+00  0.00000000000E+00  0.74505805969E-08  0.10566000000E+00  0.10566000000E+00 0.  1.
     999900   -1    0    0    0    0 -0.00000000000E+00 -0.00000000000E+00 -0.74505805969E-08  0.93827000000E+00  0.93827000000E+00 0.  1.
     999902    2    1    2    0    0  0.67533038589E-02 -0.17668833513E-01  0.14201424576E-01  0.10202767708E+01  0.10200025558E+01 0.  0.
     999903    2    3    3    0    0  0.29224496865E-01 -0.26411035353E-01 -0.12196853539E+00  0.12947733289E+00  0.18342358166E-01 0.  0.
         14    1    1    2    0    0 -0.67533038589E-02  0.17668833513E-01 -0.14201424576E-01  0.23653229182E-01  0.00000000000E+00 0. -1.
     999901    1    3    3    0    0 -0.22471193006E-01  0.87422018399E-02  0.13616995997E+00  0.89079943792E+00  0.88000000000E+00 0. -1.
        -11    1    4    4    0    0  0.42390195430E-02 -0.11878392527E-01 -0.56781593413E-01  0.58167653960E-01  0.51100000000E-03 0.  1.
         11    1    4    4    0    0  0.24985477322E-01 -0.14532642827E-01 -0.65186941977E-01  0.71309678935E-01  0.51100000000E-03 0. -1.
</event>
<event>
 8    1  0.1196210E+005  0.1043930E+01  0.7957747E-01            NaN
         13   -1    0    0    0    0  0.00000000000E+00  0.00000000000E+00  0.74505805969E-08  0.10566000000E+00  0.10566000000E+00 0. -1.
     999900   -1    0    0    0    0 -0.00000000000E+00 -0.00000000000E+00 -0.74505805969E-08  0.93827000000E+00  0.93827000000E+00 0. -1.
     999902    2    1    2    0    0 -0.19700647323E-01  0.86334960790E-02 -0.10422771268E-01  0.10200283908E+01  0.10197483176E+01 0.  0.
     999903    2    3    3    0    0 -0.93301176611E-01 -0.73914451556E-02  0.89497592284E-01  0.13117636958E+00  0.20920752667E-01 0.  0.
         14    1    1    2    0    0  0.19700647323E-01 -0.86334960790E-02  0.10422771268E-01  0.23901609159E-01  0.00000000000E+00 0. -1.
     999901    1    3    3    0    0  0.73600529288E-01  0.16024941235E-01 -0.99920363552E-01  0.88885202126E+00  0.88000000000E+00 0. -1.
        -11    1    4    4    0    0 -0.44504035868E-01 -0.13437823470E-01  0.48125149766E-01  0.66913940768E-01  0.51100000000E-03 0. -1.
         11    1    4    4    0    0 -0.48797140743E-01  0.60463783146E-02  0.41372442518E-01  0.64262428809E-01  0.51100000000E-03 0.  1.
</event>
<event>
 8    1  0.1196210E+005  0.1043930E+01  0.7957747E-01            NaN
         13   -1    0    0    0    0  0.00000000000E+00  0.00000000000E+00  0.74505805969E-08  0.10566000000E+00  0.10566000000E+00 0. -1.
     999900   -1    0    0    0    0 -0.00000000000E+00 -0.00000000000E+00 -0.74505805969E-08  0.93827000000E+00  0.93827000000E+00 0.  1.
     999902    2    1    2    0    0 -0.71736116488E-02 -0.22495758461E-01  0.64203772208E-02  0.10194608133E+01  0.10191671153E+01 0.  0.
     999903    2    3    3    0    0  0.85743091643E-01 -0.67798335105E-01  0.69794098502E-01  0.13114664269E+00  0.19486756939E-01 0.  0.
         14    1    1    2    0    0  0.71736116488E-02  0.22495758461E-01 -0.64203772208E-02  0.24469186674E-01  0.00000000000E+00 0.  1.
     999901    1    3    3    0    0 -0.92916703291E-01  0.45302576644E-01 -0.63373721281E-01  0.88831417063E+00  0.88000000000E+00 0.  1.
        -11    1    4    4    0    0  0.76385838915E-01 -0.67032403672E-01  0.63702279569E-01  0.11994324104E+00  0.51100000000E-03 0. -1.
         11    1    4    4    0    0  0.93572527271E-02 -0.76593143352E-03  0.60918189332E-02  0.11203401647E-01  0.51100000000E-03 0.  1.
</event>
<event>
 8    1  0.1196210E+005  0.1043930E+01  0.7957747E-01            NaN
         13   -1    0    0    0    0  0.00000000000E+00  0.00000000000E+00  0.74505805969E-08  0.10566000000E+00  0.10566000000E+00 0.  1.
     999900   -1    0    0    0    0 -0.00000000000E+00 -0.00000000000E+00 -0.74505805969E-08  0.93827000000E+00  0.93827000000E+00 0. -1.
     999902    2    1    2    0    0 -0.17990480136E-01  0.34360698022E-02 -0.15293071817E-01  0.10200691116E+01  0.10197900031E+01 0.  0.
     999903    2    3    3    0    0 -0.98812117574E-01 -0.53597370255E-01 -0.68160069399E-01  0.13295025268E+00  0.19835875305E-01 0.  0.
         14    1    1    2    0    0  0.17990480136E-01 -0.34360698022E-02  0.15293071817E-01  0.23860888433E-01  0.00000000000E+00 0.  1.
     999901    1    3    3    0    0  0.80821637437E-01  0.57033440057E-01  0.52866997582E-01  0.88711885889E+00  0.88000000000E+00 0.  1.
        -11    1    4    4    0    0 -0.83982768393E-01 -0.44246212753E-01 -0.48483327934E-01  0.10659140180E+00  0.51100000000E-03 0.  1.
         11    1    4    4    0    0 -0.14829349180E-01 -0.93511575015E-02 -0.19676741464E-01  0.26358850874E-01  0.51100000000E-03 0. -1.
</event>
<event>
 8    1  0.1196210E+005  0.1043930E+01  0.7957747E-01            NaN
         13   -1    0    0    0    0  0.00000000000E+00  0.00000000000E+00  0.74505805969E-08  0.10566000000E+00  0.10566000000E+00 0. -1.
     999900   -1    0    0    0    0 -0.00000000000E+00 -0.00000000000E+00 -0.74505805969E-08  0.93827000000E+00  0.93827000000E+00 0.  1.
     999902    2    1    2    0    0  0.19374786719E-01 -0.43099661147E-02 -0.12737882218E-01  0.10203458568E+01  0.10200732599E+01 0.  0.
     999903    2    3    3    0    0  0.40097288312E-02  0.12756233536E+00  0.14196186387E-01  0.12997973379E+00  0.20123920102E-01 0.  0.
         14    1    1    2    0    0 -0.19374786719E-01  0.43099661147E-02  0.12737882218E-01  0.23584143227E-01  0.00000000000E+00 0. -1.
     999901    1    3    3    0    0  0.15365057888E-01 -0.13187230148E+00 -0.26934068605E-01  0.89036612298E+00  0.88000000000E+00 0. -1.
        -11    1    4    4    0    0 -0.44269855536E-02  0.90406092631E-01  0.15590856374E-01  0.91848765421E-01  0.51100000000E-03 0. -1.
         11    1    4    4    0    0  0.84367143848E-02  0.37156242731E-01 -0.13946699872E-02  0.38130968371E-01  0.51100000000E-03 0.  1.
</event>
<event>
 8    1  0.1196210E+005  0.1043930E+01  0.7957747E-01            NaN
         13   -1    0    0    0    0  0.00000000000E+00  0.00000000000E+00  0.74505805969E-08  0.10566000000E+00  0.10566000000E+00 0. -1.
     999900   -1    0    0    0    0 -0.00000000000E+00 -0.00000000000E+00 -0.74505805969E-08  0.93827000000E+00  0.93827000000E+00 0. -1.
     999902    2    1    2    0    0  0.31949484277E-02 -0.66338560693E-02 -0.23352071843E-01  0.10194445962E+01  0.10191505039E+01 0.  0.
     999903    2    3    3    0    0  0.10897112663E+00 -0.67125181200E-01 -0.19379864001E-01  0.13103952035E+00  0.20378429172E-01 0.  0.
         14    1    1    2    0    0 -0.31949484277E-02  0.66338560693E-02  0.23352071843E-01  0.24485403839E-01  0.00000000000E+00 0. -1.
     999901    1    3    3    0    0 -0.10577617820E+00  0.60491325130E-01 -0.39722078424E-02  0.88840507581E+00  0.88000000000E+00 0.  1.
        -11    1    4    4    0    0  0.56633438901E-01 -0.37673246835E-01 -0.20264080813E-01  0.70975446606E-01  0.51100000000E-03 0.  1.
         11    1    4    4    0    0  0.52337687726E-01 -0.29451934365E-01  0.88421681152E-03  0.60064073744E-01  0.51100000000E-03 0. -1.
</event>
<event>
 8    1  0.1302198E+005  0.1043930E+01  0.7957747E-01            NaN
         13   -1    0    0    0    0  0.00000000000E+00  0.00000000000E+00  0.74505805969E-08  0.10566000000E+00  0.10566000000E+00 0.  1.
     999900   -1    0    0    0    0 -0.00000000000E+00 -0.00000000000E+00 -0.74505805969E-08  0.93827000000E+00  0.93827000000E+00 0.  1.
     999902    2    1    2    0    0 -0.17716450259E-01  0.46822368018E-03  0.11975283584E-01  0.10225407677E+01  0.10223170361E+01 0.  0.
     999903    2    3    3    0    0 -0.64743665992E-01  0.95052060137E-02  0.11706652900E+00  0.13499505282E+00  0.15394831755E-01 0.  0.
         14    1    1    2    0    0  0.17716450259E-01 -0.46822368018E-03 -0.11975283584E-01  0.21389232340E-01  0.00000000000E+00 0. -1.
     999901    1    3    3    0    0  0.47027215733E-01 -0.90369823335E-02 -0.10509124542E+00  0.88754571484E+00  0.88000000000E+00 0.  1.
        -11    1    4    4    0    0 -0.34605788383E-01  0.12802849626E-01  0.64506560367E-01  0.74315752028E-01  0.51100000000E-03 0.  1.
         11    1    4    4    0    0 -0.30137877608E-01 -0.32976436121E-02  0.52559968638E-01  0.60679300790E-01  0.51100000000E-03 0. -1.
</event>
<event>
 8    1  0.1196210E+005  0.1043930E+01  0.7957747E-01            NaN
         13   -1    0    0    0    0  0.00000000000E+00  0.00000000000E+00  0.74505805969E-08  0.10566000000E+00  0.10566000000E+00 0.  1.
     999900   -1    0    0    0    0 -0.00000000000E+00 -0.00000000000E+00 -0.74505805969E-08  0.93827000000E+00  0.93827000000E+00 0. -1.
     999902    2    1    2    0    0  0.74931758434E-02  0.21445686119E-01 -0.55845037731E-02  0.10205365860E+01  0.10202684311E+01 0.  0.
     999903    2    3    3    0    0 -0.67711429039E-01  0.85269830321E-01 -0.72670481323E-01  0.13248828641E+00  0.20405038457E-01 0.  0.
         14    1    1    2    0    0 -0.74931758434E-02 -0.21445686119E-01  0.55845037731E-02  0.23393414025E-01  0.00000000000E+00 0. -1.
     999901    1    3    3    0    0  0.75204604882E-01 -0.63824144201E-01  0.67085977550E-01  0.88804829957E+00  0.88000000000E+00 0.  1.
        -11    1    4    4    0    0 -0.10610275884E-01  0.27758344099E-01 -0.20394346150E-01  0.36045722316E-01  0.51100000000E-03 0. -1.
         11    1    4    4    0    0 -0.57101153155E-01  0.57511486222E-01 -0.52276135173E-01  0.96442564093E-01  0.51100000000E-03 0.  1.
</event>
<event>
 8    1  0.1196210E+005  0.1043930E+01  0.7957747E-01            NaN
         13   -1    0    0    0    0  0.00000000000E+00  0.00000000000E+00  0.74505805969E-08  0.10566000000E+00  0.10566000000E+00 0.  1.
     999900   -1    0    0    0    0 -0.00000000000E+00 -0.00000000000E+00 -0.74505805969E-08  0.93827000000E+00  0.93827000000E+00 0. -1.
     999902    2    1    2    0    0 -0.62435986569E-04  0.16078234469E-01  0.17407029890E-01  0.10202336245E+01  0.10199583964E+01 0.  0.
     999903    2    3    3    0    0 -0.11539079196E+00 -0.54735570545E-01 -0.85338263627E-02  0.12951023720E+00  0.19724548033E-01 0.  0.
         14    1    1    2    0    0  0.62435986569E-04 -0.16078234469E-01 -0.17407029890E-01  0.23696375492E-01  0.00000000000E+00 0.  1.
     999901    1    3    3    0    0  0.11532835597E+00  0.70813805014E-01  0.25940856253E-01  0.89072338731E+00  0.88000000000E+00 0. -1.
        -11    1    4    4    0    0 -0.77573074859E-01 -0.35701014562E-01 -0.14923835955E-01  0.86689828610E-01  0.51100000000E-03 0.  1.
         11    1    4    4    0    0 -0.37817717102E-01 -0.19034555984E-01  0.63900095921E-02  0.42820408591E-01  0.51100000000E-03 0. -1.
</event>
<event>
 8    1  0.1196210E+005  0.1043930E+01  0.7957747E-01            NaN
         13   -1    0    0    0    0  0.00000000000E+00  0.00000000000E+00  0.74505805969E-08  0.10566000000E+00  0.10566000000E+00 0. -1.
     999900   -1    0    0    0    0 -0.00000000000E+00 -0.00000000000E+00 -0.74505805969E-08  0.93827000000E+00  0.93827000000E+00 0. -1.
     999902    2    1    2    0    0  0.39358002395E-02 -0.18858911102E-01  0.14998289385E-01  0.10195148871E+01  0.10192225014E+01 0.  0.
     999903    2    3    3    0    0  0.59145977820E-01 -0.78645216537E-01  0.86984192133E-01  0.13283313125E+00  0.19876476083E-01 0.  0.
         14    1    1    2    0    0 -0.39358002395E-02  0.18858911102E-01 -0.14998289385E-01  0.24415112860E-01  0.00000000000E+00 0. -1.
     999901    1    3    3    0    0 -0.55210177580E-01  0.59786305435E-01 -0.71985902748E-01  0.88668175589E+00  0.88000000000E+00 0.  1.
        -11    1    4    4    0    0  0.30217241129E-01 -0.27223395906E-01  0.43379036667E-01  0.59465930492E-01  0.51100000000E-03 0. -1.
         11    1    4    4    0    0  0.28928736691E-01 -0.51421820632E-01  0.43605155466E-01  0.73367200763E-01  0.51100000000E-03 0.  1.
</event>
<event>
 8    1  0.1196210E+005  0.1043930E+01  0.7957747E-01            NaN
         13   -1    0    0    0    0  0.00000000000E+00  0.00000000000E+00  0.74505805969E-08  0.10566000000E+00  0.10566000000E+00 0.  1.
     999900   -1    0    0    0    0 -0.00000000000E+00 -0.00000000000E+00 -0.74505805969E-08  0.93827000000E+00  0.93827000000E+00 0.  1.
     999902    2    1    2    0    0  0.65864427978E-02  0.22847799628E-01 -0.90448157927E-02  0.10184896409E+01  0.10181718602E+01 0.  0.
     999903    2    3    3    0    0 -0.60614172557E-01 -0.34662606847E-01 -0.10628555250E+00  0.12872611593E+00  0.19955450981E-01 0.  0.
         14    1    1    2    0    0 -0.65864427978E-02 -0.22847799628E-01  0.90448157927E-02  0.25440359063E-01  0.00000000000E+00 0.  1.
     999901    1    3    3    0    0  0.67200615355E-01  0.57510406475E-01  0.97240736708E-01  0.88976352501E+00  0.88000000000E+00 0. -1.
        -11    1    4    4    0    0 -0.22249799183E-01 -0.96091908996E-02 -0.21743893769E-01  0.32564522884E-01  0.51100000000E-03 0.  1.
         11    1    4    4    0    0 -0.38364373374E-01 -0.25053415947E-01 -0.84541658732E-01  0.96161593046E-01  0.51100000000E-03 0. -1.
</event>
<event>
 8    1  0.1196210E+005  0.1043930E+01  0.7957747E-01            NaN
         13   -1    0    0    0    0  0.00000000000E+00  0.00000000000E+00  0.74505805969E-08  0.10566000000E+00  0.10566000000E+00 0.  1.
     999900   -1    0    0    0    0 -0.00000000000E+00 -0.00000000000E+00 -0.74505805969E-08  0.93827000000E+00  0.93827000000E+00 0.  1.
     999902    2    1    2    0    0 -0.15357018743E-01 -0.56982308657E-02 -0.17154829711E-01  0.10202108929E+01  0.10199351303E+01 0.  0.
     999903    2    3    3    0    0 -0.35242989583E-01  0.24628903886E-01  0.11990625920E+00  0.12886307692E+00  0.19481539420E-01 0.  0.
         14    1    1    2    0    0  0.15357018743E-01  0.56982308657E-02  0.17154829711E-01  0.23719107109E-01  0.00000000000E+00 0.  1.
     999901    1    3    3    0    0  0.19885970840E-01 -0.30327134752E-01 -0.13706108891E+00  0.89134781597E+00  0.88000000000E+00 0.  1.
        -11    1    4    4    0    0 -0.31064292712E-01  0.20773830902E-01  0.77132712588E-01  0.85710319124E-01  0.51100000000E-03 0. -1.
         11    1    4    4    0    0 -0.41786968711E-02  0.38550729847E-02  0.42773546608E-01  0.43152757799E-01  0.51100000000E-03 0.  1.
</event>
<event>
 8    1  0.1196210E+005  0.1043930E+01  0.7957747E-01            NaN
         13   -1    0    0    0    0  0.00000000000E+00  0.00000000000E+00  0.74505805969E-08  0.10566000000E+00  0.10566000000E+00 0.  1.
     999900   -1    0    0    0    0 -0.00000000000E+00 -0.00000000000E+00 -0.74505805969E-08  0.93827000000E+00  0.93827000000E+00 0. -1.
     999902    2    1    2    0    0 -0.35449662541E-02  0.24014145221E-01 -0.20405636199E-02  0.10195699947E+01  0.10192789433E+01 0.  0.
     999903    2    3    3    0    0  0.69061068983E-01  0.97814873157E-01 -0.52492417643E-01  0.13206586891E+00  0.18675094646E-01 0.  0.
         14    1    1    2    0    0  0.35449662541E-02 -0.24014145221E-01  0.20405636199E-02  0.24360005261E-01  0.00000000000E+00 0. -1.
     999901    1    3    3    0    0 -0.72606035237E-01 -0.73800727937E-01  0.50451854023E-01  0.88750412583E+00  0.88000000000E+00 0. -1.
        -11    1    4    4    0    0  0.56930723154E-01  0.89971654043E-01 -0.43322106665E-01  0.11494812664E+00  0.51100000000E-03 0.  1.
         11    1    4    4    0    0  0.12130345829E-01  0.78432191139E-02 -0.91703109784E-02  0.17117742270E-01  0.51100000000E-03 0. -1.
</event>
<event>
 8    1  0.1196210E+005  0.1043930E+01  0.7957747E-01            NaN
         13   -1    0    0    0    0  0.00000000000E+00  0.00000000000E+00  0.74505805969E-08  0.10566000000E+00  0.10566000000E+00 0. -1.
     999900   -1    0    0    0    0 -0.00000000000E+00 -0.00000000000E+00 -0.74505805969E-08  0.93827000000E+00  0.93827000000E+00 0.  1.
     999902    2    1    2    0    0  0.30013213136E-02  0.23901464345E-01  0.13673002511E-02  0.10198020611E+01  0.10195165944E+01 0.  0.
     999903    2    3    3    0    0 -0.71352848051E-01 -0.81858213296E-01 -0.64930049249E-01  0.12788895405E+00  0.18646105821E-01 0.  0.
         14    1    1    2    0    0 -0.30013213136E-02 -0.23901464345E-01 -0.13673002511E-02  0.24127938939E-01  0.00000000000E+00 0. -1.
     999901    1    3    3    0    0  0.74354169365E-01  0.10575967764E+00  0.66297349500E-01  0.89191310702E+00  0.88000000000E+00 0. -1.
        -11    1    4    4    0    0 -0.67584211564E-01 -0.75287568848E-01 -0.65076374880E-01  0.12029563319E+00  0.51100000000E-03 0.  1.
         11    1    4    4    0    0 -0.37686364869E-02 -0.65706444479E-02  0.14632563161E-03  0.75933208560E-02  0.51100000000E-03 0. -1.
</event>
<event>
 8    1  0.1196210E+005  0.1043930E+01  0.7957747E-01            NaN
         13   -1    0    0    0    0  0.00000000000E+00  0.00000000000E+00  0.74505805969E-08  0.10566000000E+00  0.10566000000E+00 0. -1.
     999900   -1    0    0    0    0 -0.00000000000E+00 -0.00000000000E+00 -0.74505805969E-08  0.93827000000E+00  0.93827000000E+00 0.  1.
     999902    2    1    2    0    0 -0.86854788253E-02 -0.21703102468E-01  0.10867960903E-02  0.10205282196E+01  0.10202598707E+01 0.  0.
     999903    2    3    3    0    0  0.48815147111E-01  0.82077543604E-01  0.83881703146E-01  0.12871448284E+00  0.20288820019E-01 0.  0.
         14    1    1    2    0    0  0.86854788253E-02  0.21703102468E-01 -0.10867960903E-02  0.23401780379E-01  0.00000000000E+00 0. -1.
     999901    1    3    3    0    0 -0.57500625937E-01 -0.10378064607E+00 -0.82794907055E-01  0.89181373678E+00  0.88000000000E+00 0.  1.
        -11    1    4    4    0    0  0.42113832610E-01  0.72889014626E-01  0.81321013031E-01  0.11704593813E+00  0.51100000000E-03 0.  1.
         11    1    4    4    0    0  0.67013145011E-02  0.91885289782E-02  0.25606901151E-02  0.11668544712E-01  0.51100000000E-03 0. -1.
</event>
<event>
 8    1  0.1196210E+005  0.1043930E+01  0.7957747E-01            NaN
         13   -1    0    0    0    0  0.00000000000E+00  0.00000000000E+00  0.74505805969E-08  0.10566000000E+00  0.10566000000E+00 0.  1.
     999900   -1    0    0    0    0 -0.00000000000E+00 -0.00000000000E+00 -0.74505805969E-08  0.93827000000E+00  0.93827000000E+00 0. -1.
     999902    2    1    2    0    0  0.58918363581E-02  0.92468968674E-03  0.25079115190E-01  0.10181515050E+01  0.10178251109E+01 0.  0.
     999903    2    3    3    0    0  0.66375023001E-01 -0.10872819963E+00  0.27575269315E-02  0.12900572093E+00  0.20184325693E-01 0.  0.
         14    1    1    2    0    0 -0.58918363581E-02 -0.92468968674E-03 -0.25079115190E-01  0.25778495018E-01  0.00000000000E+00 0. -1.
     999901    1    3    3    0    0 -0.60483186643E-01  0.10965288932E+00  0.22321588259E-01  0.88914578406E+00  0.88000000000E+00 0.  1.
        -11    1    4    4    0    0  0.55173418723E-01 -0.97479972553E-01  0.79550388309E-02  0.11229423381E+00  0.51100000000E-03 0. -1.
         11    1    4    4    0    0  0.11201604279E-01 -0.11248227077E-01 -0.51975118994E-02  0.16711487119E-01  0.51100000000E-03 0.  1.
</event>
<event>
 8    1  0.1196210E+005  0.1043930E+01  0.7957747E-01            NaN
         13   -1    0    0    0    0  0.00000000000E+00  0.00000000000E+00  0.74505805969E-08  0.10566000000E+00  0.10566000000E+00 0.  1.
     999900   -1    0    0    0    0 -0.00000000000E+00 -0.00000000000E+00 -0.74505805969E-08  0.93827000000E+00  0.93827000000E+00 0.  1.
     999902    2    1    2    0    0  0.29078006474E-02  0.15650604104E-01  0.16967410130E-01  0.10206643661E+01  0.10203991663E+01 0.  0.
     999903    2    3    3    0    0 -0.57106305767E-01  0.10989531436E+00 -0.38908333526E-01  0.13184162951E+00  0.23027083562E-01 0.  0.
         14    1    1    2    0    0 -0.29078006474E-02 -0.15650604104E-01 -0.16967410130E-01  0.23265633882E-01  0.00000000000E+00 0. -1.
     999901    1    3    3    0    0  0.60014106415E-01 -0.94244710258E-01  0.55875743656E-01  0.88882273661E+00  0.88000000000E+00 0. -1.
        -11    1    4    4    0    0 -0.34861455799E-01  0.79194324002E-01 -0.17439626919E-01  0.88269268506E-01  0.51100000000E-03 0.  1.
         11    1    4    4    0    0 -0.22244849968E-01  0.30700990360E-01 -0.21468706607E-01  0.43572361005E-01  0.51100000000E-03 0. -1.
</event>
<event>
 8    1  0.1196210E+005  0.1043930E+01  0.7957747E-01            NaN
         13   -1    0    0    0    0  0.00000000000E+00  0.00000000000E+00  0.74505805969E-08  0.10566000000E+00  0.10566000000E+00 0.  1.
     999900   -1    0    0    0    0 -0.00000000000E+00 -0.00000000000E+00 -0.74505805969E-08  0.93827000000E+00  0.93827000000E+00 0. -1.
     999902    2    1    2    0    0  0.10299281557E-01 -0.42267936831E-02 -0.20022859416E-01  0.10210202666E+01  0.10207632090E+01 0.  0.
     999903    2    3    3    0    0  0.35031658027E-01 -0.19671162790E-01  0.12087867395E+00  0.12933452538E+00  0.22396292745E-01 0.  0.
         14    1    1    2    0    0 -0.10299281557E-01  0.42267936831E-02  0.20022859416E-01  0.22909733404E-01  0.00000000000E+00 0.  1.
     999901    1    3    3    0    0 -0.24732376470E-01  0.15444369107E-01 -0.14090153337E+00  0.89168574122E+00  0.88000000000E+00 0. -1.
        -11    1    4    4    0    0  0.17991647923E-01  0.14142000803E-02  0.36771488383E-01  0.40964653492E-01  0.51100000000E-03 0. -1.
         11    1    4    4    0    0  0.17040010104E-01 -0.21085362871E-01  0.84107185571E-01  0.88369871888E-01  0.51100000000E-03 0.  1.
</event>
<event>
 8    1  0.1196210E+005  0.1043930E+01  0.7957747E-01            NaN
         13   -1    0    0    0    0  0.00000000000E+00  0.00000000000E+00  0.74505805969E-08  0.10566000000E+00  0.10566000000E+00 0.  1.
     999900   -1    0    0    0    0 -0.00000000000E+00 -0.00000000000E+00 -0.74505805969E-08  0.93827000000E+00  0.93827000000E+00 0.  1.
     999902    2    1    2    0    0  0.16541720702E-01 -0.74858747618E-02  0.15116056543E-01  0.10203045474E+01  0.10200309836E+01 0.  0.
     999903    2    3    3    0    0 -0.59409102772E-01  0.10362881343E+00  0.45094526894E-01  0.12956681373E+00  0.22037930906E-01 0.  0.
         14    1    1    2    0    0 -0.16541720702E-01  0.74858747618E-02 -0.15116056543E-01  0.23625452592E-01  0.00000000000E+00 0. -1.
     999901    1    3    3    0    0  0.75950823474E-01 -0.11111468819E+00 -0.29978470351E-01  0.89073773368E+00  0.88000000000E+00 0.  1.
        -11    1    4    4    0    0 -0.43562523175E-01  0.81042022482E-01  0.43897552746E-01  0.10194488262E+00  0.51100000000E-03 0.  1.
         11    1    4    4    0    0 -0.15846579596E-01  0.22586790948E-01  0.11969741474E-02  0.27621931112E-01  0.51100000000E-03 0. -1.
</event>
<event>
 7    1  0.1196210E+005  0.1043930E+01  0.7957747E-01            NaN
         13   -1    0    0    0    0  0.00000000000E+00  0.00000000000E+00  0.74505805969E-08  0.10566000000E+00  0.10566000000E+00 0. -1.
     999900   -1    0    0    0    0 -0.00000000000E+00 -0.00000000000E+00 -0.74505805969E-08  0.93827000000E+00  0.93827000000E+00 0. -1.
     999903    2    1    2    0    0 -0.10335612736E+00 -0.12069175548E-01 -0.25666673492E-01  0.10898259243E+00  0.19755335067E-01 0.  0.
         14    1    1    2    0    0 -0.31090149786E-01  0.12132385771E-01 -0.27364773277E-01  0.43158116441E-01  0.00000000000E+00 0.  1.
     999901    1    1    2    0    0  0.13444627714E+00 -0.63210222731E-04  0.53031446768E-01  0.89178929113E+00  0.88000000000E+00 0. -1.
        -11    1    3    3    0    0 -0.31784959002E-01 -0.87152244330E-02 -0.16136805332E-01  0.36700086690E-01  0.51100000000E-03 0. -1.
         11    1    3    3    0    0 -0.71571168353E-01 -0.33539511153E-02 -0.95298681595E-02  0.72282505737E-01  0.51100000000E-03 0.  1.
</event>
<event>
 8    1  0.1196210E+005  0.1043930E+01  0.7957747E-01            NaN
         13   -1    0    0    0    0  0.00000000000E+00  0.00000000000E+00  0.74505805969E-08  0.10566000000E+00  0.10566000000E+00 0. -1.
     999900   -1    0    0    0    0 -0.00000000000E+00 -0.00000000000E+00 -0.74505805969E-08  0.93827000000E+00  0.93827000000E+00 0. -1.
     999902    2    1    2    0    0 -0.12266761108E-01 -0.24512861717E-02  0.20174308143E-01  0.10201921623E+01  0.10199159588E+01 0.  0.
     999903    2    3    3    0    0  0.34574414858E-01  0.29741271632E-01 -0.11752606446E+00  0.12767221897E+00  0.20196194384E-01 0.  0.
         14    1    1    2    0    0  0.12266761108E-01  0.24512861717E-02 -0.20174308143E-01  0.23737837749E-01  0.00000000000E+00 0.  1.
     999901    1    3    3    0    0 -0.46841175967E-01 -0.32192557804E-01  0.13770037260E+00  0.89251994328E+00  0.88000000000E+00 0.  1.
        -11    1    4    4    0    0  0.21780704549E-01  0.61891710825E-02 -0.62160474834E-01  0.66158073445E-01  0.51100000000E-03 0. -1.
         11    1    4    4    0    0  0.12793710309E-01  0.23552100549E-01 -0.55365589625E-01  0.61514145522E-01  0.51100000000E-03 0.  1.
</event>
<event>
 8    1  0.1196210E+005  0.1043930E+01  0.7957747E-01            NaN
         13   -1    0    0    0    0  0.00000000000E+00  0.00000000000E+00  0.74505805969E-08  0.10566000000E+00  0.10566000000E+00 0.  1.
     999900   -1    0    0    0    0 -0.00000000000E+00 -0.00000000000E+00 -0.74505805969E-08  0.93827000000E+00  0.93827000000E+00 0.  1.
     999902    2    1    2    0    0  0.17023851156E-01 -0.14444673322E-01 -0.92489736553E-02  0.10197638334E+01  0.10194774506E+01 0.  0.
     999903    2    3    3    0    0  0.87201515073E-01 -0.35983851976E-01  0.88888800208E-01  0.13127080392E+00  0.20781321571E-01 0.  0.
         14    1    1    2    0    0 -0.17023851156E-01  0.14444673322E-01  0.92489736553E-02  0.24166166623E-01  0.00000000000E+00 0. -1.
     999901    1    3    3    0    0 -0.70177663917E-01  0.21539178654E-01 -0.98137773863E-01  0.88849302945E+00  0.88000000000E+00 0.  1.
        -11    1    4    4    0    0  0.12758618364E-01 -0.64467726638E-02  0.46625973592E-02  0.15044738464E-01  0.51100000000E-03 0.  1.
         11    1    4    4    0    0  0.74442896709E-01 -0.29537079312E-01  0.84226202849E-01  0.11622606546E+00  0.51100000000E-03 0. -1.
</event>
<event>
 8    1  0.1196210E+005  0.1043930E+01  0.7957747E-01            NaN
         13   -1    0    0    0    0  0.00000000000E+00  0.00000000000E+00  0.74505805969E-08  0.10566000000E+00  0.10566000000E+00 0. -1.
     999900   -1    0    0    0    0 -0.00000000000E+00 -0.00000000000E+00 -0.74505805969E-08  0.93827000000E+00  0.93827000000E+00 0. -1.
     999902    2    1    2    0    0 -0.22818264178E-01 -0.91158400027E-03 -0.66665071435E-02  0.10201403703E+01  0.10198629460E+01 0.  0.
     999903    2    3    3    0    0  0.38136334413E-01 -0.95117101112E-01  0.74428219957E-01  0.12931687635E+00  0.26108459486E-01 0.  0.
         14    1    1    2    0    0  0.22818264178E-01  0.91158400027E-03  0.66665071435E-02  0.23789629736E-01  0.00000000000E+00 0.  1.
     999901    1    3    3    0    0 -0.60954598591E-01  0.94205517112E-01 -0.81094727100E-01  0.89082349391E+00  0.88000000000E+00 0. -1.
        -11    1    4    4    0    0  0.25536783988E-01 -0.60102234809E-01  0.62086142652E-01  0.90107470256E-01  0.51100000000E-03 0.  1.
         11    1    4    4    0    0  0.12599550425E-01 -0.35014866303E-01  0.12342077305E-01  0.39209406095E-01  0.51100000000E-03 0. -1.
</event>
<event>
 8    1  0.1196210E+005  0.1043930E+01  0.7957747E-01            NaN
         13   -1    0    0    0    0  0.00000000000E+00  0.00000000000E+00  0.74505805969E-08  0.10566000000E+00  0.10566000000E+00 0.  1.
     999900   -1    0    0    0    0 -0.00000000000E+00 -0.00000000000E+00 -0.74505805969E-08  0.93827000000E+00  0.93827000000E+00 0. -1.
     999902    2    1    2    0    0  0.22685871854E-01  0.39922116507E-02 -0.48942573866E-02  0.10203813208E+01  0.10201095527E+01 0.  0.
     999903    2    3    3    0    0  0.60393736317E-01  0.95203755325E-01 -0.67050501254E-01  0.13268496091E+00  0.19959226442E-01 0.  0.
         14    1    1    2    0    0 -0.22685871854E-01 -0.39922116507E-02  0.48942573866E-02  0.23548679178E-01  0.00000000000E+00 0. -1.
     999901    1    3    3    0    0 -0.37707864463E-01 -0.91211543674E-01  0.62156243867E-01  0.88769635991E+00  0.88000000000E+00 0. -1.
        -11    1    4    4    0    0  0.34046237661E-01  0.39637881220E-01 -0.23310816722E-01  0.57218556638E-01  0.51100000000E-03 0.  1.
         11    1    4    4    0    0  0.26347498656E-01  0.55565874105E-01 -0.43739684532E-01  0.75466404277E-01  0.51100000000E-03 0. -1.
</event>
<event>
 8    1  0.1196210E+005  0.1043930E+01  0.7957747E-01            NaN
         13   -1    0    0    0    0  0.00000000000E+00  0.00000000000E+00  0.74505805969E-08  0.10566000000E+00  0.10566000000E+00 0. -1.
     999900   -1    0    0    0    0 -0.00000000000E+00 -0.00000000000E+00 -0.74505805969E-08  0.93827000000E+00  0.93827000000E+00 0. -1.
     999902    2    1    2    0    0  0.19724089967E-01  0.11042593003E-01  0.65010615490E-02  0.10204088949E+01  0.10201377703E+01 0.  0.
     999903    2    3    3    0    0  0.10691109263E+00  0.56525719584E-01  0.53249076403E-01  0.13369830785E+00  0.20362580446E-01 0.  0.
         14    1    1    2    0    0 -0.19724089967E-01 -0.11042593003E-01 -0.65010615490E-02  0.23521105129E-01  0.00000000000E+00 0.  1.
     999901    1    3    3    0    0 -0.87187002666E-01 -0.45483126581E-01 -0.46748014854E-01  0.88671058702E+00  0.88000000000E+00 0. -1.
        -11    1    4    4    0    0  0.64987095409E-01  0.28030905778E-01  0.40017897661E-01  0.81306503446E-01  0.51100000000E-03 0. -1.
         11    1    4    4    0    0  0.41923997224E-01  0.28494813806E-01  0.13231178743E-01  0.52391804407E-01  0.51100000000E-03 0.  1.
</event>
<event>
 8    1  0.1196210E+005  0.1043930E+01  0.7957747E-01            NaN
         13   -1    0    0    0    0  0.00000000000E+00  0.00000000000E+00  0.74505805969E-08  0.10566000000E+00  0.10566000000E+00 0.  1.
     999900   -1    0    0    0    0 -0.00000000000E+00 -0.00000000000E+00 -0.74505805969E-08  0.93827000000E+00  0.93827000000E+00 0.  1.
     999902    2    1    2    0    0  0.25691775882E-02  0.14818334812E-01 -0.18133340565E-01  0.10203715247E+01  0.10200995278E+01 0.  0.
     999903    2    3    3    0    0  0.66663023216E-01  0.11242913876E+00 -0.51233811351E-02  0.13256233957E+00  0.21500114667E-01 0.  0.
         14    1    1    2    0    0 -0.25691775882E-02 -0.14818334812E-01  0.18133340565E-01  0.23558475335E-01  0.00000000000E+00 0.  1.
     999901    1    3    3    0    0 -0.64093845627E-01 -0.97610803951E-01 -0.13009959430E-01  0.88780918510E+00  0.88000000000E+00 0. -1.
        -11    1    4    4    0    0  0.35645745499E-01  0.57236217442E-01  0.79992925886E-02  0.67903266212E-01  0.51100000000E-03 0. -1.
         11    1    4    4    0    0  0.31017277716E-01  0.55192921321E-01 -0.13122673724E-01  0.64659073358E-01  0.51100000000E-03 0.  1.
</event>
<event>
 8    1  0.1196210E+005  0.1043930E+01  0.7957747E-01            NaN
         13   -1    0    0    0    0  0.00000000000E+00  0.00000000000E+00  0.74505805969E-08  0.10566000000E+00  0.10566000000E+00 0. -1.
     999900   -1    0    0    0    0 -0.00000000000E+00 -0.00000000000E+00 -0.74505805969E-08  0.93827000000E+00  0.93827000000E+00 0. -1.
     999902    2    1    2    0    0  0.20039088526E-01  0.89407189883E-02 -0.76747413128E-02  0.10206834265E+01  0.10204186660E+01 0.  0.
     999903    2    3    3    0    0  0.24170114746E-01  0.12846821729E+00 -0.49679858133E-03  0.13256439671E+00  0.22018064505E-01 0.  0.
         14    1    1    2    0    0 -0.20039088526E-01 -0.89407189883E-02  0.76747413128E-02  0.23246573494E-01  0.00000000000E+00 0. -1.
     999901    1    3    3    0    0 -0.41310262198E-02 -0.11952749830E+00 -0.71779427314E-02  0.88811902980E+00  0.88000000000E+00 0. -1.
        -11    1    4    4    0    0  0.17983691916E-01  0.11550698077E+00  0.54146801157E-02  0.11702502153E+00  0.51100000000E-03 0.  1.
         11    1    4    4    0    0  0.61864228300E-02  0.12961236519E-01 -0.59114786970E-02  0.15539375178E-01  0.51100000000E-03 0. -1.
</event>
<event>
 8    1  0.1196210E+005  0.1043930E+01  0.7957747E-01            NaN
         13   -1    0    0    0    0  0.00000000000E+00  0.00000000000E+00  0.74505805969E-08  0.10566000000E+00  0.10566000000E+00 0.  1.
     999900   -1    0    0    0    0 -0.00000000000E+00 -0.00000000000E+00 -0.74505805969E-08  0.93827000000E+00  0.93827000000E+00 0.  1.
     999902    2    1    2    0    0 -0.74790242484E-02  0.19142963985E-01  0.12360852738E-01  0.10199470987E+01  0.10196650943E+01 0.  0.
     999903    2    3    3    0    0 -0.87969154472E-01  0.79485044578E-01  0.57124132745E-01  0.13308545280E+00  0.19802190651E-01 0.  0.
         14    1    1    2    0    0  0.74790242484E-02 -0.19142963985E-01 -0.12360852738E-01  0.23982901289E-01  0.00000000000E+00 0. -1.
     999901    1    3    3    0    0  0.80490130224E-01 -0.60342080593E-01 -0.44763280007E-01  0.88686164591E+00  0.88000000000E+00 0. -1.
        -11    1    4    4    0    0 -0.48113942118E-01  0.31128954098E-01  0.31385631804E-01  0.65339744522E-01  0.51100000000E-03 0. -1.
         11    1    4    4    0    0 -0.39855212354E-01  0.48356090479E-01  0.25738500941E-01  0.67745708277E-01  0.51100000000E-03 0.  1.
</event>
<event>
 8    1  0.1196210E+005  0.1043930E+01  0.7957747E-01            NaN
         13   -1    0    0    0    0  0.00000000000E+00  0.00000000000E+00  0.74505805969E-08  0.10566000000E+00  0.10566000000E+00 0. -1.
     999900   -1    0    0    0    0 -0.00000000000E+00 -0.00000000000E+00 -0.74505805969E-08  0.93827000000E+00  0.93827000000E+00 0.  1.
     999902    2    1    2    0    0  0.51856882823E-02 -0.21620086043E-01  0.95808389447E-02  0.10197202508E+01  0.10194328216E+01 0.  0.
     999903    2    3    3    0    0  0.62132783555E-01  0.10949322247E+00 -0.90719349596E-02  0.12799069686E+00  0.21214851374E-01 0.  0.
         14    1    1    2    0    0 -0.51856882823E-02  0.21620086043E-01 -0.95808389447E-02  0.24209749241E-01  0.00000000000E+00 0. -1.
     999901    1    3    3    0    0 -0.56947095273E-01 -0.13111330851E+00  0.18652773904E-01  0.89172955390E+00  0.88000000000E+00 0.  1.
        -11    1    4    4    0    0  0.33640984274E-02  0.15162851073E-01  0.41014143589E-02  0.16072085478E-01  0.51100000000E-03 0. -1.
         11    1    4    4    0    0  0.58768685128E-01  0.94330371396E-01 -0.13173349319E-01  0.11191861138E+00  0.51100000000E-03 0.  1.
</event>
<event>
 8    1  0.1196210E+005  0.1043930E+01  0.7957747E-01            NaN
         13   -1    0    0    0    0  0.00000000000E+00  0.00000000000E+00  0.74505805969E-08  0.10566000000E+00  0.10566000000E+00 0.  1.
     999900   -1    0    0    0    0 -0.00000000000E+00 -0.00000000000E+00 -0.74505805969E-08  0.93827000000E+00  0.93827000000E+00 0.  1.
     999902    2    1    2    0    0  0.14411301505E-01 -0.16085436509E-01  0.88884141758E-02  0.10205755404E+01  0.10203082881E+01 0.  0.
     999903    2    3    3    0    0 -0.10188055873E+00 -0.22626217607E-01  0.75483777004E-01  0.13040616269E+00  0.20405212734E-01 0.  0.
         14    1    1    2    0    0 -0.14411301505E-01  0.16085436509E-01 -0.88884141758E-02  0.23354459645E-01  0.00000000000E+00 0.  1.
     999901    1    3    3    0    0  0.11629186024E+00  0.65407810979E-02 -0.66595362828E-01  0.89016937766E+00  0.88000000000E+00 0.  1.
        -11    1    4    4    0    0 -0.55696260260E-01 -0.57964689354E-02  0.30469709730E-01  0.63752151267E-01  0.51100000000E-03 0. -1.
         11    1    4    4    0    0 -0.46184298473E-01 -0.16829748672E-01  0.45014067274E-01  0.66654011427E-01  0.51100000000E-03 0.  1.
</event>
<event>
 8    1  0.1196210E+005  0.1043930E+01  0.7957747E-01            NaN
         13   -1    0    0    0    0  0.00000000000E+00  0.00000000000E+00  0.74505805969E-08  0.10566000000E+00  0.10566000000E+00 0.  1.
     999900   -1    0    0    0    0 -0.00000000000E+00 -0.00000000000E+00 -0.74505805969E-08  0.93827000000E+00  0.93827000000E+00 0. -1.
     999902    2    1    2    0    0 -0.16449470842E-01 -0.52764590747E-02  0.15824424253E-01  0.10205026972E+01  0.10202337558E+01 0.  0.
     999903    2    3    3    0    0  0.25436216923E-01  0.86098899070E-01  0.93632636971E-01  0.13136941990E+00  0.20756498425E-01 0.  0.
         14    1    1    2    0    0  0.16449470842E-01  0.52764590747E-02 -0.15824424253E-01  0.23427302754E-01  0.00000000000E+00 0.  1.
     999901    1    3    3    0    0 -0.41885687765E-01 -0.91375358144E-01 -0.77808212717E-01  0.88913327734E+00  0.88000000000E+00 0. -1.
        -11    1    4    4    0    0  0.24294454647E-01  0.72028393329E-01  0.67486593932E-01  0.10165142131E+00  0.51100000000E-03 0. -1.
         11    1    4    4    0    0  0.11417622752E-02  0.14070505741E-01  0.26146043039E-01  0.29717998595E-01  0.51100000000E-03 0.  1.
</event>
<event>
 8    1  0.1196210E+005  0.1043930E+01  0.7957747E-01            NaN
         13   -1    0    0    0    0  0.00000000000E+00  0.00000000000E+00  0.74505805969E-08  0.10566000000E+00  0.10566000000E+00 0.  1.
     999900   -1    0    0    0    0 -0.00000000000E+00 -0.00000000000E+00 -0.74505805969E-08  0.93827000000E+00  0.93827000000E+00 0. -1.
     999902    2    1    2    0    0 -0.88037645159E-02  0.21495955103E-01 -0.81010290779E-02  0.10193290035E+01  0.10190320939E+01 0.  0.
     999903    2    3    3    0    0 -0.85748533271E-01  0.24000616042E-01 -0.93514135231E-01  0.13184820403E+00  0.26649857227E-01 0.  0.
         14    1    1    2    0    0  0.88037645159E-02 -0.21495955103E-01  0.81010290779E-02  0.24600996475E-01  0.00000000000E+00 0. -1.
     999901    1    3    3    0    0  0.76944768755E-01 -0.25046609390E-02  0.85413106153E-01  0.88748079949E+00  0.88000000000E+00 0.  1.
        -11    1    4    4    0    0 -0.58309036932E-01  0.28256056658E-01 -0.70751880252E-01  0.95939763425E-01  0.51100000000E-03 0.  1.
         11    1    4    4    0    0 -0.27439496339E-01 -0.42554406169E-02 -0.22762254979E-01  0.35908440608E-01  0.51100000000E-03 0. -1.
</event>
<event>
 8    1  0.1196210E+005  0.1043930E+01  0.7957747E-01            NaN
         13   -1    0    0    0    0  0.00000000000E+00  0.00000000000E+00  0.74505805969E-08  0.10566000000E+00  0.10566000000E+00 0. -1.
     999900   -1    0    0    0    0 -0.00000000000E+00 -0.00000000000E+00 -0.74505805969E-08  0.93827000000E+00  0.93827000000E+00 0. -1.
     999902    2    1    2    0    0  0.73976797722E-02 -0.11335140406E-02  0.23813809035E-01  0.10189678683E+01  0.10186620679E+01 0.  0.
     999903    2    3    3    0    0  0.11103547826E+00 -0.19840529637E-03 -0.61862664225E-01  0.12875321675E+00  0.20530094972E-01 0.  0.
         14    1    1    2    0    0 -0.73976797722E-02  0.11335140406E-02 -0.23813809035E-01  0.24962131737E-01  0.00000000000E+00 0.  1.
     999901    1    3    3    0    0 -0.10363779849E+00 -0.93510874422E-03  0.85676473260E-01  0.89021465152E+00  0.88000000000E+00 0.  1.
        -11    1    4    4    0    0  0.40943317259E-01 -0.22787922215E-02 -0.12072328111E-01  0.42749857885E-01  0.51100000000E-03 0. -1.
         11    1    4    4    0    0  0.70092161005E-01  0.20803869251E-02 -0.49790336114E-01  0.86003358862E-01  0.51100000000E-03 0.  1.
</event>
<event>
 8    1  0.1196210E+005  0.1043930E+01  0.7957747E-01            NaN
         13   -1    0    0    0    0  0.00000000000E+00  0.00000000000E+00  0.74505805969E-08  0.10566000000E+00  0.10566000000E+00 0. -1.
     999900   -1    0    0    0    0 -0.00000000000E+00 -0.00000000000E+00 -0.74505805969E-08  0.93827000000E+00  0.93827000000E+00 0. -1.
     999902    2    1    2    0    0 -0.67496745671E-02 -0.21342551132E-01 -0.69021326698E-02  0.10205056103E+01  0.10202367366E+01 0.  0.
     999903    2    3    3    0    0  0.26800873365E-01 -0.12448041340E+00 -0.34382991001E-01  0.13342147934E+00  0.20135564222E-01 0.  0.
         14    1    1    2    0    0  0.67496745671E-02  0.21342551132E-01  0.69021326698E-02  0.23424389661E-01  0.00000000000E+00 0. -1.
     999901    1    3    3    0    0 -0.33550547932E-01  0.10313786226E+00  0.27480858331E-01  0.88708413100E+00  0.88000000000E+00 0.  1.
        -11    1    4    4    0    0  0.13203235254E-01 -0.42098091259E-01 -0.20969624029E-01  0.48852440694E-01  0.51100000000E-03 0.  1.
         11    1    4    4    0    0  0.13597638111E-01 -0.82382322136E-01 -0.13413366972E-01  0.84569038644E-01  0.51100000000E-03 0. -1.
</event>
<event>
 8    1  0.1196210E+005  0.1043930E+01  0.7957747E-01            NaN
         13   -1    0    0    0    0  0.00000000000E+00  0.00000000000E+00  0.74505805969E-08  0.10566000000E+00  0.10566000000E+00 0.  1.
     999900   -1    0    0    0    0 -0.00000000000E+00 -0.00000000000E+00 -0.74505805969E-08  0.93827000000E+00  0.93827000000E+00 0. -1.
     999902    2    1    2    0    0 -0.15543160444E-01 -0.16827993676E-01  0.26252564520E-02  0.10208721775E+01  0.10206117477E+01 0.  0.
     999903    2    3    3    0    0 -0.15520869506E-01 -0.54162891911E-01 -0.11768103935E+00  0.13190226802E+00  0.19361431661E-01 0.  0.
         14    1    1    2    0    0  0.15543160444E-01  0.16827993676E-01 -0.26252564520E-02  0.23057822516E-01  0.00000000000E+00 0. -1.
     999901    1    3    3    0    0 -0.22290937893E-04  0.37334898236E-01  0.12030629580E+00  0.88896990946E+00  0.88000000000E+00 0.  1.
        -11    1    4    4    0    0 -0.18974963081E-01 -0.32960262133E-01 -0.77843001607E-01  0.86638456380E-01  0.51100000000E-03 0.  1.
         11    1    4    4    0    0  0.34540935753E-02 -0.21202629778E-01 -0.39838037743E-01  0.45263811640E-01  0.51100000000E-03 0. -1.
</event>
<event>
 8    1  0.1196210E+005  0.1043930E+01  0.7957747E-01            NaN
         13   -1    0    0    0    0  0.00000000000E+00  0.00000000000E+00  0.74505805969E-08  0.10566000000E+00  0.10566000000E+00 0. -1.
     999900   -1    0    0    0    0 -0.00000000000E+00 -0.00000000000E+00 -0.74505805969E-08  0.93827000000E+00  0.93827000000E+00 0. -1.
     999902    2    1    2    0    0 -0.75563420584E-02  0.35308093744E-02  0.31713758157E-01  0.10111378153E+01  0.10106059342E+01 0.  0.
     999903    2    3    3    0    0  0.61324643016E-01  0.99583776465E-01 -0.25911438743E-01  0.12136738093E+00  0.19519173106E-01 0.  0.
         14    1    1    2    0    0  0.75563420584E-02 -0.35308093744E-02 -0.31713758157E-01  0.32792184688E-01  0.00000000000E+00 0.  1.
     999901    1    3    3    0    0 -0.68880985075E-01 -0.96052967091E-01  0.57625196900E-01  0.88977043439E+00  0.88000000000E+00 0.  1.
        -11    1    4    4    0    0  0.48533657389E-01  0.63114982303E-01 -0.21464496156E-01  0.82462128319E-01  0.51100000000E-03 0.  1.
         11    1    4    4    0    0  0.12790985627E-01  0.36468794163E-01 -0.44469425863E-02  0.38905252606E-01  0.51100000000E-03 0. -1.
</event>
<event>
 8    1  0.1196210E+005  0.1043930E+01  0.7957747E-01            NaN
         13   -1    0    0    0    0  0.00000000000E+00  0.00000000000E+00  0.74505805969E-08  0.10566000000E+00  0.10566000000E+00 0. -1.
     999900   -1    0    0    0    0 -0.00000000000E+00 -0.00000000000E+00 -0.74505805969E-08  0.93827000000E+00  0.93827000000E+00 0.  1.
     999902    2    1    2    0    0  0.13827778262E-01 -0.11006359278E-01  0.68728347971E-02  0.10249673194E+01  0.10247918924E+01 0.  0.
     999903    2    3    3    0    0  0.38363831624E-02 -0.10841251355E+00 -0.79189911628E-01  0.13536370928E+00  0.16861220498E-01 0.  0.
         14    1    1    2    0    0 -0.13827778262E-01  0.11006359278E-01 -0.68728347971E-02  0.18962680569E-01  0.00000000000E+00 0.  1.
     999901    1    3    3    0    0  0.99913950998E-02  0.97406154274E-01  0.86062746425E-01  0.88960361015E+00  0.88000000000E+00 0. -1.
        -11    1    4    4    0    0 -0.61807780797E-02 -0.58816626369E-01 -0.44502266037E-01  0.74015608884E-01  0.51100000000E-03 0. -1.
         11    1    4    4    0    0  0.10017161242E-01 -0.49595887184E-01 -0.34687645591E-01  0.61348100398E-01  0.51100000000E-03 0.  1.
</event>
<event>
 8    1  0.1196210E+005  0.1043930E+01  0.7957747E-01            NaN
         13   -1    0    0    0    0  0.00000000000E+00  0.00000000000E+00  0.74505805969E-08  0.10566000000E+00  0.10566000000E+00 0.  1.
     999900   -1    0    0    0    0 -0.00000000000E+00 -0.00000000000E+00 -0.74505805969E-08  0.93827000000E+00  0.93827000000E+00 0.  1.
     999902    2    1    2    0    0  0.94085758004E-02 -0.63856348861E-02 -0.21950631893E-01  0.10192089994E+01  0.10189091503E+01 0.  0.
     999903    2    3    3    0    0 -0.12053407657E-01  0.65600104465E-01  0.10629290706E+00  0.12674669278E+00  0.17829293281E-01 0.  0.
         14    1    1    2    0    0 -0.94085758004E-02  0.63856348861E-02  0.21950631893E-01  0.24721000627E-01  0.00000000000E+00 0.  1.
     999901    1    3    3    0    0  0.21461983457E-01 -0.71985739351E-01 -0.12824353895E+00  0.89246230659E+00  0.88000000000E+00 0.  1.
        -11    1    4    4    0    0 -0.11085684750E-01  0.58658081836E-01  0.81814965374E-01  0.10127987288E+00  0.51100000000E-03 0. -1.
         11    1    4    4    0    0 -0.96772290669E-03  0.69420226294E-02  0.24477941682E-01  0.25466819899E-01  0.51100000000E-03 0.  1.
</event>
<event>
 8    1  0.1196210E+005  0.1043930E+01  0.7957747E-01            NaN
         13   -1    0    0    0    0  0.00000000000E+00  0.00000000000E+00  0.74505805969E-08  0.10566000000E+00  0.10566000000E+00 0. -1.
     999900   -1    0    0    0    0 -0.00000000000E+00 -0.00000000000E+00 -0.74505805969E-08  0.93827000000E+00  0.93827000000E+00 0. -1.
     999902    2    1    2    0    0  0.88114427182E-02  0.15212045499E-02 -0.21933891084E-01  0.10202434814E+01  0.10199684849E+01 0.  0.
     999903    2    3    3    0    0 -0.66166870690E-01 -0.25372319011E-01 -0.10972924208E+00  0.13229470316E+00  0.20965985962E-01 0.  0.
         14    1    1    2    0    0 -0.88114427182E-02 -0.15212045499E-02  0.21933891084E-01  0.23686518616E-01  0.00000000000E+00 0. -1.
     999901    1    3    3    0    0  0.74978313408E-01  0.26893523561E-01  0.87795350999E-01  0.88794877822E+00  0.88000000000E+00 0.  1.
        -11    1    4    4    0    0 -0.15402228368E-01 -0.16776992289E-02 -0.11836464762E-01  0.19504008113E-01  0.51100000000E-03 0. -1.
         11    1    4    4    0    0 -0.50764642321E-01 -0.23694619782E-01 -0.97892777322E-01  0.11279069505E+00  0.51100000000E-03 0.  1.
</event>
<event>
 8    1  0.1196210E+005  0.1043930E+01  0.7957747E-01            NaN
         13   -1    0    0    0    0  0.00000000000E+00  0.00000000000E+00  0.74505805969E-08  0.10566000000E+00  0.10566000000E+00 0.  1.
     999900   -1    0    0    0    0 -0.00000000000E+00 -0.00000000000E+00 -0.74505805969E-08  0.93827000000E+00  0.93827000000E+00 0.  1.
     999902    2    1    2    0    0 -0.16447776278E-01  0.72084562949E-02 -0.14481775732E-01  0.10208602576E+01  0.10205995554E+01 0.  0.
     999903    2    3    3    0    0 -0.45964675420E-01 -0.39105270597E-01 -0.11705639043E+00  0.13320167445E+00  0.19962814471E-01 0.  0.
         14    1    1    2    0    0  0.16447776278E-01 -0.72084562949E-02  0.14481775732E-01  0.23069742413E-01  0.00000000000E+00 0.  1.
     999901    1    3    3    0    0  0.29516899141E-01  0.46313726892E-01  0.10257461470E+00  0.88765858314E+00  0.88000000000E+00 0. -1.
        -11    1    4    4    0    0 -0.13866331017E-01 -0.14109788256E-02 -0.29017673603E-01  0.32195535396E-01  0.51100000000E-03 0. -1.
         11    1    4    4    0    0 -0.32098344403E-01 -0.37694291771E-01 -0.88038716826E-01  0.10100613906E+00  0.51100000000E-03 0.  1.
</event>
<event>
 8    1  0.1196210E+005  0.1043930E+01  0.7957747E-01            NaN
         13   -1    0    0    0    0  0.00000000000E+00  0.00000000000E+00  0.74505805969E-08  0.10566000000E+00  0.10566000000E+00 0.  1.
     999900   -1    0    0    0    0 -0.00000000000E+00 -0.00000000000E+00 -0.74505805969E-08  0.93827000000E+00  0.93827000000E+00 0. -1.
     999902    2    1    2    0    0 -0.46627711693E-02 -0.53646641333E-02  0.21850461155E-01  0.10209525391E+01  0.10206939421E+01 0.  0.
     999903    2    3    3    0    0  0.59649449927E-01  0.10798145236E+00  0.39482595717E-01  0.13118049186E+00  0.20770054139E-01 0.  0.
         14    1    1    2    0    0  0.46627711693E-02  0.53646641333E-02 -0.21850461155E-01  0.22977460890E-01  0.00000000000E+00 0. -1.
     999901    1    3    3    0    0 -0.64312221096E-01 -0.11334611649E+00 -0.17632134562E-01  0.88977204725E+00  0.88000000000E+00 0. -1.
        -11    1    4    4    0    0  0.47773774849E-01  0.66939776189E-01  0.28792631171E-01  0.87135204885E-01  0.51100000000E-03 0.  1.
         11    1    4    4    0    0  0.11875675078E-01  0.41041676170E-01  0.10689964546E-01  0.44045286971E-01  0.51100000000E-03 0. -1.
</event>
<event>
 8    1  0.1196210E+005  0.1043930E+01  0.7957747E-01            NaN
         13   -1    0    0    0    0  0.00000000000E+00  0.00000000000E+00  0.74505805969E-08  0.10566000000E+00  0.10566000000E+00 0. -1.
     999900   -1    0    0    0    0 -0.00000000000E+00 -0.00000000000E+00 -0.74505805969E-08  0.93827000000E+00  0.93827000000E+00 0. -1.
     999902    2    1    2    0    0 -0.17016194088E-01  0.78753080504E-02  0.14338089934E-01  0.10203259291E+01  0.10200528660E+01 0.  0.
     999903    2    3    3    0    0  0.24458044500E-01  0.73610056026E-01 -0.10162460661E+00  0.12932171111E+00  0.19491228964E-01 0.  0.
         14    1    1    2    0    0  0.17016194088E-01 -0.78753080504E-02 -0.14338089934E-01  0.23604070858E-01  0.00000000000E+00 0. -1.
     999901    1    3    3    0    0 -0.41474238588E-01 -0.65734747976E-01  0.11596269655E+00  0.89100421803E+00  0.88000000000E+00 0.  1.
        -11    1    4    4    0    0  0.80432074618E-02  0.53000044013E-01 -0.69344441105E-01  0.87650501909E-01  0.51100000000E-03 0.  1.
         11    1    4    4    0    0  0.16414837039E-01  0.20610012013E-01 -0.32280165508E-01  0.41671209202E-01  0.51100000000E-03 0. -1.
</event>
<event>
 8    1  0.1196210E+005  0.1043930E+01  0.7957747E-01            NaN
         13   -1    0    0    0    0  0.00000000000E+00  0.00000000000E+00  0.74505805969E-08  0.10566000000E+00  0.10566000000E+00 0. -1.
     999900   -1    0    0    0    0 -0.00000000000E+00 -0.00000000000E+00 -0.74505805969E-08  0.93827000000E+00  0.93827000000E+00 0.  1.
     999902    2    1    2    0    0  0.52927016367E-02 -0.98523878151E-02  0.32233884493E-01  0.10098110090E+01  0.10092344467E+01 0.  0.
     999903    2    3    3    0    0  0.64397449620E-01  0.90660926723E-01  0.39624634053E-01  0.12208868711E+00  0.31130382976E-01 0.  0.
         14    1    1    2    0    0 -0.52927016367E-02  0.98523878151E-02 -0.32233884493E-01  0.34118990984E-01  0.00000000000E+00 0.  1.
     999901    1    3    3    0    0 -0.59104747983E-01 -0.10051331454E+00 -0.73907495603E-02  0.88772232191E+00  0.88000000000E+00 0. -1.
        -11    1    4    4    0    0  0.45763255473E-01  0.71409061924E-01  0.15891391867E-01  0.86292103537E-01  0.51100000000E-03 0.  1.
         11    1    4    4    0    0  0.18634194147E-01  0.19251864799E-01  0.23733242186E-01  0.35796583572E-01  0.51100000000E-03 0. -1.
</event>
<event>
 8    1  0.1196210E+005  0.1043930E+01  0.7957747E-01            NaN
         13   -1    0    0    0    0  0.00000000000E+00  0.00000000000E+00  0.74505805969E-08  0.10566000000E+00  0.10566000000E+00 0.  1.
     999900   -1    0    0    0    0 -0.00000000000E+00 -0.00000000000E+00 -0.74505805969E-08  0.93827000000E+00  0.93827000000E+00 0. -1.
     999902    2    1    2    0    0  0.74952011610E-02 -0.80998767665E-02  0.93030958486E-03  0.10328551853E+01  0.10327958086E+01 0.  0.
     999903    2    3    3    0    0 -0.13014374920E-01  0.71255638183E-01 -0.11897106176E+00  0.14095032532E+00  0.21590292802E-01 0.  0.
         14    1    1    2    0    0 -0.74952011610E-02  0.80998767665E-02 -0.93030958486E-03  0.11074814671E-01  0.00000000000E+00 0. -1.
     999901    1    3    3    0    0  0.20509576081E-01 -0.79355514950E-01  0.11990137134E+00  0.89190486001E+00  0.88000000000E+00 0. -1.
        -11    1    4    4    0    0  0.57307213418E-02  0.22915546185E-01 -0.40782496566E-01  0.47132118255E-01  0.51100000000E-03 0.  1.
         11    1    4    4    0    0 -0.18745096262E-01  0.48340091998E-01 -0.78188565193E-01  0.93818207061E-01  0.51100000000E-03 0. -1.
</event>
<event>
 8    1  0.1196210E+005  0.1043930E+01  0.7957747E-01            NaN
         13   -1    0    0    0    0  0.00000000000E+00  0.00000000000E+00  0.74505805969E-08  0.10566000000E+00  0.10566000000E+00 0.  1.
     999900   -1    0    0    0    0 -0.00000000000E+00 -0.00000000000E+00 -0.74505805969E-08  0.93827000000E+00  0.93827000000E+00 0.  1.
     999902    2    1    2    0    0 -0.87583803077E-02 -0.30884872164E-02 -0.17766215049E-01  0.10238828961E+01  0.10236866212E+01 0.  0.
     999903    2    3    3    0    0  0.11638601381E+00 -0.27623796700E-01  0.52345254904E-01  0.13193070059E+00  0.18891947871E-01 0.  0.
         14    1    1    2    0    0  0.87583803077E-02  0.30884872164E-02  0.17766215049E-01  0.20047103932E-01  0.00000000000E+00 0.  1.
     999901    1    3    3    0    0 -0.12514439412E+00  0.24535309484E-01 -0.70111469953E-01  0.89195219547E+00  0.88000000000E+00 0. -1.
        -11    1    4    4    0    0  0.46819668771E-01 -0.17695247418E-02  0.21665835492E-01  0.51622496552E-01  0.51100000000E-03 0. -1.
         11    1    4    4    0    0  0.69566345036E-01 -0.25854271958E-01  0.30679419412E-01  0.80308204043E-01  0.51100000000E-03 0.  1.
</event>
<event>
 8    1  0.1196210E+005  0.1043930E+01  0.7957747E-01            NaN
         13   -1    0    0    0    0  0.00000000000E+00  0.00000000000E+00  0.74505805969E-08  0.10566000000E+00  0.10566000000E+00 0.  1.
     999900   -1    0    0    0    0 -0.00000000000E+00 -0.00000000000E+00 -0.74505805969E-08  0.93827000000E+00  0.93827000000E+00 0. -1.
     999902    2    1    2    0    0  0.83379794243E-02 -0.15592374129E-01  0.15830118535E-01  0.10201973920E+01  0.10199213116E+01 0.  0.
     999903    2    3    3    0    0 -0.24614381587E-01  0.15980772001E-01  0.12717105304E+00  0.13200849012E+00  0.19811912512E-01 0.  0.
         14    1    1    2    0    0 -0.83379794243E-02  0.15592374129E-01 -0.15830118535E-01  0.23732608046E-01  0.00000000000E+00 0. -1.
     999901    1    3    3    0    0  0.32952361011E-01 -0.31573146130E-01 -0.11134093450E+00  0.88818890184E+00  0.88000000000E+00 0. -1.
        -11    1    4    4    0    0 -0.30051888787E-02  0.28367592075E-02  0.61383113229E-01  0.61524190963E-01  0.51100000000E-03 0. -1.
         11    1    4    4    0    0 -0.21609192708E-01  0.13144012794E-01  0.65787939808E-01  0.70484299153E-01  0.51100000000E-03 0.  1.
</event>
<event>
 8    1  0.1196210E+005  0.1043930E+01  0.7957747E-01            NaN
         13   -1    0    0    0    0  0.00000000000E+00  0.00000000000E+00  0.74505805969E-08  0.10566000000E+00  0.10566000000E+00 0. -1.
     999900   -1    0    0    0    0 -0.00000000000E+00 -0.00000000000E+00 -0.74505805969E-08  0.93827000000E+00  0.93827000000E+00 0. -1.
     999902    2    1    2    0    0 -0.23656979237E-01 -0.95301027863E-03  0.16450831825E-02  0.10201967492E+01  0.10199206537E+01 0.  0.
     999903    2    3    3    0    0 -0.88020519807E-01  0.92144768417E-01 -0.28662172200E-01  0.13243079384E+00  0.21866064766E-01 0.  0.
         14    1    1    2    0    0  0.23656979237E-01  0.95301027863E-03 -0.16450831825E-02  0.23733250807E-01  0.00000000000E+00 0. -1.
     999901    1    3    3    0    0  0.64363540570E-01 -0.93097778696E-01  0.30307255383E-01  0.88776595535E+00  0.88000000000E+00 0. -1.
        -11    1    4    4    0    0 -0.25260340305E-01  0.40096268344E-01 -0.15340418522E-01  0.49813503077E-01  0.51100000000E-03 0. -1.
         11    1    4    4    0    0 -0.62760179502E-01  0.52048500073E-01 -0.13321753678E-01  0.82617290764E-01  0.51100000000E-03 0.  1.
</event>
<event>
 8    1  0.1196210E+005  0.1043930E+01  0.7957747E-01            NaN
         13   -1    0    0    0    0  0.00000000000E+00  0.00000000000E+00  0.74505805969E-08  0.10566000000E+00  0.10566000000E+00 0.  1.
     999900   -1    0    0    0    0 -0.00000000000E+00 -0.00000000000E+00 -0.74505805969E-08  0.93827000000E+00  0.93827000000E+00 0. -1.
     999902    2    1    2    0    0  0.14435509434E-01  0.45757383381E-02 -0.17749568742E-01  0.10205982940E+01  0.10203315683E+01 0.  0.
     999903    2    3    3    0    0 -0.10767260899E+00  0.41106091419E-02 -0.70946870252E-01  0.13057550676E+00  0.20154819101E-01 0.  0.
         14    1    1    2    0    0 -0.14435509434E-01 -0.45757383381E-02  0.17749568742E-01  0.23331705992E-01  0.00000000000E+00 0.  1.
     999901    1    3    3    0    0  0.12210811842E+00  0.46512919626E-03  0.53197301510E-01  0.89002278725E+00  0.88000000000E+00 0. -1.
        -11    1    4    4    0    0 -0.35720350436E-01  0.60027425377E-02 -0.33940755325E-01  0.49640833457E-01  0.51100000000E-03 0.  1.
         11    1    4    4    0    0 -0.71952258555E-01 -0.18921333959E-02 -0.37006114927E-01  0.80934673305E-01  0.51100000000E-03 0. -1.
</event>
<event>
 8    1  0.1196210E+005  0.1043930E+01  0.7957747E-01            NaN
         13   -1    0    0    0    0  0.00000000000E+00  0.00000000000E+00  0.74505805969E-08  0.10566000000E+00  0.10566000000E+00 0. -1.
     999900   -1    0    0    0    0 -0.00000000000E+00 -0.00000000000E+00 -0.74505805969E-08  0.93827000000E+00  0.93827000000E+00 0.  1.
     999902    2    1    2    0    0  0.48497548763E-02  0.22380328205E-01  0.62365432368E-02  0.10201961911E+01  0.10199200825E+01 0.  0.
     999903    2    3    3    0    0  0.11147339946E+00 -0.12823427966E-02  0.66624550519E-01  0.13139068088E+00  0.19917758460E-01 0.  0.
         14    1    1    2    0    0 -0.48497548763E-02 -0.22380328205E-01 -0.62365432368E-02  0.23733808890E-01  0.00000000000E+00 0. -1.
     999901    1    3    3    0    0 -0.10662364458E+00  0.23662671001E-01 -0.60388007282E-01  0.88880551022E+00  0.88000000000E+00 0. -1.
        -11    1    4    4    0    0  0.75616769736E-01  0.77027248552E-02  0.49005764706E-01  0.90438122111E-01  0.51100000000E-03 0. -1.
         11    1    4    4    0    0  0.35856629720E-01 -0.89850676518E-02  0.17618785813E-01  0.40952558774E-01  0.51100000000E-03 0.  1.
</event>
<event>
 8    1  0.1196210E+005  0.1043930E+01  0.7957747E-01            NaN
         13   -1    0    0    0    0  0.00000000000E+00  0.00000000000E+00  0.74505805969E-08  0.10566000000E+00  0.10566000000E+00 0.  1.
     999900   -1    0    0    0    0 -0.00000000000E+00 -0.00000000000E+00 -0.74505805969E-08  0.93827000000E+00  0.93827000000E+00 0.  1.
     999902    2    1    2    0    0  0.27813927546E-02  0.11832964683E-01  0.22257435427E-01  0.10185696248E+01  0.10182538642E+01 0.  0.
     999903    2    3    3    0    0  0.50389464940E-01 -0.94506424368E-01  0.70186852485E-01  0.12959728370E+00  0.19967454971E-01 0.  0.
         14    1    1    2    0    0 -0.27813927546E-02 -0.11832964683E-01 -0.22257435427E-01  0.25360375207E-01  0.00000000000E+00 0. -1.
     999901    1    3    3    0    0 -0.47608072185E-01  0.10633938905E+00 -0.47929417058E-01  0.88897234109E+00  0.88000000000E+00 0. -1.
        -11    1    4    4    0    0  0.17924959509E-01 -0.39841608618E-01  0.17657475032E-01  0.47124362024E-01  0.51100000000E-03 0.  1.
         11    1    4    4    0    0  0.32464505431E-01 -0.54664815750E-01  0.52529377453E-01  0.82472921680E-01  0.51100000000E-03 0. -1.
</event>
<event>
 8    1  0.1196210E+005  0.1043930E+01  0.7957747E-01            NaN
         13   -1    0    0    0    0  0.00000000000E+00  0.00000000000E+00  0.74505805969E-08  0.10566000000E+00  0.10566000000E+00 0.  1.
     999900   -1    0    0    0    0 -0.00000000000E+00 -0.00000000000E+00 -0.74505805969E-08  0.93827000000E+00  0.93827000000E+00 0. -1.
     999902    2    1    2    0    0 -0.37518445086E-02 -0.84216396588E-02  0.22078277511E-01  0.10200040582E+01  0.10197234077E+01 0.  0.
     999903    2    3    3    0    0 -0.65422961159E-01  0.97705762250E-02 -0.10779229579E+00  0.12815168863E+00  0.20689327241E-01 0.  0.
         14    1    1    2    0    0  0.37518445086E-02  0.84216396588E-02 -0.22078277511E-01  0.23925941771E-01  0.00000000000E+00 0. -1.
     999901    1    3    3    0    0  0.61671116650E-01 -0.18192215884E-01  0.12987057330E+00  0.89185236960E+00  0.88000000000E+00 0.  1.
        -11    1    4    4    0    0 -0.37871152061E-01  0.12136718099E-01 -0.48470118935E-01  0.62698784958E-01  0.51100000000E-03 0. -1.
         11    1    4    4    0    0 -0.27551809098E-01 -0.23661418736E-02 -0.59322176852E-01  0.65452903674E-01  0.51100000000E-03 0.  1.
</event>
<event>
 8    1  0.1196210E+005  0.1043930E+01  0.7957747E-01            NaN
         13   -1    0    0    0    0  0.00000000000E+00  0.00000000000E+00  0.74505805969E-08  0.10566000000E+00  0.10566000000E+00 0.  1.
     999900   -1    0    0    0    0 -0.00000000000E+00 -0.00000000000E+00 -0.74505805969E-08  0.93827000000E+00  0.93827000000E+00 0. -1.
     999902    2    1    2    0    0 -0.10947033208E-01  0.18448082344E-01  0.99818142313E-02  0.10202697825E+01  0.10199954035E+01 0.  0.
     999903    2    3    3    0    0  0.60387885505E-01  0.59313998775E-01 -0.96716376875E-01  0.13002082979E+00  0.19659894668E-01 0.  0.
         14    1    1    2    0    0  0.10947033208E-01 -0.18448082344E-01 -0.99818142313E-02  0.23660217530E-01  0.00000000000E+00 0. -1.
     999901    1    3    3    0    0 -0.71334918713E-01 -0.40865916430E-01  0.10669819111E+00  0.89024895267E+00  0.88000000000E+00 0.  1.
        -11    1    4    4    0    0  0.13851242589E-01  0.22257284078E-01 -0.39992329470E-01  0.47821450765E-01  0.51100000000E-03 0. -1.
         11    1    4    4    0    0  0.46536642915E-01  0.37056714697E-01 -0.56724047405E-01  0.82199379030E-01  0.51100000000E-03 0.  1.
</event>
<event>
 8    1  0.1196210E+005  0.1043930E+01  0.7957747E-01            NaN
         13   -1    0    0    0    0  0.00000000000E+00  0.00000000000E+00  0.74505805969E-08  0.10566000000E+00  0.10566000000E+00 0.  1.
     999900   -1    0    0    0    0 -0.00000000000E+00 -0.00000000000E+00 -0.74505805969E-08  0.93827000000E+00  0.93827000000E+00 0.  1.
     999902    2    1    2    0    0  0.14583738320E-01  0.16422249158E-01 -0.91107053771E-02  0.10201522658E+01  0.10198751222E+01 0.  0.
     999903    2    3    3    0    0  0.62885106135E-01 -0.10861518228E+00 -0.26556751334E-01  0.12983111818E+00  0.19976581581E-01 0.  0.
         14    1    1    2    0    0 -0.14583738320E-01 -0.16422249158E-01  0.91107053771E-02  0.23777734192E-01  0.00000000000E+00 0.  1.
     999901    1    3    3    0    0 -0.48301367814E-01  0.12503743144E+00  0.17446045957E-01  0.89032114763E+00  0.88000000000E+00 0. -1.
        -11    1    4    4    0    0  0.97513266486E-02 -0.21068370089E-01  0.25600118223E-02  0.23361921392E-01  0.51100000000E-03 0. -1.
         11    1    4    4    0    0  0.53133779486E-01 -0.87546812190E-01 -0.29116763157E-01  0.10646919679E+00  0.51100000000E-03 0.  1.
</event>
<event>
 8    1  0.1196210E+005  0.1043930E+01  0.7957747E-01            NaN
         13   -1    0    0    0    0  0.00000000000E+00  0.00000000000E+00  0.74505805969E-08  0.10566000000E+00  0.10566000000E+00 0. -1.
     999900   -1    0    0    0    0 -0.00000000000E+00 -0.00000000000E+00 -0.74505805969E-08  0.93827000000E+00  0.93827000000E+00 0. -1.
     999902    2    1    2    0    0 -0.12454276186E-02  0.21432468388E-01 -0.86223381343E-02  0.10207946049E+01  0.10205323997E+01 0.  0.
     999903    2    3    3    0    0 -0.29534043277E-01 -0.59165045339E-01  0.10893890188E+00  0.12887709182E+00  0.19205680192E-01 0.  0.
         14    1    1    2    0    0  0.12454276186E-02 -0.21432468388E-01  0.86223381343E-02  0.23135395092E-01  0.00000000000E+00 0. -1.
     999901    1    3    3    0    0  0.28288615659E-01  0.80597513727E-01 -0.11756124001E+00  0.89191751309E+00  0.88000000000E+00 0. -1.
        -11    1    4    4    0    0 -0.17979737147E-01 -0.16843451352E-01  0.45508656561E-01  0.51752021645E-01  0.51100000000E-03 0.  1.
         11    1    4    4    0    0 -0.11554306130E-01 -0.42321593987E-01  0.63430245319E-01  0.77125070178E-01  0.51100000000E-03 0. -1.
</event>
<event>
 8    1  0.1196210E+005  0.1043930E+01  0.7957747E-01            NaN
         13   -1    0    0    0    0  0.00000000000E+00  0.00000000000E+00  0.74505805969E-08  0.10566000000E+00  0.10566000000E+00 0. -1.
     999900   -1    0    0    0    0 -0.00000000000E+00 -0.00000000000E+00 -0.74505805969E-08  0.93827000000E+00  0.93827000000E+00 0.  1.
     999902    2    1    2    0    0  0.22120045003E-01 -0.46250964505E-02 -0.96000969830E-02  0.10193770008E+01  0.10190812627E+01 0.  0.
     999903    2    3    3    0    0  0.45656600582E-01 -0.63817482448E-01 -0.10419827287E+00  0.13201770327E+00  0.20351846735E-01 0.  0.
         14    1    1    2    0    0 -0.22120045003E-01  0.46250964505E-02  0.96000969830E-02  0.24552999210E-01  0.00000000000E+00 0. -1.
     999901    1    3    3    0    0 -0.23536555579E-01  0.59192385998E-01  0.94598175887E-01  0.88735929752E+00  0.88000000000E+00 0. -1.
        -11    1    4    4    0    0  0.41805408120E-01 -0.45476693466E-01 -0.73109043905E-01  0.95713192499E-01  0.51100000000E-03 0.  1.
         11    1    4    4    0    0  0.38511924626E-02 -0.18340788982E-01 -0.31089228965E-01  0.36304510774E-01  0.51100000000E-03 0. -1.
</event>
<event>
 8    1  0.1196210E+005  0.1043930E+01  0.7957747E-01            NaN
         13   -1    0    0    0    0  0.00000000000E+00  0.00000000000E+00  0.74505805969E-08  0.10566000000E+00  0.10566000000E+00 0. -1.
     999900   -1    0    0    0    0 -0.00000000000E+00 -0.00000000000E+00 -0.74505805969E-08  0.93827000000E+00  0.93827000000E+00 0.  1.
     999902    2    1    2    0    0  0.19833912262E-01  0.57686853567E-02  0.11972494138E-01  0.10200552765E+01  0.10197758404E+01 0.  0.
     999903    2    3    3    0    0  0.78964191713E-01  0.38467493846E-02  0.10522671008E+00  0.13315255772E+00  0.20169334643E-01 0.  0.
         14    1    1    2    0    0 -0.19833912262E-01 -0.57686853567E-02 -0.11972494138E-01  0.23874723501E-01  0.00000000000E+00 0.  1.
     999901    1    3    3    0    0 -0.59130279451E-01  0.19219359721E-02 -0.93254215940E-01  0.88690271878E+00  0.88000000000E+00 0.  1.
        -11    1    4    4    0    0  0.41131068373E-01  0.91880513019E-02  0.66618674828E-01  0.78832062190E-01  0.51100000000E-03 0. -1.
         11    1    4    4    0    0  0.37833123340E-01 -0.53413019173E-02  0.38608035250E-01  0.54320495531E-01  0.51100000000E-03 0.  1.
</event>
<event>
 8    1  0.1196210E+005  0.1043930E+01  0.7957747E-01            NaN
         13   -1    0    0    0    0  0.00000000000E+00  0.00000000000E+00  0.74505805969E-08  0.10566000000E+00  0.10566000000E+00 0.  1.
     999900   -1    0    0    0    0 -0.00000000000E+00 -0.00000000000E+00 -0.74505805969E-08  0.93827000000E+00  0.93827000000E+00 0. -1.
     999902    2    1    2    0    0 -0.22129542734E-01 -0.73451664375E-02 -0.65918593945E-02  0.10196994255E+01  0.10194114957E+01 0.  0.
     999903    2    3    3    0    0  0.12222226312E+00  0.24863971787E-01 -0.15995216020E-01  0.12730752975E+00  0.19871122263E-01 0.  0.
         14    1    1    2    0    0  0.22129542734E-01  0.73451664375E-02  0.65918593945E-02  0.24230574527E-01  0.00000000000E+00 0. -1.
     999901    1    3    3    0    0 -0.14435180585E+00 -0.32209138225E-01  0.94033566254E-02  0.89239189572E+00  0.88000000000E+00 0.  1.
        -11    1    4    4    0    0  0.24499238247E-01  0.20360016313E-02 -0.10689925466E-01  0.26812191346E-01  0.51100000000E-03 0. -1.
         11    1    4    4    0    0  0.97723024873E-01  0.22827970156E-01 -0.53052905544E-02  0.10049533840E+00  0.51100000000E-03 0.  1.
</event>
<event>
 8    1  0.1196210E+005  0.1043930E+01  0.7957747E-01            NaN
         13   -1    0    0    0    0  0.00000000000E+00  0.00000000000E+00  0.74505805969E-08  0.10566000000E+00  0.10566000000E+00 0. -1.
     999900   -1    0    0    0    0 -0.00000000000E+00 -0.00000000000E+00 -0.74505805969E-08  0.93827000000E+00  0.93827000000E+00 0.  1.
     999902    2    1    2    0    0  0.30254751852E-02  0.12086350574E-03  0.26770393313E-01  0.10169889149E+01  0.10166320037E+01 0.  0.
     999903    2    3    3    0    0  0.12432116283E+00  0.22188658607E-01  0.11002073647E-02  0.12802401691E+00  0.20996436635E-01 0.  0.
         14    1    1    2    0    0 -0.30254751852E-02 -0.12086350574E-03 -0.26770393313E-01  0.26941085097E-01  0.00000000000E+00 0.  1.
     999901    1    3    3    0    0 -0.12129568764E+00 -0.22067795101E-01  0.25670185948E-01  0.88896489800E+00  0.88000000000E+00 0.  1.
        -11    1    4    4    0    0  0.60624781708E-01  0.78236747466E-02 -0.95244106218E-02  0.61867192941E-01  0.51100000000E-03 0.  1.
         11    1    4    4    0    0  0.63696381120E-01  0.14364983860E-01  0.10624617987E-01  0.66156823967E-01  0.51100000000E-03 0. -1.
</event>
<event>
 8    1  0.1196210E+005  0.1043930E+01  0.7957747E-01            NaN
         13   -1    0    0    0    0  0.00000000000E+00  0.00000000000E+00  0.74505805969E-08  0.10566000000E+00  0.10566000000E+00 0. -1.
     999900   -1    0    0    0    0 -0.00000000000E+00 -0.00000000000E+00 -0.74505805969E-08  0.93827000000E+00  0.93827000000E+00 0. -1.
     999902    2    1    2    0    0 -0.20309313314E-01 -0.31389340414E-02  0.15015524789E-01  0.10184783380E+01  0.10181602712E+01 0.  0.
     999903    2    3    3    0    0 -0.52454631809E-01  0.76460372889E-01  0.90273903766E-01  0.13110401181E+00  0.21004932531E-01 0.  0.
         14    1    1    2    0    0  0.20309313314E-01  0.31389340414E-02 -0.15015524789E-01  0.25451662007E-01  0.00000000000E+00 0.  1.
     999901    1    3    3    0    0  0.32145318494E-01 -0.79599306931E-01 -0.75258378977E-01  0.88737432618E+00  0.88000000000E+00 0. -1.
        -11    1    4    4    0    0 -0.21282957040E-01  0.49275729127E-01  0.49305963069E-01  0.72886218564E-01  0.51100000000E-03 0.  1.
         11    1    4    4    0    0 -0.31171674769E-01  0.27184643763E-01  0.40967940697E-01  0.58217793245E-01  0.51100000000E-03 0. -1.
</event>
<event>
 8    1  0.1196210E+005  0.1043930E+01  0.7957747E-01            NaN
         13   -1    0    0    0    0  0.00000000000E+00  0.00000000000E+00  0.74505805969E-08  0.10566000000E+00  0.10566000000E+00 0.  1.
     999900   -1    0    0    0    0 -0.00000000000E+00 -0.00000000000E+00 -0.74505805969E-08  0.93827000000E+00  0.93827000000E+00 0.  1.
     999902    2    1    2    0    0  0.22218361291E-02 -0.70698258875E-02 -0.23102852501E-01  0.10196676673E+01  0.10193789732E+01 0.  0.
     999903    2    3    3    0    0  0.11387495601E+00  0.22665044399E-01  0.52859222417E-01  0.12886981229E+00  0.18224194932E-01 0.  0.
         14    1    1    2    0    0 -0.22218361291E-02  0.70698258875E-02  0.23102852501E-01  0.24262332690E-01  0.00000000000E+00 0.  1.
     999901    1    3    3    0    0 -0.11165311988E+00 -0.29734870286E-01 -0.75962074918E-01  0.89079785502E+00  0.88000000000E+00 0. -1.
        -11    1    4    4    0    0  0.18549823044E-01  0.82818667882E-03  0.15458992987E-01  0.24166576367E-01  0.51100000000E-03 0.  1.
         11    1    4    4    0    0  0.95325132963E-01  0.21836857720E-01  0.37400229431E-01  0.10470323592E+00  0.51100000000E-03 0. -1.
</event>
<event>
 8    1  0.1196210E+005  0.1043930E+01  0.7957747E-01            NaN
         13   -1    0    0    0    0  0.00000000000E+00  0.00000000000E+00  0.74505805969E-08  0.10566000000E+00  0.10566000000E+00 0. -1.
     999900   -1    0    0    0    0 -0.00000000000E+00 -0.00000000000E+00 -0.74505805969E-08  0.93827000000E+00  0.93827000000E+00 0.  1.
     999902    2    1    2    0    0  0.12396851516E-01  0.35984976800E-02  0.20373609254E-01  0.10198112300E+01  0.10195259829E+01 0.  0.
     999903    2    3    3    0    0  0.12906324227E+00 -0.66842139389E-03 -0.14025192410E-01  0.13143488469E+00  0.20509890268E-01 0.  0.
         14    1    1    2    0    0 -0.12396851516E-01 -0.35984976800E-02 -0.20373609254E-01  0.24118770016E-01  0.00000000000E+00 0.  1.
     999901    1    3    3    0    0 -0.11666639075E+00  0.42669190739E-02  0.34398801664E-01  0.88837634530E+00  0.88000000000E+00 0.  1.
        -11    1    4    4    0    0  0.98336110365E-01 -0.68135183051E-02 -0.44848097246E-02  0.98675170498E-01  0.51100000000E-03 0.  1.
         11    1    4    4    0    0  0.30727131901E-01  0.61450969112E-02 -0.95403826853E-02  0.32759714188E-01  0.51100000000E-03 0. -1.
</event>
<event>
 8    1  0.1196210E+005  0.1043930E+01  0.7957747E-01            NaN
         13   -1    0    0    0    0  0.00000000000E+00  0.00000000000E+00  0.74505805969E-08  0.10566000000E+00  0.10566000000E+00 0.  1.
     999900   -1    0    0    0    0 -0.00000000000E+00 -0.00000000000E+00 -0.74505805969E-08  0.93827000000E+00  0.93827000000E+00 0.  1.
     999902    2    1    2    0    0 -0.20856738779E-01 -0.75170063145E-03 -0.99841235032E-02  0.10207945007E+01  0.10205322931E+01 0.  0.
     999903    2    3    3    0    0 -0.25091850657E-01 -0.12442647882E+00  0.27308901755E-01  0.13135413919E+00  0.19914421065E-01 0.  0.
         14    1    1    2    0    0  0.20856738779E-01  0.75170063145E-03  0.99841235032E-02  0.23135499313E-01  0.00000000000E+00 0. -1.
     999901    1    3    3    0    0  0.42351118776E-02  0.12367477819E+00 -0.37293025258E-01  0.88944036150E+00  0.88000000000E+00 0. -1.
        -11    1    4    4    0    0 -0.16617897575E-01 -0.80253217770E-01  0.78115188388E-02  0.82328697486E-01  0.51100000000E-03 0. -1.
         11    1    4    4    0    0 -0.84739530819E-02 -0.44173261047E-01  0.19497382916E-01  0.49025441701E-01  0.51100000000E-03 0.  1.
</event>
<event>
 8    1  0.1196210E+005  0.1043930E+01  0.7957747E-01            NaN
         13   -1    0    0    0    0  0.00000000000E+00  0.00000000000E+00  0.74505805969E-08  0.10566000000E+00  0.10566000000E+00 0.  1.
     999900   -1    0    0    0    0 -0.00000000000E+00 -0.00000000000E+00 -0.74505805969E-08  0.93827000000E+00  0.93827000000E+00 0.  1.
     999902    2    1    2    0    0  0.79617728832E-02  0.84093531305E-02 -0.20815959167E-01  0.10201096053E+01  0.10198314545E+01 0.  0.
     999903    2    3    3    0    0 -0.79809402982E-01 -0.96905656734E-01 -0.24928543868E-01  0.12948513676E+00  0.19614311881E-01 0.  0.
         14    1    1    2    0    0 -0.79617728832E-02 -0.84093531305E-02  0.20815959167E-01  0.23820394698E-01  0.00000000000E+00 0.  1.
     999901    1    3    3    0    0  0.87771175865E-01  0.10531500986E+00  0.41125847007E-02  0.89062446854E+00  0.88000000000E+00 0.  1.
        -11    1    4    4    0    0 -0.14709486643E-01 -0.14390660176E-01 -0.11352167901E-01  0.23507295350E-01  0.51100000000E-03 0. -1.
         11    1    4    4    0    0 -0.65099916339E-01 -0.82514996558E-01 -0.13576375967E-01  0.10597784141E+00  0.51100000000E-03 0.  1.
</event>
<event>
 8    1  0.1196210E+005  0.1043930E+01  0.7957747E-01            NaN
         13   -1    0    0    0    0  0.00000000000E+00  0.00000000000E+00  0.74505805969E-08  0.10566000000E+00  0.10566000000E+00 0. -1.
     999900   -1    0    0    0    0 -0.00000000000E+00 -0.00000000000E+00 -0.74505805969E-08  0.93827000000E+00  0.93827000000E+00 0.  1.
     999902    2    1    2    0    0  0.11752735651E-01 -0.17053007604E-01  0.10449866373E-01  0.10207323370E+01  0.10204687022E+01 0.  0.
     999903    2    3    3    0    0  0.44544782637E-01  0.91668415660E-01 -0.76794377659E-01  0.12915663947E+00  0.19917956464E-01 0.  0.
         14    1    1    2    0    0 -0.11752735651E-01  0.17053007604E-01 -0.10449866373E-01  0.23197663047E-01  0.00000000000E+00 0. -1.
     999901    1    3    3    0    0 -0.32792046987E-01 -0.10872142326E+00  0.87244244033E-01  0.89157569748E+00  0.88000000000E+00 0. -1.
        -11    1    4    4    0    0  0.34461243218E-01  0.71252021526E-01 -0.48474866457E-01  0.92814339704E-01  0.51100000000E-03 0.  1.
         11    1    4    4    0    0  0.10083539419E-01  0.20416394134E-01 -0.28319511203E-01  0.36342299768E-01  0.51100000000E-03 0. -1.
</event>
<event>
 8    1  0.1196210E+005  0.1043930E+01  0.7957747E-01            NaN
         13   -1    0    0    0    0  0.00000000000E+00  0.00000000000E+00  0.74505805969E-08  0.10566000000E+00  0.10566000000E+00 0.  1.
     999900   -1    0    0    0    0 -0.00000000000E+00 -0.00000000000E+00 -0.74505805969E-08  0.93827000000E+00  0.93827000000E+00 0.  1.
     999902    2    1    2    0    0  0.34806895509E-02 -0.22974326040E-01  0.35268034586E-02  0.10204273789E+01  0.10201566852E+01 0.  0.
     999903    2    3    3    0    0 -0.89516582725E-02 -0.12308190919E+00  0.47213651580E-01  0.13358769090E+00  0.19678762941E-01 0.  0.
         14    1    1    2    0    0 -0.34806895509E-02  0.22974326040E-01 -0.35268034586E-02  0.23502621117E-01  0.00000000000E+00 0. -1.
     999901    1    3    3    0    0  0.12432347823E-01  0.10010758315E+00 -0.43686848121E-01  0.88683968798E+00  0.88000000000E+00 0.  1.
        -11    1    4    4    0    0  0.34961479733E-02 -0.76911410460E-01  0.32311421931E-01  0.83497767741E-01  0.51100000000E-03 0.  1.
         11    1    4    4    0    0 -0.12447806246E-01 -0.46170498726E-01  0.14902229649E-01  0.50089923163E-01  0.51100000000E-03 0. -1.
</event>
<event>
 8    1  0.1196210E+005  0.1043930E+01  0.7957747E-01            NaN
         13   -1    0    0    0    0  0.00000000000E+00  0.00000000000E+00  0.74505805969E-08  0.10566000000E+00  0.10566000000E+00 0. -1.
     999900   -1    0    0    0    0 -0.00000000000E+00 -0.00000000000E+00 -0.74505805969E-08  0.93827000000E+00  0.93827000000E+00 0.  1.
     999902    2    1    2    0    0  0.23045144747E-01  0.32258933109E-03  0.40186061855E-02  0.10205348732E+01  0.10202666786E+01 0.  0.
     999903    2    3    3    0    0 -0.34466416565E-01 -0.11850989564E+00  0.35849072338E-01  0.13011816308E+00  0.20323659616E-01 0.  0.
         14    1    1    2    0    0 -0.23045144747E-01 -0.32258933109E-03 -0.40186061855E-02  0.23395126757E-01  0.00000000000E+00 0.  1.
     999901    1    3    3    0    0  0.57511561313E-01  0.11883248497E+00 -0.31830466153E-01  0.89041671017E+00  0.88000000000E+00 0. -1.
        -11    1    4    4    0    0 -0.19925408806E-01 -0.41483739727E-01  0.68145572291E-02  0.46525497193E-01  0.51100000000E-03 0.  1.
         11    1    4    4    0    0 -0.14541007759E-01 -0.77026155910E-01  0.29034515109E-01  0.83592665884E-01  0.51100000000E-03 0. -1.
</event>
<event>
 8    1  0.1196210E+005  0.1043930E+01  0.7957747E-01            NaN
         13   -1    0    0    0    0  0.00000000000E+00  0.00000000000E+00  0.74505805969E-08  0.10566000000E+00  0.10566000000E+00 0.  1.
     999900   -1    0    0    0    0 -0.00000000000E+00 -0.00000000000E+00 -0.74505805969E-08  0.93827000000E+00  0.93827000000E+00 0. -1.
     999902    2    1    2    0    0 -0.63029250460E-02  0.78623242482E-02 -0.19734543991E-01  0.10217715878E+01  0.10215312929E+01 0.  0.
     999903    2    3    3    0    0  0.61570722700E-01  0.11256154375E+00 -0.28652880281E-01  0.13292497818E+00  0.19672499859E-01 0.  0.
         14    1    1    2    0    0  0.63029250460E-02 -0.78623242482E-02  0.19734543991E-01  0.22158412246E-01  0.00000000000E+00 0.  1.
     999901    1    3    3    0    0 -0.67873647746E-01 -0.10469921950E+00  0.89183362898E-02  0.88884660957E+00  0.88000000000E+00 0.  1.
        -11    1    4    4    0    0  0.21739677358E-01  0.57977484700E-01 -0.18253617821E-01  0.64555851697E-01  0.51100000000E-03 0.  1.
         11    1    4    4    0    0  0.39831045343E-01  0.54584059053E-01 -0.10399262460E-01  0.68369126486E-01  0.51100000000E-03 0. -1.
</event>
<event>
 8    1  0.1196210E+005  0.1043930E+01  0.7957747E-01            NaN
         13   -1    0    0    0    0  0.00000000000E+00  0.00000000000E+00  0.74505805969E-08  0.10566000000E+00  0.10566000000E+00 0.  1.
     999900   -1    0    0    0    0 -0.00000000000E+00 -0.00000000000E+00 -0.74505805969E-08  0.93827000000E+00  0.93827000000E+00 0.  1.
     999902    2    1    2    0    0  0.73189740835E-02  0.17561350979E-01 -0.11323724037E-01  0.10217896487E+01  0.10215497497E+01 0.  0.
     999903    2    3    3    0    0  0.10779337598E+00  0.41436048139E-01 -0.65372952446E-01  0.13410365371E+00  0.19334141745E-01 0.  0.
         14    1    1    2    0    0 -0.73189740835E-02 -0.17561350979E-01  0.11323724037E-01  0.22140351305E-01  0.00000000000E+00 0.  1.
     999901    1    3    3    0    0 -0.10047440189E+00 -0.23874697161E-01  0.54049228410E-01  0.88768599498E+00  0.88000000000E+00 0. -1.
        -11    1    4    4    0    0  0.79486153257E-02  0.13033940946E-02 -0.10696863935E-01  0.13400124657E-01  0.51100000000E-03 0.  1.
         11    1    4    4    0    0  0.99844760651E-01  0.40132654045E-01 -0.54676088511E-01  0.12070352905E+00  0.51100000000E-03 0. -1.
</event>
<event>
 8    1  0.1196210E+005  0.1043930E+01  0.7957747E-01            NaN
         13   -1    0    0    0    0  0.00000000000E+00  0.00000000000E+00  0.74505805969E-08  0.10566000000E+00  0.10566000000E+00 0. -1.
     999900   -1    0    0    0    0 -0.00000000000E+00 -0.00000000000E+00 -0.74505805969E-08  0.93827000000E+00  0.93827000000E+00 0. -1.
     999902    2    1    2    0    0 -0.16020844264E-01  0.10727642707E-01 -0.98201817520E-02  0.10222923999E+01  0.10220633861E+01 0.  0.
     999903    2    3    3    0    0 -0.40441306892E-01  0.12550749353E+00  0.12510791590E-01  0.13422176896E+00  0.21710207728E-01 0.  0.
         14    1    1    2    0    0  0.16020844264E-01 -0.10727642707E-01  0.98201817520E-02  0.21637600112E-01  0.00000000000E+00 0. -1.
     999901    1    3    3    0    0  0.24420462628E-01 -0.11477985083E+00 -0.22330973343E-01  0.88807063093E+00  0.88000000000E+00 0.  1.
        -11    1    4    4    0    0 -0.14904961569E-01  0.80512544969E-01  0.66422288431E-02  0.82151129644E-01  0.51100000000E-03 0.  1.
         11    1    4    4    0    0 -0.25536345323E-01  0.44994948565E-01  0.58685627474E-02  0.52070639313E-01  0.51100000000E-03 0. -1.
</event>
<event>
 8    1  0.1196210E+005  0.1043930E+01  0.7957747E-01            NaN
         13   -1    0    0    0    0  0.00000000000E+00  0.00000000000E+00  0.74505805969E-08  0.10566000000E+00  0.10566000000E+00 0. -1.
     999900   -1    0    0    0    0 -0.00000000000E+00 -0.00000000000E+00 -0.74505805969E-08  0.93827000000E+00  0.93827000000E+00 0. -1.
     999902    2    1    2    0    0 -0.62439978406E-02  0.21583983405E-01  0.54985381729E-02  0.10207979925E+01  0.10205358650E+01 0.  0.
     999903    2    3    3    0    0 -0.11195271890E+00  0.67189601616E-01  0.17604603861E-01  0.13321658050E+00  0.19720076242E-01 0.  0.
         14    1    1    2    0    0  0.62439978406E-02 -0.21583983405E-01 -0.54985381729E-02  0.23132007494E-01  0.00000000000E+00 0. -1.
     999901    1    3    3    0    0  0.10570872106E+00 -0.45605618211E-01 -0.12106065688E-01  0.88758141201E+00  0.88000000000E+00 0.  1.
        -11    1    4    4    0    0 -0.60615616661E-01  0.27822475745E-01  0.23112632458E-02  0.66737891775E-01  0.51100000000E-03 0. -1.
         11    1    4    4    0    0 -0.51337102240E-01  0.39367125871E-01  0.15293340615E-01  0.66478688720E-01  0.51100000000E-03 0.  1.
</event>
<event>
 8    1  0.1196210E+005  0.1043930E+01  0.7957747E-01            NaN
         13   -1    0    0    0    0  0.00000000000E+00  0.00000000000E+00  0.74505805969E-08  0.10566000000E+00  0.10566000000E+00 0. -1.
     999900   -1    0    0    0    0 -0.00000000000E+00 -0.00000000000E+00 -0.74505805969E-08  0.93827000000E+00  0.93827000000E+00 0. -1.
     999902    2    1    2    0    0  0.10376680398E-01 -0.85375905500E-03  0.21004634971E-01  0.10204864702E+01  0.10202171517E+01 0.  0.
     999903    2    3    3    0    0 -0.11264064335E+00 -0.15378409413E-01  0.61481940683E-01  0.13088957287E+00  0.20679488541E-01 0.  0.
         14    1    1    2    0    0 -0.10376680398E-01  0.85375905500E-03 -0.21004634971E-01  0.23443529830E-01  0.00000000000E+00 0. -1.
     999901    1    3    3    0    0  0.12301732374E+00  0.14524650358E-01 -0.40477305711E-01  0.88959689730E+00  0.88000000000E+00 0. -1.
        -11    1    4    4    0    0 -0.49844821980E-01 -0.13471308092E-01  0.18871959155E-01  0.54976307472E-01  0.51100000000E-03 0. -1.
         11    1    4    4    0    0 -0.62795821367E-01 -0.19071013210E-02  0.42609981527E-01  0.75913265398E-01  0.51100000000E-03 0.  1.
</event>
<event>
 8    1  0.1196210E+005  0.1043930E+01  0.7957747E-01            NaN
         13   -1    0    0    0    0  0.00000000000E+00  0.00000000000E+00  0.74505805969E-08  0.10566000000E+00  0.10566000000E+00 0.  1.
     999900   -1    0    0    0    0 -0.00000000000E+00 -0.00000000000E+00 -0.74505805969E-08  0.93827000000E+00  0.93827000000E+00 0. -1.
     999902    2    1    2    0    0  0.18657472017E-01  0.12511438040E-01 -0.24787875065E-02  0.10213295192E+01  0.10210794313E+01 0.  0.
     999903    2    3    3    0    0 -0.11260620709E+00 -0.52838425739E-01  0.26618360324E-01  0.12872243760E+00  0.19719830792E-01 0.  0.
         14    1    1    2    0    0 -0.18657472017E-01 -0.12511438040E-01  0.24787875065E-02  0.22600480778E-01  0.00000000000E+00 0.  1.
     999901    1    3    3    0    0  0.13126367910E+00  0.65349863779E-01 -0.29097147831E-01  0.89260708162E+00  0.88000000000E+00 0. -1.
        -11    1    4    4    0    0 -0.89419974681E-01 -0.38852102046E-01  0.12848423536E-01  0.98340026508E-01  0.51100000000E-03 0.  1.
         11    1    4    4    0    0 -0.23186232407E-01 -0.13986323694E-01  0.13769936788E-01  0.30382411093E-01  0.51100000000E-03 0. -1.
</event>
<event>
 8    1  0.1196210E+005  0.1043930E+01  0.7957747E-01            NaN
         13   -1    0    0    0    0  0.00000000000E+00  0.00000000000E+00  0.74505805969E-08  0.10566000000E+00  0.10566000000E+00 0.  1.
     999900   -1    0    0    0    0 -0.00000000000E+00 -0.00000000000E+00 -0.74505805969E-08  0.93827000000E+00  0.93827000000E+00 0.  1.
     999902    2    1    2    0    0  0.89085213910E-02 -0.17021249822E-01  0.11574398764E-01  0.10215011925E+01  0.10212549314E+01 0.  0.
     999903    2    3    3    0    0  0.64526742493E-01 -0.10378616580E+00  0.52535320204E-01  0.13454046381E+00  0.20147154253E-01 0.  0.
         14    1    1    2    0    0 -0.89085213910E-02  0.17021249822E-01 -0.11574398764E-01  0.22428807494E-01  0.00000000000E+00 0. -1.
     999901    1    3    3    0    0 -0.55618221102E-01  0.86764915981E-01 -0.40960921440E-01  0.88696072870E+00  0.88000000000E+00 0.  1.
        -11    1    4    4    0    0  0.12091310411E-01 -0.36966217896E-01  0.17725265671E-01  0.42745142614E-01  0.51100000000E-03 0. -1.
         11    1    4    4    0    0  0.52435432081E-01 -0.66819947907E-01  0.34810054532E-01  0.91795321196E-01  0.51100000000E-03 0.  1.
</event>
<event>
 8    1  0.1196210E+005  0.1043930E+01  0.7957747E-01            NaN
         13   -1    0    0    0    0  0.00000000000E+00  0.00000000000E+00  0.74505805969E-08  0.10566000000E+00  0.10566000000E+00 0. -1.
     999900   -1    0    0    0    0 -0.00000000000E+00 -0.00000000000E+00 -0.74505805969E-08  0.93827000000E+00  0.93827000000E+00 0.  1.
     999902    2    1    2    0    0 -0.17752000963E-01  0.54984682551E-02 -0.12494086011E-01  0.10215364992E+01  0.10212910214E+01 0.  0.
     999903    2    3    3    0    0  0.96767287650E-01  0.19172188958E-01 -0.83932220999E-01  0.13114049451E+00  0.20536085046E-01 0.  0.
         14    1    1    2    0    0  0.17752000963E-01 -0.54984682551E-02  0.12494086011E-01  0.22393500767E-01  0.00000000000E+00 0. -1.
     999901    1    3    3    0    0 -0.11451928861E+00 -0.13673720703E-01  0.71438134988E-01  0.89039600473E+00  0.88000000000E+00 0. -1.
        -11    1    4    4    0    0  0.63064838902E-01  0.36293784802E-02 -0.58906267505E-01  0.86374508776E-01  0.51100000000E-03 0. -1.
         11    1    4    4    0    0  0.33702448748E-01  0.15542810478E-01 -0.25025953494E-01  0.44765985730E-01  0.51100000000E-03 0.  1.
</event>
<event>
 8    1  0.1196210E+005  0.1043930E+01  0.7957747E-01            NaN
         13   -1    0    0    0    0  0.00000000000E+00  0.00000000000E+00  0.74505805969E-08  0.10566000000E+00  0.10566000000E+00 0.  1.
     999900   -1    0    0    0    0 -0.00000000000E+00 -0.00000000000E+00 -0.74505805969E-08  0.93827000000E+00  0.93827000000E+00 0.  1.
     999902    2    1    2    0    0 -0.80991889396E-02 -0.16038505951E-01  0.13152622651E-01  0.10216629387E+01  0.10214202555E+01 0.  0.
     999903    2    3    3    0    0 -0.10562018614E-01 -0.12671408966E+00  0.38905154651E-01  0.13435332915E+00  0.19214297827E-01 0.  0.
         14    1    1    2    0    0  0.80991889396E-02  0.16038505951E-01 -0.13152622651E-01  0.22267061261E-01  0.00000000000E+00 0. -1.
     999901    1    3    3    0    0  0.24628296747E-02  0.11067558371E+00 -0.25752532000E-01  0.88730960959E+00  0.88000000000E+00 0.  1.
        -11    1    4    4    0    0  0.23977381451E-02 -0.61179682537E-01  0.24884672771E-01  0.66092441047E-01  0.51100000000E-03 0. -1.
         11    1    4    4    0    0 -0.12959756759E-01 -0.65534407121E-01  0.14020481880E-01  0.68260888107E-01  0.51100000000E-03 0.  1.
</event>
<event>
 8    1  0.1196210E+005  0.1043930E+01  0.7957747E-01            NaN
         13   -1    0    0    0    0  0.00000000000E+00  0.00000000000E+00  0.74505805969E-08  0.10566000000E+00  0.10566000000E+00 0. -1.
     999900   -1    0    0    0    0 -0.00000000000E+00 -0.00000000000E+00 -0.74505805969E-08  0.93827000000E+00  0.93827000000E+00 0. -1.
     999902    2    1    2    0    0  0.21464865024E-02 -0.18143312359E-01  0.14796400280E-01  0.10204199883E+01  0.10201491224E+01 0.  0.
     999903    2    3    3    0    0 -0.11339618672E+00 -0.47552598390E-01  0.43198731982E-01  0.13192592088E+00  0.20454177534E-01 0.  0.
         14    1    1    2    0    0 -0.21464865024E-02  0.18143312359E-01 -0.14796400280E-01  0.23510011674E-01  0.00000000000E+00 0. -1.
     999901    1    3    3    0    0  0.11554267322E+00  0.29409286031E-01 -0.28402331702E-01  0.88849406745E+00  0.88000000000E+00 0.  1.
        -11    1    4    4    0    0 -0.31617895873E-01 -0.84139710606E-02  0.33541275522E-02  0.32893731030E-01  0.51100000000E-03 0.  1.
         11    1    4    4    0    0 -0.81778290849E-01 -0.39138627330E-01  0.39844604430E-01  0.99032189850E-01  0.51100000000E-03 0. -1.
</event>
<event>
 8    1  0.1196210E+005  0.1043930E+01  0.7957747E-01            NaN
         13   -1    0    0    0    0  0.00000000000E+00  0.00000000000E+00  0.74505805969E-08  0.10566000000E+00  0.10566000000E+00 0. -1.
     999900   -1    0    0    0    0 -0.00000000000E+00 -0.00000000000E+00 -0.74505805969E-08  0.93827000000E+00  0.93827000000E+00 0.  1.
     999902    2    1    2    0    0  0.19014465499E-01 -0.11493314142E-01 -0.78588897953E-02  0.10203628976E+01  0.10200906991E+01 0.  0.
     999903    2    3    3    0    0  0.47418911298E-01  0.15166942453E-01  0.11882533913E+00  0.13043791439E+00  0.20396053555E-01 0.  0.
         14    1    1    2    0    0 -0.19014465499E-01  0.11493314142E-01  0.78588897953E-02  0.23567102431E-01  0.00000000000E+00 0. -1.
     999901    1    3    3    0    0 -0.28404445800E-01 -0.26660256595E-01 -0.12668422892E+00  0.88992498318E+00  0.88000000000E+00 0.  1.
        -11    1    4    4    0    0  0.64750281801E-02  0.24347590722E-02  0.40985020853E-01  0.41567861347E-01  0.51100000000E-03 0. -1.
         11    1    4    4    0    0  0.40943883118E-01  0.12732183381E-01  0.77840318274E-01  0.88870053046E-01  0.51100000000E-03 0.  1.
</event>
<event>
 8    1  0.1196210E+005  0.1043930E+01  0.7957747E-01            NaN
         13   -1    0    0    0    0  0.00000000000E+00  0.00000000000E+00  0.74505805969E-08  0.10566000000E+00  0.10566000000E+00 0.  1.
     999900   -1    0    0    0    0 -0.00000000000E+00 -0.00000000000E+00 -0.74505805969E-08  0.93827000000E+00  0.93827000000E+00 0. -1.
     999902    2    1    2    0    0 -0.17653603135E-01  0.14829555777E-01 -0.51559599738E-02  0.10203048153E+01  0.10200312578E+01 0.  0.
     999903    2    3    3    0    0 -0.21777027598E-01  0.20038025134E-02  0.12667791736E+00  0.13038253006E+00  0.21772809720E-01 0.  0.
         14    1    1    2    0    0  0.17653603135E-01 -0.14829555777E-01  0.51559599738E-02  0.23625184686E-01  0.00000000000E+00 0. -1.
     999901    1    3    3    0    0  0.41234244628E-02  0.12825753263E-01 -0.13183387733E+00  0.88992228525E+00  0.88000000000E+00 0. -1.
        -11    1    4    4    0    0 -0.71225416541E-02  0.11164105431E-01  0.64385897391E-01  0.65735627733E-01  0.51100000000E-03 0. -1.
         11    1    4    4    0    0 -0.14654485944E-01 -0.91603029172E-02  0.62292019969E-01  0.64646902328E-01  0.51100000000E-03 0.  1.
</event>
<event>
 8    1  0.1196210E+005  0.1043930E+01  0.7957747E-01            NaN
         13   -1    0    0    0    0  0.00000000000E+00  0.00000000000E+00  0.74505805969E-08  0.10566000000E+00  0.10566000000E+00 0. -1.
     999900   -1    0    0    0    0 -0.00000000000E+00 -0.00000000000E+00 -0.74505805969E-08  0.93827000000E+00  0.93827000000E+00 0.  1.
     999902    2    1    2    0    0 -0.30157705078E-02  0.39295139174E-02 -0.22147878454E-01  0.10212349681E+01  0.10209827597E+01 0.  0.
     999903    2    3    3    0    0  0.55216124265E-01 -0.11450120520E+00  0.21231168059E-01  0.13033736994E+00  0.19435049092E-01 0.  0.
         14    1    1    2    0    0  0.30157705078E-02 -0.39295139174E-02  0.22147878454E-01  0.22695031866E-01  0.00000000000E+00 0. -1.
     999901    1    3    3    0    0 -0.58231894773E-01  0.11843071912E+00 -0.43379046514E-01  0.89089759820E+00  0.88000000000E+00 0.  1.
        -11    1    4    4    0    0  0.36172791355E-01 -0.91465155502E-01  0.12218239286E-01  0.99115548718E-01  0.51100000000E-03 0. -1.
         11    1    4    4    0    0  0.19043332910E-01 -0.23036049699E-01  0.90129287740E-02  0.31221821218E-01  0.51100000000E-03 0.  1.
</event>
<event>
 8    1  0.1196210E+005  0.1043930E+01  0.7957747E-01            NaN
         13   -1    0    0    0    0  0.00000000000E+00  0.00000000000E+00  0.74505805969E-08  0.10566000000E+00  0.10566000000E+00 0.  1.
     999900   -1    0    0    0    0 -0.00000000000E+00 -0.00000000000E+00 -0.74505805969E-08  0.93827000000E+00  0.93827000000E+00 0. -1.
     999902    2    1    2    0    0  0.19311796912E-02  0.21991858676E-01  0.76009880329E-02  0.10205816313E+01  0.10203145200E+01 0.  0.
     999903    2    3    3    0    0  0.32828592762E-01 -0.11789152640E+00  0.31024067770E-01  0.12869001666E+00  0.24949932003E-01 0.  0.
         14    1    1    2    0    0 -0.19311796912E-02 -0.21991858676E-01 -0.76009880329E-02  0.23348368724E-01  0.00000000000E+00 0. -1.
     999901    1    3    3    0    0 -0.30897413071E-01  0.13988338508E+00 -0.23423079737E-01  0.89189161461E+00  0.88000000000E+00 0. -1.
        -11    1    4    4    0    0  0.26499268872E-01 -0.71077864892E-01  0.84389907796E-02  0.76326612755E-01  0.51100000000E-03 0. -1.
         11    1    4    4    0    0  0.63293238905E-02 -0.46813661511E-01  0.22585076990E-01  0.52363403906E-01  0.51100000000E-03 0.  1.
</event>
<event>
 8    1  0.1196210E+005  0.1043930E+01  0.7957747E-01            NaN
         13   -1    0    0    0    0  0.00000000000E+00  0.00000000000E+00  0.74505805969E-08  0.10566000000E+00  0.10566000000E+00 0. -1.
     999900   -1    0    0    0    0 -0.00000000000E+00 -0.00000000000E+00 -0.74505805969E-08  0.93827000000E+00  0.93827000000E+00 0. -1.
     999902    2    1    2    0    0 -0.14198726333E-01 -0.44850266580E-02 -0.14127217781E-01  0.10234044653E+01  0.10231986132E+01 0.  0.
     999903    2    3    3    0    0 -0.10374744510E+00 -0.30007968780E-01  0.76597746041E-01  0.13385322298E+00  0.19633136497E-01 0.  0.
         14    1    1    2    0    0  0.14198726333E-01  0.44850266580E-02  0.14127217781E-01  0.20525534727E-01  0.00000000000E+00 0.  1.
     999901    1    3    3    0    0  0.89548718764E-01  0.25522942122E-01 -0.90724963822E-01  0.88955124229E+00  0.88000000000E+00 0. -1.
        -11    1    4    4    0    0 -0.61117995454E-01 -0.26076626062E-01  0.40238179018E-01  0.77683794750E-01  0.51100000000E-03 0. -1.
         11    1    4    4    0    0 -0.42629449643E-01 -0.39313427188E-02  0.36359567023E-01  0.56169428228E-01  0.51100000000E-03 0.  1.
</event>
<event>
 8    1  0.1196210E+005  0.1043930E+01  0.7957747E-01            NaN
         13   -1    0    0    0    0  0.00000000000E+00  0.00000000000E+00  0.74505805969E-08  0.10566000000E+00  0.10566000000E+00 0. -1.
     999900   -1    0    0    0    0 -0.00000000000E+00 -0.00000000000E+00 -0.74505805969E-08  0.93827000000E+00  0.93827000000E+00 0.  1.
     999902    2    1    2    0    0  0.18026560586E-01 -0.45612976220E-02  0.16156114473E-01  0.10192970473E+01  0.10189993564E+01 0.  0.
     999903    2    3    3    0    0 -0.75453835569E-01 -0.13100777299E-01 -0.98962226439E-01  0.12684887539E+00  0.20789498742E-01 0.  0.
         14    1    1    2    0    0 -0.18026560586E-01  0.45612976220E-02 -0.16156114473E-01  0.24632952673E-01  0.00000000000E+00 0. -1.
     999901    1    3    3    0    0  0.93480396155E-01  0.85394796774E-02  0.11511834091E+00  0.89244817194E+00  0.88000000000E+00 0. -1.
        -11    1    4    4    0    0 -0.39498095896E-01 -0.99837582787E-02 -0.68107157814E-01  0.79363852447E-01  0.51100000000E-03 0.  1.
         11    1    4    4    0    0 -0.35955739673E-01 -0.31170190206E-02 -0.30855068626E-01  0.47485022943E-01  0.51100000000E-03 0. -1.
</event>
<event>
 8    1  0.1196210E+005  0.1043930E+01  0.7957747E-01            NaN
         13   -1    0    0    0    0  0.00000000000E+00  0.00000000000E+00  0.74505805969E-08  0.10566000000E+00  0.10566000000E+00 0. -1.
     999900   -1    0    0    0    0 -0.00000000000E+00 -0.00000000000E+00 -0.74505805969E-08  0.93827000000E+00  0.93827000000E+00 0. -1.
     999902    2    1    2    0    0  0.56581772906E-02 -0.21981331684E-01  0.75689894096E-02  0.10200033723E+01  0.10197227054E+01 0.  0.
     999903    2    3    3    0    0  0.44925847928E-01  0.10620621247E+00  0.53820311533E-01  0.12864868350E+00  0.18861772298E-01 0.  0.
         14    1    1    2    0    0 -0.56581772906E-02  0.21981331684E-01 -0.75689894096E-02  0.23926627709E-01  0.00000000000E+00 0.  1.
     999901    1    3    3    0    0 -0.39267670637E-01 -0.12818754415E+00 -0.46251322123E-01  0.89135468879E+00  0.88000000000E+00 0. -1.
        -11    1    4    4    0    0  0.40383549447E-01  0.75124497848E-01  0.42109532697E-01  0.95120949889E-01  0.51100000000E-03 0.  1.
         11    1    4    4    0    0  0.45422984803E-02  0.31081714618E-01  0.11710778836E-01  0.33527733610E-01  0.51100000000E-03 0. -1.
</event>
<event>
 8    1  0.1196210E+005  0.1043930E+01  0.7957747E-01            NaN
         13   -1    0    0    0    0  0.00000000000E+00  0.00000000000E+00  0.74505805969E-08  0.10566000000E+00  0.10566000000E+00 0.  1.
     999900   -1    0    0    0    0 -0.00000000000E+00 -0.00000000000E+00 -0.74505805969E-08  0.93827000000E+00  0.93827000000E+00 0.  1.
     999902    2    1    2    0    0  0.11426439741E-01 -0.20375402046E-01  0.41346791442E-03  0.10205656791E+01  0.10202981985E+01 0.  0.
     999903    2    3    3    0    0 -0.38197475234E-01 -0.11488294317E+00  0.50770407522E-01  0.13268616612E+00  0.19257379205E-01 0.  0.
         14    1    1    2    0    0 -0.11426439741E-01  0.20375402046E-01 -0.41346791442E-03  0.23364320863E-01  0.00000000000E+00 0. -1.
     999901    1    3    3    0    0  0.49623914976E-01  0.94507541126E-01 -0.50356939608E-01  0.88787951302E+00  0.88000000000E+00 0.  1.
        -11    1    4    4    0    0 -0.11951669596E-01 -0.46370606473E-01  0.10630516066E-01  0.49054505844E-01  0.51100000000E-03 0.  1.
         11    1    4    4    0    0 -0.26245805638E-01 -0.68512336699E-01  0.40139891456E-01  0.83631660277E-01  0.51100000000E-03 0. -1.
</event>
<event>
 8    1  0.1196210E+005  0.1043930E+01  0.7957747E-01            NaN
         13   -1    0    0    0    0  0.00000000000E+00  0.00000000000E+00  0.74505805969E-08  0.10566000000E+00  0.10566000000E+00 0. -1.
     999900   -1    0    0    0    0 -0.00000000000E+00 -0.00000000000E+00 -0.74505805969E-08  0.93827000000E+00  0.93827000000E+00 0.  1.
     999902    2    1    2    0    0  0.14683705865E-01  0.13050705130E-01  0.15408849219E-01  0.10189627263E+01  0.10186567983E+01 0.  0.
     999903    2    3    3    0    0 -0.34574471408E-01  0.11935587407E+00 -0.32898471249E-01  0.12988412786E+00  0.18610709586E-01 0.  0.
         14    1    1    2    0    0 -0.14683705865E-01 -0.13050705130E-01 -0.15408849219E-01  0.24967273711E-01  0.00000000000E+00 0.  1.
     999901    1    3    3    0    0  0.49258177273E-01 -0.10630516894E+00  0.48307320469E-01  0.88907859843E+00  0.88000000000E+00 0. -1.
        -11    1    4    4    0    0  0.23185505069E-03  0.21044057058E-01 -0.89625404257E-02  0.22879998822E-01  0.51100000000E-03 0. -1.
         11    1    4    4    0    0 -0.34806326459E-01  0.98311817013E-01 -0.23935930824E-01  0.10700412904E+00  0.51100000000E-03 0.  1.
</event>
<event>
 8    1  0.1196210E+005  0.1043930E+01  0.7957747E-01            NaN
         13   -1    0    0    0    0  0.00000000000E+00  0.00000000000E+00  0.74505805969E-08  0.10566000000E+00  0.10566000000E+00 0.  1.
     999900   -1    0    0    0    0 -0.00000000000E+00 -0.00000000000E+00 -0.74505805969E-08  0.93827000000E+00  0.93827000000E+00 0. -1.
     999902    2    1    2    0    0 -0.13503462530E-01 -0.19747040226E-01 -0.24000901515E-02  0.10198873394E+01  0.10196039111E+01 0.  0.
     999903    2    3    3    0    0  0.10929710567E-01  0.12323577948E+00 -0.23361372890E-01  0.12776602359E+00  0.21722963027E-01 0.  0.
         14    1    1    2    0    0  0.13503462530E-01  0.19747040226E-01  0.24000901515E-02  0.24042660641E-01  0.00000000000E+00 0.  1.
     999901    1    3    3    0    0 -0.24433173097E-01 -0.14298281971E+00  0.20961282739E-01  0.89212131577E+00  0.88000000000E+00 0. -1.
        -11    1    4    4    0    0  0.86539266866E-02  0.53679360873E-01 -0.20502641628E-01  0.58111820360E-01  0.51100000000E-03 0. -1.
         11    1    4    4    0    0  0.22757838807E-02  0.69556418608E-01 -0.28587312627E-02  0.69654203228E-01  0.51100000000E-03 0.  1.
</event>
<event>
 8    1  0.1196210E+005  0.1043930E+01  0.7957747E-01            NaN
         13   -1    0    0    0    0  0.00000000000E+00  0.00000000000E+00  0.74505805969E-08  0.10566000000E+00  0.10566000000E+00 0.  1.
     999900   -1    0    0    0    0 -0.00000000000E+00 -0.00000000000E+00 -0.74505805969E-08  0.93827000000E+00  0.93827000000E+00 0.  1.
     999902    2    1    2    0    0 -0.59363996888E-02 -0.48658002328E-02  0.22347301799E-01  0.10203012304E+01  0.10200275889E+01 0.  0.
     999903    2    3    3    0    0 -0.51307156720E-01  0.88133333637E-01  0.81350461903E-01  0.13227605208E+00  0.21889437507E-01 0.  0.
         14    1    1    2    0    0  0.59363996888E-02  0.48658002328E-02 -0.22347301799E-01  0.23628769559E-01  0.00000000000E+00 0. -1.
     999901    1    3    3    0    0  0.45370757031E-01 -0.92999133870E-01 -0.59003160104E-01  0.88802517836E+00  0.88000000000E+00 0.  1.
        -11    1    4    4    0    0 -0.31366199588E-01  0.67988061684E-01  0.50151086158E-01  0.90119962117E-01  0.51100000000E-03 0. -1.
         11    1    4    4    0    0 -0.19940957132E-01  0.20145271953E-01  0.31199375745E-01  0.42156089967E-01  0.51100000000E-03 0.  1.
</event>
<event>
 8    1  0.1196210E+005  0.1043930E+01  0.7957747E-01            NaN
         13   -1    0    0    0    0  0.00000000000E+00  0.00000000000E+00  0.74505805969E-08  0.10566000000E+00  0.10566000000E+00 0. -1.
     999900   -1    0    0    0    0 -0.00000000000E+00 -0.00000000000E+00 -0.74505805969E-08  0.93827000000E+00  0.93827000000E+00 0.  1.
     999902    2    1    2    0    0  0.74352191257E-02 -0.53522274959E-02  0.21354781814E-01  0.10206930568E+01  0.10204285182E+01 0.  0.
     999903    2    3    3    0    0 -0.83131113485E-01 -0.72864336828E-01 -0.64231780114E-01  0.12935406120E+00  0.19666162858E-01 0.  0.
         14    1    1    2    0    0 -0.74352191257E-02  0.53522274959E-02 -0.21354781814E-01  0.23236943193E-01  0.00000000000E+00 0.  1.
     999901    1    3    3    0    0  0.90566332610E-01  0.67512109332E-01  0.85586561928E-01  0.89133899561E+00  0.88000000000E+00 0.  1.
        -11    1    4    4    0    0 -0.38029468996E-01 -0.46141963258E-01 -0.32158898176E-01  0.67895339592E-01  0.51100000000E-03 0.  1.
         11    1    4    4    0    0 -0.45101644489E-01 -0.26722373570E-01 -0.32072881938E-01  0.61458721607E-01  0.51100000000E-03 0. -1.
</event>
<event>
 8    1  0.1196210E+005  0.1043930E+01  0.7957747E-01            NaN
         13   -1    0    0    0    0  0.00000000000E+00  0.00000000000E+00  0.74505805969E-08  0.10566000000E+00  0.10566000000E+00 0.  1.
     999900   -1    0    0    0    0 -0.00000000000E+00 -0.00000000000E+00 -0.74505805969E-08  0.93827000000E+00  0.93827000000E+00 0.  1.
     999902    2    1    2    0    0  0.15967501597E-01  0.20383325751E-02  0.16784872103E-01  0.10206738645E+01  0.10204088836E+01 0.  0.
     999903    2    3    3    0    0 -0.10984341616E+00  0.43101164286E-01 -0.46403171445E-01  0.12853751168E+00  0.21103344572E-01 0.  0.
         14    1    1    2    0    0 -0.15967501597E-01 -0.20383325751E-02 -0.16784872103E-01  0.23256135502E-01  0.00000000000E+00 0. -1.
     999901    1    3    3    0    0  0.12581091776E+00 -0.41062831711E-01  0.63188043548E-01  0.89213635282E+00  0.88000000000E+00 0. -1.
        -11    1    4    4    0    0 -0.42345339404E-01  0.27066084217E-01 -0.23451881602E-01  0.55461270773E-01  0.51100000000E-03 0. -1.
         11    1    4    4    0    0 -0.67498076755E-01  0.16035080069E-01 -0.22951289842E-01  0.73076240906E-01  0.51100000000E-03 0.  1.
</event>
<event>
 8    1  0.1196210E+005  0.1043930E+01  0.7957747E-01            NaN
         13   -1    0    0    0    0  0.00000000000E+00  0.00000000000E+00  0.74505805969E-08  0.10566000000E+00  0.10566000000E+00 0.  1.
     999900   -1    0    0    0    0 -0.00000000000E+00 -0.00000000000E+00 -0.74505805969E-08  0.93827000000E+00  0.93827000000E+00 0.  1.
     999902    2    1    2    0    0 -0.49718946625E-02  0.27905050287E-03  0.19696071489E-01  0.10236141727E+01  0.10234125472E+01 0.  0.
     999903    2    3    3    0    0  0.35318209178E-01 -0.29114521229E-01 -0.12117437195E+00  0.13101585525E+00  0.19669638105E-01 0.  0.
         14    1    1    2    0    0  0.49718946625E-02 -0.27905050287E-03 -0.19696071489E-01  0.20315827274E-01  0.00000000000E+00 0. -1.
     999901    1    3    3    0    0 -0.40290103841E-01  0.29393571732E-01  0.14087044344E+00  0.89259831748E+00  0.88000000000E+00 0. -1.
        -11    1    4    4    0    0  0.25470878738E-01 -0.25965829236E-01 -0.10964425426E+00  0.11552105248E+00  0.51100000000E-03 0. -1.
         11    1    4    4    0    0  0.98473304399E-02 -0.31486919933E-02 -0.11530117689E-01  0.15494802773E-01  0.51100000000E-03 0.  1.
</event>
<event>
 8    1  0.1196210E+005  0.1043930E+01  0.7957747E-01            NaN
         13   -1    0    0    0    0  0.00000000000E+00  0.00000000000E+00  0.74505805969E-08  0.10566000000E+00  0.10566000000E+00 0.  1.
     999900   -1    0    0    0    0 -0.00000000000E+00 -0.00000000000E+00 -0.74505805969E-08  0.93827000000E+00  0.93827000000E+00 0.  1.
     999902    2    1    2    0    0  0.89591699433E-02  0.32859086141E-02  0.21402652651E-01  0.10204963178E+01  0.10202272282E+01 0.  0.
     999903    2    3    3    0    0  0.10832678741E+00 -0.46269610004E-03  0.74922465623E-01  0.13328025289E+00  0.20379965589E-01 0.  0.
         14    1    1    2    0    0 -0.89591699433E-02 -0.32859086141E-02 -0.21402652651E-01  0.23433682211E-01  0.00000000000E+00 0. -1.
     999901    1    3    3    0    0 -0.99367617463E-01  0.37486047142E-02 -0.53519812972E-01  0.88721606490E+00  0.88000000000E+00 0.  1.
        -11    1    4    4    0    0  0.66498561542E-01 -0.17750841647E-02  0.33849333206E-01  0.74640793742E-01  0.51100000000E-03 0.  1.
         11    1    4    4    0    0  0.41828225865E-01  0.13123880646E-02  0.41073132417E-01  0.58639459146E-01  0.51100000000E-03 0. -1.
</event>
<event>
 8    1  0.1196210E+005  0.1043930E+01  0.7957747E-01            NaN
         13   -1    0    0    0    0  0.00000000000E+00  0.00000000000E+00  0.74505805969E-08  0.10566000000E+00  0.10566000000E+00 0.  1.
     999900   -1    0    0    0    0 -0.00000000000E+00 -0.00000000000E+00 -0.74505805969E-08  0.93827000000E+00  0.93827000000E+00 0. -1.
     999902    2    1    2    0    0  0.23087830653E-01 -0.73383429835E-03 -0.18457125603E-02  0.10207568886E+01  0.10204938180E+01 0.  0.
     999903    2    3    3    0    0 -0.36390543893E-01 -0.74032956687E-01  0.98492113119E-01  0.13003913440E+00  0.20107952885E-01 0.  0.
         14    1    1    2    0    0 -0.23087830653E-01  0.73383429835E-03  0.18457125603E-02  0.23173111398E-01  0.00000000000E+00 0.  1.
     999901    1    3    3    0    0  0.59478374545E-01  0.73299122388E-01 -0.10033782568E+00  0.89071775420E+00  0.88000000000E+00 0. -1.
        -11    1    4    4    0    0 -0.24900313850E-01 -0.29755059144E-01  0.51184743552E-01  0.64230275322E-01  0.51100000000E-03 0.  1.
         11    1    4    4    0    0 -0.11490230043E-01 -0.44277897543E-01  0.47307369567E-01  0.65808859081E-01  0.51100000000E-03 0. -1.
</event>
<event>
 8    1  0.1231535E+005  0.1043930E+01  0.7957747E-01            NaN
         13   -1    0    0    0    0  0.00000000000E+00  0.00000000000E+00  0.74505805969E-08  0.10566000000E+00  0.10566000000E+00 0.  1.
     999900   -1    0    0    0    0 -0.00000000000E+00 -0.00000000000E+00 -0.74505805969E-08  0.93827000000E+00  0.93827000000E+00 0. -1.
     999902    2    1    2    0    0  0.16047111882E-02  0.10023108770E-01 -0.28801447490E-01  0.10133921352E+01  0.10129319121E+01 0.  0.
     999903    2    3    3    0    0 -0.11541572966E+00  0.25866029317E-02 -0.44804515616E-01  0.12547030117E+00  0.20195808695E-01 0.  0.
         14    1    1    2    0    0 -0.16047111882E-02 -0.10023108770E-01  0.28801447490E-01  0.30537864774E-01  0.00000000000E+00 0.  1.
     999901    1    3    3    0    0  0.11702044085E+00  0.74365058384E-02  0.16003068126E-01  0.88792183405E+00  0.88000000000E+00 0. -1.
        -11    1    4    4    0    0 -0.49401540671E-01 -0.87588729801E-02 -0.17581972576E-01  0.53165937942E-01  0.51100000000E-03 0. -1.
         11    1    4    4    0    0 -0.66014188992E-01  0.11345475912E-01 -0.27222543039E-01  0.72304363233E-01  0.51100000000E-03 0.  1.
</event>
<event>
 8    1  0.1196210E+005  0.1043930E+01  0.7957747E-01            NaN
         13   -1    0    0    0    0  0.00000000000E+00  0.00000000000E+00  0.74505805969E-08  0.10566000000E+00  0.10566000000E+00 0. -1.
     999900   -1    0    0    0    0 -0.00000000000E+00 -0.00000000000E+00 -0.74505805969E-08  0.93827000000E+00  0.93827000000E+00 0.  1.
     999902    2    1    2    0    0 -0.23224572096E-01  0.40273263633E-02 -0.15587687432E-02  0.10203073442E+01  0.10200338459E+01 0.  0.
     999903    2    3    3    0    0  0.66678409015E-01  0.71537589743E-01 -0.82384002343E-01  0.12948025658E+00  0.20356228179E-01 0.  0.
         14    1    1    2    0    0  0.23224572096E-01 -0.40273263633E-02  0.15587687432E-02  0.23622655792E-01  0.00000000000E+00 0. -1.
     999901    1    3    3    0    0 -0.89902981111E-01 -0.67510263380E-01  0.80825233600E-01  0.89082708763E+00  0.88000000000E+00 0. -1.
        -11    1    4    4    0    0  0.16033546585E-01  0.16362304917E-01 -0.31423389470E-01  0.38890746522E-01  0.51100000000E-03 0. -1.
         11    1    4    4    0    0  0.50644862430E-01  0.55175284826E-01 -0.50960612873E-01  0.90589510053E-01  0.51100000000E-03 0.  1.
</event>
<event>
 8    1  0.1196210E+005  0.1043930E+01  0.7957747E-01            NaN
         13   -1    0    0    0    0  0.00000000000E+00  0.00000000000E+00  0.74505805969E-08  0.10566000000E+00  0.10566000000E+00 0. -1.
     999900   -1    0    0    0    0 -0.00000000000E+00 -0.00000000000E+00 -0.74505805969E-08  0.93827000000E+00  0.93827000000E+00 0.  1.
     999902    2    1    2    0    0 -0.39549570877E-02  0.90251972456E-02  0.21511747749E-01  0.10202688259E+01  0.10199944244E+01 0.  0.
     999903    2    3    3    0    0 -0.29397609413E-01  0.43222101519E-01 -0.11578551090E+00  0.12860336501E+00  0.20004285996E-01 0.  0.
         14    1    1    2    0    0  0.39549570877E-02 -0.90251972456E-02 -0.21511747749E-01  0.23661174148E-01  0.00000000000E+00 0.  1.
     999901    1    3    3    0    0  0.25442652325E-01 -0.34196904273E-01  0.13729725865E+00  0.89166546084E+00  0.88000000000E+00 0. -1.
        -11    1    4    4    0    0 -0.12396135320E-01  0.11930831979E-01 -0.59983737838E-01  0.62404477793E-01  0.51100000000E-03 0. -1.
         11    1    4    4    0    0 -0.17001474093E-01  0.31291269540E-01 -0.55801773067E-01  0.66198887220E-01  0.51100000000E-03 0.  1.
</event>
<event>
 8    1  0.1196210E+005  0.1043930E+01  0.7957747E-01            NaN
         13   -1    0    0    0    0  0.00000000000E+00  0.00000000000E+00  0.74505805969E-08  0.10566000000E+00  0.10566000000E+00 0. -1.
     999900   -1    0    0    0    0 -0.00000000000E+00 -0.00000000000E+00 -0.74505805969E-08  0.93827000000E+00  0.93827000000E+00 0. -1.
     999902    2    1    2    0    0 -0.49731006296E-02 -0.19993605719E-01 -0.12223778458E-01  0.10199738576E+01  0.10196924896E+01 0.  0.
     999903    2    3    3    0    0 -0.63546699854E-01 -0.72266765228E-01 -0.89639873411E-01  0.13309359425E+00  0.20443324282E-01 0.  0.
         14    1    1    2    0    0  0.49731006296E-02  0.19993605719E-01  0.12223778458E-01  0.23956142413E-01  0.00000000000E+00 0. -1.
     999901    1    3    3    0    0  0.58573599224E-01  0.52273159509E-01  0.77416094953E-01  0.88688026333E+00  0.88000000000E+00 0.  1.
        -11    1    4    4    0    0 -0.46363666129E-01 -0.53982919417E-01 -0.77500405054E-01  0.10521558359E+00  0.51100000000E-03 0. -1.
         11    1    4    4    0    0 -0.17183033725E-01 -0.18283845811E-01 -0.12139468358E-01  0.27878010665E-01  0.51100000000E-03 0.  1.
</event>
<event>
 8    1  0.1196210E+005  0.1043930E+01  0.7957747E-01            NaN
         13   -1    0    0    0    0  0.00000000000E+00  0.00000000000E+00  0.74505805969E-08  0.10566000000E+00  0.10566000000E+00 0. -1.
     999900   -1    0    0    0    0 -0.00000000000E+00 -0.00000000000E+00 -0.74505805969E-08  0.93827000000E+00  0.93827000000E+00 0.  1.
     999902    2    1    2    0    0 -0.59872061521E-02  0.73580194263E-02 -0.20518924628E-01  0.10213243955E+01  0.10210741929E+01 0.  0.
     999903    2    3    3    0    0  0.31777126036E-01 -0.15619300177E-01 -0.12731533946E+00  0.13376618544E+00  0.20747251094E-01 0.  0.
         14    1    1    2    0    0  0.59872061521E-02 -0.73580194263E-02  0.20518924628E-01  0.22605604510E-01  0.00000000000E+00 0. -1.
     999901    1    3    3    0    0 -0.37764332188E-01  0.22977319604E-01  0.10679641484E+00  0.88755821005E+00  0.88000000000E+00 0. -1.
        -11    1    4    4    0    0  0.18363147395E-01 -0.19262045559E-01 -0.73107472622E-01  0.77802283100E-01  0.51100000000E-03 0. -1.
         11    1    4    4    0    0  0.13413978640E-01  0.36427453818E-02 -0.54207866841E-01  0.55963902342E-01  0.51100000000E-03 0.  1.
</event>
<event>
 8    1  0.1196210E+005  0.1043930E+01  0.7957747E-01            NaN
         13   -1    0    0    0    0  0.00000000000E+00  0.00000000000E+00  0.74505805969E-08  0.10566000000E+00  0.10566000000E+00 0.  1.
     999900   -1    0    0    0    0 -0.00000000000E+00 -0.00000000000E+00 -0.74505805969E-08  0.93827000000E+00  0.93827000000E+00 0. -1.
     999902    2    1    2    0    0 -0.52412905487E-02  0.19228117790E-01  0.12210552425E-01  0.10205571690E+01  0.10202894912E+01 0.  0.
     999903    2    3    3    0    0 -0.67527453478E-01  0.91934265249E-01  0.66677866511E-01  0.13369052832E+00  0.20380220325E-01 0.  0.
         14    1    1    2    0    0  0.52412905487E-02 -0.19228117790E-01 -0.12210552425E-01  0.23372831041E-01  0.00000000000E+00 0. -1.
     999901    1    3    3    0    0  0.62286162930E-01 -0.72706147459E-01 -0.54467314086E-01  0.88686664064E+00  0.88000000000E+00 0.  1.
        -11    1    4    4    0    0 -0.56327580421E-01  0.61900891447E-01  0.50942170801E-01  0.97978990426E-01  0.51100000000E-03 0.  1.
         11    1    4    4    0    0 -0.11199873058E-01  0.30033373802E-01  0.15735695710E-01  0.35711537896E-01  0.51100000000E-03 0. -1.
</event>
<event>
 8    1  0.1196210E+005  0.1043930E+01  0.7957747E-01            NaN
         13   -1    0    0    0    0  0.00000000000E+00  0.00000000000E+00  0.74505805969E-08  0.10566000000E+00  0.10566000000E+00 0.  1.
     999900   -1    0    0    0    0 -0.00000000000E+00 -0.00000000000E+00 -0.74505805969E-08  0.93827000000E+00  0.93827000000E+00 0.  1.
     999902    2    1    2    0    0  0.33262755600E-02  0.81031974329E-02  0.22064771871E-01  0.10201901585E+01  0.10199139078E+01 0.  0.
     999903    2    3    3    0    0 -0.60964791954E-01  0.97666711868E-01 -0.56338745101E-01  0.12985197781E+00  0.20784356542E-01 0.  0.
         14    1    1    2    0    0 -0.33262755600E-02 -0.81031974329E-02 -0.22064771871E-01  0.23739841521E-01  0.00000000000E+00 0. -1.
     999901    1    3    3    0    0  0.64291067514E-01 -0.89563514435E-01  0.78403516972E-01  0.89033818067E+00  0.88000000000E+00 0. -1.
        -11    1    4    4    0    0 -0.31069451581E-01  0.67193589216E-01 -0.39951255058E-01  0.84122845619E-01  0.51100000000E-03 0. -1.
         11    1    4    4    0    0 -0.29895340373E-01  0.30473122652E-01 -0.16387490043E-01  0.45729132193E-01  0.51100000000E-03 0.  1.
</event>
<event>
 8    1  0.1196210E+005  0.1043930E+01  0.7957747E-01            NaN
         13   -1    0    0    0    0  0.00000000000E+00  0.00000000000E+00  0.74505805969E-08  0.10566000000E+00  0.10566000000E+00 0.  1.
     999900   -1    0    0    0    0 -0.00000000000E+00 -0.00000000000E+00 -0.74505805969E-08  0.93827000000E+00  0.93827000000E+00 0.  1.
     999902    2    1    2    0    0  0.16060627245E-01 -0.41068325043E-02  0.16759171396E-01  0.10203571417E+01  0.10200848088E+01 0.  0.
     999903    2    3    3    0    0 -0.61497380794E-01  0.34608957320E-01  0.10885792363E+00  0.13131477090E+00  0.20342412523E-01 0.  0.
         14    1    1    2    0    0 -0.16060627245E-01  0.41068325043E-02 -0.16759171396E-01  0.23572858261E-01  0.00000000000E+00 0. -1.
     999901    1    3    3    0    0  0.77558008039E-01 -0.38715789824E-01 -0.92098752233E-01  0.88904237084E+00  0.88000000000E+00 0.  1.
        -11    1    4    4    0    0 -0.84029337183E-02  0.12668581267E-01  0.31255100286E-01  0.34759813884E-01  0.51100000000E-03 0. -1.
         11    1    4    4    0    0 -0.53094447076E-01  0.21940376053E-01  0.77602823343E-01  0.96554957011E-01  0.51100000000E-03 0.  1.
</event>
<event>
 8    1  0.1196210E+005  0.1043930E+01  0.7957747E-01            NaN
         13   -1    0    0    0    0  0.00000000000E+00  0.00000000000E+00  0.74505805969E-08  0.10566000000E+00  0.10566000000E+00 0.  1.
     999900   -1    0    0    0    0 -0.00000000000E+00 -0.00000000000E+00 -0.74505805969E-08  0.93827000000E+00  0.93827000000E+00 0. -1.
     999902    2    1    2    0    0  0.58585098674E-02 -0.16236524946E-01 -0.15746254840E-01  0.10205656806E+01  0.10202982000E+01 0.  0.
     999903    2    3    3    0    0  0.28307999469E-01 -0.25239082416E-01 -0.12625439967E+00  0.13332440805E+00  0.19921602069E-01 0.  0.
         14    1    1    2    0    0 -0.58585098674E-02  0.16236524946E-01  0.15746254840E-01  0.23364319414E-01  0.00000000000E+00 0. -1.
     999901    1    3    3    0    0 -0.22449489602E-01  0.90025574700E-02  0.11050814483E+00  0.88724127254E+00  0.88000000000E+00 0.  1.
        -11    1    4    4    0    0  0.24750408901E-02 -0.14627998835E-01 -0.40434928426E-01  0.43073759241E-01  0.51100000000E-03 0.  1.
         11    1    4    4    0    0  0.25832958579E-01 -0.10611083581E-01 -0.85819471247E-01  0.90250648806E-01  0.51100000000E-03 0. -1.
</event>
<event>
 8    1  0.1196210E+005  0.1043930E+01  0.7957747E-01            NaN
         13   -1    0    0    0    0  0.00000000000E+00  0.00000000000E+00  0.74505805969E-08  0.10566000000E+00  0.10566000000E+00 0. -1.
     999900   -1    0    0    0    0 -0.00000000000E+00 -0.00000000000E+00 -0.74505805969E-08  0.93827000000E+00  0.93827000000E+00 0.  1.
     999902    2    1    2    0    0  0.16260548433E-01  0.12931925516E-01 -0.22796676974E-01  0.10130863846E+01  0.10126167557E+01 0.  0.
     999903    2    3    3    0    0  0.38775080501E-01 -0.55029428235E-01 -0.10507290805E+00  0.12635360183E+00  0.19828561430E-01 0.  0.
         14    1    1    2    0    0 -0.16260548433E-01 -0.12931925516E-01  0.22796676974E-01  0.30843615449E-01  0.00000000000E+00 0. -1.
     999901    1    3    3    0    0 -0.22514532068E-01  0.67961353750E-01  0.82276231078E-01  0.88673278272E+00  0.88000000000E+00 0.  1.
        -11    1    4    4    0    0  0.94224781810E-02 -0.80805571017E-02 -0.34384767285E-01  0.36560249457E-01  0.51100000000E-03 0.  1.
         11    1    4    4    0    0  0.29352602320E-01 -0.46948871133E-01 -0.70688140767E-01  0.89793352369E-01  0.51100000000E-03 0. -1.
</event>
<event>
 8    1  0.1196210E+005  0.1043930E+01  0.7957747E-01            NaN
         13   -1    0    0    0    0  0.00000000000E+00  0.00000000000E+00  0.74505805969E-08  0.10566000000E+00  0.10566000000E+00 0. -1.
     999900   -1    0    0    0    0 -0.00000000000E+00 -0.00000000000E+00 -0.74505805969E-08  0.93827000000E+00  0.93827000000E+00 0.  1.
     999902    2    1    2    0    0  0.28784526915E-02  0.13915010893E-01 -0.32003086479E-01  0.10089141384E+01  0.10083063166E+01 0.  0.
     999903    2    3    3    0    0  0.80511086939E-01 -0.84291598220E-01 -0.19613285988E-01  0.11996820579E+00  0.20508065818E-01 0.  0.
         14    1    1    2    0    0 -0.28784526915E-02 -0.13915010893E-01  0.32003086479E-01  0.35015861581E-01  0.00000000000E+00 0. -1.
     999901    1    3    3    0    0 -0.77632634248E-01  0.98206609114E-01 -0.12389800491E-01  0.88894593262E+00  0.88000000000E+00 0. -1.
        -11    1    4    4    0    0  0.18007126809E-01 -0.25497953353E-01 -0.13267729987E-01  0.33921910635E-01  0.51100000000E-03 0. -1.
         11    1    4    4    0    0  0.62503960131E-01 -0.58793644867E-01 -0.63455560017E-02  0.86046295160E-01  0.51100000000E-03 0.  1.
</event>
<event>
 8    1  0.1196210E+005  0.1043930E+01  0.7957747E-01            NaN
         13   -1    0    0    0    0  0.00000000000E+00  0.00000000000E+00  0.74505805969E-08  0.10566000000E+00  0.10566000000E+00 0. -1.
     999900   -1    0    0    0    0 -0.00000000000E+00 -0.00000000000E+00 -0.74505805969E-08  0.93827000000E+00  0.93827000000E+00 0. -1.
     999902    2    1    2    0    0 -0.49169657385E-02 -0.20109169831E-01  0.14682454653E-01  0.10185502889E+01  0.10182340405E+01 0.  0.
     999903    2    3    3    0    0  0.14082751243E-01 -0.97009295923E-01 -0.82506079644E-01  0.12966321512E+00  0.19903989555E-01 0.  0.
         14    1    1    2    0    0  0.49169657385E-02  0.20109169831E-01 -0.14682454653E-01  0.25379711149E-01  0.00000000000E+00 0.  1.
     999901    1    3    3    0    0 -0.18999716981E-01  0.76900126092E-01  0.97188534296E-01  0.88888707373E+00  0.88000000000E+00 0.  1.
        -11    1    4    4    0    0  0.15119359317E-01 -0.71379577426E-01 -0.50947591882E-01  0.88991894795E-01  0.51100000000E-03 0.  1.
         11    1    4    4    0    0 -0.10366080743E-02 -0.25629718498E-01 -0.31558487761E-01  0.40671320330E-01  0.51100000000E-03 0. -1.
</event>
<event>
 8    1  0.1196210E+005  0.1043930E+01  0.7957747E-01            NaN
         13   -1    0    0    0    0  0.00000000000E+00  0.00000000000E+00  0.74505805969E-08  0.10566000000E+00  0.10566000000E+00 0. -1.
     999900   -1    0    0    0    0 -0.00000000000E+00 -0.00000000000E+00 -0.74505805969E-08  0.93827000000E+00  0.93827000000E+00 0.  1.
     999902    2    1    2    0    0 -0.25664774976E-01  0.41235346129E-02 -0.49312819670E-02  0.10174724537E+01  0.10171284051E+01 0.  0.
     999903    2    3    3    0    0 -0.88280219557E-01 -0.51657646033E-01 -0.78454108079E-01  0.13043364964E+00  0.19899254408E-01 0.  0.
         14    1    1    2    0    0  0.25664774976E-01 -0.41235346129E-02  0.49312819670E-02  0.26457546260E-01  0.00000000000E+00 0.  1.
     999901    1    3    3    0    0  0.62615444581E-01  0.55781180646E-01  0.73522826112E-01  0.88703880410E+00  0.88000000000E+00 0. -1.
        -11    1    4    4    0    0 -0.58312975970E-01 -0.28874637491E-01 -0.38834317869E-01  0.75779372009E-01  0.51100000000E-03 0.  1.
         11    1    4    4    0    0 -0.29967243587E-01 -0.22783008542E-01 -0.39619790210E-01  0.54654277634E-01  0.51100000000E-03 0. -1.
</event>
<event>
 8    1  0.1196210E+005  0.1043930E+01  0.7957747E-01            NaN
         13   -1    0    0    0    0  0.00000000000E+00  0.00000000000E+00  0.74505805969E-08  0.10566000000E+00  0.10566000000E+00 0. -1.
     999900   -1    0    0    0    0 -0.00000000000E+00 -0.00000000000E+00 -0.74505805969E-08  0.93827000000E+00  0.93827000000E+00 0.  1.
     999902    2    1    2    0    0 -0.10471836988E-02  0.13274835144E-02 -0.24166551493E-01  0.10197043727E+01  0.10194165619E+01 0.  0.
     999903    2    3    3    0    0  0.87974207536E-01 -0.93068565626E-01 -0.11514002965E-01  0.13010024212E+00  0.19806100986E-01 0.  0.
         14    1    1    2    0    0  0.10471836988E-02 -0.13274835144E-02  0.24166551493E-01  0.24225627282E-01  0.00000000000E+00 0. -1.
     999901    1    3    3    0    0 -0.89021391235E-01  0.94396049141E-01 -0.12652548528E-01  0.88960413060E+00  0.88000000000E+00 0.  1.
        -11    1    4    4    0    0  0.17692009812E-01 -0.17251700691E-01 -0.10120247999E-01  0.26707843950E-01  0.51100000000E-03 0.  1.
         11    1    4    4    0    0  0.70282197724E-01 -0.75816864935E-01 -0.13937549660E-02  0.10339239817E+00  0.51100000000E-03 0. -1.
</event>
<event>
 8    1  0.1196210E+005  0.1043930E+01  0.7957747E-01            NaN
         13   -1    0    0    0    0  0.00000000000E+00  0.00000000000E+00  0.74505805969E-08  0.10566000000E+00  0.10566000000E+00 0. -1.
     999900   -1    0    0    0    0 -0.00000000000E+00 -0.00000000000E+00 -0.74505805969E-08  0.93827000000E+00  0.93827000000E+00 0.  1.
     999902    2    1    2    0    0  0.87928824901E-02  0.16061234637E-01 -0.15579479363E-01  0.10198884065E+01  0.10196050037E+01 0.  0.
     999903    2    3    3    0    0  0.14115965055E-01  0.27589357822E-02  0.12618895527E+00  0.12842692365E+00  0.19051249017E-01 0.  0.
         14    1    1    2    0    0 -0.87928824901E-02 -0.16061234637E-01  0.15579479363E-01  0.24041593495E-01  0.00000000000E+00 0. -1.
     999901    1    3    3    0    0 -0.53230825644E-02  0.13302298855E-01 -0.14176843463E+00  0.89146148286E+00  0.88000000000E+00 0.  1.
        -11    1    4    4    0    0 -0.34725593079E-02  0.36437447074E-02  0.48609871366E-01  0.48872448873E-01  0.51100000000E-03 0.  1.
         11    1    4    4    0    0  0.17588524362E-01 -0.88480892512E-03  0.77579083903E-01  0.79554474773E-01  0.51100000000E-03 0. -1.
</event>
<event>
 8    1  0.1196210E+005  0.1043930E+01  0.7957747E-01            NaN
         13   -1    0    0    0    0  0.00000000000E+00  0.00000000000E+00  0.74505805969E-08  0.10566000000E+00  0.10566000000E+00 0.  1.
     999900   -1    0    0    0    0 -0.00000000000E+00 -0.00000000000E+00 -0.74505805969E-08  0.93827000000E+00  0.93827000000E+00 0.  1.
     999902    2    1    2    0    0 -0.42526614626E-02 -0.21306596145E-01  0.81022829411E-02  0.10207415728E+01  0.10204781503E+01 0.  0.
     999903    2    3    3    0    0  0.78005167574E-01  0.76568377461E-01 -0.64562200720E-01  0.12853868772E+00  0.20159213365E-01 0.  0.
         14    1    1    2    0    0  0.42526614626E-02  0.21306596145E-01 -0.81022829411E-02  0.23188427236E-01  0.00000000000E+00 0. -1.
     999901    1    3    3    0    0 -0.82257829037E-01 -0.97874973606E-01  0.72664483661E-01  0.89220288504E+00  0.88000000000E+00 0. -1.
        -11    1    4    4    0    0  0.56474544931E-02  0.68658254238E-02  0.36933100407E-03  0.89123973987E-02  0.51100000000E-03 0. -1.
         11    1    4    4    0    0  0.72357713081E-01  0.69702552038E-01 -0.64931531724E-01  0.11962629032E+00  0.51100000000E-03 0.  1.
</event>
<event>
 8    1  0.1196210E+005  0.1043930E+01  0.7957747E-01            NaN
         13   -1    0    0    0    0  0.00000000000E+00  0.00000000000E+00  0.74505805969E-08  0.10566000000E+00  0.10566000000E+00 0.  1.
     999900   -1    0    0    0    0 -0.00000000000E+00 -0.00000000000E+00 -0.74505805969E-08  0.93827000000E+00  0.93827000000E+00 0.  1.
     999902    2    1    2    0    0 -0.22498854495E-01  0.74601603749E-02 -0.28097977835E-02  0.10200606177E+01  0.10197813081E+01 0.  0.
     999903    2    3    3    0    0 -0.15262770807E-01 -0.88651637237E-01  0.91537364170E-01  0.12978469111E+00  0.19310930841E-01 0.  0.
         14    1    1    2    0    0  0.22498854495E-01 -0.74601603749E-02  0.28097977835E-02  0.23869382271E-01  0.00000000000E+00 0.  1.
     999901    1    3    3    0    0 -0.72360836887E-02  0.96111797612E-01 -0.94347161953E-01  0.89027592662E+00  0.88000000000E+00 0.  1.
        -11    1    4    4    0    0 -0.71312583616E-02 -0.76205448820E-02  0.84238240532E-02  0.13421977604E-01  0.51100000000E-03 0.  1.
         11    1    4    4    0    0 -0.81315124451E-02 -0.81031092355E-01  0.83113540116E-01  0.11636271351E+00  0.51100000000E-03 0. -1.
</event>
<event>
 8    1  0.1196210E+005  0.1043930E+01  0.7957747E-01            NaN
         13   -1    0    0    0    0  0.00000000000E+00  0.00000000000E+00  0.74505805969E-08  0.10566000000E+00  0.10566000000E+00 0. -1.
     999900   -1    0    0    0    0 -0.00000000000E+00 -0.00000000000E+00 -0.74505805969E-08  0.93827000000E+00  0.93827000000E+00 0. -1.
     999902    2    1    2    0    0  0.20572868809E-01 -0.10236964919E-01  0.17204469556E-02  0.10208865992E+01  0.10206264988E+01 0.  0.
     999903    2    3    3    0    0 -0.42934477540E-02 -0.12962500553E+00 -0.17196553317E-01  0.13227549708E+00  0.19493843372E-01 0.  0.
         14    1    1    2    0    0 -0.20572868809E-01  0.10236964919E-01 -0.17204469556E-02  0.23043400779E-01  0.00000000000E+00 0. -1.
     999901    1    3    3    0    0  0.24866316562E-01  0.11938804062E+00  0.18917000272E-01  0.88861110214E+00  0.88000000000E+00 0.  1.
        -11    1    4    4    0    0  0.39878467277E-02 -0.40637077989E-01 -0.12795807120E-01  0.42793326932E-01  0.51100000000E-03 0. -1.
         11    1    4    4    0    0 -0.82812944816E-02 -0.88987927545E-01 -0.44007461969E-02  0.89482170152E-01  0.51100000000E-03 0.  1.
</event>
<event>
 8    1  0.1196210E+005  0.1043930E+01  0.7957747E-01            NaN
         13   -1    0    0    0    0  0.00000000000E+00  0.00000000000E+00  0.74505805969E-08  0.10566000000E+00  0.10566000000E+00 0. -1.
     999900   -1    0    0    0    0 -0.00000000000E+00 -0.00000000000E+00 -0.74505805969E-08  0.93827000000E+00  0.93827000000E+00 0.  1.
     999902    2    1    2    0    0  0.51768699164E-02 -0.17733326106E-01  0.16075922615E-01  0.10194411020E+01  0.10191469248E+01 0.  0.
     999903    2    3    3    0    0  0.66676549796E-01 -0.10375154312E+00 -0.39898840758E-01  0.13134509458E+00  0.21200740142E-01 0.  0.
         14    1    1    2    0    0 -0.51768699164E-02  0.17733326106E-01 -0.16075922615E-01  0.24488897991E-01  0.00000000000E+00 0. -1.
     999901    1    3    3    0    0 -0.61499679879E-01  0.86018217015E-01  0.55974763373E-01  0.88809600743E+00  0.88000000000E+00 0. -1.
        -11    1    4    4    0    0  0.43997542566E-01 -0.54849917590E-01 -0.30400089450E-01  0.76607596040E-01  0.51100000000E-03 0.  1.
         11    1    4    4    0    0  0.22679007230E-01 -0.48901625531E-01 -0.94987513083E-02  0.54737498536E-01  0.51100000000E-03 0. -1.
</event>
<event>
 8    1  0.1196210E+005  0.1043930E+01  0.7957747E-01            NaN
         13   -1    0    0    0    0  0.00000000000E+00  0.00000000000E+00  0.74505805969E-08  0.10566000000E+00  0.10566000000E+00 0.  1.
     999900   -1    0    0    0    0 -0.00000000000E+00 -0.00000000000E+00 -0.74505805969E-08  0.93827000000E+00  0.93827000000E+00 0. -1.
     999902    2    1    2    0    0 -0.20056739851E-01 -0.70349275576E-02  0.96273685208E-02  0.10205965638E+01  0.10203297981E+01 0.  0.
     999903    2    3    3    0    0 -0.99464932686E-01 -0.25467263451E-01  0.83568957760E-01  0.13374101148E+00  0.19000871289E-01 0.  0.
         14    1    1    2    0    0  0.20056739851E-01  0.70349275576E-02 -0.96273685208E-02  0.23333436177E-01  0.00000000000E+00 0.  1.
     999901    1    3    3    0    0  0.79408192835E-01  0.18432335893E-01 -0.73941589239E-01  0.88685555234E+00  0.88000000000E+00 0. -1.
        -11    1    4    4    0    0 -0.26653564345E-01 -0.14024790424E-01  0.30879002641E-01  0.43137931845E-01  0.51100000000E-03 0.  1.
         11    1    4    4    0    0 -0.72811368341E-01 -0.11442473027E-01  0.52689955118E-01  0.90603079639E-01  0.51100000000E-03 0. -1.
</event>
<event>
 8    1  0.1196210E+005  0.1043930E+01  0.7957747E-01            NaN
         13   -1    0    0    0    0  0.00000000000E+00  0.00000000000E+00  0.74505805969E-08  0.10566000000E+00  0.10566000000E+00 0.  1.
     999900   -1    0    0    0    0 -0.00000000000E+00 -0.00000000000E+00 -0.74505805969E-08  0.93827000000E+00  0.93827000000E+00 0.  1.
     999902    2    1    2    0    0  0.18557566520E-01  0.13548233262E-01 -0.45739713243E-02  0.10205022576E+01  0.10202333060E+01 0.  0.
     999903    2    3    3    0    0 -0.30823898452E-01  0.11928754906E+00 -0.42830714301E-01  0.13197374914E+00  0.20074070275E-01 0.  0.
         14    1    1    2    0    0 -0.18557566520E-01 -0.13548233262E-01  0.45739713243E-02  0.23427742387E-01  0.00000000000E+00 0. -1.
     999901    1    3    3    0    0  0.49381464972E-01 -0.10573931580E+00  0.38256742976E-01  0.88852850847E+00  0.88000000000E+00 0. -1.
        -11    1    4    4    0    0 -0.11489976443E-01  0.15758207491E-01 -0.65150666137E-02  0.20568127673E-01  0.51100000000E-03 0.  1.
         11    1    4    4    0    0 -0.19333922008E-01  0.10352934157E+00 -0.36315647687E-01  0.11140562147E+00  0.51100000000E-03 0. -1.
</event>
<event>
 8    1  0.1196210E+005  0.1043930E+01  0.7957747E-01            NaN
         13   -1    0    0    0    0  0.00000000000E+00  0.00000000000E+00  0.74505805969E-08  0.10566000000E+00  0.10566000000E+00 0.  1.
     999900   -1    0    0    0    0 -0.00000000000E+00 -0.00000000000E+00 -0.74505805969E-08  0.93827000000E+00  0.93827000000E+00 0. -1.
     999902    2    1    2    0    0  0.36290753882E-02  0.12437706996E-01 -0.19531750325E-01  0.10204916550E+01  0.10202224571E+01 0.  0.
     999903    2    3    3    0    0 -0.86034610013E-02  0.60189308071E-01 -0.11730360246E+00  0.13370578155E+00  0.20501915132E-01 0.  0.
         14    1    1    2    0    0 -0.36290753882E-02 -0.12437706996E-01  0.19531750325E-01  0.23438344955E-01  0.00000000000E+00 0.  1.
     999901    1    3    3    0    0  0.12232536389E-01 -0.47751601075E-01  0.97771852134E-01  0.88678587349E+00  0.88000000000E+00 0.  1.
        -11    1    4    4    0    0 -0.25784257388E-02  0.44691955625E-01 -0.65829098294E-01  0.79609989826E-01  0.51100000000E-03 0. -1.
         11    1    4    4    0    0 -0.60250352626E-02  0.15497352445E-01 -0.51474504165E-01  0.54095791729E-01  0.51100000000E-03 0.  1.
</event>
<event>
 8    1  0.1196210E+005  0.1043930E+01  0.7957747E-01            NaN
         13   -1    0    0    0    0  0.00000000000E+00  0.00000000000E+00  0.74505805969E-08  0.10566000000E+00  0.10566000000E+00 0. -1.
     999900   -1    0    0    0    0 -0.00000000000E+00 -0.00000000000E+00 -0.74505805969E-08  0.93827000000E+00  0.93827000000E+00 0.  1.
     999902    2    1    2    0    0 -0.91408049253E-02  0.18143664164E-01  0.11686207983E-01  0.10204925445E+01  0.10202233672E+01 0.  0.
     999903    2    3    3    0    0 -0.72649130701E-01  0.91696257273E-01  0.58985535152E-01  0.13388072540E+00  0.27543701391E-01 0.  0.
         14    1    1    2    0    0  0.91408049253E-02 -0.18143664164E-01 -0.11686207983E-01  0.23437455515E-01  0.00000000000E+00 0.  1.
     999901    1    3    3    0    0  0.63508325776E-01 -0.73552593109E-01 -0.47299327169E-01  0.88661181909E+00  0.88000000000E+00 0.  1.
        -11    1    4    4    0    0 -0.47198654494E-01  0.37412678038E-01  0.29406805810E-01  0.67025687710E-01  0.51100000000E-03 0.  1.
         11    1    4    4    0    0 -0.25450476207E-01  0.54283579235E-01  0.29578729343E-01  0.66855037688E-01  0.51100000000E-03 0. -1.
</event>
<event>
 8    1  0.1196210E+005  0.1043930E+01  0.7957747E-01            NaN
         13   -1    0    0    0    0  0.00000000000E+00  0.00000000000E+00  0.74505805969E-08  0.10566000000E+00  0.10566000000E+00 0.  1.
     999900   -1    0    0    0    0 -0.00000000000E+00 -0.00000000000E+00 -0.74505805969E-08  0.93827000000E+00  0.93827000000E+00 0.  1.
     999902    2    1    2    0    0 -0.12493134201E-01  0.10379440987E-01 -0.17112762103E-01  0.10203364029E+01  0.10200635849E+01 0.  0.
     999903    2    3    3    0    0  0.18754808147E-01  0.24500692702E-02  0.12540511206E+00  0.12828783175E+00  0.19328217088E-01 0.  0.
         14    1    1    2    0    0  0.12493134201E-01 -0.10379440987E-01  0.17112762103E-01  0.23593597101E-01  0.00000000000E+00 0. -1.
     999901    1    3    3    0    0 -0.31247942348E-01  0.79293717167E-02 -0.14251787416E+00  0.89204857115E+00  0.88000000000E+00 0.  1.
        -11    1    4    4    0    0  0.16954848244E-01 -0.21668867636E-02  0.52544397228E-01  0.55257009314E-01  0.51100000000E-03 0. -1.
         11    1    4    4    0    0  0.17999599032E-02  0.46169560337E-02  0.72860714831E-01  0.73030822434E-01  0.51100000000E-03 0.  1.
</event>
<event>
 8    1  0.1196210E+005  0.1043930E+01  0.7957747E-01            NaN
         13   -1    0    0    0    0  0.00000000000E+00  0.00000000000E+00  0.74505805969E-08  0.10566000000E+00  0.10566000000E+00 0. -1.
     999900   -1    0    0    0    0 -0.00000000000E+00 -0.00000000000E+00 -0.74505805969E-08  0.93827000000E+00  0.93827000000E+00 0. -1.
     999902    2    1    2    0    0  0.86592955134E-02 -0.21695840988E-01 -0.25652889434E-02  0.10204294974E+01  0.10201588531E+01 0.  0.
     999903    2    3    3    0    0  0.68019053322E-01  0.18597999462E-01  0.10807008765E+00  0.13060515464E+00  0.20151560076E-01 0.  0.
         14    1    1    2    0    0 -0.86592955134E-02  0.21695840988E-01  0.25652889434E-02  0.23500502598E-01  0.00000000000E+00 0. -1.
     999901    1    3    3    0    0 -0.59359757808E-01 -0.40293840450E-01 -0.11063537660E+00  0.88982434277E+00  0.88000000000E+00 0. -1.
        -11    1    4    4    0    0  0.65015180103E-01  0.12061668476E-01  0.97300050618E-01  0.11764360782E+00  0.51100000000E-03 0.  1.
         11    1    4    4    0    0  0.30038732184E-02  0.65363309855E-02  0.10770037035E-01  0.12961546813E-01  0.51100000000E-03 0. -1.
</event>
<event>
 8    1  0.1196210E+005  0.1043930E+01  0.7957747E-01            NaN
         13   -1    0    0    0    0  0.00000000000E+00  0.00000000000E+00  0.74505805969E-08  0.10566000000E+00  0.10566000000E+00 0. -1.
     999900   -1    0    0    0    0 -0.00000000000E+00 -0.00000000000E+00 -0.74505805969E-08  0.93827000000E+00  0.93827000000E+00 0. -1.
     999902    2    1    2    0    0  0.14017336314E-01  0.53827482836E-02 -0.18505046135E-01  0.10200994224E+01  0.10198210309E+01 0.  0.
     999903    2    3    3    0    0 -0.57443831475E-01 -0.10963032316E+00 -0.32985767593E-01  0.12962516876E+00  0.19900301040E-01 0.  0.
         14    1    1    2    0    0 -0.14017336314E-01 -0.53827482836E-02  0.18505046135E-01  0.23830577603E-01  0.00000000000E+00 0. -1.
     999901    1    3    3    0    0  0.71461167789E-01  0.11501307144E+00  0.14480721458E-01  0.89047425364E+00  0.88000000000E+00 0.  1.
        -11    1    4    4    0    0 -0.41916294335E-01 -0.95315528953E-01 -0.29404178618E-01  0.10819839477E+00  0.51100000000E-03 0.  1.
         11    1    4    4    0    0 -0.15527537140E-01 -0.14314794203E-01 -0.35815889744E-02  0.21426773982E-01  0.51100000000E-03 0. -1.
</event>
<event>
 8    1  0.1196210E+005  0.1043930E+01  0.7957747E-01            NaN
         13   -1    0    0    0    0  0.00000000000E+00  0.00000000000E+00  0.74505805969E-08  0.10566000000E+00  0.10566000000E+00 0. -1.
     999900   -1    0    0    0    0 -0.00000000000E+00 -0.00000000000E+00 -0.74505805969E-08  0.93827000000E+00  0.93827000000E+00 0.  1.
     999902    2    1    2    0    0  0.15648976881E-01 -0.12768642767E-01  0.12197672457E-01  0.10203352563E+01  0.10200624115E+01 0.  0.
     999903    2    3    3    0    0 -0.10840733809E+00  0.18754375639E-01  0.65465646109E-01  0.12948108926E+00  0.19383603832E-01 0.  0.
         14    1    1    2    0    0 -0.15648976881E-01  0.12768642767E-01 -0.12197672457E-01  0.23594743671E-01  0.00000000000E+00 0.  1.
     999901    1    3    3    0    0  0.12405631497E+00 -0.31523018406E-01 -0.53267973652E-01  0.89085416707E+00  0.88000000000E+00 0.  1.
        -11    1    4    4    0    0 -0.96416970166E-01  0.22700871591E-01  0.57199191247E-01  0.11438343546E+00  0.51100000000E-03 0.  1.
         11    1    4    4    0    0 -0.11990367922E-01 -0.39464959521E-02  0.82664548617E-02  0.15097653797E-01  0.51100000000E-03 0. -1.
</event>
<event>
 8    1  0.1196210E+005  0.1043930E+01  0.7957747E-01            NaN
         13   -1    0    0    0    0  0.00000000000E+00  0.00000000000E+00  0.74505805969E-08  0.10566000000E+00  0.10566000000E+00 0. -1.
     999900   -1    0    0    0    0 -0.00000000000E+00 -0.00000000000E+00 -0.74505805969E-08  0.93827000000E+00  0.93827000000E+00 0.  1.
     999902    2    1    2    0    0  0.10367515941E-02 -0.22444363281E-01 -0.76203880703E-02  0.10202045999E+01  0.10199286892E+01 0.  0.
     999903    2    3    3    0    0  0.57494842709E-02 -0.95348982695E-01  0.88600093808E-01  0.13195031504E+00  0.20890762236E-01 0.  0.
         14    1    1    2    0    0 -0.10367515941E-02  0.22444363281E-01  0.76203880703E-02  0.23725400129E-01  0.00000000000E+00 0. -1.
     999901    1    3    3    0    0 -0.47127326768E-02  0.72904619415E-01 -0.96220481878E-01  0.88825428483E+00  0.88000000000E+00 0.  1.
        -11    1    4    4    0    0  0.12968399680E-01 -0.59661828720E-01  0.50356300757E-01  0.79143738497E-01  0.51100000000E-03 0.  1.
         11    1    4    4    0    0 -0.72189154087E-02 -0.35687153976E-01  0.38243793051E-01  0.52806576546E-01  0.51100000000E-03 0. -1.
</event>
<event>
 8    1  0.1196210E+005  0.1043930E+01  0.7957747E-01            NaN
         13   -1    0    0    0    0  0.00000000000E+00  0.00000000000E+00  0.74505805969E-08  0.10566000000E+00  0.10566000000E+00 0.  1.
     999900   -1    0    0    0    0 -0.00000000000E+00 -0.00000000000E+00 -0.74505805969E-08  0.93827000000E+00  0.93827000000E+00 0.  1.
     999902    2    1    2    0    0  0.16375111642E-01  0.10537668023E-01 -0.12293970272E-01  0.10209011391E+01  0.10206413706E+01 0.  0.
     999903    2    3    3    0    0  0.11537599737E+00  0.53000846323E-01 -0.37787197861E-01  0.13396585312E+00  0.19956627950E-01 0.  0.
         14    1    1    2    0    0 -0.16375111642E-01 -0.10537668023E-01  0.12293970272E-01  0.23028860886E-01  0.00000000000E+00 0.  1.
     999901    1    3    3    0    0 -0.99000885732E-01 -0.42463178300E-01  0.25493227589E-01  0.88693528599E+00  0.88000000000E+00 0. -1.
        -11    1    4    4    0    0  0.95317365449E-01  0.35279430967E-01 -0.27560499854E-01  0.10530850240E+00  0.51100000000E-03 0. -1.
         11    1    4    4    0    0  0.20058631925E-01  0.17721415357E-01 -0.10226698008E-01  0.28657350717E-01  0.51100000000E-03 0.  1.
</event>
<event>
 8    1  0.1196210E+005  0.1043930E+01  0.7957747E-01            NaN
         13   -1    0    0    0    0  0.00000000000E+00  0.00000000000E+00  0.74505805969E-08  0.10566000000E+00  0.10566000000E+00 0.  1.
     999900   -1    0    0    0    0 -0.00000000000E+00 -0.00000000000E+00 -0.74505805969E-08  0.93827000000E+00  0.93827000000E+00 0.  1.
     999902    2    1    2    0    0 -0.39122549578E-02 -0.57480527195E-02 -0.24465132960E-01  0.10184959956E+01  0.10181783756E+01 0.  0.
     999903    2    3    3    0    0 -0.31299987905E-01  0.67083792626E-01  0.10035604225E+00  0.12628812106E+00  0.19935642176E-01 0.  0.
         14    1    1    2    0    0  0.39122549578E-02  0.57480527195E-02  0.24465132960E-01  0.25434004397E-01  0.00000000000E+00 0.  1.
     999901    1    3    3    0    0  0.27387732947E-01 -0.72831845345E-01 -0.12482117521E+00  0.89220787454E+00  0.88000000000E+00 0.  1.
        -11    1    4    4    0    0 -0.15104212658E-02  0.25261330479E-01  0.32652502247E-01  0.41314201117E-01  0.51100000000E-03 0. -1.
         11    1    4    4    0    0 -0.29789566639E-01  0.41822462146E-01  0.67703540004E-01  0.84973919944E-01  0.51100000000E-03 0.  1.
</event>
<event>
 8    1  0.1196210E+005  0.1043930E+01  0.7957747E-01            NaN
         13   -1    0    0    0    0  0.00000000000E+00  0.00000000000E+00  0.74505805969E-08  0.10566000000E+00  0.10566000000E+00 0.  1.
     999900   -1    0    0    0    0 -0.00000000000E+00 -0.00000000000E+00 -0.74505805969E-08  0.93827000000E+00  0.93827000000E+00 0. -1.
     999902    2    1    2    0    0 -0.18361849312E-01 -0.15066859414E-01 -0.27710656988E-02  0.10200166864E+01  0.10197363355E+01 0.  0.
     999903    2    3    3    0    0 -0.31989496322E-01 -0.11006596082E+00 -0.63880355679E-01  0.13269211930E+00  0.19714336843E-01 0.  0.
         14    1    1    2    0    0  0.18361849312E-01  0.15066859414E-01  0.27710656988E-02  0.23913313611E-01  0.00000000000E+00 0.  1.
     999901    1    3    3    0    0  0.13627647010E-01  0.94999101406E-01  0.61109289981E-01  0.88732456709E+00  0.88000000000E+00 0.  1.
        -11    1    4    4    0    0 -0.21601741423E-01 -0.42272613933E-01 -0.30361626660E-01  0.56353337219E-01  0.51100000000E-03 0.  1.
         11    1    4    4    0    0 -0.10387754899E-01 -0.67793346888E-01 -0.33518729019E-01  0.76338782085E-01  0.51100000000E-03 0. -1.
</event>
<event>
 8    1  0.1196210E+005  0.1043930E+01  0.7957747E-01            NaN
         13   -1    0    0    0    0  0.00000000000E+00  0.00000000000E+00  0.74505805969E-08  0.10566000000E+00  0.10566000000E+00 0. -1.
     999900   -1    0    0    0    0 -0.00000000000E+00 -0.00000000000E+00 -0.74505805969E-08  0.93827000000E+00  0.93827000000E+00 0.  1.
     999902    2    1    2    0    0 -0.18191810186E-01  0.14716457557E-01 -0.12717787429E-02  0.10204964023E+01  0.10202273147E+01 0.  0.
     999903    2    3    3    0    0  0.83047360956E-01 -0.62559641328E-01  0.72564259953E-01  0.12826732528E+00  0.19400052260E-01 0.  0.
         14    1    1    2    0    0  0.18191810186E-01 -0.14716457557E-01  0.12717787429E-02  0.23433597719E-01  0.00000000000E+00 0.  1.
     999901    1    3    3    0    0 -0.10123917114E+00  0.77276098885E-01 -0.73836038696E-01  0.89222907700E+00  0.88000000000E+00 0.  1.
        -11    1    4    4    0    0  0.10767629721E-01 -0.84786636603E-02  0.18545235109E-01  0.23065481862E-01  0.51100000000E-03 0.  1.
         11    1    4    4    0    0  0.72279731235E-01 -0.54080977668E-01  0.54019024844E-01  0.10520184342E+00  0.51100000000E-03 0. -1.
</event>
<event>
 8    1  0.1196210E+005  0.1043930E+01  0.7957747E-01            NaN
         13   -1    0    0    0    0  0.00000000000E+00  0.00000000000E+00  0.74505805969E-08  0.10566000000E+00  0.10566000000E+00 0. -1.
     999900   -1    0    0    0    0 -0.00000000000E+00 -0.00000000000E+00 -0.74505805969E-08  0.93827000000E+00  0.93827000000E+00 0. -1.
     999902    2    1    2    0    0  0.89936004680E-02 -0.16254099903E-01 -0.13538371349E-01  0.10209437408E+01  0.10206849434E+01 0.  0.
     999903    2    3    3    0    0 -0.35933159002E-02  0.10237695472E+00 -0.78314229975E-01  0.13053503159E+00  0.20305740050E-01 0.  0.
         14    1    1    2    0    0 -0.89936004680E-02  0.16254099903E-01  0.13538371349E-01  0.22986259196E-01  0.00000000000E+00 0. -1.
     999901    1    3    3    0    0  0.12586916368E-01 -0.11863105462E+00  0.64775858626E-01  0.89040870921E+00  0.88000000000E+00 0.  1.
        -11    1    4    4    0    0  0.63934051985E-02  0.39253791442E-01 -0.22583275609E-01  0.45738399960E-01  0.51100000000E-03 0.  1.
         11    1    4    4    0    0 -0.99867210987E-02  0.63123163276E-01 -0.55730954366E-01  0.84796631630E-01  0.51100000000E-03 0. -1.
</event>
<event>
 8    1  0.1196210E+005  0.1043930E+01  0.7957747E-01            NaN
         13   -1    0    0    0    0  0.00000000000E+00  0.00000000000E+00  0.74505805969E-08  0.10566000000E+00  0.10566000000E+00 0. -1.
     999900   -1    0    0    0    0 -0.00000000000E+00 -0.00000000000E+00 -0.74505805969E-08  0.93827000000E+00  0.93827000000E+00 0.  1.
     999902    2    1    2    0    0  0.90259302821E-02  0.14688754190E-01  0.15559191507E-01  0.10207068358E+01  0.10204426144E+01 0.  0.
     999903    2    3    3    0    0  0.11849390546E+00  0.24706003487E-01 -0.48065205545E-01  0.13158836965E+00  0.18816025147E-01 0.  0.
         14    1    1    2    0    0 -0.90259302821E-02 -0.14688754190E-01 -0.15559191507E-01  0.23223164243E-01  0.00000000000E+00 0. -1.
     999901    1    3    3    0    0 -0.10946797518E+00 -0.10017249297E-01  0.63624397052E-01  0.88911846611E+00  0.88000000000E+00 0.  1.
        -11    1    4    4    0    0  0.33730533516E-01  0.15672092990E-01 -0.16403733285E-01  0.40653498947E-01  0.51100000000E-03 0. -1.
         11    1    4    4    0    0  0.84763371948E-01  0.90339104973E-02 -0.31661472260E-01  0.90934870701E-01  0.51100000000E-03 0.  1.
</event>
<event>
 8    1  0.1196210E+005  0.1043930E+01  0.7957747E-01            NaN
         13   -1    0    0    0    0  0.00000000000E+00  0.00000000000E+00  0.74505805969E-08  0.10566000000E+00  0.10566000000E+00 0. -1.
     999900   -1    0    0    0    0 -0.00000000000E+00 -0.00000000000E+00 -0.74505805969E-08  0.93827000000E+00  0.93827000000E+00 0.  1.
     999902    2    1    2    0    0 -0.17580566605E-01  0.12481077515E-01  0.11556878185E-01  0.10194674766E+01  0.10191739404E+01 0.  0.
     999903    2    3    3    0    0  0.66601636002E-01  0.54194903038E-01 -0.93090056670E-01  0.12830101209E+00  0.20555427983E-01 0.  0.
         14    1    1    2    0    0  0.17580566605E-01 -0.12481077515E-01 -0.11556878185E-01  0.24462523408E-01  0.00000000000E+00 0. -1.
     999901    1    3    3    0    0 -0.84182202607E-01 -0.41713825522E-01  0.10464693486E+00  0.89116646450E+00  0.88000000000E+00 0. -1.
        -11    1    4    4    0    0  0.46217185102E-01  0.42332982688E-01 -0.54429965883E-01  0.83011998706E-01  0.51100000000E-03 0. -1.
         11    1    4    4    0    0  0.20384450900E-01  0.11861920349E-01 -0.38660090787E-01  0.45289013386E-01  0.51100000000E-03 0.  1.
</event>
<event>
 8    1  0.1196210E+005  0.1043930E+01  0.7957747E-01            NaN
         13   -1    0    0    0    0  0.00000000000E+00  0.00000000000E+00  0.74505805969E-08  0.10566000000E+00  0.10566000000E+00 0.  1.
     999900   -1    0    0    0    0 -0.00000000000E+00 -0.00000000000E+00 -0.74505805969E-08  0.93827000000E+00  0.93827000000E+00 0. -1.
     999902    2    1    2    0    0 -0.21183655637E-03  0.18750223104E-01 -0.12336025101E-01  0.10214846607E+01  0.10212380324E+01 0.  0.
     999903    2    3    3    0    0 -0.87005028041E-01 -0.50049874421E-01  0.80176802690E-01  0.12973069529E+00  0.18079512641E-01 0.  0.
         14    1    1    2    0    0  0.21183655637E-03 -0.18750223104E-01  0.12336025101E-01  0.22445339304E-01  0.00000000000E+00 0.  1.
     999901    1    3    3    0    0  0.86793191485E-01  0.68800097526E-01 -0.92512827791E-01  0.89175396540E+00  0.88000000000E+00 0. -1.
        -11    1    4    4    0    0 -0.62865664996E-01 -0.29166698290E-01  0.47308900594E-01  0.83911747216E-01  0.51100000000E-03 0. -1.
         11    1    4    4    0    0 -0.24139363045E-01 -0.20883176131E-01  0.32867902096E-01  0.45818948075E-01  0.51100000000E-03 0.  1.
</event>
<event>
 8    1  0.1196210E+005  0.1043930E+01  0.7957747E-01            NaN
         13   -1    0    0    0    0  0.00000000000E+00  0.00000000000E+00  0.74505805969E-08  0.10566000000E+00  0.10566000000E+00 0.  1.
     999900   -1    0    0    0    0 -0.00000000000E+00 -0.00000000000E+00 -0.74505805969E-08  0.93827000000E+00  0.93827000000E+00 0. -1.
     999902    2    1    2    0    0  0.18741103335E-01  0.10005022059E-01 -0.10262600266E-01  0.10203365606E+01  0.10200637463E+01 0.  0.
     999903    2    3    3    0    0  0.63539350630E-01  0.86510467416E-01 -0.76760638915E-01  0.13338562884E+00  0.19447885304E-01 0.  0.
         14    1    1    2    0    0 -0.18741103335E-01 -0.10005022059E-01  0.10262600266E-01  0.23593439445E-01  0.00000000000E+00 0.  1.
     999901    1    3    3    0    0 -0.44798247295E-01 -0.76505445358E-01  0.66498038649E-01  0.88695093172E+00  0.88000000000E+00 0.  1.
        -11    1    4    4    0    0  0.24805931448E-01  0.47271294139E-01 -0.44512504223E-01  0.69509234190E-01  0.51100000000E-03 0.  1.
         11    1    4    4    0    0  0.38733419182E-01  0.39239173278E-01 -0.32248134692E-01  0.63876394648E-01  0.51100000000E-03 0. -1.
</event>
<event>
 8    1  0.1196210E+005  0.1043930E+01  0.7957747E-01            NaN
         13   -1    0    0    0    0  0.00000000000E+00  0.00000000000E+00  0.74505805969E-08  0.10566000000E+00  0.10566000000E+00 0.  1.
     999900   -1    0    0    0    0 -0.00000000000E+00 -0.00000000000E+00 -0.74505805969E-08  0.93827000000E+00  0.93827000000E+00 0.  1.
     999902    2    1    2    0    0 -0.13623700062E-01  0.29373957444E-01 -0.11341015951E-01  0.10096217907E+01  0.10090387045E+01 0.  0.
     999903    2    3    3    0    0  0.10194512376E+00 -0.40014606470E-01  0.36912328201E-01  0.11805053108E+00  0.24071371496E-01 0.  0.
         14    1    1    2    0    0  0.13623700062E-01 -0.29373957444E-01  0.11341015951E-01  0.34308209252E-01  0.00000000000E+00 0. -1.
     999901    1    3    3    0    0 -0.11556882382E+00  0.69388563914E-01 -0.48253344152E-01  0.89157125967E+00  0.88000000000E+00 0.  1.
        -11    1    4    4    0    0  0.73752621507E-01 -0.17052286598E-01  0.23014528823E-01  0.79121168567E-01  0.51100000000E-03 0.  1.
         11    1    4    4    0    0  0.28192502254E-01 -0.22962319871E-01  0.13897799378E-01  0.38929362514E-01  0.51100000000E-03 0. -1.
</event>
<event>
 8    1  0.1196210E+005  0.1043930E+01  0.7957747E-01            NaN
         13   -1    0    0    0    0  0.00000000000E+00  0.00000000000E+00  0.74505805969E-08  0.10566000000E+00  0.10566000000E+00 0. -1.
     999900   -1    0    0    0    0 -0.00000000000E+00 -0.00000000000E+00 -0.74505805969E-08  0.93827000000E+00  0.93827000000E+00 0.  1.
     999902    2    1    2    0    0 -0.77644650924E-02  0.19005734588E-01  0.11498713484E-01  0.10203986321E+01  0.10201272681E+01 0.  0.
     999903    2    3    3    0    0  0.11330658900E+00 -0.53230419072E-01 -0.21690802465E-01  0.12855906913E+00  0.19623524598E-01 0.  0.
         14    1    1    2    0    0  0.77644650924E-02 -0.19005734588E-01 -0.11498713484E-01  0.23531367941E-01  0.00000000000E+00 0.  1.
     999901    1    3    3    0    0 -0.12107105410E+00  0.72236153660E-01  0.33189515950E-01  0.89183956293E+00  0.88000000000E+00 0. -1.
        -11    1    4    4    0    0  0.36633864248E-01 -0.27603294355E-01 -0.79571525698E-02  0.46557053891E-01  0.51100000000E-03 0.  1.
         11    1    4    4    0    0  0.76672724756E-01 -0.25627124717E-01 -0.13733649896E-01  0.82002015239E-01  0.51100000000E-03 0. -1.
</event>
<event>
 8    1  0.1196210E+005  0.1043930E+01  0.7957747E-01            NaN
         13   -1    0    0    0    0  0.00000000000E+00  0.00000000000E+00  0.74505805969E-08  0.10566000000E+00  0.10566000000E+00 0.  1.
     999900   -1    0    0    0    0 -0.00000000000E+00 -0.00000000000E+00 -0.74505805969E-08  0.93827000000E+00  0.93827000000E+00 0.  1.
     999902    2    1    2    0    0  0.16326417854E-01  0.13750981114E-01  0.96923780703E-02  0.10204868007E+01  0.10202174899E+01 0.  0.
     999903    2    3    3    0    0 -0.17720126852E-01 -0.92499740305E-01  0.87152628761E-01  0.13006640927E+00  0.21248182705E-01 0.  0.
         14    1    1    2    0    0 -0.16326417854E-01 -0.13750981114E-01 -0.96923780703E-02  0.23443199316E-01  0.00000000000E+00 0. -1.
     999901    1    3    3    0    0  0.34046544705E-01  0.10625072142E+00 -0.77460250691E-01  0.89042039141E+00  0.88000000000E+00 0.  1.
        -11    1    4    4    0    0 -0.10253723955E-01 -0.54641160478E-01  0.36995342016E-01  0.66781073106E-01  0.51100000000E-03 0. -1.
         11    1    4    4    0    0 -0.74664028968E-02 -0.37858579827E-01  0.50157286745E-01  0.63285336164E-01  0.51100000000E-03 0.  1.
</event>
<event>
 8    1  0.1196210E+005  0.1043930E+01  0.7957747E-01            NaN
         13   -1    0    0    0    0  0.00000000000E+00  0.00000000000E+00  0.74505805969E-08  0.10566000000E+00  0.10566000000E+00 0.  1.
     999900   -1    0    0    0    0 -0.00000000000E+00 -0.00000000000E+00 -0.74505805969E-08  0.93827000000E+00  0.93827000000E+00 0. -1.
     999902    2    1    2    0    0  0.14448918687E-01 -0.16257274920E-01  0.10316923282E-01  0.10198570038E+01  0.10195728513E+01 0.  0.
     999903    2    3    3    0    0 -0.10379498994E+00  0.67139768624E-01 -0.23058540181E-01  0.12741618765E+00  0.20543615400E-01 0.  0.
         14    1    1    2    0    0 -0.14448918687E-01  0.16257274920E-01 -0.10316923282E-01  0.24072996179E-01  0.00000000000E+00 0.  1.
     999901    1    3    3    0    0  0.11824390863E+00 -0.83397043544E-01  0.33375463462E-01  0.89244081617E+00  0.88000000000E+00 0.  1.
        -11    1    4    4    0    0 -0.49392545682E-01  0.43015493758E-01 -0.16472179067E-01  0.67539248414E-01  0.51100000000E-03 0. -1.
         11    1    4    4    0    0 -0.54402444258E-01  0.24124274866E-01 -0.65863611134E-02  0.59876939240E-01  0.51100000000E-03 0.  1.
</event>
<event>
 8    1  0.1196210E+005  0.1043930E+01  0.7957747E-01            NaN
         13   -1    0    0    0    0  0.00000000000E+00  0.00000000000E+00  0.74505805969E-08  0.10566000000E+00  0.10566000000E+00 0.  1.
     999900   -1    0    0    0    0 -0.00000000000E+00 -0.00000000000E+00 -0.74505805969E-08  0.93827000000E+00  0.93827000000E+00 0.  1.
     999902    2    1    2    0    0 -0.21802388935E-01  0.79457446668E-02 -0.28321954446E-02  0.10205526530E+01  0.10202848706E+01 0.  0.
     999903    2    3    3    0    0  0.84233827479E-01 -0.39909004630E-01 -0.86112310088E-01  0.12899820502E+00  0.23176294090E-01 0.  0.
         14    1    1    2    0    0  0.21802388935E-01 -0.79457446668E-02  0.28321954446E-02  0.23377346997E-01  0.00000000000E+00 0.  1.
     999901    1    3    3    0    0 -0.10603621641E+00  0.47854749297E-01  0.83280114643E-01  0.89155444798E+00  0.88000000000E+00 0. -1.
        -11    1    4    4    0    0  0.15529655197E-01  0.16975583699E-03 -0.21463495553E-01  0.26497957844E-01  0.51100000000E-03 0. -1.
         11    1    4    4    0    0  0.68704172282E-01 -0.40078760467E-01 -0.64648814535E-01  0.10250024718E+00  0.51100000000E-03 0.  1.
</event>
<event>
 8    1  0.1196210E+005  0.1043930E+01  0.7957747E-01            NaN
         13   -1    0    0    0    0  0.00000000000E+00  0.00000000000E+00  0.74505805969E-08  0.10566000000E+00  0.10566000000E+00 0.  1.
     999900   -1    0    0    0    0 -0.00000000000E+00 -0.00000000000E+00 -0.74505805969E-08  0.93827000000E+00  0.93827000000E+00 0.  1.
     999902    2    1    2    0    0 -0.21544827415E-01 -0.78731563232E-02  0.10275636241E-01  0.10187952655E+01  0.10184851683E+01 0.  0.
     999903    2    3    3    0    0 -0.11040190358E+00  0.51652126257E-01  0.45500738296E-01  0.13162017168E+00  0.19925610343E-01 0.  0.
         14    1    1    2    0    0  0.21544827415E-01  0.78731563232E-02 -0.10275636241E-01  0.25134734512E-01  0.00000000000E+00 0.  1.
     999901    1    3    3    0    0  0.88857076166E-01 -0.59525282580E-01 -0.35225102056E-01  0.88717509380E+00  0.88000000000E+00 0. -1.
        -11    1    4    4    0    0 -0.50615466864E-01  0.19824057693E-01  0.30176931912E-01  0.62175775748E-01  0.51100000000E-03 0. -1.
         11    1    4    4    0    0 -0.59786436717E-01  0.31828068563E-01  0.15323806384E-01  0.69444395936E-01  0.51100000000E-03 0.  1.
</event>
<event>
 8    1  0.1196210E+005  0.1043930E+01  0.7957747E-01            NaN
         13   -1    0    0    0    0  0.00000000000E+00  0.00000000000E+00  0.74505805969E-08  0.10566000000E+00  0.10566000000E+00 0. -1.
     999900   -1    0    0    0    0 -0.00000000000E+00 -0.00000000000E+00 -0.74505805969E-08  0.93827000000E+00  0.93827000000E+00 0. -1.
     999902    2    1    2    0    0  0.18511354679E-01 -0.14493522157E-01  0.36660112376E-02  0.10201356293E+01  0.10198580932E+01 0.  0.
     999903    2    3    3    0    0  0.22408733868E-01  0.11018469805E+00  0.61019019368E-01  0.12949023655E+00  0.20039501004E-01 0.  0.
         14    1    1    2    0    0 -0.18511354679E-01  0.14493522157E-01 -0.36660112376E-02  0.23794370657E-01  0.00000000000E+00 0. -1.
     999901    1    3    3    0    0 -0.38973791887E-02 -0.12467822020E+00 -0.57353008131E-01  0.89064539279E+00  0.88000000000E+00 0. -1.
        -11    1    4    4    0    0  0.20925227193E-01  0.55742058978E-01  0.35731240862E-01  0.69440801887E-01  0.51100000000E-03 0. -1.
         11    1    4    4    0    0  0.14835066748E-02  0.54442639069E-01  0.25287778507E-01  0.60049434665E-01  0.51100000000E-03 0.  1.
</event>
<event>
 8    1  0.1196210E+005  0.1043930E+01  0.7957747E-01            NaN
         13   -1    0    0    0    0  0.00000000000E+00  0.00000000000E+00  0.74505805969E-08  0.10566000000E+00  0.10566000000E+00 0. -1.
     999900   -1    0    0    0    0 -0.00000000000E+00 -0.00000000000E+00 -0.74505805969E-08  0.93827000000E+00  0.93827000000E+00 0.  1.
     999902    2    1    2    0    0 -0.66943004141E-03  0.95922547688E-02  0.21430123630E-01  0.10204414988E+01  0.10201711341E+01 0.  0.
     999903    2    3    3    0    0 -0.71350365479E-01 -0.45772869680E-01  0.99724659014E-01  0.13241496437E+00  0.20067010782E-01 0.  0.
         14    1    1    2    0    0  0.66943004141E-03 -0.95922547688E-02 -0.21430123630E-01  0.23488501164E-01  0.00000000000E+00 0. -1.
     999901    1    3    3    0    0  0.70680935437E-01  0.55365124449E-01 -0.78294535384E-01  0.88802653446E+00  0.88000000000E+00 0.  1.
        -11    1    4    4    0    0 -0.42379292242E-01 -0.33375202762E-01  0.74852902805E-01  0.92266606905E-01  0.51100000000E-03 0.  1.
         11    1    4    4    0    0 -0.28971073236E-01 -0.12397666918E-01  0.24871756209E-01  0.40148357468E-01  0.51100000000E-03 0. -1.
</event>
<event>
 8    1  0.1196210E+005  0.1043930E+01  0.7957747E-01            NaN
         13   -1    0    0    0    0  0.00000000000E+00  0.00000000000E+00  0.74505805969E-08  0.10566000000E+00  0.10566000000E+00 0.  1.
     999900   -1    0    0    0    0 -0.00000000000E+00 -0.00000000000E+00 -0.74505805969E-08  0.93827000000E+00  0.93827000000E+00 0. -1.
     999902    2    1    2    0    0  0.19957334031E-02 -0.19925112804E-01 -0.12006047468E-01  0.10205818042E+01  0.10203146969E+01 0.  0.
     999903    2    3    3    0    0 -0.49881774426E-01  0.77980123299E-01  0.86352738604E-01  0.12819670689E+00  0.20211609124E-01 0.  0.
         14    1    1    2    0    0 -0.19957334031E-02  0.19925112804E-01  0.12006047468E-01  0.23348195816E-01  0.00000000000E+00 0.  1.
     999901    1    3    3    0    0  0.51877507829E-01 -0.97905236103E-01 -0.98358786072E-01  0.89238509729E+00  0.88000000000E+00 0. -1.
        -11    1    4    4    0    0 -0.84487116390E-02  0.30872642093E-01  0.29284067666E-01  0.43385694626E-01  0.51100000000E-03 0. -1.
         11    1    4    4    0    0 -0.41433062787E-01  0.47107481206E-01  0.57068670938E-01  0.84811012263E-01  0.51100000000E-03 0.  1.
</event>
<event>
 8    1  0.1196210E+005  0.1043930E+01  0.7957747E-01            NaN
         13   -1    0    0    0    0  0.00000000000E+00  0.00000000000E+00  0.74505805969E-08  0.10566000000E+00  0.10566000000E+00 0. -1.
     999900   -1    0    0    0    0 -0.00000000000E+00 -0.00000000000E+00 -0.74505805969E-08  0.93827000000E+00  0.93827000000E+00 0.  1.
     999902    2    1    2    0    0 -0.68606734877E-02 -0.16444820820E-01  0.14552753035E-01  0.10209238358E+01  0.10206645849E+01 0.  0.
     999903    2    3    3    0    0 -0.38425766347E-01 -0.13756618297E-01  0.12556756097E+00  0.13338348788E+00  0.18925073432E-01 0.  0.
         14    1    1    2    0    0  0.68606734877E-02  0.16444820820E-01 -0.14552753035E-01  0.23006164248E-01  0.00000000000E+00 0. -1.
     999901    1    3    3    0    0  0.31565092859E-01 -0.26882025230E-02 -0.11101480794E+00  0.88754034787E+00  0.88000000000E+00 0.  1.
        -11    1    4    4    0    0 -0.12498624803E-01 -0.13177974175E-02  0.66580539115E-01  0.67758257960E-01  0.51100000000E-03 0. -1.
         11    1    4    4    0    0 -0.25927141543E-01 -0.12438820880E-01  0.58987021856E-01  0.65625229919E-01  0.51100000000E-03 0.  1.
</event>
<event>
 8    1  0.1196210E+005  0.1043930E+01  0.7957747E-01            NaN
         13   -1    0    0    0    0  0.00000000000E+00  0.00000000000E+00  0.74505805969E-08  0.10566000000E+00  0.10566000000E+00 0.  1.
     999900   -1    0    0    0    0 -0.00000000000E+00 -0.00000000000E+00 -0.74505805969E-08  0.93827000000E+00  0.93827000000E+00 0. -1.
     999902    2    1    2    0    0  0.79137504614E-02  0.89753576309E-02 -0.20100156378E-01  0.10205376770E+01  0.10202695474E+01 0.  0.
     999903    2    3    3    0    0 -0.51640634220E-01 -0.10887941748E-01  0.11481287175E+00  0.12804521169E+00  0.20694886766E-01 0.  0.
         14    1    1    2    0    0 -0.79137504614E-02 -0.89753576309E-02  0.20100156378E-01  0.23392323044E-01  0.00000000000E+00 0.  1.
     999901    1    3    3    0    0  0.59554384682E-01  0.19863299379E-01 -0.13491302813E+00  0.89249246527E+00  0.88000000000E+00 0. -1.
        -11    1    4    4    0    0 -0.27126523544E-01 -0.15913423407E-01  0.58478558120E-01  0.66400965391E-01  0.51100000000E-03 0.  1.
         11    1    4    4    0    0 -0.24514110677E-01  0.50254816593E-02  0.56334313634E-01  0.61644246299E-01  0.51100000000E-03 0. -1.
</event>
<event>
 8    1  0.1196210E+005  0.1043930E+01  0.7957747E-01            NaN
         13   -1    0    0    0    0  0.00000000000E+00  0.00000000000E+00  0.74505805969E-08  0.10566000000E+00  0.10566000000E+00 0. -1.
     999900   -1    0    0    0    0 -0.00000000000E+00 -0.00000000000E+00 -0.74505805969E-08  0.93827000000E+00  0.93827000000E+00 0. -1.
     999902    2    1    2    0    0  0.74870469416E-02  0.22772329829E-01 -0.57846541039E-03  0.10199514784E+01  0.10196695782E+01 0.  0.
     999903    2    3    3    0    0 -0.12019578607E+00  0.37592542059E-01  0.26554375885E-01  0.13019941424E+00  0.19660274228E-01 0.  0.
         14    1    1    2    0    0 -0.74870469416E-02 -0.22772329829E-01  0.57846541039E-03  0.23978521639E-01  0.00000000000E+00 0. -1.
     999901    1    3    3    0    0  0.12768283301E+00 -0.14820212230E-01 -0.27132841295E-01  0.88975206412E+00  0.88000000000E+00 0. -1.
        -11    1    4    4    0    0 -0.33709500921E-01  0.13941420887E-01 -0.68850471861E-03  0.36488749341E-01  0.51100000000E-03 0.  1.
         11    1    4    4    0    0 -0.86486285145E-01  0.23651121171E-01  0.27242880603E-01  0.93710664897E-01  0.51100000000E-03 0. -1.
</event>
<event>
 8    1  0.1196210E+005  0.1043930E+01  0.7957747E-01            NaN
         13   -1    0    0    0    0  0.00000000000E+00  0.00000000000E+00  0.74505805969E-08  0.10566000000E+00  0.10566000000E+00 0.  1.
     999900   -1    0    0    0    0 -0.00000000000E+00 -0.00000000000E+00 -0.74505805969E-08  0.93827000000E+00  0.93827000000E+00 0. -1.
     999902    2    1    2    0    0 -0.11030791953E-01  0.16914963303E-01  0.11265556254E-01  0.10208062652E+01  0.10205443273E+01 0.  0.
     999903    2    3    3    0    0 -0.70231586542E-01  0.10917534021E+00  0.25935094317E-01  0.13388354781E+00  0.20011111900E-01 0.  0.
         14    1    1    2    0    0  0.11030791953E-01 -0.16914963303E-01 -0.11265556254E-01  0.23123734827E-01  0.00000000000E+00 0. -1.
     999901    1    3    3    0    0  0.59200794589E-01 -0.92260376904E-01 -0.14669538062E-01  0.88692271736E+00  0.88000000000E+00 0. -1.
        -11    1    4    4    0    0 -0.24667406595E-01  0.55998945798E-01  0.91824613346E-02  0.61878442092E-01  0.51100000000E-03 0.  1.
         11    1    4    4    0    0 -0.45564179948E-01  0.53176394409E-01  0.16752632982E-01  0.72005105718E-01  0.51100000000E-03 0. -1.
</event>
<event>
 8    1  0.1196210E+005  0.1043930E+01  0.7957747E-01            NaN
         13   -1    0    0    0    0  0.00000000000E+00  0.00000000000E+00  0.74505805969E-08  0.10566000000E+00  0.10566000000E+00 0. -1.
     999900   -1    0    0    0    0 -0.00000000000E+00 -0.00000000000E+00 -0.74505805969E-08  0.93827000000E+00  0.93827000000E+00 0. -1.
     999902    2    1    2    0    0 -0.20503455881E-01 -0.10460463858E-01 -0.20474123038E-02  0.10208214539E+01  0.10205598639E+01 0.  0.
     999903    2    3    3    0    0 -0.57274719995E-01 -0.99142207407E-01 -0.64447186203E-01  0.13340367780E+00  0.23098281331E-01 0.  0.
         14    1    1    2    0    0  0.20503455881E-01  0.10460463858E-01  0.20474123038E-02  0.23108546132E-01  0.00000000000E+00 0.  1.
     999901    1    3    3    0    0  0.36771264114E-01  0.88681743548E-01  0.62399773900E-01  0.88741777607E+00  0.88000000000E+00 0.  1.
        -11    1    4    4    0    0 -0.44780950910E-01 -0.65151752943E-01 -0.33886850479E-01  0.86015488328E-01  0.51100000000E-03 0.  1.
         11    1    4    4    0    0 -0.12493769084E-01 -0.33990454464E-01 -0.30560335724E-01  0.47388189469E-01  0.51100000000E-03 0. -1.
</event>
<event>
 8    1  0.1196210E+005  0.1043930E+01  0.7957747E-01            NaN
         13   -1    0    0    0    0  0.00000000000E+00  0.00000000000E+00  0.74505805969E-08  0.10566000000E+00  0.10566000000E+00 0. -1.
     999900   -1    0    0    0    0 -0.00000000000E+00 -0.00000000000E+00 -0.74505805969E-08  0.93827000000E+00  0.93827000000E+00 0. -1.
     999902    2    1    2    0    0 -0.14385498440E-01  0.40234034203E-02 -0.16602349952E-01  0.10215968774E+01  0.10213527361E+01 0.  0.
     999903    2    3    3    0    0  0.90136123407E-01 -0.84167669676E-01  0.34625368899E-01  0.12956172453E+00  0.19457824386E-01 0.  0.
         14    1    1    2    0    0  0.14385498440E-01 -0.40234034203E-02  0.16602349952E-01  0.22333122584E-01  0.00000000000E+00 0. -1.
     999901    1    3    3    0    0 -0.10452162185E+00  0.88191073096E-01 -0.51227718851E-01  0.89203515289E+00  0.88000000000E+00 0. -1.
        -11    1    4    4    0    0  0.67823612286E-01 -0.53921350680E-01  0.18189503185E-01  0.88536284030E-01  0.51100000000E-03 0.  1.
         11    1    4    4    0    0  0.22312511121E-01 -0.30246318996E-01  0.16435865714E-01  0.41025440498E-01  0.51100000000E-03 0. -1.
</event>
<event>
 8    1  0.1196210E+005  0.1043930E+01  0.7957747E-01            NaN
         13   -1    0    0    0    0  0.00000000000E+00  0.00000000000E+00  0.74505805969E-08  0.10566000000E+00  0.10566000000E+00 0. -1.
     999900   -1    0    0    0    0 -0.00000000000E+00 -0.00000000000E+00 -0.74505805969E-08  0.93827000000E+00  0.93827000000E+00 0. -1.
     999902    2    1    2    0    0 -0.58210142624E-02 -0.31138286881E-02  0.23525319120E-01  0.10194959914E+01  0.10192031474E+01 0.  0.
     999903    2    3    3    0    0  0.72401090040E-01 -0.67223590312E-01 -0.78482441144E-01  0.12784900841E+00  0.20614229309E-01 0.  0.
         14    1    1    2    0    0  0.58210142624E-02  0.31138286881E-02 -0.23525319120E-01  0.24434008591E-01  0.00000000000E+00 0.  1.
     999901    1    3    3    0    0 -0.78222104302E-01  0.64109761624E-01  0.10200776026E+00  0.89164698300E+00  0.88000000000E+00 0.  1.
        -11    1    4    4    0    0  0.37915794383E-01 -0.32700595750E-01 -0.26895280287E-01  0.56837959576E-01  0.51100000000E-03 0.  1.
         11    1    4    4    0    0  0.34485295656E-01 -0.34522994563E-01 -0.51587160858E-01  0.71011048834E-01  0.51100000000E-03 0. -1.
</event>
<event>
 8    1  0.1196210E+005  0.1043930E+01  0.7957747E-01            NaN
         13   -1    0    0    0    0  0.00000000000E+00  0.00000000000E+00  0.74505805969E-08  0.10566000000E+00  0.10566000000E+00 0. -1.
     999900   -1    0    0    0    0 -0.00000000000E+00 -0.00000000000E+00 -0.74505805969E-08  0.93827000000E+00  0.93827000000E+00 0. -1.
     999902    2    1    2    0    0  0.15161431071E-01  0.11281385071E-01  0.14576678617E-01  0.10200633245E+01  0.10197840790E+01 0.  0.
     999903    2    3    3    0    0  0.64345914829E-01 -0.11131353656E+00  0.18131000682E-02  0.13011302407E+00  0.19874896842E-01 0.  0.
         14    1    1    2    0    0 -0.15161431071E-01 -0.11281385071E-01 -0.14576678617E-01  0.23866675528E-01  0.00000000000E+00 0.  1.
     999901    1    3    3    0    0 -0.49184483758E-01  0.12259492163E+00  0.12763578549E-01  0.88995030040E+00  0.88000000000E+00 0.  1.
        -11    1    4    4    0    0  0.38237015719E-01 -0.67445333135E-01  0.10784083442E-01  0.78278348919E-01  0.51100000000E-03 0.  1.
         11    1    4    4    0    0  0.26108899110E-01 -0.43868203421E-01 -0.89709833736E-02  0.51834675150E-01  0.51100000000E-03 0. -1.
</event>
<event>
 8    1  0.1196210E+005  0.1043930E+01  0.7957747E-01            NaN
         13   -1    0    0    0    0  0.00000000000E+00  0.00000000000E+00  0.74505805969E-08  0.10566000000E+00  0.10566000000E+00 0. -1.
     999900   -1    0    0    0    0 -0.00000000000E+00 -0.00000000000E+00 -0.74505805969E-08  0.93827000000E+00  0.93827000000E+00 0. -1.
     999902    2    1    2    0    0 -0.20556804547E-01  0.32962203058E-02 -0.11300824884E-01  0.10202412701E+01  0.10199662216E+01 0.  0.
     999903    2    3    3    0    0  0.57590248777E-02 -0.12572850871E+00  0.24415784528E-01  0.12972704799E+00  0.19802832538E-01 0.  0.
         14    1    1    2    0    0  0.20556804547E-01 -0.32962203058E-02  0.11300824884E-01  0.23688729906E-01  0.00000000000E+00 0. -1.
     999901    1    3    3    0    0 -0.26315829425E-01  0.12902472902E+00 -0.35716609412E-01  0.89051422210E+00  0.88000000000E+00 0.  1.
        -11    1    4    4    0    0  0.25260795916E-02 -0.32027252079E-01  0.15115005282E-01  0.35508456169E-01  0.51100000000E-03 0.  1.
         11    1    4    4    0    0  0.32329452860E-02 -0.93701256633E-01  0.93007792463E-02  0.94218591824E-01  0.51100000000E-03 0. -1.
</event>
<event>
 8    1  0.1196210E+005  0.1043930E+01  0.7957747E-01            NaN
         13   -1    0    0    0    0  0.00000000000E+00  0.00000000000E+00  0.74505805969E-08  0.10566000000E+00  0.10566000000E+00 0. -1.
     999900   -1    0    0    0    0 -0.00000000000E+00 -0.00000000000E+00 -0.74505805969E-08  0.93827000000E+00  0.93827000000E+00 0. -1.
     999902    2    1    2    0    0 -0.35110707147E-02  0.95801199926E-02 -0.28188534718E-01  0.10139516777E+01  0.10135084139E+01 0.  0.
     999903    2    3    3    0    0  0.41571804750E-01  0.40265623467E-01  0.10624209827E+00  0.12207407353E+00  0.16283752683E-01 0.  0.
         14    1    1    2    0    0  0.35110707147E-02 -0.95801199926E-02  0.28188534718E-01  0.29978322271E-01  0.00000000000E+00 0. -1.
     999901    1    3    3    0    0 -0.45082875464E-01 -0.30685503474E-01 -0.13443063298E+00  0.89187760420E+00  0.88000000000E+00 0. -1.
        -11    1    4    4    0    0  0.23876490314E-01  0.32896746084E-01  0.77650603213E-01  0.87647932051E-01  0.51100000000E-03 0.  1.
         11    1    4    4    0    0  0.17695314436E-01  0.73688773830E-02  0.28591495054E-01  0.34426141481E-01  0.51100000000E-03 0. -1.
</event>
<event>
 8    1  0.1196210E+005  0.1043930E+01  0.7957747E-01            NaN
         13   -1    0    0    0    0  0.00000000000E+00  0.00000000000E+00  0.74505805969E-08  0.10566000000E+00  0.10566000000E+00 0. -1.
     999900   -1    0    0    0    0 -0.00000000000E+00 -0.00000000000E+00 -0.74505805969E-08  0.93827000000E+00  0.93827000000E+00 0.  1.
     999902    2    1    2    0    0 -0.23952605849E-01  0.10365229021E-03 -0.13296165180E-02  0.10199402949E+01  0.10196581286E+01 0.  0.
     999903    2    3    3    0    0 -0.91794589313E-01 -0.91368444678E-01 -0.19003632037E-01  0.13242575977E+00  0.20025096990E-01 0.  0.
         14    1    1    2    0    0  0.23952605849E-01 -0.10365229021E-03  0.13296165180E-02  0.23989705101E-01  0.00000000000E+00 0. -1.
     999901    1    3    3    0    0  0.67841983464E-01  0.91472096968E-01  0.17674015519E-01  0.88751453513E+00  0.88000000000E+00 0. -1.
        -11    1    4    4    0    0 -0.19733092288E-01 -0.28826226856E-01 -0.11201707410E-01  0.36689039997E-01  0.51100000000E-03 0.  1.
         11    1    4    4    0    0 -0.72061497025E-01 -0.62542217821E-01 -0.78019246269E-02  0.95736719771E-01  0.51100000000E-03 0. -1.
</event>
<event>
 8    1  0.1196210E+005  0.1043930E+01  0.7957747E-01            NaN
         13   -1    0    0    0    0  0.00000000000E+00  0.00000000000E+00  0.74505805969E-08  0.10566000000E+00  0.10566000000E+00 0.  1.
     999900   -1    0    0    0    0 -0.00000000000E+00 -0.00000000000E+00 -0.74505805969E-08  0.93827000000E+00  0.93827000000E+00 0.  1.
     999902    2    1    2    0    0 -0.14197350022E-02 -0.13873003471E-01  0.18079699377E-01  0.10210968793E+01  0.10208415575E+01 0.  0.
     999903    2    3    3    0    0  0.73016904461E-01  0.10201841427E+00  0.29023503320E-01  0.13031553638E+00  0.20013747509E-01 0.  0.
         14    1    1    2    0    0  0.14197350022E-02  0.13873003471E-01 -0.18079699377E-01  0.22833120731E-01  0.00000000000E+00 0. -1.
     999901    1    3    3    0    0 -0.74436639463E-01 -0.11589141774E+00 -0.10943803943E-01  0.89078134289E+00  0.88000000000E+00 0.  1.
        -11    1    4    4    0    0  0.55585649203E-01  0.86713899142E-01  0.29383044351E-01  0.10711063961E+00  0.51100000000E-03 0.  1.
         11    1    4    4    0    0  0.17431255258E-01  0.15304515126E-01 -0.35954103130E-03  0.23204896765E-01  0.51100000000E-03 0. -1.
</event>
<event>
 8    1  0.1196210E+005  0.1043930E+01  0.7957747E-01            NaN
         13   -1    0    0    0    0  0.00000000000E+00  0.00000000000E+00  0.74505805969E-08  0.10566000000E+00  0.10566000000E+00 0.  1.
     999900   -1    0    0    0    0 -0.00000000000E+00 -0.00000000000E+00 -0.74505805969E-08  0.93827000000E+00  0.93827000000E+00 0.  1.
     999902    2    1    2    0    0 -0.11934421030E-01 -0.19413528592E-01 -0.20173307448E-02  0.10210523882E+01  0.10207960591E+01 0.  0.
     999903    2    3    3    0    0  0.34953527531E-01 -0.94244905663E-01 -0.84512857102E-01  0.13279357087E+00  0.19694113824E-01 0.  0.
         14    1    1    2    0    0  0.11934421030E-01  0.19413528592E-01  0.20173307448E-02  0.22877611787E-01  0.00000000000E+00 0. -1.
     999901    1    3    3    0    0 -0.46887948562E-01  0.74831377071E-01  0.82495526357E-01  0.88825881734E+00  0.88000000000E+00 0. -1.
        -11    1    4    4    0    0  0.24836024612E-01 -0.63935523719E-01 -0.68916464311E-01  0.97233324976E-01  0.51100000000E-03 0. -1.
         11    1    4    4    0    0  0.10117502919E-01 -0.30309381944E-01 -0.15596392791E-01  0.35560245897E-01  0.51100000000E-03 0.  1.
</event>
<event>
 8    1  0.1196210E+005  0.1043930E+01  0.7957747E-01            NaN
         13   -1    0    0    0    0  0.00000000000E+00  0.00000000000E+00  0.74505805969E-08  0.10566000000E+00  0.10566000000E+00 0. -1.
     999900   -1    0    0    0    0 -0.00000000000E+00 -0.00000000000E+00 -0.74505805969E-08  0.93827000000E+00  0.93827000000E+00 0.  1.
     999902    2    1    2    0    0 -0.53251444812E-02  0.12489240998E-01  0.19374468187E-01  0.10202718445E+01  0.10199975139E+01 0.  0.
     999903    2    3    3    0    0 -0.12168039478E+00  0.45573498879E-01  0.11717393110E-01  0.13196348407E+00  0.19849472393E-01 0.  0.
         14    1    1    2    0    0  0.53251444812E-02 -0.12489240998E-01 -0.19374468187E-01  0.23658155507E-01  0.00000000000E+00 0.  1.
     999901    1    3    3    0    0  0.11635525030E+00 -0.33084257881E-01  0.76570750769E-02  0.88830836042E+00  0.88000000000E+00 0. -1.
        -11    1    4    4    0    0 -0.11957534075E+00  0.41884450090E-01  0.92784113845E-02  0.12703904641E+00  0.51100000000E-03 0.  1.
         11    1    4    4    0    0 -0.21050540302E-02  0.36890487888E-02  0.24389817254E-02  0.49244376626E-02  0.51100000000E-03 0. -1.
</event>
<event>
 8    1  0.1196210E+005  0.1043930E+01  0.7957747E-01            NaN
         13   -1    0    0    0    0  0.00000000000E+00  0.00000000000E+00  0.74505805969E-08  0.10566000000E+00  0.10566000000E+00 0. -1.
     999900   -1    0    0    0    0 -0.00000000000E+00 -0.00000000000E+00 -0.74505805969E-08  0.93827000000E+00  0.93827000000E+00 0. -1.
     999902    2    1    2    0    0  0.14538925542E-01 -0.16480228543E-01  0.72796132159E-02  0.10207789513E+01  0.10205163871E+01 0.  0.
     999903    2    3    3    0    0  0.82625799677E-01  0.78828700236E-01  0.62287586113E-01  0.13131535369E+00  0.17971977581E-01 0.  0.
         14    1    1    2    0    0 -0.14538925542E-01  0.16480228543E-01 -0.72796132159E-02  0.23151048730E-01  0.00000000000E+00 0.  1.
     999901    1    3    3    0    0 -0.68086874136E-01 -0.95308928779E-01 -0.55007972897E-01  0.88946359758E+00  0.88000000000E+00 0. -1.
        -11    1    4    4    0    0  0.33765797686E-01  0.43459900908E-01  0.25457153011E-01  0.60640084439E-01  0.51100000000E-03 0. -1.
         11    1    4    4    0    0  0.48860001991E-01  0.35368799328E-01  0.36830433102E-01  0.70675269253E-01  0.51100000000E-03 0.  1.
</event>
<event>
 8    1  0.1196210E+005  0.1043930E+01  0.7957747E-01            NaN
         13   -1    0    0    0    0  0.00000000000E+00  0.00000000000E+00  0.74505805969E-08  0.10566000000E+00  0.10566000000E+00 0.  1.
     999900   -1    0    0    0    0 -0.00000000000E+00 -0.00000000000E+00 -0.74505805969E-08  0.93827000000E+00  0.93827000000E+00 0.  1.
     999902    2    1    2    0    0 -0.16970587961E-01  0.13225627648E-01  0.74471849161E-02  0.10211620698E+01  0.10209082202E+01 0.  0.
     999903    2    3    3    0    0  0.10855875797E+00 -0.51131526454E-01 -0.41809681118E-01  0.12856714553E+00  0.19545448192E-01 0.  0.
         14    1    1    2    0    0  0.16970587961E-01 -0.13225627648E-01 -0.74471849161E-02  0.22767930200E-01  0.00000000000E+00 0. -1.
     999901    1    3    3    0    0 -0.12552934593E+00  0.64357154103E-01  0.49256866034E-01  0.89259492427E+00  0.88000000000E+00 0. -1.
        -11    1    4    4    0    0  0.35981031335E-01 -0.18860688336E-01 -0.47107887007E-02  0.40900034616E-01  0.51100000000E-03 0. -1.
         11    1    4    4    0    0  0.72577726638E-01 -0.32270838118E-01 -0.37098892418E-01  0.87667110917E-01  0.51100000000E-03 0.  1.
</event>
<event>
 8    1  0.1196210E+005  0.1043930E+01  0.7957747E-01            NaN
         13   -1    0    0    0    0  0.00000000000E+00  0.00000000000E+00  0.74505805969E-08  0.10566000000E+00  0.10566000000E+00 0.  1.
     999900   -1    0    0    0    0 -0.00000000000E+00 -0.00000000000E+00 -0.74505805969E-08  0.93827000000E+00  0.93827000000E+00 0.  1.
     999902    2    1    2    0    0  0.11986461498E-01 -0.70853267286E-03 -0.20492544644E-01  0.10201787545E+01  0.10199022352E+01 0.  0.
     999903    2    3    3    0    0  0.10462739943E+00  0.22071636499E-01 -0.76653970277E-01  0.13324280120E+00  0.21065684517E-01 0.  0.
         14    1    1    2    0    0 -0.11986461498E-01  0.70853267286E-03  0.20492544644E-01  0.23751245521E-01  0.00000000000E+00 0.  1.
     999901    1    3    3    0    0 -0.92640937929E-01 -0.22780169171E-01  0.56161425633E-01  0.88693595328E+00  0.88000000000E+00 0. -1.
        -11    1    4    4    0    0  0.69638339717E-01  0.24224324142E-01 -0.48195559482E-01  0.88087395883E-01  0.51100000000E-03 0. -1.
         11    1    4    4    0    0  0.34989059710E-01 -0.21526876432E-02 -0.28458410796E-01  0.45155405318E-01  0.51100000000E-03 0.  1.
</event>
<event>
 8    1  0.1196210E+005  0.1043930E+01  0.7957747E-01            NaN
         13   -1    0    0    0    0  0.00000000000E+00  0.00000000000E+00  0.74505805969E-08  0.10566000000E+00  0.10566000000E+00 0. -1.
     999900   -1    0    0    0    0 -0.00000000000E+00 -0.00000000000E+00 -0.74505805969E-08  0.93827000000E+00  0.93827000000E+00 0. -1.
     999902    2    1    2    0    0  0.12387567937E-01 -0.20209474824E-01  0.25130679157E-02  0.10200932590E+01  0.10198147218E+01 0.  0.
     999903    2    3    3    0    0  0.60437892114E-01  0.10330527145E+00  0.44694998092E-01  0.12917011895E+00  0.19040978520E-01 0.  0.
         14    1    1    2    0    0 -0.12387567937E-01  0.20209474824E-01 -0.25130679157E-02  0.23836741019E-01  0.00000000000E+00 0.  1.
     999901    1    3    3    0    0 -0.48050324177E-01 -0.12351474628E+00 -0.42181930176E-01  0.89092314003E+00  0.88000000000E+00 0. -1.
        -11    1    4    4    0    0  0.38186276555E-01  0.81108149915E-01  0.30685583398E-01  0.94755421213E-01  0.51100000000E-03 0.  1.
         11    1    4    4    0    0  0.22251615559E-01  0.22197121539E-01  0.14009414694E-01  0.34414697742E-01  0.51100000000E-03 0. -1.
</event>
<event>
 8    1  0.1196210E+005  0.1043930E+01  0.7957747E-01            NaN
         13   -1    0    0    0    0  0.00000000000E+00  0.00000000000E+00  0.74505805969E-08  0.10566000000E+00  0.10566000000E+00 0. -1.
     999900   -1    0    0    0    0 -0.00000000000E+00 -0.00000000000E+00 -0.74505805969E-08  0.93827000000E+00  0.93827000000E+00 0. -1.
     999902    2    1    2    0    0 -0.19420381914E-01 -0.10861927297E-01  0.92785547950E-02  0.10198214066E+01  0.10195364030E+01 0.  0.
     999903    2    3    3    0    0 -0.52745822322E-01 -0.67308913271E-01  0.99651005401E-01  0.13276784165E+00  0.19605237063E-01 0.  0.
         14    1    1    2    0    0  0.19420381914E-01  0.10861927297E-01 -0.92785547950E-02  0.24108593435E-01  0.00000000000E+00 0.  1.
     999901    1    3    3    0    0  0.33325440408E-01  0.56446985973E-01 -0.90372450606E-01  0.88705356492E+00  0.88000000000E+00 0.  1.
        -11    1    4    4    0    0 -0.44983299876E-01 -0.44506170232E-01  0.66633568434E-01  0.91894450429E-01  0.51100000000E-03 0.  1.
         11    1    4    4    0    0 -0.77625224455E-02 -0.22802743039E-01  0.33017436968E-01  0.40873391219E-01  0.51100000000E-03 0. -1.
</event>
<event>
 8    1  0.1196210E+005  0.1043930E+01  0.7957747E-01            NaN
         13   -1    0    0    0    0  0.00000000000E+00  0.00000000000E+00  0.74505805969E-08  0.10566000000E+00  0.10566000000E+00 0. -1.
     999900   -1    0    0    0    0 -0.00000000000E+00 -0.00000000000E+00 -0.74505805969E-08  0.93827000000E+00  0.93827000000E+00 0.  1.
     999902    2    1    2    0    0  0.15820394437E-01 -0.82930627761E-02 -0.14331824974E-01  0.10210288870E+01  0.10207720250E+01 0.  0.
     999903    2    3    3    0    0  0.11652139361E+00  0.20049080746E-01  0.55207018577E-01  0.13210840736E+00  0.20630452911E-01 0.  0.
         14    1    1    2    0    0 -0.15820394437E-01  0.82930627761E-02  0.14331824974E-01  0.22901113017E-01  0.00000000000E+00 0. -1.
     999901    1    3    3    0    0 -0.10070099917E+00 -0.28342143522E-01 -0.69538843551E-01  0.88892047962E+00  0.88000000000E+00 0.  1.
        -11    1    4    4    0    0  0.81073883581E-01  0.18250051792E-01  0.29126483772E-01  0.88060502879E-01  0.51100000000E-03 0. -1.
         11    1    4    4    0    0  0.35447510027E-01  0.17990289545E-02  0.26080534805E-01  0.44047904479E-01  0.51100000000E-03 0.  1.
</event>
<event>
 8    1  0.1196210E+005  0.1043930E+01  0.7957747E-01            NaN
         13   -1    0    0    0    0  0.00000000000E+00  0.00000000000E+00  0.74505805969E-08  0.10566000000E+00  0.10566000000E+00 0. -1.
     999900   -1    0    0    0    0 -0.00000000000E+00 -0.00000000000E+00 -0.74505805969E-08  0.93827000000E+00  0.93827000000E+00 0. -1.
     999902    2    1    2    0    0 -0.46010908031E-02 -0.13211319242E-01 -0.18120193145E-01  0.10210378530E+01  0.10207811945E+01 0.  0.
     999903    2    3    3    0    0 -0.96179829736E-01 -0.26170403021E-01 -0.86160643976E-01  0.13357849835E+00  0.22002477352E-01 0.  0.
         14    1    1    2    0    0  0.46010908031E-02  0.13211319242E-01  0.18120193145E-01  0.22892146957E-01  0.00000000000E+00 0. -1.
     999901    1    3    3    0    0  0.91578738933E-01  0.12959083779E-01  0.68040450831E-01  0.88745935469E+00  0.88000000000E+00 0.  1.
        -11    1    4    4    0    0 -0.40141842445E-01 -0.17704956057E-01 -0.49166971130E-01  0.65897535272E-01  0.51100000000E-03 0.  1.
         11    1    4    4    0    0 -0.56037987291E-01 -0.84654469637E-02 -0.36993672846E-01  0.67680963081E-01  0.51100000000E-03 0. -1.
</event>
<event>
 8    1  0.1196210E+005  0.1043930E+01  0.7957747E-01            NaN
         13   -1    0    0    0    0  0.00000000000E+00  0.00000000000E+00  0.74505805969E-08  0.10566000000E+00  0.10566000000E+00 0. -1.
     999900   -1    0    0    0    0 -0.00000000000E+00 -0.00000000000E+00 -0.74505805969E-08  0.93827000000E+00  0.93827000000E+00 0. -1.
     999902    2    1    2    0    0 -0.13489965535E-01  0.18306568898E-01  0.48226178392E-02  0.10206841987E+01  0.10204194560E+01 0.  0.
     999903    2    3    3    0    0  0.12369788925E+00 -0.21588197813E-01  0.21704202741E-01  0.12900203122E+00  0.20080676090E-01 0.  0.
         14    1    1    2    0    0  0.13489965535E-01 -0.18306568898E-01 -0.48226178392E-02  0.23245801294E-01  0.00000000000E+00 0.  1.
     999901    1    3    3    0    0 -0.13718785478E+00  0.39894766711E-01 -0.16881584902E-01  0.89168216749E+00  0.88000000000E+00 0.  1.
        -11    1    4    4    0    0  0.99536811285E-01 -0.24213617070E-01  0.21598938232E-01  0.10469312922E+00  0.51100000000E-03 0. -1.
         11    1    4    4    0    0  0.24161077962E-01  0.26254192573E-02  0.10526450859E-03  0.24308901995E-01  0.51100000000E-03 0.  1.
</event>
<event>
 8    1  0.1196210E+005  0.1043930E+01  0.7957747E-01            NaN
         13   -1    0    0    0    0  0.00000000000E+00  0.00000000000E+00  0.74505805969E-08  0.10566000000E+00  0.10566000000E+00 0. -1.
     999900   -1    0    0    0    0 -0.00000000000E+00 -0.00000000000E+00 -0.74505805969E-08  0.93827000000E+00  0.93827000000E+00 0. -1.
     999902    2    1    2    0    0 -0.14100978165E-02  0.18016119208E-01 -0.13363066900E-01  0.10214546694E+01  0.10212073742E+01 0.  0.
     999903    2    3    3    0    0 -0.77051771286E-01 -0.13372489603E-02 -0.10670784549E+00  0.13308005064E+00  0.19620700727E-01 0.  0.
         14    1    1    2    0    0  0.14100978165E-02 -0.18016119208E-01  0.13363066900E-01  0.22475330568E-01  0.00000000000E+00 0. -1.
     999901    1    3    3    0    0  0.75641673470E-01  0.19353368168E-01  0.93344778586E-01  0.88837461879E+00  0.88000000000E+00 0.  1.
        -11    1    4    4    0    0 -0.10240121028E-01 -0.69389886929E-02 -0.14374285470E-01  0.18970789296E-01  0.51100000000E-03 0. -1.
         11    1    4    4    0    0 -0.66811650258E-01  0.56017397326E-02 -0.92333560016E-01  0.11410926134E+00  0.51100000000E-03 0.  1.
</event>
<event>
 8    1  0.1196210E+005  0.1043930E+01  0.7957747E-01            NaN
         13   -1    0    0    0    0  0.00000000000E+00  0.00000000000E+00  0.74505805969E-08  0.10566000000E+00  0.10566000000E+00 0.  1.
     999900   -1    0    0    0    0 -0.00000000000E+00 -0.00000000000E+00 -0.74505805969E-08  0.93827000000E+00  0.93827000000E+00 0. -1.
     999902    2    1    2    0    0  0.41504760236E-02 -0.64205150507E-02 -0.22265795295E-01  0.10203882264E+01  0.10201166195E+01 0.  0.
     999903    2    3    3    0    0  0.35815010805E-01  0.11921473048E+00  0.28996395938E-01  0.12942544942E+00  0.20378641229E-01 0.  0.
         14    1    1    2    0    0 -0.41504760236E-02  0.64205150507E-02  0.22265795295E-01  0.23541773614E-01  0.00000000000E+00 0. -1.
     999901    1    3    3    0    0 -0.31664534782E-01 -0.12563524553E+00 -0.51262191234E-01  0.89096277696E+00  0.88000000000E+00 0. -1.
        -11    1    4    4    0    0  0.18896529846E-01  0.63681651321E-01  0.25864256798E-01  0.71285710040E-01  0.51100000000E-03 0. -1.
         11    1    4    4    0    0  0.16918480959E-01  0.55533079160E-01  0.31321391405E-02  0.58139739384E-01  0.51100000000E-03 0.  1.
</event>
<event>
 8    1  0.1196210E+005  0.1043930E+01  0.7957747E-01            NaN
         13   -1    0    0    0    0  0.00000000000E+00  0.00000000000E+00  0.74505805969E-08  0.10566000000E+00  0.10566000000E+00 0. -1.
     999900   -1    0    0    0    0 -0.00000000000E+00 -0.00000000000E+00 -0.74505805969E-08  0.93827000000E+00  0.93827000000E+00 0. -1.
     999902    2    1    2    0    0 -0.36639803693E-02  0.17744705442E-01 -0.14585930688E-01  0.10206695465E+01  0.10204044661E+01 0.  0.
     999903    2    3    3    0    0  0.14542812804E-01  0.78644557434E-01  0.10145732977E+00  0.13077836349E+00  0.20320698185E-01 0.  0.
         14    1    1    2    0    0  0.36639803693E-02 -0.17744705442E-01  0.14585930688E-01  0.23260453508E-01  0.00000000000E+00 0. -1.
     999901    1    3    3    0    0 -0.18206793173E-01 -0.60899851992E-01 -0.11604326046E+00  0.88989118300E+00  0.88000000000E+00 0. -1.
        -11    1    4    4    0    0  0.62460726294E-02  0.67244511404E-01  0.75989955986E-01  0.10166401659E+00  0.51100000000E-03 0. -1.
         11    1    4    4    0    0  0.82967401745E-02  0.11400046030E-01  0.25467373783E-01  0.29114346900E-01  0.51100000000E-03 0.  1.
</event>
<event>
 8    1  0.1196210E+005  0.1043930E+01  0.7957747E-01            NaN
         13   -1    0    0    0    0  0.00000000000E+00  0.00000000000E+00  0.74505805969E-08  0.10566000000E+00  0.10566000000E+00 0. -1.
     999900   -1    0    0    0    0 -0.00000000000E+00 -0.00000000000E+00 -0.74505805969E-08  0.93827000000E+00  0.93827000000E+00 0.  1.
     999902    2    1    2    0    0  0.12119765265E-01  0.86739674630E-02 -0.16381618692E-01  0.10217831300E+01  0.10215430881E+01 0.  0.
     999903    2    3    3    0    0 -0.42788976758E-01 -0.10004432560E+00  0.67131012475E-01  0.12947769079E+00  0.20448373050E-01 0.  0.
         14    1    1    2    0    0 -0.12119765265E-01 -0.86739674630E-02  0.16381618692E-01  0.22146870041E-01  0.00000000000E+00 0. -1.
     999901    1    3    3    0    0  0.54908742023E-01  0.10871829307E+00 -0.83512631167E-01  0.89230543916E+00  0.88000000000E+00 0. -1.
        -11    1    4    4    0    0 -0.12950753170E-01 -0.42856886478E-01  0.37887170099E-01  0.58652651307E-01  0.51100000000E-03 0. -1.
         11    1    4    4    0    0 -0.29838223588E-01 -0.57187439125E-01  0.29243842376E-01  0.70825039488E-01  0.51100000000E-03 0.  1.
</event>
<event>
 8    1  0.1196210E+005  0.1043930E+01  0.7957747E-01            NaN
         13   -1    0    0    0    0  0.00000000000E+00  0.00000000000E+00  0.74505805969E-08  0.10566000000E+00  0.10566000000E+00 0.  1.
     999900   -1    0    0    0    0 -0.00000000000E+00 -0.00000000000E+00 -0.74505805969E-08  0.93827000000E+00  0.93827000000E+00 0. -1.
     999902    2    1    2    0    0  0.64770598151E-02  0.20957982294E-01  0.64470000844E-02  0.10210662047E+01  0.10208101886E+01 0.  0.
     999903    2    3    3    0    0  0.39303092197E-01  0.44063343913E-01  0.11778527499E+00  0.13314299991E+00  0.19167057363E-01 0.  0.
         14    1    1    2    0    0 -0.64770598151E-02 -0.20957982294E-01 -0.64470000844E-02  0.22863795306E-01  0.00000000000E+00 0. -1.
     999901    1    3    3    0    0 -0.32826032382E-01 -0.23105361618E-01 -0.11133827490E+00  0.88792320479E+00  0.88000000000E+00 0. -1.
        -11    1    4    4    0    0  0.24810734915E-01  0.15121270914E-01  0.65350531042E-01  0.71520475596E-01  0.51100000000E-03 0. -1.
         11    1    4    4    0    0  0.14492357282E-01  0.28942072999E-01  0.52434743946E-01  0.61622524313E-01  0.51100000000E-03 0.  1.
</event>
<event>
 8    1  0.1196210E+005  0.1043930E+01  0.7957747E-01            NaN
         13   -1    0    0    0    0  0.00000000000E+00  0.00000000000E+00  0.74505805969E-08  0.10566000000E+00  0.10566000000E+00 0. -1.
     999900   -1    0    0    0    0 -0.00000000000E+00 -0.00000000000E+00 -0.74505805969E-08  0.93827000000E+00  0.93827000000E+00 0. -1.
     999902    2    1    2    0    0  0.17863277278E-02  0.57151049806E-02  0.23845418415E-01  0.10193442852E+01  0.10190477489E+01 0.  0.
     999903    2    3    3    0    0 -0.76591238989E-01  0.87022661665E-01 -0.52485987562E-01  0.12884979042E+00  0.20207129127E-01 0.  0.
         14    1    1    2    0    0 -0.17863277278E-02 -0.57151049806E-02 -0.23845418415E-01  0.24585714777E-01  0.00000000000E+00 0.  1.
     999901    1    3    3    0    0  0.78377566717E-01 -0.81307556684E-01  0.76331405977E-01  0.89049449480E+00  0.88000000000E+00 0.  1.
        -11    1    4    4    0    0 -0.46002680194E-01  0.43481967949E-01 -0.37457837178E-01  0.73554597469E-01  0.51100000000E-03 0. -1.
         11    1    4    4    0    0 -0.30588558795E-01  0.43540693716E-01 -0.15028150384E-01  0.55295192950E-01  0.51100000000E-03 0.  1.
</event>
<event>
 8    1  0.1196210E+005  0.1043930E+01  0.7957747E-01            NaN
         13   -1    0    0    0    0  0.00000000000E+00  0.00000000000E+00  0.74505805969E-08  0.10566000000E+00  0.10566000000E+00 0. -1.
     999900   -1    0    0    0    0 -0.00000000000E+00 -0.00000000000E+00 -0.74505805969E-08  0.93827000000E+00  0.93827000000E+00 0.  1.
     999902    2    1    2    0    0 -0.14366232827E-01  0.86317652874E-03 -0.17763386364E-01  0.10210679875E+01  0.10208120118E+01 0.  0.
     999903    2    3    3    0    0  0.55830504593E-01 -0.74352567000E-01  0.86871328576E-01  0.12891698372E+00  0.20678769302E-01 0.  0.
         14    1    1    2    0    0  0.14366232827E-01 -0.86317652874E-03  0.17763386364E-01  0.22862012477E-01  0.00000000000E+00 0. -1.
     999901    1    3    3    0    0 -0.70196737421E-01  0.75215743529E-01 -0.10463471494E+00  0.89215100380E+00  0.88000000000E+00 0.  1.
        -11    1    4    4    0    0  0.42897180935E-01 -0.54398461464E-01  0.75774365686E-01  0.10267120511E+00  0.51100000000E-03 0.  1.
         11    1    4    4    0    0  0.12933323658E-01 -0.19954105536E-01  0.11096962890E-01  0.26245778612E-01  0.51100000000E-03 0. -1.
</event>
<event>
 8    1  0.1196210E+005  0.1043930E+01  0.7957747E-01            NaN
         13   -1    0    0    0    0  0.00000000000E+00  0.00000000000E+00  0.74505805969E-08  0.10566000000E+00  0.10566000000E+00 0. -1.
     999900   -1    0    0    0    0 -0.00000000000E+00 -0.00000000000E+00 -0.74505805969E-08  0.93827000000E+00  0.93827000000E+00 0. -1.
     999902    2    1    2    0    0  0.16507712869E-01  0.11142145429E-01  0.12118195916E-01  0.10206168565E+01  0.10203505599E+01 0.  0.
     999903    2    3    3    0    0 -0.56165273511E-01  0.11671092436E+00  0.68776669294E-02  0.13131736070E+00  0.20517531670E-01 0.  0.
         14    1    1    2    0    0 -0.16507712869E-01 -0.11142145429E-01 -0.12118195916E-01  0.23313143528E-01  0.00000000000E+00 0.  1.
     999901    1    3    3    0    0  0.72672986379E-01 -0.10556877893E+00  0.52405289864E-02  0.88929949577E+00  0.88000000000E+00 0.  1.
        -11    1    4    4    0    0 -0.19502072166E-01  0.62034235441E-01  0.76642048054E-02  0.65479602487E-01  0.51100000000E-03 0.  1.
         11    1    4    4    0    0 -0.36663201344E-01  0.54676688918E-01 -0.78653787604E-03  0.65837758214E-01  0.51100000000E-03 0. -1.
</event>
<event>
 8    1  0.1196210E+005  0.1043930E+01  0.7957747E-01            NaN
         13   -1    0    0    0    0  0.00000000000E+00  0.00000000000E+00  0.74505805969E-08  0.10566000000E+00  0.10566000000E+00 0.  1.
     999900   -1    0    0    0    0 -0.00000000000E+00 -0.00000000000E+00 -0.74505805969E-08  0.93827000000E+00  0.93827000000E+00 0. -1.
     999902    2    1    2    0    0 -0.12644606011E-01  0.17263782059E-01  0.17512969150E-01  0.10162780865E+01  0.10159018263E+01 0.  0.
     999903    2    3    3    0    0  0.14110738547E-01  0.11836156905E+00  0.46749584217E-01  0.12960374342E+00  0.20075674705E-01 0.  0.
         14    1    1    2    0    0  0.12644606011E-01 -0.17263782059E-01 -0.17512969150E-01  0.27651913507E-01  0.00000000000E+00 0. -1.
     999901    1    3    3    0    0 -0.26755344558E-01 -0.10109778699E+00 -0.29236615067E-01  0.88667434307E+00  0.88000000000E+00 0.  1.
        -11    1    4    4    0    0  0.16296157897E-01  0.10290665132E+00  0.34493028476E-01  0.10975141814E+00  0.51100000000E-03 0.  1.
         11    1    4    4    0    0 -0.21854193497E-02  0.15454917728E-01  0.12256555741E-01  0.19852325288E-01  0.51100000000E-03 0. -1.
</event>
<event>
 8    1  0.1196210E+005  0.1043930E+01  0.7957747E-01            NaN
         13   -1    0    0    0    0  0.00000000000E+00  0.00000000000E+00  0.74505805969E-08  0.10566000000E+00  0.10566000000E+00 0. -1.
     999900   -1    0    0    0    0 -0.00000000000E+00 -0.00000000000E+00 -0.74505805969E-08  0.93827000000E+00  0.93827000000E+00 0.  1.
     999902    2    1    2    0    0  0.72453643498E-02  0.24939925460E-02 -0.21498358246E-01  0.10211068821E+01  0.10208517865E+01 0.  0.
     999903    2    3    3    0    0  0.96029525420E-02  0.12706612356E+00  0.23642255401E-01  0.13118472312E+00  0.20309083796E-01 0.  0.
         14    1    1    2    0    0 -0.72453643498E-02 -0.24939925460E-02  0.21498358246E-01  0.22823117900E-01  0.00000000000E+00 0. -1.
     999901    1    3    3    0    0 -0.23575881922E-02 -0.12457213102E+00 -0.45140613648E-01  0.88992215898E+00  0.88000000000E+00 0. -1.
        -11    1    4    4    0    0  0.94375561345E-02  0.77391067248E-01  0.50074924850E-02  0.78126697470E-01  0.51100000000E-03 0.  1.
         11    1    4    4    0    0  0.16539640749E-03  0.49675056313E-01  0.18634762916E-01  0.53058025647E-01  0.51100000000E-03 0. -1.
</event>
<event>
 8    1  0.1196210E+005  0.1043930E+01  0.7957747E-01            NaN
         13   -1    0    0    0    0  0.00000000000E+00  0.00000000000E+00  0.74505805969E-08  0.10566000000E+00  0.10566000000E+00 0. -1.
     999900   -1    0    0    0    0 -0.00000000000E+00 -0.00000000000E+00 -0.74505805969E-08  0.93827000000E+00  0.93827000000E+00 0.  1.
     999902    2    1    2    0    0 -0.72926817736E-02 -0.36138785578E-02 -0.22220780600E-01  0.10202655453E+01  0.10199910669E+01 0.  0.
     999903    2    3    3    0    0  0.50364157381E-01  0.98175755221E-01  0.62218559653E-01  0.12851701414E+00  0.21689778618E-01 0.  0.
         14    1    1    2    0    0  0.72926817736E-02  0.36138785578E-02  0.22220780600E-01  0.23664454698E-01  0.00000000000E+00 0. -1.
     999901    1    3    3    0    0 -0.57656839154E-01 -0.10178963378E+00 -0.84439340253E-01  0.89174853116E+00  0.88000000000E+00 0. -1.
        -11    1    4    4    0    0  0.25076311146E-01  0.30756980083E-01  0.15095405576E-01  0.42461106851E-01  0.51100000000E-03 0.  1.
         11    1    4    4    0    0  0.25287846235E-01  0.67418775138E-01  0.47123154077E-01  0.86055907289E-01  0.51100000000E-03 0. -1.
</event>
<event>
 7    1  0.1196210E+005  0.1043930E+01  0.7957747E-01            NaN
         13   -1    0    0    0    0  0.00000000000E+00  0.00000000000E+00  0.74505805969E-08  0.10566000000E+00  0.10566000000E+00 0. -1.
     999900   -1    0    0    0    0 -0.00000000000E+00 -0.00000000000E+00 -0.74505805969E-08  0.93827000000E+00  0.93827000000E+00 0.  1.
     999903    2    1    2    0    0  0.58600852000E-01 -0.19324988025E-01 -0.77402422633E-01  0.10114058735E+00  0.20754959966E-01 0.  0.
         14    1    1    2    0    0 -0.46608987481E-01  0.36473716598E-01  0.47725102901E-03  0.59185787864E-01  0.00000000000E+00 0. -1.
     999901    1    1    2    0    0 -0.11991864518E-01 -0.17148728573E-01  0.76925171604E-01  0.88360362478E+00  0.88000000000E+00 0. -1.
        -11    1    3    3    0    0  0.43668553362E-01 -0.21184111570E-01 -0.48865356112E-01  0.68875200796E-01  0.51100000000E-03 0.  1.
         11    1    3    3    0    0  0.14932298637E-01  0.18591235454E-02 -0.28537066521E-01  0.32265386556E-01  0.51100000000E-03 0. -1.
</event>
<event>
 8    1  0.1196210E+005  0.1043930E+01  0.7957747E-01            NaN
         13   -1    0    0    0    0  0.00000000000E+00  0.00000000000E+00  0.74505805969E-08  0.10566000000E+00  0.10566000000E+00 0.  1.
     999900   -1    0    0    0    0 -0.00000000000E+00 -0.00000000000E+00 -0.74505805969E-08  0.93827000000E+00  0.93827000000E+00 0. -1.
     999902    2    1    2    0    0 -0.87468816786E-02  0.14071280031E-01  0.18513052942E-01  0.10190856447E+01  0.10187827586E+01 0.  0.
     999903    2    3    3    0    0 -0.21227791920E-01 -0.92456526358E-01  0.86728108463E-01  0.12995278599E+00  0.19160724722E-01 0.  0.
         14    1    1    2    0    0  0.87468816786E-02 -0.14071280031E-01 -0.18513052942E-01  0.24844355295E-01  0.00000000000E+00 0. -1.
     999901    1    3    3    0    0  0.12480910241E-01  0.10652780639E+00 -0.68215055522E-01  0.88913285872E+00  0.88000000000E+00 0.  1.
        -11    1    4    4    0    0  0.25780519542E-02 -0.17498909385E-01  0.11400329730E-01  0.21049627562E-01  0.51100000000E-03 0. -1.
         11    1    4    4    0    0 -0.23805843874E-01 -0.74957616973E-01  0.75327778733E-01  0.10890315842E+00  0.51100000000E-03 0.  1.
</event>
<event>
 8    1  0.1196210E+005  0.1043930E+01  0.7957747E-01            NaN
         13   -1    0    0    0    0  0.00000000000E+00  0.00000000000E+00  0.74505805969E-08  0.10566000000E+00  0.10566000000E+00 0. -1.
     999900   -1    0    0    0    0 -0.00000000000E+00 -0.00000000000E+00 -0.74505805969E-08  0.93827000000E+00  0.93827000000E+00 0.  1.
     999902    2    1    2    0    0 -0.17369789061E-01 -0.10137881784E-01 -0.14771501193E-01  0.10189763737E+01  0.10186707842E+01 0.  0.
     999903    2    3    3    0    0  0.46553107048E-01  0.94788603875E-01  0.67496367020E-01  0.12664027882E+00  0.18163960454E-01 0.  0.
         14    1    1    2    0    0  0.17369789061E-01  0.10137881784E-01  0.14771501193E-01  0.24953626321E-01  0.00000000000E+00 0. -1.
     999901    1    3    3    0    0 -0.63922896110E-01 -0.10492648566E+00 -0.82267868212E-01  0.89233609485E+00  0.88000000000E+00 0.  1.
        -11    1    4    4    0    0  0.10274821883E-01  0.40198582007E-01  0.29010306985E-01  0.50629605889E-01  0.51100000000E-03 0. -1.
         11    1    4    4    0    0  0.36278285165E-01  0.54590021868E-01  0.38486060035E-01  0.76010672935E-01  0.51100000000E-03 0.  1.
</event>
<event>
 8    1  0.1196210E+005  0.1043930E+01  0.7957747E-01            NaN
         13   -1    0    0    0    0  0.00000000000E+00  0.00000000000E+00  0.74505805969E-08  0.10566000000E+00  0.10566000000E+00 0.  1.
     999900   -1    0    0    0    0 -0.00000000000E+00 -0.00000000000E+00 -0.74505805969E-08  0.93827000000E+00  0.93827000000E+00 0. -1.
     999902    2    1    2    0    0  0.21832612175E-01  0.23015547590E-02  0.58230403961E-02  0.10212172743E+01  0.10209646681E+01 0.  0.
     999903    2    3    3    0    0 -0.87684119715E-01  0.69636089034E-01 -0.61509480823E-01  0.12933077790E+00  0.20133160082E-01 0.  0.
         14    1    1    2    0    0 -0.21832612175E-01 -0.23015547590E-02 -0.58230403961E-02  0.22712725687E-01  0.00000000000E+00 0. -1.
     999901    1    3    3    0    0  0.10951673189E+00 -0.67334534275E-01  0.67332521219E-01  0.89188649641E+00  0.88000000000E+00 0.  1.
        -11    1    4    4    0    0 -0.21480943749E-01  0.27838505661E-01 -0.14743043941E-01  0.38131769005E-01  0.51100000000E-03 0. -1.
         11    1    4    4    0    0 -0.66203175966E-01  0.41797583373E-01 -0.46766436882E-01  0.91199008895E-01  0.51100000000E-03 0.  1.
</event>
<event>
 8    1  0.1196210E+005  0.1043930E+01  0.7957747E-01            NaN
         13   -1    0    0    0    0  0.00000000000E+00  0.00000000000E+00  0.74505805969E-08  0.10566000000E+00  0.10566000000E+00 0.  1.
     999900   -1    0    0    0    0 -0.00000000000E+00 -0.00000000000E+00 -0.74505805969E-08  0.93827000000E+00  0.93827000000E+00 0.  1.
     999902    2    1    2    0    0 -0.19066390719E-01 -0.94735559354E-02 -0.11784286244E-01  0.10195959720E+01  0.10193055485E+01 0.  0.
     999903    2    3    3    0    0 -0.73267754785E-01 -0.16439680371E-01 -0.10761429444E+00  0.13270832114E+00  0.19804927378E-01 0.  0.
         14    1    1    2    0    0  0.19066390719E-01  0.94735559354E-02  0.11784286244E-01  0.24334028014E-01  0.00000000000E+00 0.  1.
     999901    1    3    3    0    0  0.54201364066E-01  0.69661244351E-02  0.95830008200E-01  0.88688765085E+00  0.88000000000E+00 0. -1.
        -11    1    4    4    0    0 -0.33843677791E-01 -0.15955062952E-01 -0.42887759777E-01  0.56917305100E-01  0.51100000000E-03 0. -1.
         11    1    4    4    0    0 -0.39424076995E-01 -0.48461741836E-03 -0.64726534666E-01  0.75791016037E-01  0.51100000000E-03 0.  1.
</event>
<event>
 8    1  0.1196210E+005  0.1043930E+01  0.7957747E-01            NaN
         13   -1    0    0    0    0  0.00000000000E+00  0.00000000000E+00  0.74505805969E-08  0.10566000000E+00  0.10566000000E+00 0.  1.
     999900   -1    0    0    0    0 -0.00000000000E+00 -0.00000000000E+00 -0.74505805969E-08  0.93827000000E+00  0.93827000000E+00 0.  1.
     999902    2    1    2    0    0  0.20332032842E-01 -0.72691546742E-02 -0.88933307976E-02  0.10205778373E+01  0.10203106383E+01 0.  0.
     999903    2    3    3    0    0  0.11351478400E+00  0.63978953575E-01  0.13515477046E-01  0.13251169524E+00  0.19944136184E-01 0.  0.
         14    1    1    2    0    0 -0.20332032842E-01  0.72691546742E-02  0.88933307976E-02  0.23352162680E-01  0.00000000000E+00 0.  1.
     999901    1    3    3    0    0 -0.93182751158E-01 -0.71248108250E-01 -0.22408807844E-01  0.88806614208E+00  0.88000000000E+00 0. -1.
        -11    1    4    4    0    0  0.75206004205E-01  0.52854414982E-01  0.89952283867E-02  0.92361829271E-01  0.51100000000E-03 0. -1.
         11    1    4    4    0    0  0.38308779795E-01  0.11124538594E-01  0.45202486597E-02  0.40149865968E-01  0.51100000000E-03 0.  1.
</event>
<event>
 8    1  0.1196210E+005  0.1043930E+01  0.7957747E-01            NaN
         13   -1    0    0    0    0  0.00000000000E+00  0.00000000000E+00  0.74505805969E-08  0.10566000000E+00  0.10566000000E+00 0. -1.
     999900   -1    0    0    0    0 -0.00000000000E+00 -0.00000000000E+00 -0.74505805969E-08  0.93827000000E+00  0.93827000000E+00 0. -1.
     999902    2    1    2    0    0  0.37462693195E-02  0.16135524552E-01 -0.17714172299E-01  0.10196775447E+01  0.10193890884E+01 0.  0.
     999903    2    3    3    0    0  0.76097567547E-01  0.11523483391E-01  0.10079212112E+00  0.12877927733E+00  0.22392412409E-01 0.  0.
         14    1    1    2    0    0 -0.37462693195E-02 -0.16135524552E-01  0.17714172299E-01  0.24252455270E-01  0.00000000000E+00 0. -1.
     999901    1    3    3    0    0 -0.72351298227E-01  0.46120411609E-02 -0.11850629342E+00  0.89089826740E+00  0.88000000000E+00 0.  1.
        -11    1    4    4    0    0  0.42826187299E-01 -0.47552019929E-02  0.52755565422E-01  0.68118316689E-01  0.51100000000E-03 0.  1.
         11    1    4    4    0    0  0.33271380248E-01  0.16278685384E-01  0.48036555698E-01  0.60660960640E-01  0.51100000000E-03 0. -1.
</event>
<event>
 8    1  0.1196210E+005  0.1043930E+01  0.7957747E-01            NaN
         13   -1    0    0    0    0  0.00000000000E+00  0.00000000000E+00  0.74505805969E-08  0.10566000000E+00  0.10566000000E+00 0.  1.
     999900   -1    0    0    0    0 -0.00000000000E+00 -0.00000000000E+00 -0.74505805969E-08  0.93827000000E+00  0.93827000000E+00 0.  1.
     999902    2    1    2    0    0  0.39924243945E-02  0.48816096304E-04  0.23514562533E-01  0.10200788682E+01  0.10197999906E+01 0.  0.
     999903    2    3    3    0    0 -0.21589812711E-01 -0.48878879439E-01  0.12023471304E+00  0.13305961378E+00  0.19829516694E-01 0.  0.
         14    1    1    2    0    0 -0.39924243945E-02 -0.48816096304E-04 -0.23514562533E-01  0.23851131769E-01  0.00000000000E+00 0. -1.
     999901    1    3    3    0    0  0.25582237106E-01  0.48927695536E-01 -0.96720150507E-01  0.88701925445E+00  0.88000000000E+00 0.  1.
        -11    1    4    4    0    0  0.67825579904E-03 -0.22261907922E-01  0.48230285669E-01  0.53126962570E-01  0.51100000000E-03 0.  1.
         11    1    4    4    0    0 -0.22268068510E-01 -0.26616971517E-01  0.72004427371E-01  0.79932651213E-01  0.51100000000E-03 0. -1.
</event>
<event>
 8    1  0.1196210E+005  0.1043930E+01  0.7957747E-01            NaN
         13   -1    0    0    0    0  0.00000000000E+00  0.00000000000E+00  0.74505805969E-08  0.10566000000E+00  0.10566000000E+00 0.  1.
     999900   -1    0    0    0    0 -0.00000000000E+00 -0.00000000000E+00 -0.74505805969E-08  0.93827000000E+00  0.93827000000E+00 0. -1.
     999902    2    1    2    0    0  0.16576322906E-01 -0.14328115811E-01  0.91667406263E-02  0.10201792417E+01  0.10199027340E+01 0.  0.
     999903    2    3    3    0    0  0.12141269000E+00  0.33704886526E-01  0.34878281588E-01  0.13228346154E+00  0.20133529245E-01 0.  0.
         14    1    1    2    0    0 -0.16576322906E-01  0.14328115811E-01 -0.91667406263E-02  0.23750758251E-01  0.00000000000E+00 0. -1.
     999901    1    3    3    0    0 -0.10483636710E+00 -0.48033002337E-01 -0.25711540961E-01  0.88789578021E+00  0.88000000000E+00 0.  1.
        -11    1    4    4    0    0  0.24381207239E-01  0.11137252254E-01  0.14919577927E-01  0.30681208919E-01  0.51100000000E-03 0. -1.
         11    1    4    4    0    0  0.97031482765E-01  0.22567634271E-01  0.19958703661E-01  0.10160225262E+00  0.51100000000E-03 0.  1.
</event>
<event>
 8    1  0.1196210E+005  0.1043930E+01  0.7957747E-01            NaN
         13   -1    0    0    0    0  0.00000000000E+00  0.00000000000E+00  0.74505805969E-08  0.10566000000E+00  0.10566000000E+00 0.  1.
     999900   -1    0    0    0    0 -0.00000000000E+00 -0.00000000000E+00 -0.74505805969E-08  0.93827000000E+00  0.93827000000E+00 0.  1.
     999902    2    1    2    0    0 -0.22280071445E-01 -0.32008256599E-04  0.99467690605E-02  0.10195303930E+01  0.10192383830E+01 0.  0.
     999903    2    3    3    0    0 -0.54069854762E-01  0.20240837242E-01  0.11726313869E+00  0.13220949174E+00  0.19886309952E-01 0.  0.
         14    1    1    2    0    0  0.22280071445E-01  0.32008256599E-04 -0.99467690605E-02  0.24399607023E-01  0.00000000000E+00 0. -1.
     999901    1    3    3    0    0  0.31789783317E-01 -0.20272845499E-01 -0.10731636963E+00  0.88732090124E+00  0.88000000000E+00 0.  1.
        -11    1    4    4    0    0 -0.17313914932E-01  0.19085278739E-02  0.54334914539E-01  0.57061004091E-01  0.51100000000E-03 0. -1.
         11    1    4    4    0    0 -0.36755939830E-01  0.18332309369E-01  0.62928224151E-01  0.75148487645E-01  0.51100000000E-03 0.  1.
</event>
<event>
 8    1  0.1196210E+005  0.1043930E+01  0.7957747E-01            NaN
         13   -1    0    0    0    0  0.00000000000E+00  0.00000000000E+00  0.74505805969E-08  0.10566000000E+00  0.10566000000E+00 0.  1.
     999900   -1    0    0    0    0 -0.00000000000E+00 -0.00000000000E+00 -0.74505805969E-08  0.93827000000E+00  0.93827000000E+00 0.  1.
     999902    2    1    2    0    0  0.12895882656E-01 -0.19561879302E-01  0.67051228942E-03  0.10204902795E+01  0.10202210496E+01 0.  0.
     999903    2    3    3    0    0  0.10314630381E+00  0.68311378882E-01 -0.37585644486E-01  0.13069795452E+00  0.19070138193E-01 0.  0.
         14    1    1    2    0    0 -0.12895882656E-01  0.19561879302E-01 -0.67051228942E-03  0.23439720520E-01  0.00000000000E+00 0. -1.
     999901    1    3    3    0    0 -0.90250421153E-01 -0.87873258184E-01  0.38256156775E-01  0.88979232496E+00  0.88000000000E+00 0.  1.
        -11    1    4    4    0    0  0.40836638419E-01  0.17476724221E-01 -0.88093476783E-02  0.45287223964E-01  0.51100000000E-03 0. -1.
         11    1    4    4    0    0  0.62309665390E-01  0.50834654662E-01 -0.28776296808E-01  0.85410730559E-01  0.51100000000E-03 0.  1.
</event>
<event>
 8    1  0.1196210E+005  0.1043930E+01  0.7957747E-01            NaN
         13   -1    0    0    0    0  0.00000000000E+00  0.00000000000E+00  0.74505805969E-08  0.10566000000E+00  0.10566000000E+00 0.  1.
     999900   -1    0    0    0    0 -0.00000000000E+00 -0.00000000000E+00 -0.74505805969E-08  0.93827000000E+00  0.93827000000E+00 0. -1.
     999902    2    1    2    0    0  0.61917917185E-02  0.16733087681E-01 -0.15200787997E-01  0.10204907495E+01  0.10202215305E+01 0.  0.
     999903    2    3    3    0    0 -0.28644341443E-01 -0.12274487251E+00  0.14004784158E-01  0.12834691413E+00  0.19748274911E-01 0.  0.
         14    1    1    2    0    0 -0.61917917185E-02 -0.16733087681E-01  0.15200787997E-01  0.23439250494E-01  0.00000000000E+00 0. -1.
     999901    1    3    3    0    0  0.34836133161E-01  0.13947796020E+00 -0.29205572155E-01  0.89214383538E+00  0.88000000000E+00 0.  1.
        -11    1    4    4    0    0 -0.26072613174E-01 -0.74407256836E-01  0.13129110965E-01  0.79930317798E-01  0.51100000000E-03 0.  1.
         11    1    4    4    0    0 -0.25717282687E-02 -0.48337615679E-01  0.87567319350E-03  0.48416596332E-01  0.51100000000E-03 0. -1.
</event>
<event>
 8    1  0.1196210E+005  0.1043930E+01  0.7957747E-01            NaN
         13   -1    0    0    0    0  0.00000000000E+00  0.00000000000E+00  0.74505805969E-08  0.10566000000E+00  0.10566000000E+00 0. -1.
     999900   -1    0    0    0    0 -0.00000000000E+00 -0.00000000000E+00 -0.74505805969E-08  0.93827000000E+00  0.93827000000E+00 0.  1.
     999902    2    1    2    0    0 -0.68099534296E-02  0.17365386972E-01 -0.68628093076E-02  0.10240546313E+01  0.10238617375E+01 0.  0.
     999903    2    3    3    0    0 -0.10381181842E-01 -0.96148174847E-01  0.87231206216E-01  0.13178126165E+00  0.20119073543E-01 0.  0.
         14    1    1    2    0    0  0.68099534296E-02 -0.17365386972E-01  0.68628093076E-02  0.19875368726E-01  0.00000000000E+00 0.  1.
     999901    1    3    3    0    0  0.35712284123E-02  0.11351356182E+00 -0.94094015524E-01  0.89227336963E+00  0.88000000000E+00 0.  1.
        -11    1    4    4    0    0 -0.20004414632E-02 -0.82126240225E-01  0.76300065661E-01  0.11211905387E+00  0.51100000000E-03 0.  1.
         11    1    4    4    0    0 -0.83807403787E-02 -0.14021934622E-01  0.10931140555E-01  0.19662207778E-01  0.51100000000E-03 0. -1.
</event>
<event>
 8    1  0.1196210E+005  0.1043930E+01  0.7957747E-01            NaN
         13   -1    0    0    0    0  0.00000000000E+00  0.00000000000E+00  0.74505805969E-08  0.10566000000E+00  0.10566000000E+00 0.  1.
     999900   -1    0    0    0    0 -0.00000000000E+00 -0.00000000000E+00 -0.74505805969E-08  0.93827000000E+00  0.93827000000E+00 0.  1.
     999902    2    1    2    0    0  0.48260263226E-02  0.14728581746E-01  0.85841867380E-02  0.10262124970E+01  0.10260595397E+01 0.  0.
     999903    2    3    3    0    0 -0.46706873479E-01 -0.74012115225E-01  0.10135300209E+00  0.13540578163E+00  0.20074098664E-01 0.  0.
         14    1    1    2    0    0 -0.48260263226E-02 -0.14728581746E-01 -0.85841867380E-02  0.17717502992E-01  0.00000000000E+00 0. -1.
     999901    1    3    3    0    0  0.51532899801E-01  0.88740696971E-01 -0.92768815347E-01  0.89080671538E+00  0.88000000000E+00 0.  1.
        -11    1    4    4    0    0 -0.18215958132E-01 -0.13403449548E-01  0.29582725743E-01  0.37240735409E-01  0.51100000000E-03 0.  1.
         11    1    4    4    0    0 -0.28490915347E-01 -0.60608665677E-01  0.71770276343E-01  0.98165046222E-01  0.51100000000E-03 0. -1.
</event>
<event>
 8    1  0.1196210E+005  0.1043930E+01  0.7957747E-01            NaN
         13   -1    0    0    0    0  0.00000000000E+00  0.00000000000E+00  0.74505805969E-08  0.10566000000E+00  0.10566000000E+00 0.  1.
     999900   -1    0    0    0    0 -0.00000000000E+00 -0.00000000000E+00 -0.74505805969E-08  0.93827000000E+00  0.93827000000E+00 0.  1.
     999902    2    1    2    0    0  0.26447879086E-02 -0.11465074735E-01 -0.20376465385E-01  0.10204003765E+01  0.10201290532E+01 0.  0.
     999903    2    3    3    0    0 -0.23341756247E-01 -0.26849466927E-01 -0.12727743765E+00  0.13341683780E+00  0.18296858111E-01 0.  0.
         14    1    1    2    0    0 -0.26447879086E-02  0.11465074735E-01  0.20376465385E-01  0.23529623527E-01  0.00000000000E+00 0.  1.
     999901    1    3    3    0    0  0.25986544155E-01  0.15384392192E-01  0.10690097226E+00  0.88698353867E+00  0.88000000000E+00 0. -1.
        -11    1    4    4    0    0 -0.14203685545E-01 -0.60090862081E-02 -0.72029060420E-01  0.73663426923E-01  0.51100000000E-03 0. -1.
         11    1    4    4    0    0 -0.91380707014E-02 -0.20840380719E-01 -0.55248377226E-01  0.59753410880E-01  0.51100000000E-03 0.  1.
</event>
<event>
 8    1  0.1196210E+005  0.1043930E+01  0.7957747E-01            NaN
         13   -1    0    0    0    0  0.00000000000E+00  0.00000000000E+00  0.74505805969E-08  0.10566000000E+00  0.10566000000E+00 0. -1.
     999900   -1    0    0    0    0 -0.00000000000E+00 -0.00000000000E+00 -0.74505805969E-08  0.93827000000E+00  0.93827000000E+00 0.  1.
     999902    2    1    2    0    0 -0.13600782860E-01  0.81696398873E-02 -0.19079941841E-01  0.10191153170E+01  0.10188131629E+01 0.  0.
     999903    2    3    3    0    0  0.72424285091E-01  0.94760966086E-01 -0.48180803615E-01  0.13021418066E+00  0.20234259128E-01 0.  0.
         14    1    1    2    0    0  0.13600782860E-01 -0.81696398873E-02  0.19079941841E-01  0.24814682971E-01  0.00000000000E+00 0. -1.
     999901    1    3    3    0    0 -0.86025067951E-01 -0.86591326199E-01  0.29100861774E-01  0.88890113637E+00  0.88000000000E+00 0. -1.
        -11    1    4    4    0    0  0.52043328345E-01  0.69621531798E-01 -0.25151964985E-01  0.90490597184E-01  0.51100000000E-03 0.  1.
         11    1    4    4    0    0  0.20380956745E-01  0.25139434288E-01 -0.23028838630E-01  0.39723583472E-01  0.51100000000E-03 0. -1.
</event>
<event>
 7    1  0.1196210E+005  0.1043930E+01  0.7957747E-01            NaN
         13   -1    0    0    0    0  0.00000000000E+00  0.00000000000E+00  0.74505805969E-08  0.10566000000E+00  0.10566000000E+00 0. -1.
     999900   -1    0    0    0    0 -0.00000000000E+00 -0.00000000000E+00 -0.74505805969E-08  0.93827000000E+00  0.93827000000E+00 0.  1.
     999903    2    1    2    0    0 -0.64488294924E-01  0.55402852793E-01  0.68312532605E-01  0.11068510325E+00  0.18877862449E-01 0.  0.
         14    1    1    2    0    0  0.50580460195E-02  0.39158186934E-01  0.15100697394E-01  0.42272668419E-01  0.00000000000E+00 0. -1.
     999901    1    1    2    0    0  0.59430248904E-01 -0.94561039727E-01 -0.83413229999E-01  0.89097222833E+00  0.88000000000E+00 0. -1.
        -11    1    3    3    0    0 -0.24285024558E-01  0.18177361135E-01  0.35979308366E-01  0.47063261968E-01  0.51100000000E-03 0. -1.
         11    1    3    3    0    0 -0.40203270366E-01  0.37225491658E-01  0.32333224239E-01  0.63621841281E-01  0.51100000000E-03 0.  1.
</event>
<event>
 8    1  0.1196210E+005  0.1043930E+01  0.7957747E-01            NaN
         13   -1    0    0    0    0  0.00000000000E+00  0.00000000000E+00  0.74505805969E-08  0.10566000000E+00  0.10566000000E+00 0.  1.
     999900   -1    0    0    0    0 -0.00000000000E+00 -0.00000000000E+00 -0.74505805969E-08  0.93827000000E+00  0.93827000000E+00 0. -1.
     999902    2    1    2    0    0 -0.14737117086E-01  0.14080912115E-01  0.10346821772E-01  0.10210714912E+01  0.10208155948E+01 0.  0.
     999903    2    3    3    0    0 -0.10232482353E+00  0.82482022058E-01  0.16368304128E-01  0.13406158342E+00  0.20758932913E-01 0.  0.
         14    1    1    2    0    0  0.14737117086E-01 -0.14080912115E-01 -0.10346821772E-01  0.22858508848E-01  0.00000000000E+00 0. -1.
     999901    1    3    3    0    0  0.87587706447E-01 -0.68401109944E-01 -0.60214823564E-02  0.88700990773E+00  0.88000000000E+00 0. -1.
        -11    1    4    4    0    0 -0.76534496449E-01  0.56387737356E-01  0.33354376823E-02  0.95123563518E-01  0.51100000000E-03 0.  1.
         11    1    4    4    0    0 -0.25790327083E-01  0.26094284703E-01  0.13032866446E-01  0.38938019903E-01  0.51100000000E-03 0. -1.
</event>
<event>
 8    1  0.1196210E+005  0.1043930E+01  0.7957747E-01            NaN
         13   -1    0    0    0    0  0.00000000000E+00  0.00000000000E+00  0.74505805969E-08  0.10566000000E+00  0.10566000000E+00 0.  1.
     999900   -1    0    0    0    0 -0.00000000000E+00 -0.00000000000E+00 -0.74505805969E-08  0.93827000000E+00  0.93827000000E+00 0. -1.
     999902    2    1    2    0    0  0.19585576590E-01 -0.86184595820E-02 -0.58194110032E-02  0.10217548292E+01  0.10215141667E+01 0.  0.
     999903    2    3    3    0    0  0.62560429186E-01  0.32139739931E-01  0.11073373655E+00  0.13209607158E+00  0.15512625037E-01 0.  0.
         14    1    1    2    0    0 -0.19585576590E-01  0.86184595820E-02  0.58194110032E-02  0.22175170808E-01  0.00000000000E+00 0.  1.
     999901    1    3    3    0    0 -0.42974852596E-01 -0.40758199513E-01 -0.11655314755E+00  0.88965875761E+00  0.88000000000E+00 0. -1.
        -11    1    4    4    0    0  0.38454458797E-01  0.14678295337E-01  0.52691210745E-01  0.66864209905E-01  0.51100000000E-03 0.  1.
         11    1    4    4    0    0  0.24105970388E-01  0.17461444594E-01  0.58042525803E-01  0.65231861680E-01  0.51100000000E-03 0. -1.
</event>
<event>
 8    1  0.1196210E+005  0.1043930E+01  0.7957747E-01            NaN
         13   -1    0    0    0    0  0.00000000000E+00  0.00000000000E+00  0.74505805969E-08  0.10566000000E+00  0.10566000000E+00 0. -1.
     999900   -1    0    0    0    0 -0.00000000000E+00 -0.00000000000E+00 -0.74505805969E-08  0.93827000000E+00  0.93827000000E+00 0. -1.
     999902    2    1    2    0    0  0.22591152979E-01 -0.49643945240E-02  0.38829199311E-02  0.10204761629E+01  0.10202066049E+01 0.  0.
     999903    2    3    3    0    0 -0.10529529811E-01 -0.12502441686E+00 -0.31815039499E-01  0.13098994444E+00  0.20104551621E-01 0.  0.
         14    1    1    2    0    0 -0.22591152979E-01  0.49643945240E-02 -0.38829199311E-02  0.23453837065E-01  0.00000000000E+00 0.  1.
     999901    1    3    3    0    0  0.33120682789E-01  0.12006002234E+00  0.35697959430E-01  0.88948621850E+00  0.88000000000E+00 0.  1.
        -11    1    4    4    0    0 -0.42100338839E-03 -0.30326149731E-01 -0.16494240799E-01  0.34527868482E-01  0.51100000000E-03 0.  1.
         11    1    4    4    0    0 -0.10108526422E-01 -0.94698267128E-01 -0.15320798700E-01  0.96462075954E-01  0.51100000000E-03 0. -1.
</event>
<event>
 8    1  0.1196210E+005  0.1043930E+01  0.7957747E-01            NaN
         13   -1    0    0    0    0  0.00000000000E+00  0.00000000000E+00  0.74505805969E-08  0.10566000000E+00  0.10566000000E+00 0.  1.
     999900   -1    0    0    0    0 -0.00000000000E+00 -0.00000000000E+00 -0.74505805969E-08  0.93827000000E+00  0.93827000000E+00 0.  1.
     999902    2    1    2    0    0  0.22707313192E-01 -0.13759934393E-02 -0.74047018579E-02  0.10200062662E+01  0.10197256680E+01 0.  0.
     999903    2    3    3    0    0 -0.95838619649E-01  0.26259732535E-01  0.77831912222E-01  0.12754777867E+00  0.18330704159E-01 0.  0.
         14    1    1    2    0    0 -0.22707313192E-01  0.13759934393E-02  0.74047018579E-02  0.23923733821E-01  0.00000000000E+00 0.  1.
     999901    1    3    3    0    0  0.11854593284E+00 -0.27635725974E-01 -0.85236614080E-01  0.89245848751E+00  0.88000000000E+00 0. -1.
        -11    1    4    4    0    0 -0.33737192799E-01  0.16660338030E-01  0.22674582091E-01  0.43933618508E-01  0.51100000000E-03 0.  1.
         11    1    4    4    0    0 -0.62101426850E-01  0.95993945050E-02  0.55157330131E-01  0.83614160164E-01  0.51100000000E-03 0. -1.
</event>
<event>
 8    1  0.1196210E+005  0.1043930E+01  0.7957747E-01            NaN
         13   -1    0    0    0    0  0.00000000000E+00  0.00000000000E+00  0.74505805969E-08  0.10566000000E+00  0.10566000000E+00 0.  1.
     999900   -1    0    0    0    0 -0.00000000000E+00 -0.00000000000E+00 -0.74505805969E-08  0.93827000000E+00  0.93827000000E+00 0.  1.
     999902    2    1    2    0    0 -0.27205048080E-02 -0.22028123804E-01  0.80112039654E-02  0.10203329923E+01  0.10200600945E+01 0.  0.
     999903    2    3    3    0    0 -0.35350385506E-02 -0.36880286429E-01  0.12552884309E+00  0.13239625708E+00  0.19965630901E-01 0.  0.
         14    1    1    2    0    0  0.27205048080E-02  0.22028123804E-01 -0.80112039654E-02  0.23597007728E-01  0.00000000000E+00 0.  1.
     999901    1    3    3    0    0  0.81453374259E-03  0.14852162625E-01 -0.11751763912E+00  0.88793673519E+00  0.88000000000E+00 0.  1.
        -11    1    4    4    0    0 -0.67621452135E-02 -0.36667196748E-01  0.10126197710E+00  0.10790949472E+00  0.51100000000E-03 0. -1.
         11    1    4    4    0    0  0.32271066629E-02 -0.21308968123E-03  0.24266865992E-01  0.24486762356E-01  0.51100000000E-03 0.  1.
</event>
<event>
 8    1  0.1196210E+005  0.1043930E+01  0.7957747E-01            NaN
         13   -1    0    0    0    0  0.00000000000E+00  0.00000000000E+00  0.74505805969E-08  0.10566000000E+00  0.10566000000E+00 0.  1.
     999900   -1    0    0    0    0 -0.00000000000E+00 -0.00000000000E+00 -0.74505805969E-08  0.93827000000E+00  0.93827000000E+00 0. -1.
     999902    2    1    2    0    0  0.10378690020E-01 -0.36778775217E-02 -0.19434030894E-01  0.10215933587E+01  0.10213491396E+01 0.  0.
     999903    2    3    3    0    0  0.11558088411E+00 -0.61247114546E-01 -0.16935160720E-01  0.13345600270E+00  0.20336056070E-01 0.  0.
         14    1    1    2    0    0 -0.10378690020E-01  0.36778775217E-02  0.19434030894E-01  0.22336641341E-01  0.00000000000E+00 0.  1.
     999901    1    3    3    0    0 -0.10520219409E+00  0.57569237024E-01 -0.24988701745E-02  0.88813735596E+00  0.88000000000E+00 0.  1.
        -11    1    4    4    0    0  0.56480170986E-01 -0.36466705229E-01 -0.25036723440E-03  0.67232091367E-01  0.51100000000E-03 0. -1.
         11    1    4    4    0    0  0.59100713126E-01 -0.24780409317E-01 -0.16684793486E-01  0.66223911335E-01  0.51100000000E-03 0.  1.
</event>
<event>
 8    1  0.1196210E+005  0.1043930E+01  0.7957747E-01            NaN
         13   -1    0    0    0    0  0.00000000000E+00  0.00000000000E+00  0.74505805969E-08  0.10566000000E+00  0.10566000000E+00 0.  1.
     999900   -1    0    0    0    0 -0.00000000000E+00 -0.00000000000E+00 -0.74505805969E-08  0.93827000000E+00  0.93827000000E+00 0. -1.
     999902    2    1    2    0    0 -0.16879886526E-01  0.77524094635E-02  0.10563560029E-01  0.10225613495E+01  0.10223380529E+01 0.  0.
     999903    2    3    3    0    0 -0.20096328970E-01 -0.62024913189E-01  0.11459093201E+00  0.13368514086E+00  0.22128779744E-01 0.  0.
         14    1    1    2    0    0  0.16879886526E-01 -0.77524094635E-02 -0.10563560029E-01  0.21368650451E-01  0.00000000000E+00 0. -1.
     999901    1    3    3    0    0  0.32164424444E-02  0.69777322652E-01 -0.10402737198E+00  0.88887620869E+00  0.88000000000E+00 0. -1.
        -11    1    4    4    0    0 -0.83734882482E-02 -0.97838324729E-02  0.10473106890E-01  0.16606798976E-01  0.51100000000E-03 0. -1.
         11    1    4    4    0    0 -0.11722840722E-01 -0.52241080716E-01  0.10411782512E+00  0.11707834188E+00  0.51100000000E-03 0.  1.
</event>
<event>
 8    1  0.1196210E+005  0.1043930E+01  0.7957747E-01            NaN
         13   -1    0    0    0    0  0.00000000000E+00  0.00000000000E+00  0.74505805969E-08  0.10566000000E+00  0.10566000000E+00 0.  1.
     999900   -1    0    0    0    0 -0.00000000000E+00 -0.00000000000E+00 -0.74505805969E-08  0.93827000000E+00  0.93827000000E+00 0. -1.
     999902    2    1    2    0    0 -0.12019515845E-01 -0.28881748494E-02 -0.20383786441E-01  0.10200907663E+01  0.10198121701E+01 0.  0.
     999903    2    3    3    0    0 -0.81277338074E-02  0.28599991346E-01 -0.12792268997E+00  0.13297675649E+00  0.20846668699E-01 0.  0.
         14    1    1    2    0    0  0.12019515845E-01  0.28881748494E-02  0.20383786441E-01  0.23839233729E-01  0.00000000000E+00 0.  1.
     999901    1    3    3    0    0 -0.38917820378E-02 -0.31488166195E-01  0.10753890353E+00  0.88711400978E+00  0.88000000000E+00 0.  1.
        -11    1    4    4    0    0 -0.13378682412E-01  0.12222082397E-01 -0.50220484104E-01  0.53392195927E-01  0.51100000000E-03 0.  1.
         11    1    4    4    0    0  0.52509486051E-02  0.16377908948E-01 -0.77702205864E-01  0.79584560563E-01  0.51100000000E-03 0. -1.
</event>
<event>
 8    1  0.1196210E+005  0.1043930E+01  0.7957747E-01            NaN
         13   -1    0    0    0    0  0.00000000000E+00  0.00000000000E+00  0.74505805969E-08  0.10566000000E+00  0.10566000000E+00 0.  1.
     999900   -1    0    0    0    0 -0.00000000000E+00 -0.00000000000E+00 -0.74505805969E-08  0.93827000000E+00  0.93827000000E+00 0. -1.
     999902    2    1    2    0    0 -0.69274562217E-02  0.18663864296E-03 -0.19960167609E-01  0.10228010442E+01  0.10225827806E+01 0.  0.
     999903    2    3    3    0    0  0.10945332464E+00  0.54459847962E-01 -0.48615479128E-01  0.13301950115E+00  0.19616767355E-01 0.  0.
         14    1    1    2    0    0  0.69274562217E-02 -0.18663864296E-03  0.19960167609E-01  0.21128955835E-01  0.00000000000E+00 0.  1.
     999901    1    3    3    0    0 -0.11638078086E+00 -0.54273209319E-01  0.28655311519E-01  0.88978154301E+00  0.88000000000E+00 0. -1.
        -11    1    4    4    0    0  0.74605124024E-01  0.35951763688E-01 -0.42503899850E-01  0.93087574178E-01  0.51100000000E-03 0. -1.
         11    1    4    4    0    0  0.34848200618E-01  0.18508084274E-01 -0.61115792772E-02  0.39931926976E-01  0.51100000000E-03 0.  1.
</event>
<event>
 8    1  0.1196210E+005  0.1043930E+01  0.7957747E-01            NaN
         13   -1    0    0    0    0  0.00000000000E+00  0.00000000000E+00  0.74505805969E-08  0.10566000000E+00  0.10566000000E+00 0.  1.
     999900   -1    0    0    0    0 -0.00000000000E+00 -0.00000000000E+00 -0.74505805969E-08  0.93827000000E+00  0.93827000000E+00 0.  1.
     999902    2    1    2    0    0  0.24374132192E-02 -0.94736868711E-02  0.19427565982E-01  0.10221786312E+01  0.10219471767E+01 0.  0.
     999903    2    3    3    0    0  0.36036615259E-01 -0.10808379778E-01  0.12772963726E+00  0.13490188380E+00  0.21637913610E-01 0.  0.
         14    1    1    2    0    0 -0.24374132192E-02  0.94736868711E-02 -0.19427565982E-01  0.21751368833E-01  0.00000000000E+00 0. -1.
     999901    1    3    3    0    0 -0.33599202040E-01  0.13346929073E-02 -0.10830207127E+00  0.88727674737E+00  0.88000000000E+00 0.  1.
        -11    1    4    4    0    0  0.16629307796E-01  0.37213471326E-02  0.74240494989E-01  0.76172793828E-01  0.51100000000E-03 0.  1.
         11    1    4    4    0    0  0.19407307463E-01 -0.14529726911E-01  0.53489142266E-01  0.58729089968E-01  0.51100000000E-03 0. -1.
</event>
<event>
 8    1  0.1196210E+005  0.1043930E+01  0.7957747E-01            NaN
         13   -1    0    0    0    0  0.00000000000E+00  0.00000000000E+00  0.74505805969E-08  0.10566000000E+00  0.10566000000E+00 0. -1.
     999900   -1    0    0    0    0 -0.00000000000E+00 -0.00000000000E+00 -0.74505805969E-08  0.93827000000E+00  0.93827000000E+00 0.  1.
     999902    2    1    2    0    0  0.21534410395E-02 -0.83115204932E-02  0.22238696618E-01  0.10200914114E+01  0.10198128305E+01 0.  0.
     999903    2    3    3    0    0  0.64132055592E-01 -0.87105497029E-01  0.75072369931E-01  0.13282525262E+00  0.17504252056E-01 0.  0.
         14    1    1    2    0    0 -0.21534410395E-02  0.83115204932E-02 -0.22238696618E-01  0.23838588643E-01  0.00000000000E+00 0.  1.
     999901    1    3    3    0    0 -0.61978614553E-01  0.78793976535E-01 -0.52833673312E-01  0.88726615873E+00  0.88000000000E+00 0.  1.
        -11    1    4    4    0    0  0.41761262939E-01 -0.54604785832E-01  0.57533358075E-01  0.89643929691E-01  0.51100000000E-03 0.  1.
         11    1    4    4    0    0  0.22370792653E-01 -0.32500711197E-01  0.17539011855E-01  0.43181322931E-01  0.51100000000E-03 0. -1.
</event>
<event>
 8    1  0.1196210E+005  0.1043930E+01  0.7957747E-01            NaN
         13   -1    0    0    0    0  0.00000000000E+00  0.00000000000E+00  0.74505805969E-08  0.10566000000E+00  0.10566000000E+00 0.  1.
     999900   -1    0    0    0    0 -0.00000000000E+00 -0.00000000000E+00 -0.74505805969E-08  0.93827000000E+00  0.93827000000E+00 0. -1.
     999902    2    1    2    0    0  0.62962079886E-02 -0.17865179950E-01  0.14479566308E-01  0.10200875016E+01  0.10198088283E+01 0.  0.
     999903    2    3    3    0    0 -0.17203319573E-01 -0.10900719442E+00 -0.68042695171E-01  0.13122923492E+00  0.20317014824E-01 0.  0.
         14    1    1    2    0    0 -0.62962079886E-02  0.17865179950E-01 -0.14479566308E-01  0.23842498404E-01  0.00000000000E+00 0. -1.
     999901    1    3    3    0    0  0.23499527562E-01  0.91142014473E-01  0.82522261479E-01  0.88885826668E+00  0.88000000000E+00 0.  1.
        -11    1    4    4    0    0 -0.86081238904E-02 -0.15022064025E-01 -0.62175293368E-02  0.18403287655E-01  0.51100000000E-03 0.  1.
         11    1    4    4    0    0 -0.85951956830E-02 -0.93985130398E-01 -0.61825165835E-01  0.11282594726E+00  0.51100000000E-03 0. -1.
</event>
<event>
 8    1  0.1196210E+005  0.1043930E+01  0.7957747E-01            NaN
         13   -1    0    0    0    0  0.00000000000E+00  0.00000000000E+00  0.74505805969E-08  0.10566000000E+00  0.10566000000E+00 0.  1.
     999900   -1    0    0    0    0 -0.00000000000E+00 -0.00000000000E+00 -0.74505805969E-08  0.93827000000E+00  0.93827000000E+00 0.  1.
     999902    2    1    2    0    0 -0.20906626276E-01 -0.30872046225E-03 -0.10648451019E-01  0.10204657327E+01  0.10201959321E+01 0.  0.
     999903    2    3    3    0    0  0.83751493345E-01 -0.71615685406E-01  0.62725206693E-01  0.12837734084E+00  0.20079119830E-01 0.  0.
         14    1    1    2    0    0  0.20906626276E-01  0.30872046225E-03  0.10648451019E-01  0.23464267294E-01  0.00000000000E+00 0. -1.
     999901    1    3    3    0    0 -0.10465811962E+00  0.71306964944E-01 -0.73373657712E-01  0.89208839186E+00  0.88000000000E+00 0.  1.
        -11    1    4    4    0    0  0.10274397348E-01 -0.18819471014E-01  0.10103172885E-01  0.23708035631E-01  0.51100000000E-03 0.  1.
         11    1    4    4    0    0  0.73477095997E-01 -0.52796214392E-01  0.52622033808E-01  0.10466930521E+00  0.51100000000E-03 0. -1.
</event>
<event>
 8    1  0.1196210E+005  0.1043930E+01  0.7957747E-01            NaN
         13   -1    0    0    0    0  0.00000000000E+00  0.00000000000E+00  0.74505805969E-08  0.10566000000E+00  0.10566000000E+00 0.  1.
     999900   -1    0    0    0    0 -0.00000000000E+00 -0.00000000000E+00 -0.74505805969E-08  0.93827000000E+00  0.93827000000E+00 0.  1.
     999902    2    1    2    0    0  0.66097358318E-02 -0.16797815817E-01 -0.12123801152E-01  0.10221850747E+01  0.10219537588E+01 0.  0.
     999903    2    3    3    0    0  0.10957156194E+00 -0.12553448643E-01  0.70333441028E-01  0.13234331958E+00  0.20110819285E-01 0.  0.
         14    1    1    2    0    0 -0.66097358318E-02  0.16797815817E-01  0.12123801152E-01  0.21744925347E-01  0.00000000000E+00 0.  1.
     999901    1    3    3    0    0 -0.10296182610E+00 -0.42443671732E-02 -0.82457242180E-01  0.88984175508E+00  0.88000000000E+00 0.  1.
        -11    1    4    4    0    0  0.66694157706E-01 -0.16078081403E-01  0.49082897366E-01  0.84356430156E-01  0.51100000000E-03 0.  1.
         11    1    4    4    0    0  0.42877404229E-01  0.35246327596E-02  0.21250543662E-01  0.47986889422E-01  0.51100000000E-03 0. -1.
</event>
<event>
 8    1  0.1196210E+005  0.1043930E+01  0.7957747E-01            NaN
         13   -1    0    0    0    0  0.00000000000E+00  0.00000000000E+00  0.74505805969E-08  0.10566000000E+00  0.10566000000E+00 0. -1.
     999900   -1    0    0    0    0 -0.00000000000E+00 -0.00000000000E+00 -0.74505805969E-08  0.93827000000E+00  0.93827000000E+00 0. -1.
     999902    2    1    2    0    0 -0.11370425530E-01 -0.12499091200E-01  0.16515792706E-01  0.10203019390E+01  0.10200283141E+01 0.  0.
     999903    2    3    3    0    0  0.55110043122E-01  0.65683960839E-01 -0.92495258024E-01  0.12765662786E+00  0.19731759033E-01 0.  0.
         14    1    1    2    0    0  0.11370425530E-01  0.12499091200E-01 -0.16515792706E-01  0.23628060992E-01  0.00000000000E+00 0.  1.
     999901    1    3    3    0    0 -0.66480468652E-01 -0.78183052039E-01  0.10901105073E+00  0.89264531115E+00  0.88000000000E+00 0.  1.
        -11    1    4    4    0    0  0.18234480960E-01  0.13182775844E-01 -0.14992418401E-01  0.27042847582E-01  0.51100000000E-03 0.  1.
         11    1    4    4    0    0  0.36875562162E-01  0.52501184995E-01 -0.77502839622E-01  0.10061378027E+00  0.51100000000E-03 0. -1.
</event>
<event>
 8    1  0.1196210E+005  0.1043930E+01  0.7957747E-01            NaN
         13   -1    0    0    0    0  0.00000000000E+00  0.00000000000E+00  0.74505805969E-08  0.10566000000E+00  0.10566000000E+00 0.  1.
     999900   -1    0    0    0    0 -0.00000000000E+00 -0.00000000000E+00 -0.74505805969E-08  0.93827000000E+00  0.93827000000E+00 0. -1.
     999902    2    1    2    0    0 -0.14968113445E-02  0.89714004507E-02 -0.24905301990E-01  0.10174158427E+01  0.10170703006E+01 0.  0.
     999903    2    3    3    0    0 -0.83744296815E-01  0.63089454020E-01  0.69116054180E-01  0.12694774781E+00  0.18582660527E-01 0.  0.
         14    1    1    2    0    0  0.14968113445E-02 -0.89714004507E-02  0.24905301990E-01  0.26514157302E-01  0.00000000000E+00 0.  1.
     999901    1    3    3    0    0  0.82247485470E-01 -0.54118053569E-01 -0.94021356170E-01  0.89046809488E+00  0.88000000000E+00 0. -1.
        -11    1    4    4    0    0 -0.49155769619E-01  0.26370826338E-01  0.40640356396E-01  0.69018909420E-01  0.51100000000E-03 0. -1.
         11    1    4    4    0    0 -0.34588527196E-01  0.36718627682E-01  0.28475697784E-01  0.57928838394E-01  0.51100000000E-03 0.  1.
</event>
<event>
 8    1  0.1196210E+005  0.1043930E+01  0.7957747E-01            NaN
         13   -1    0    0    0    0  0.00000000000E+00  0.00000000000E+00  0.74505805969E-08  0.10566000000E+00  0.10566000000E+00 0. -1.
     999900   -1    0    0    0    0 -0.00000000000E+00 -0.00000000000E+00 -0.74505805969E-08  0.93827000000E+00  0.93827000000E+00 0. -1.
     999902    2    1    2    0    0  0.32343104164E-02  0.25081555837E-01 -0.30215831741E-02  0.10184608977E+01  0.10181423893E+01 0.  0.
     999903    2    3    3    0    0  0.56301239764E-01 -0.10492363162E+00  0.37612655552E-01  0.12640227344E+00  0.19596550782E-01 0.  0.
         14    1    1    2    0    0 -0.32343104164E-02 -0.25081555837E-01  0.30215831741E-02  0.25469102300E-01  0.00000000000E+00 0. -1.
     999901    1    3    3    0    0 -0.53066929347E-01  0.13000518746E+00 -0.40634238726E-01  0.89205862426E+00  0.88000000000E+00 0.  1.
        -11    1    4    4    0    0  0.30438586331E-01 -0.67565131694E-01  0.31612675379E-01  0.80567840508E-01  0.51100000000E-03 0. -1.
         11    1    4    4    0    0  0.25862653433E-01 -0.37358499925E-01  0.59999801737E-02  0.45834432934E-01  0.51100000000E-03 0.  1.
</event>
<event>
 8    1  0.1196210E+005  0.1043930E+01  0.7957747E-01            NaN
         13   -1    0    0    0    0  0.00000000000E+00  0.00000000000E+00  0.74505805969E-08  0.10566000000E+00  0.10566000000E+00 0. -1.
     999900   -1    0    0    0    0 -0.00000000000E+00 -0.00000000000E+00 -0.74505805969E-08  0.93827000000E+00  0.93827000000E+00 0. -1.
     999902    2    1    2    0    0 -0.23191745288E-02  0.11437336458E-01  0.20303496988E-01  0.10205115623E+01  0.10202428267E+01 0.  0.
     999903    2    3    3    0    0 -0.49504379100E-01  0.65462668837E-01  0.10257709875E+00  0.13376801106E+00  0.25214579791E-01 0.  0.
         14    1    1    2    0    0  0.23191745288E-02 -0.11437336458E-01 -0.20303496988E-01  0.23418437729E-01  0.00000000000E+00 0.  1.
     999901    1    3    3    0    0  0.47185204571E-01 -0.54025332378E-01 -0.82273601759E-01  0.88674355121E+00  0.88000000000E+00 0.  1.
        -11    1    4    4    0    0 -0.18142397271E-02  0.18150973032E-02  0.15967141426E-01  0.16180135053E-01  0.51100000000E-03 0.  1.
         11    1    4    4    0    0 -0.47690139373E-01  0.63647571534E-01  0.86609957321E-01  0.11758787601E+00  0.51100000000E-03 0. -1.
</event>
<event>
 8    1  0.1196210E+005  0.1043930E+01  0.7957747E-01            NaN
         13   -1    0    0    0    0  0.00000000000E+00  0.00000000000E+00  0.74505805969E-08  0.10566000000E+00  0.10566000000E+00 0. -1.
     999900   -1    0    0    0    0 -0.00000000000E+00 -0.00000000000E+00 -0.74505805969E-08  0.93827000000E+00  0.93827000000E+00 0. -1.
     999902    2    1    2    0    0  0.18492510822E-01  0.28339325351E-01 -0.47230918294E-02  0.10097627948E+01  0.10091845737E+01 0.  0.
     999903    2    3    3    0    0  0.46103438616E-01  0.10756263389E+00 -0.39399801199E-01  0.12509270363E+00  0.20014817146E-01 0.  0.
         14    1    1    2    0    0 -0.18492510822E-01 -0.28339325351E-01  0.47230918294E-02  0.34167205246E-01  0.00000000000E+00 0. -1.
     999901    1    3    3    0    0 -0.27610927794E-01 -0.79223308544E-01  0.34676709369E-01  0.88467009112E+00  0.88000000000E+00 0.  1.
        -11    1    4    4    0    0  0.20110919488E-01  0.68991605007E-01 -0.19228247853E-01  0.74392723304E-01  0.51100000000E-03 0. -1.
         11    1    4    4    0    0  0.25992519128E-01  0.38571028888E-01 -0.20171553346E-01  0.50699980330E-01  0.51100000000E-03 0.  1.
</event>
<event>
 8    1  0.1196210E+005  0.1043930E+01  0.7957747E-01            NaN
         13   -1    0    0    0    0  0.00000000000E+00  0.00000000000E+00  0.74505805969E-08  0.10566000000E+00  0.10566000000E+00 0. -1.
     999900   -1    0    0    0    0 -0.00000000000E+00 -0.00000000000E+00 -0.74505805969E-08  0.93827000000E+00  0.93827000000E+00 0.  1.
     999902    2    1    2    0    0  0.21090582499E-01  0.41446498839E-02  0.10471191699E-01  0.10200210760E+01  0.10197408292E+01 0.  0.
     999903    2    3    3    0    0 -0.44116347065E-02 -0.82609961106E-01 -0.96840529355E-01  0.12890237956E+00  0.19846086164E-01 0.  0.
         14    1    1    2    0    0 -0.21090582499E-01 -0.41446498839E-02 -0.10471191699E-01  0.23908924032E-01  0.00000000000E+00 0.  1.
     999901    1    3    3    0    0  0.25502217205E-01  0.86754610989E-01  0.10731172105E+00  0.89111869641E+00  0.88000000000E+00 0. -1.
        -11    1    4    4    0    0 -0.97531639668E-02 -0.46102830304E-01 -0.64188316138E-01  0.79630372466E-01  0.51100000000E-03 0. -1.
         11    1    4    4    0    0  0.53415292603E-02 -0.36507130802E-01 -0.32652213216E-01  0.49272007095E-01  0.51100000000E-03 0.  1.
</event>
<event>
 8    1  0.1196210E+005  0.1043930E+01  0.7957747E-01            NaN
         13   -1    0    0    0    0  0.00000000000E+00  0.00000000000E+00  0.74505805969E-08  0.10566000000E+00  0.10566000000E+00 0. -1.
     999900   -1    0    0    0    0 -0.00000000000E+00 -0.00000000000E+00 -0.74505805969E-08  0.93827000000E+00  0.93827000000E+00 0. -1.
     999902    2    1    2    0    0  0.89488086319E-03 -0.12715676020E-01 -0.20079686443E-01  0.10201459079E+01  0.10198686143E+01 0.  0.
     999903    2    3    3    0    0  0.34267655894E-01  0.95250574557E-01 -0.80479810176E-01  0.13086607102E+00  0.20049551204E-01 0.  0.
         14    1    1    2    0    0 -0.89488086319E-03  0.12715676020E-01  0.20079686443E-01  0.23784092080E-01  0.00000000000E+00 0. -1.
     999901    1    3    3    0    0 -0.33372775030E-01 -0.10796625058E+00  0.60400123733E-01  0.88927983690E+00  0.88000000000E+00 0.  1.
        -11    1    4    4    0    0  0.35618640293E-01  0.78666802369E-01 -0.70304950877E-01  0.11135618784E+00  0.51100000000E-03 0. -1.
         11    1    4    4    0    0 -0.13509843997E-02  0.16583772188E-01 -0.10174859298E-01  0.19509883177E-01  0.51100000000E-03 0.  1.
</event>
<event>
 8    1  0.1196210E+005  0.1043930E+01  0.7957747E-01            NaN
         13   -1    0    0    0    0  0.00000000000E+00  0.00000000000E+00  0.74505805969E-08  0.10566000000E+00  0.10566000000E+00 0. -1.
     999900   -1    0    0    0    0 -0.00000000000E+00 -0.00000000000E+00 -0.74505805969E-08  0.93827000000E+00  0.93827000000E+00 0.  1.
     999902    2    1    2    0    0  0.42167415723E-03  0.23493626050E-01 -0.96191189836E-02  0.10185399286E+01  0.10182234188E+01 0.  0.
     999903    2    3    3    0    0  0.41565011472E-01  0.70140705220E-01  0.99036872165E-01  0.12967838226E+00  0.18995053851E-01 0.  0.
         14    1    1    2    0    0 -0.42167415723E-03 -0.23493626050E-01  0.96191189836E-02  0.25390071368E-01  0.00000000000E+00 0. -1.
     999901    1    3    3    0    0 -0.41143337315E-01 -0.46647079170E-01 -0.10865599115E+00  0.88886154637E+00  0.88000000000E+00 0.  1.
        -11    1    4    4    0    0  0.63098050491E-02  0.28039169873E-01  0.36266201077E-01  0.46276421085E-01  0.51100000000E-03 0. -1.
         11    1    4    4    0    0  0.35255206423E-01  0.42101535347E-01  0.62770671088E-01  0.83401961178E-01  0.51100000000E-03 0.  1.
</event>
<event>
 8    1  0.1196210E+005  0.1043930E+01  0.7957747E-01            NaN
         13   -1    0    0    0    0  0.00000000000E+00  0.00000000000E+00  0.74505805969E-08  0.10566000000E+00  0.10566000000E+00 0.  1.
     999900   -1    0    0    0    0 -0.00000000000E+00 -0.00000000000E+00 -0.74505805969E-08  0.93827000000E+00  0.93827000000E+00 0. -1.
     999902    2    1    2    0    0  0.22073416667E-01 -0.74410615556E-02  0.74762773693E-03  0.10206241195E+01  0.10203579907E+01 0.  0.
     999903    2    3    3    0    0 -0.25182850686E-01  0.10614186266E+00 -0.66891769451E-01  0.12949600099E+00  0.19860374455E-01 0.  0.
         14    1    1    2    0    0 -0.22073416667E-01  0.74410615556E-02 -0.74762773693E-03  0.23305880538E-01  0.00000000000E+00 0.  1.
     999901    1    3    3    0    0  0.47256267354E-01 -0.11358292422E+00  0.67639397188E-01  0.89112811847E+00  0.88000000000E+00 0.  1.
        -11    1    4    4    0    0 -0.15005960936E-01  0.93033768533E-01 -0.58113696813E-01  0.11071550853E+00  0.51100000000E-03 0. -1.
         11    1    4    4    0    0 -0.10176889750E-01  0.13108094131E-01 -0.87780726382E-02  0.18780492458E-01  0.51100000000E-03 0.  1.
</event>
<event>
 8    1  0.1196210E+005  0.1043930E+01  0.7957747E-01            NaN
         13   -1    0    0    0    0  0.00000000000E+00  0.00000000000E+00  0.74505805969E-08  0.10566000000E+00  0.10566000000E+00 0.  1.
     999900   -1    0    0    0    0 -0.00000000000E+00 -0.00000000000E+00 -0.74505805969E-08  0.93827000000E+00  0.93827000000E+00 0. -1.
     999902    2    1    2    0    0  0.13088086004E-01  0.85617665707E-02  0.16612633964E-01  0.10211137459E+01  0.10208588055E+01 0.  0.
     999903    2    3    3    0    0  0.20971218788E-02 -0.10385028530E+00 -0.74270099944E-01  0.12925224211E+00  0.20020356322E-01 0.  0.
         14    1    1    2    0    0 -0.13088086004E-01 -0.85617665707E-02 -0.16612633964E-01  0.22816254059E-01  0.00000000000E+00 0. -1.
     999901    1    3    3    0    0  0.10990964126E-01  0.11241205187E+00  0.90882733909E-01  0.89186150383E+00  0.88000000000E+00 0. -1.
        -11    1    4    4    0    0  0.48824244672E-02 -0.58437956259E-02 -0.39407186492E-02  0.85894353986E-02  0.51100000000E-03 0.  1.
         11    1    4    4    0    0 -0.27853025884E-02 -0.98006489672E-01 -0.70329381295E-01  0.12066280671E+00  0.51100000000E-03 0. -1.
</event>
<event>
 8    1  0.1196210E+005  0.1043930E+01  0.7957747E-01            NaN
         13   -1    0    0    0    0  0.00000000000E+00  0.00000000000E+00  0.74505805969E-08  0.10566000000E+00  0.10566000000E+00 0.  1.
     999900   -1    0    0    0    0 -0.00000000000E+00 -0.00000000000E+00 -0.74505805969E-08  0.93827000000E+00  0.93827000000E+00 0. -1.
     999902    2    1    2    0    0  0.14252740623E-01 -0.12392875938E-01 -0.79384361154E-02  0.10234423755E+01  0.10232372908E+01 0.  0.
     999903    2    3    3    0    0  0.11051372067E+00 -0.70947751153E-01 -0.29503657283E-01  0.13599665410E+00  0.19436004766E-01 0.  0.
         14    1    1    2    0    0 -0.14252740623E-01  0.12392875938E-01  0.79384361154E-02  0.20487624490E-01  0.00000000000E+00 0.  1.
     999901    1    3    3    0    0 -0.96260980051E-01  0.58554875216E-01  0.21565221167E-01  0.88744572141E+00  0.88000000000E+00 0.  1.
        -11    1    4    4    0    0  0.64211954056E-01 -0.47388345775E-01 -0.25959320434E-01  0.83922451093E-01  0.51100000000E-03 0.  1.
         11    1    4    4    0    0  0.46301766618E-01 -0.23559405378E-01 -0.35443368485E-02  0.52074203003E-01  0.51100000000E-03 0. -1.
</event>
<event>
 8    1  0.1196210E+005  0.1043930E+01  0.7957747E-01            NaN
         13   -1    0    0    0    0  0.00000000000E+00  0.00000000000E+00  0.74505805969E-08  0.10566000000E+00  0.10566000000E+00 0. -1.
     999900   -1    0    0    0    0 -0.00000000000E+00 -0.00000000000E+00 -0.74505805969E-08  0.93827000000E+00  0.93827000000E+00 0. -1.
     999902    2    1    2    0    0  0.50063495895E-02 -0.12743101858E-01 -0.21924195972E-01  0.10180819720E+01  0.10177537920E+01 0.  0.
     999903    2    3    3    0    0  0.14664099445E-02  0.72333834473E-01  0.10041862640E+00  0.12554716461E+00  0.21067891336E-01 0.  0.
         14    1    1    2    0    0 -0.50063495895E-02  0.12743101858E-01  0.21924195972E-01  0.25848027975E-01  0.00000000000E+00 0. -1.
     999901    1    3    3    0    0  0.35399396450E-02 -0.85076936331E-01 -0.12234282237E+00  0.89253480742E+00  0.88000000000E+00 0. -1.
        -11    1    4    4    0    0  0.95581806900E-02  0.38939230065E-01  0.63579156706E-01  0.75167763999E-01  0.51100000000E-03 0.  1.
         11    1    4    4    0    0 -0.80917707455E-02  0.33394604408E-01  0.36839469691E-01  0.50379400607E-01  0.51100000000E-03 0. -1.
</event>
<event>
 8    1  0.1196210E+005  0.1043930E+01  0.7957747E-01            NaN
         13   -1    0    0    0    0  0.00000000000E+00  0.00000000000E+00  0.74505805969E-08  0.10566000000E+00  0.10566000000E+00 0. -1.
     999900   -1    0    0    0    0 -0.00000000000E+00 -0.00000000000E+00 -0.74505805969E-08  0.93827000000E+00  0.93827000000E+00 0. -1.
     999902    2    1    2    0    0  0.13886367699E-01 -0.43884038752E-02  0.19301848916E-01  0.10197504494E+01  0.10194637455E+01 0.  0.
     999903    2    3    3    0    0  0.73892611077E-01  0.91081917130E-01  0.56741456917E-01  0.13176562086E+00  0.19660933557E-01 0.  0.
         14    1    1    2    0    0 -0.13886367699E-01  0.43884038752E-02 -0.19301848916E-01  0.24179550617E-01  0.00000000000E+00 0.  1.
     999901    1    3    3    0    0 -0.60006243377E-01 -0.95470321005E-01 -0.37439608001E-01  0.88798482852E+00  0.88000000000E+00 0.  1.
        -11    1    4    4    0    0  0.18342781929E-01  0.13667596073E-01  0.17099996129E-01  0.28564520299E-01  0.51100000000E-03 0. -1.
         11    1    4    4    0    0  0.55549829147E-01  0.77414321056E-01  0.39641460788E-01  0.10320110056E+00  0.51100000000E-03 0.  1.
</event>
<event>
 8    1  0.1196210E+005  0.1043930E+01  0.7957747E-01            NaN
         13   -1    0    0    0    0  0.00000000000E+00  0.00000000000E+00  0.74505805969E-08  0.10566000000E+00  0.10566000000E+00 0. -1.
     999900   -1    0    0    0    0 -0.00000000000E+00 -0.00000000000E+00 -0.74505805969E-08  0.93827000000E+00  0.93827000000E+00 0.  1.
     999902    2    1    2    0    0  0.18573990824E-02  0.18462247479E-01 -0.15373725293E-01  0.10198331964E+01  0.10195484749E+01 0.  0.
     999903    2    3    3    0    0 -0.85201253492E-01  0.82482078288E-01  0.52735088207E-01  0.13061075057E+00  0.14684406751E-01 0.  0.
         14    1    1    2    0    0 -0.18573990824E-02 -0.18462247479E-01  0.15373725293E-01  0.24096803579E-01  0.00000000000E+00 0.  1.
     999901    1    3    3    0    0  0.87058652574E-01 -0.64019830810E-01 -0.68108813500E-01  0.88922244585E+00  0.88000000000E+00 0.  1.
        -11    1    4    4    0    0 -0.68964481413E-01  0.72197557645E-01  0.40053840777E-01  0.10757861455E+00  0.51100000000E-03 0.  1.
         11    1    4    4    0    0 -0.16236772078E-01  0.10284520644E-01  0.12681247430E-01  0.23032136023E-01  0.51100000000E-03 0. -1.
</event>
<event>
 8    1  0.1196210E+005  0.1043930E+01  0.7957747E-01            NaN
         13   -1    0    0    0    0  0.00000000000E+00  0.00000000000E+00  0.74505805969E-08  0.10566000000E+00  0.10566000000E+00 0. -1.
     999900   -1    0    0    0    0 -0.00000000000E+00 -0.00000000000E+00 -0.74505805969E-08  0.93827000000E+00  0.93827000000E+00 0. -1.
     999902    2    1    2    0    0  0.40048123142E-02  0.20568486254E-01 -0.11976773057E-01  0.10197940467E+01  0.10195083881E+01 0.  0.
     999903    2    3    3    0    0  0.11937372537E+00 -0.15253165798E-01  0.43435705117E-01  0.12981442919E+00  0.21963154894E-01 0.  0.
         14    1    1    2    0    0 -0.40048123142E-02 -0.20568486254E-01  0.11976773057E-01  0.24135953292E-01  0.00000000000E+00 0. -1.
     999901    1    3    3    0    0 -0.11536891305E+00  0.35821652051E-01 -0.55412478174E-01  0.88997961751E+00  0.88000000000E+00 0. -1.
        -11    1    4    4    0    0  0.28545378133E-01 -0.12542015125E-01  0.14966073655E-01  0.34588802203E-01  0.51100000000E-03 0. -1.
         11    1    4    4    0    0  0.90828347234E-01 -0.27111506729E-02  0.28469631462E-01  0.95225626991E-01  0.51100000000E-03 0.  1.
</event>
<event>
 8    1  0.1196210E+005  0.1043930E+01  0.7957747E-01            NaN
         13   -1    0    0    0    0  0.00000000000E+00  0.00000000000E+00  0.74505805969E-08  0.10566000000E+00  0.10566000000E+00 0. -1.
     999900   -1    0    0    0    0 -0.00000000000E+00 -0.00000000000E+00 -0.74505805969E-08  0.93827000000E+00  0.93827000000E+00 0. -1.
     999902    2    1    2    0    0 -0.94812949605E-02 -0.94070776829E-02  0.19643018258E-01  0.10201763428E+01  0.10198997667E+01 0.  0.
     999903    2    3    3    0    0  0.47402719149E-01 -0.49593632700E-01 -0.10683475696E+00  0.12840990594E+00  0.19206573414E-01 0.  0.
         14    1    1    2    0    0  0.94812949605E-02  0.94070776829E-02 -0.19643018258E-01  0.23753657212E-01  0.00000000000E+00 0.  1.
     999901    1    3    3    0    0 -0.56884014110E-01  0.40186555017E-01  0.12647777522E+00  0.89176643685E+00  0.88000000000E+00 0.  1.
        -11    1    4    4    0    0  0.10415686865E-01 -0.22437286986E-01 -0.45711728377E-01  0.51978280198E-01  0.51100000000E-03 0. -1.
         11    1    4    4    0    0  0.36987032284E-01 -0.27156345714E-01 -0.61123028581E-01  0.76431625742E-01  0.51100000000E-03 0.  1.
</event>
<event>
 8    1  0.1196210E+005  0.1043930E+01  0.7957747E-01            NaN
         13   -1    0    0    0    0  0.00000000000E+00  0.00000000000E+00  0.74505805969E-08  0.10566000000E+00  0.10566000000E+00 0.  1.
     999900   -1    0    0    0    0 -0.00000000000E+00 -0.00000000000E+00 -0.74505805969E-08  0.93827000000E+00  0.93827000000E+00 0. -1.
     999902    2    1    2    0    0 -0.12468777576E-01  0.18405759968E-01  0.77026899523E-02  0.10204018499E+01  0.10201305610E+01 0.  0.
     999903    2    3    3    0    0  0.36033610881E-01 -0.50121293412E-01 -0.11063876888E+00  0.12852005303E+00  0.21584755850E-01 0.  0.
         14    1    1    2    0    0  0.12468777576E-01 -0.18405759968E-01 -0.77026899523E-02  0.23528150092E-01  0.00000000000E+00 0. -1.
     999901    1    3    3    0    0 -0.48502388457E-01  0.68527053380E-01  0.11834145883E+00  0.89188179688E+00  0.88000000000E+00 0.  1.
        -11    1    4    4    0    0  0.86630865470E-02 -0.18655433346E-01 -0.56830658198E-01  0.60440541808E-01  0.51100000000E-03 0. -1.
         11    1    4    4    0    0  0.27370524334E-01 -0.31465860066E-01 -0.53808110679E-01  0.68079511219E-01  0.51100000000E-03 0.  1.
</event>
<event>
 8    1  0.1196210E+005  0.1043930E+01  0.7957747E-01            NaN
         13   -1    0    0    0    0  0.00000000000E+00  0.00000000000E+00  0.74505805969E-08  0.10566000000E+00  0.10566000000E+00 0.  1.
     999900   -1    0    0    0    0 -0.00000000000E+00 -0.00000000000E+00 -0.74505805969E-08  0.93827000000E+00  0.93827000000E+00 0. -1.
     999902    2    1    2    0    0  0.36903011856E-02  0.25978424261E-02 -0.20437278303E-01  0.10230003690E+01  0.10227862463E+01 0.  0.
     999903    2    3    3    0    0  0.92422812422E-01 -0.50864257293E-02  0.91434889638E-01  0.13145794800E+00  0.18788429096E-01 0.  0.
         14    1    1    2    0    0 -0.36903011856E-02 -0.25978424261E-02  0.20437278303E-01  0.20929630970E-01  0.00000000000E+00 0.  1.
     999901    1    3    3    0    0 -0.88732511236E-01  0.76842681554E-02 -0.11187216794E+00  0.89154242103E+00  0.88000000000E+00 0. -1.
        -11    1    4    4    0    0  0.33901780907E-01 -0.42338173039E-02  0.46319132604E-01  0.57558484377E-01  0.51100000000E-03 0.  1.
         11    1    4    4    0    0  0.58521031515E-01 -0.85260842543E-03  0.45115757034E-01  0.73899463628E-01  0.51100000000E-03 0. -1.
</event>
<event>
 8    1  0.1196210E+005  0.1043930E+01  0.7957747E-01            NaN
         13   -1    0    0    0    0  0.00000000000E+00  0.00000000000E+00  0.74505805969E-08  0.10566000000E+00  0.10566000000E+00 0. -1.
     999900   -1    0    0    0    0 -0.00000000000E+00 -0.00000000000E+00 -0.74505805969E-08  0.93827000000E+00  0.93827000000E+00 0. -1.
     999902    2    1    2    0    0  0.16334627813E-01 -0.21934142919E-01 -0.25001057178E-01  0.10068762613E+01  0.10061942288E+01 0.  0.
     999903    2    3    3    0    0  0.12523321029E-02 -0.34219994773E-01 -0.11561989941E+00  0.12200893093E+00  0.18591441780E-01 0.  0.
         14    1    1    2    0    0 -0.16334627813E-01  0.21934142919E-01  0.25001057178E-01  0.37053738697E-01  0.00000000000E+00 0. -1.
     999901    1    3    3    0    0  0.15082295710E-01  0.12285851854E-01  0.90618842236E-01  0.88486733038E+00  0.88000000000E+00 0.  1.
        -11    1    4    4    0    0  0.90626467876E-02 -0.10093711291E-01 -0.42427333083E-01  0.44546091725E-01  0.51100000000E-03 0. -1.
         11    1    4    4    0    0 -0.78103146846E-02 -0.24126283482E-01 -0.73192566331E-01  0.77462839202E-01  0.51100000000E-03 0.  1.
</event>
<event>
 8    1  0.1196210E+005  0.1043930E+01  0.7957747E-01            NaN
         13   -1    0    0    0    0  0.00000000000E+00  0.00000000000E+00  0.74505805969E-08  0.10566000000E+00  0.10566000000E+00 0.  1.
     999900   -1    0    0    0    0 -0.00000000000E+00 -0.00000000000E+00 -0.74505805969E-08  0.93827000000E+00  0.93827000000E+00 0.  1.
     999902    2    1    2    0    0 -0.16397422145E-01  0.29560059972E-02 -0.16593844488E-01  0.10204147050E+01  0.10201437159E+01 0.  0.
     999903    2    3    3    0    0  0.80562650065E-01 -0.71074609088E-01  0.66158221070E-01  0.12815370510E+00  0.22461551001E-01 0.  0.
         14    1    1    2    0    0  0.16397422145E-01 -0.29560059972E-02  0.16593844488E-01  0.23515295008E-01  0.00000000000E+00 0.  1.
     999901    1    3    3    0    0 -0.96960072210E-01  0.74030615085E-01 -0.82752065558E-01  0.89226099989E+00  0.88000000000E+00 0.  1.
        -11    1    4    4    0    0  0.30406092809E-01 -0.38901634324E-01  0.22390184352E-01  0.54216686632E-01  0.51100000000E-03 0.  1.
         11    1    4    4    0    0  0.50156557256E-01 -0.32172974764E-01  0.43768036718E-01  0.73937018469E-01  0.51100000000E-03 0. -1.
</event>
<event>
 8    1  0.1196210E+005  0.1043930E+01  0.7957747E-01            NaN
         13   -1    0    0    0    0  0.00000000000E+00  0.00000000000E+00  0.74505805969E-08  0.10566000000E+00  0.10566000000E+00 0.  1.
     999900   -1    0    0    0    0 -0.00000000000E+00 -0.00000000000E+00 -0.74505805969E-08  0.93827000000E+00  0.93827000000E+00 0. -1.
     999902    2    1    2    0    0 -0.17855980083E-01  0.12783060982E-01 -0.12225783586E-01  0.10187961094E+01  0.10184860333E+01 0.  0.
     999903    2    3    3    0    0  0.78970145982E-01 -0.42317733572E-01  0.86739470611E-01  0.12626850882E+00  0.19822361768E-01 0.  0.
         14    1    1    2    0    0  0.17855980083E-01 -0.12783060982E-01  0.12225783586E-01  0.25133890608E-01  0.00000000000E+00 0. -1.
     999901    1    3    3    0    0 -0.96826126065E-01  0.55100794554E-01 -0.98965254197E-01  0.89252760057E+00  0.88000000000E+00 0. -1.
        -11    1    4    4    0    0  0.26429464642E-01 -0.23333414092E-01  0.26479776178E-01  0.44095402049E-01  0.51100000000E-03 0. -1.
         11    1    4    4    0    0  0.52540681340E-01 -0.18984319480E-01  0.60259694433E-01  0.82173106768E-01  0.51100000000E-03 0.  1.
</event>
<event>
 8    1  0.1196210E+005  0.1043930E+01  0.7957747E-01            NaN
         13   -1    0    0    0    0  0.00000000000E+00  0.00000000000E+00  0.74505805969E-08  0.10566000000E+00  0.10566000000E+00 0. -1.
     999900   -1    0    0    0    0 -0.00000000000E+00 -0.00000000000E+00 -0.74505805969E-08  0.93827000000E+00  0.93827000000E+00 0.  1.
     999902    2    1    2    0    0 -0.14565629416E-02  0.22291591406E-02 -0.22501929403E-01  0.10212710602E+01  0.10210196623E+01 0.  0.
     999903    2    3    3    0    0 -0.73168886308E-01 -0.99703880015E-01  0.38735559949E-01  0.13038216034E+00  0.14300857169E-01 0.  0.
         14    1    1    2    0    0  0.14565629416E-02 -0.22291591406E-02  0.22501929403E-01  0.22658939802E-01  0.00000000000E+00 0. -1.
     999901    1    3    3    0    0  0.71712323367E-01  0.10193303916E+00 -0.61237489352E-01  0.89088889986E+00  0.88000000000E+00 0. -1.
        -11    1    4    4    0    0 -0.39587151926E-01 -0.43861503390E-01  0.22502342548E-01  0.63226502500E-01  0.51100000000E-03 0. -1.
         11    1    4    4    0    0 -0.33581734383E-01 -0.55842376625E-01  0.16233217401E-01  0.67155657837E-01  0.51100000000E-03 0.  1.
</event>
<event>
 8    1  0.1196210E+005  0.1043930E+01  0.7957747E-01            NaN
         13   -1    0    0    0    0  0.00000000000E+00  0.00000000000E+00  0.74505805969E-08  0.10566000000E+00  0.10566000000E+00 0.  1.
     999900   -1    0    0    0    0 -0.00000000000E+00 -0.00000000000E+00 -0.74505805969E-08  0.93827000000E+00  0.93827000000E+00 0. -1.
     999902    2    1    2    0    0  0.20785194446E-01 -0.98272709909E-02  0.12078020353E-02  0.10209070039E+01  0.10206473692E+01 0.  0.
     999903    2    3    3    0    0  0.49728203812E-02 -0.12520618957E+00  0.37724523523E-01  0.13248379565E+00  0.20676014703E-01 0.  0.
         14    1    1    2    0    0 -0.20785194446E-01  0.98272709909E-02 -0.12078020353E-02  0.23022996092E-01  0.00000000000E+00 0.  1.
     999901    1    3    3    0    0  0.15812374065E-01  0.11537891858E+00 -0.36516721487E-01  0.88842320826E+00  0.88000000000E+00 0.  1.
        -11    1    4    4    0    0  0.45760339041E-02 -0.30631688232E-01  0.89388123123E-03  0.30988716574E-01  0.51100000000E-03 0.  1.
         11    1    4    4    0    0  0.39678647714E-03 -0.94574501343E-01  0.36830642291E-01  0.10149507907E+00  0.51100000000E-03 0. -1.
</event>
<event>
 8    1  0.1196210E+005  0.1043930E+01  0.7957747E-01            NaN
         13   -1    0    0    0    0  0.00000000000E+00  0.00000000000E+00  0.74505805969E-08  0.10566000000E+00  0.10566000000E+00 0.  1.
     999900   -1    0    0    0    0 -0.00000000000E+00 -0.00000000000E+00 -0.74505805969E-08  0.93827000000E+00  0.93827000000E+00 0. -1.
     999902    2    1    2    0    0  0.20136282997E-01 -0.12720927662E-01 -0.94056253528E-02  0.10183222340E+01  0.10180002036E+01 0.  0.
     999903    2    3    3    0    0 -0.44701676877E-01 -0.35905396082E-01  0.11190986165E+00  0.12733462012E+00  0.20071147551E-01 0.  0.
         14    1    1    2    0    0 -0.20136282997E-01  0.12720927662E-01  0.94056253528E-02  0.25607766045E-01  0.00000000000E+00 0.  1.
     999901    1    3    3    0    0  0.64837959874E-01  0.23184468420E-01 -0.12131548700E+00  0.89098761383E+00  0.88000000000E+00 0. -1.
        -11    1    4    4    0    0 -0.14873073862E-01 -0.11304035058E-01  0.18770786075E-01  0.26487602111E-01  0.51100000000E-03 0. -1.
         11    1    4    4    0    0 -0.29828603014E-01 -0.24601361024E-01  0.93139075574E-01  0.10084701801E+00  0.51100000000E-03 0.  1.
</event>
<event>
 8    1  0.1196210E+005  0.1043930E+01  0.7957747E-01            NaN
         13   -1    0    0    0    0  0.00000000000E+00  0.00000000000E+00  0.74505805969E-08  0.10566000000E+00  0.10566000000E+00 0.  1.
     999900   -1    0    0    0    0 -0.00000000000E+00 -0.00000000000E+00 -0.74505805969E-08  0.93827000000E+00  0.93827000000E+00 0. -1.
     999902    2    1    2    0    0 -0.23885686211E-01 -0.82726297769E-03 -0.51014184622E-02  0.10194916113E+01  0.10191986611E+01 0.  0.
     999903    2    3    3    0    0  0.90378746499E-01 -0.53959279877E-01  0.69636200693E-01  0.12737890349E+00  0.17212289302E-01 0.  0.
         14    1    1    2    0    0  0.23885686211E-01  0.82726297769E-03  0.51014184622E-02  0.24438388656E-01  0.00000000000E+00 0.  1.
     999901    1    3    3    0    0 -0.11426443271E+00  0.53132016899E-01 -0.74737619155E-01  0.89211270786E+00  0.88000000000E+00 0.  1.
        -11    1    4    4    0    0  0.69673705050E-02 -0.10114738255E-01  0.60721143847E-02  0.13710721200E-01  0.51100000000E-03 0.  1.
         11    1    4    4    0    0  0.83411375994E-01 -0.43844541622E-01  0.63564086308E-01  0.11366818229E+00  0.51100000000E-03 0. -1.
</event>
<event>
 8    1  0.1196210E+005  0.1043930E+01  0.7957747E-01            NaN
         13   -1    0    0    0    0  0.00000000000E+00  0.00000000000E+00  0.74505805969E-08  0.10566000000E+00  0.10566000000E+00 0.  1.
     999900   -1    0    0    0    0 -0.00000000000E+00 -0.00000000000E+00 -0.74505805969E-08  0.93827000000E+00  0.93827000000E+00 0.  1.
     999902    2    1    2    0    0  0.30627207692E-02 -0.21988886656E-01 -0.16177180612E-03  0.10217282531E+01  0.10214870071E+01 0.  0.
     999903    2    3    3    0    0  0.89129896064E-01 -0.67827598711E-01 -0.69808399008E-01  0.13360697824E+00  0.20806021828E-01 0.  0.
         14    1    1    2    0    0 -0.30627207692E-02  0.21988886656E-01  0.16177180612E-03  0.22201746891E-01  0.00000000000E+00 0.  1.
     999901    1    3    3    0    0 -0.86067175295E-01  0.45838712055E-01  0.69646627202E-01  0.88812127486E+00  0.88000000000E+00 0. -1.
        -11    1    4    4    0    0  0.59540201650E-01 -0.56798301201E-01 -0.48686053159E-01  0.95612109720E-01  0.51100000000E-03 0. -1.
         11    1    4    4    0    0  0.29589694414E-01 -0.11029297511E-01 -0.21122345849E-01  0.37994868525E-01  0.51100000000E-03 0.  1.
</event>
<event>
 8    1  0.1196210E+005  0.1043930E+01  0.7957747E-01            NaN
         13   -1    0    0    0    0  0.00000000000E+00  0.00000000000E+00  0.74505805969E-08  0.10566000000E+00  0.10566000000E+00 0. -1.
     999900   -1    0    0    0    0 -0.00000000000E+00 -0.00000000000E+00 -0.74505805969E-08  0.93827000000E+00  0.93827000000E+00 0.  1.
     999902    2    1    2    0    0  0.91843391371E-02 -0.22190383019E-01 -0.11978595552E-02  0.10198842093E+01  0.10196007063E+01 0.  0.
     999903    2    3    3    0    0  0.68671595907E-02  0.67354421047E-02 -0.12817043858E+00  0.13029772753E+00  0.21384864121E-01 0.  0.
         14    1    1    2    0    0 -0.91843391371E-02  0.22190383019E-01  0.11978595552E-02  0.24045790722E-01  0.00000000000E+00 0.  1.
     999901    1    3    3    0    0  0.23171795464E-02 -0.28925825124E-01  0.12697257902E+00  0.88958648175E+00  0.88000000000E+00 0. -1.
        -11    1    4    4    0    0  0.17204852469E-02  0.13106636008E-01 -0.50834544779E-01  0.52527669288E-01  0.51100000000E-03 0. -1.
         11    1    4    4    0    0  0.51466743437E-02 -0.63711939036E-02 -0.77335893800E-01  0.77770058245E-01  0.51100000000E-03 0.  1.
</event>
<event>
 8    1  0.1196210E+005  0.1043930E+01  0.7957747E-01            NaN
         13   -1    0    0    0    0  0.00000000000E+00  0.00000000000E+00  0.74505805969E-08  0.10566000000E+00  0.10566000000E+00 0. -1.
     999900   -1    0    0    0    0 -0.00000000000E+00 -0.00000000000E+00 -0.74505805969E-08  0.93827000000E+00  0.93827000000E+00 0. -1.
     999902    2    1    2    0    0  0.14406504596E-01 -0.14784131143E-01 -0.11392635120E-01  0.10203522553E+01  0.10200798081E+01 0.  0.
     999903    2    3    3    0    0  0.19835033051E-01 -0.25155707891E-01 -0.12644545558E+00  0.13278581274E+00  0.24847145790E-01 0.  0.
         14    1    1    2    0    0 -0.14406504596E-01  0.14784131143E-01  0.11392635120E-01  0.23577744662E-01  0.00000000000E+00 0. -1.
     999901    1    3    3    0    0 -0.54285284546E-02  0.10371576747E-01  0.11505282046E+00  0.88756644260E+00  0.88000000000E+00 0.  1.
        -11    1    4    4    0    0  0.16614925999E-01 -0.16216130454E-01 -0.43628091537E-01  0.49423578837E-01  0.51100000000E-03 0. -1.
         11    1    4    4    0    0  0.32201070514E-02 -0.89395774369E-02 -0.82817364041E-01  0.83362233906E-01  0.51100000000E-03 0.  1.
</event>
<event>
 8    1  0.1196210E+005  0.1043930E+01  0.7957747E-01            NaN
         13   -1    0    0    0    0  0.00000000000E+00  0.00000000000E+00  0.74505805969E-08  0.10566000000E+00  0.10566000000E+00 0. -1.
     999900   -1    0    0    0    0 -0.00000000000E+00 -0.00000000000E+00 -0.74505805969E-08  0.93827000000E+00  0.93827000000E+00 0. -1.
     999902    2    1    2    0    0 -0.11686561643E-01 -0.65169429817E-02  0.19345167775E-01  0.10204080574E+01  0.10201369132E+01 0.  0.
     999903    2    3    3    0    0  0.12230071165E+00  0.10280186571E-01 -0.33297162207E-01  0.12855271715E+00  0.18813659143E-01 0.  0.
         14    1    1    2    0    0  0.11686561643E-01  0.65169429817E-02 -0.19345167775E-01  0.23521942630E-01  0.00000000000E+00 0.  1.
     999901    1    3    3    0    0 -0.13398727329E+00 -0.16797129553E-01  0.52642329982E-01  0.89185534022E+00  0.88000000000E+00 0.  1.
        -11    1    4    4    0    0  0.46330461214E-01 -0.33636585154E-02 -0.18255197799E-01  0.49913316886E-01  0.51100000000E-03 0.  1.
         11    1    4    4    0    0  0.75970250437E-01  0.13643845086E-01 -0.15041964408E-01  0.78639400267E-01  0.51100000000E-03 0. -1.
</event>
<event>
 8    1  0.1196210E+005  0.1043930E+01  0.7957747E-01            NaN
         13   -1    0    0    0    0  0.00000000000E+00  0.00000000000E+00  0.74505805969E-08  0.10566000000E+00  0.10566000000E+00 0.  1.
     999900   -1    0    0    0    0 -0.00000000000E+00 -0.00000000000E+00 -0.74505805969E-08  0.93827000000E+00  0.93827000000E+00 0. -1.
     999902    2    1    2    0    0  0.51750701049E-02  0.90130909193E-02  0.19699502515E-01  0.10216569769E+01  0.10214141623E+01 0.  0.
     999903    2    3    3    0    0 -0.96958554568E-01 -0.79331128120E-01  0.33541817727E-01  0.13124831341E+00  0.20166235268E-01 0.  0.
         14    1    1    2    0    0 -0.51750701049E-02 -0.90130909193E-02 -0.19699502515E-01  0.22273023096E-01  0.00000000000E+00 0. -1.
     999901    1    3    3    0    0  0.10213362467E+00  0.88344219039E-01 -0.13842315212E-01  0.89040866349E+00  0.88000000000E+00 0. -1.
        -11    1    4    4    0    0 -0.46230373317E-01 -0.50095853390E-01  0.21411834638E-01  0.71453269537E-01  0.51100000000E-03 0. -1.
         11    1    4    4    0    0 -0.50728181251E-01 -0.29235274730E-01  0.12129983089E-01  0.59795043878E-01  0.51100000000E-03 0.  1.
</event>
<event>
 8    1  0.1196210E+005  0.1043930E+01  0.7957747E-01            NaN
         13   -1    0    0    0    0  0.00000000000E+00  0.00000000000E+00  0.74505805969E-08  0.10566000000E+00  0.10566000000E+00 0. -1.
     999900   -1    0    0    0    0 -0.00000000000E+00 -0.00000000000E+00 -0.74505805969E-08  0.93827000000E+00  0.93827000000E+00 0. -1.
     999902    2    1    2    0    0 -0.23304696015E-01  0.46388143093E-02 -0.34037338994E-02  0.10199255658E+01  0.10196430488E+01 0.  0.
     999903    2    3    3    0    0 -0.46081283024E-01 -0.10513111025E-01 -0.12118785113E+00  0.13165677093E+00  0.20322399516E-01 0.  0.
         14    1    1    2    0    0  0.23304696015E-01 -0.46388143093E-02  0.34037338994E-02  0.24004434153E-01  0.00000000000E+00 0. -1.
     999901    1    3    3    0    0  0.22776587009E-01  0.15151925334E-01  0.11778411723E+00  0.88826879492E+00  0.88000000000E+00 0.  1.
        -11    1    4    4    0    0 -0.37829673029E-01 -0.13607380378E-01 -0.11161234181E+00  0.11863313587E+00  0.51100000000E-03 0.  1.
         11    1    4    4    0    0 -0.82516099945E-02  0.30942693538E-02 -0.95755093174E-02  0.13023635054E-01  0.51100000000E-03 0. -1.
</event>
<event>
 8    1  0.1196210E+005  0.1043930E+01  0.7957747E-01            NaN
         13   -1    0    0    0    0  0.00000000000E+00  0.00000000000E+00  0.74505805969E-08  0.10566000000E+00  0.10566000000E+00 0. -1.
     999900   -1    0    0    0    0 -0.00000000000E+00 -0.00000000000E+00 -0.74505805969E-08  0.93827000000E+00  0.93827000000E+00 0.  1.
     999902    2    1    2    0    0  0.15113451892E-01  0.14134151602E-01  0.35301630975E-02  0.10229382702E+01  0.10227228617E+01 0.  0.
     999903    2    3    3    0    0 -0.53994090012E-01 -0.87166158351E-01 -0.78661724680E-01  0.13064173227E+00  0.19138818200E-01 0.  0.
         14    1    1    2    0    0 -0.15113451892E-01 -0.14134151602E-01 -0.35301630975E-02  0.20991729827E-01  0.00000000000E+00 0.  1.
     999901    1    3    3    0    0  0.69107541904E-01  0.10130030995E+00  0.82191887777E-01  0.89229653791E+00  0.88000000000E+00 0. -1.
        -11    1    4    4    0    0 -0.21886788158E-01 -0.23549501974E-01 -0.32603008792E-01  0.45791132792E-01  0.51100000000E-03 0. -1.
         11    1    4    4    0    0 -0.32107301854E-01 -0.63616656377E-01 -0.46058715888E-01  0.84850599474E-01  0.51100000000E-03 0.  1.
</event>
<event>
 7    1  0.1196210E+005  0.1043930E+01  0.7957747E-01            NaN
         13   -1    0    0    0    0  0.00000000000E+00  0.00000000000E+00  0.74505805969E-08  0.10566000000E+00  0.10566000000E+00 0. -1.
     999900   -1    0    0    0    0 -0.00000000000E+00 -0.00000000000E+00 -0.74505805969E-08  0.93827000000E+00  0.93827000000E+00 0. -1.
     999903    2    1    2    0    0  0.64633311785E-01  0.13630222806E-01 -0.25221762662E-01  0.73350136062E-01  0.19515562570E-01 0.  0.
         14    1    1    2    0    0  0.65423639299E-01 -0.39116106915E-01  0.26362151135E-01  0.80655349555E-01  0.00000000000E+00 0. -1.
     999901    1    1    2    0    0 -0.13005695108E+00  0.25485884109E-01 -0.11403884732E-02  0.88992451438E+00  0.88000000000E+00 0. -1.
        -11    1    3    3    0    0  0.19331403785E-01 -0.35644022014E-02 -0.24755457135E-02  0.19819121649E-01  0.51100000000E-03 0.  1.
         11    1    3    3    0    0  0.45301908000E-01  0.17194625007E-01 -0.22746216948E-01  0.53531014413E-01  0.51100000000E-03 0. -1.
</event>
<event>
 7    1  0.1196210E+005  0.1043930E+01  0.7957747E-01            NaN
         13   -1    0    0    0    0  0.00000000000E+00  0.00000000000E+00  0.74505805969E-08  0.10566000000E+00  0.10566000000E+00 0.  1.
     999900   -1    0    0    0    0 -0.00000000000E+00 -0.00000000000E+00 -0.74505805969E-08  0.93827000000E+00  0.93827000000E+00 0. -1.
     999903    2    1    2    0    0  0.55040732875E-01  0.64856195409E-01  0.24364987888E-01  0.91306997627E-01  0.22527912078E-01 0.  0.
         14    1    1    2    0    0 -0.14437430193E-01 -0.45727887236E-01 -0.52404429890E-01  0.71033114346E-01  0.00000000000E+00 0. -1.
     999901    1    1    2    0    0 -0.40603302682E-01 -0.19128308174E-01  0.28039442002E-01  0.88158988803E+00  0.88000000000E+00 0.  1.
        -11    1    3    3    0    0  0.28724898588E-01  0.24156552724E-01  0.11201354110E-02  0.37552292376E-01  0.51100000000E-03 0. -1.
         11    1    3    3    0    0  0.26315834287E-01  0.40699642686E-01  0.23244852477E-01  0.53754705251E-01  0.51100000000E-03 0.  1.
</event>
<event>
 8    1  0.1196210E+005  0.1043930E+01  0.7957747E-01            NaN
         13   -1    0    0    0    0  0.00000000000E+00  0.00000000000E+00  0.74505805969E-08  0.10566000000E+00  0.10566000000E+00 0.  1.
     999900   -1    0    0    0    0 -0.00000000000E+00 -0.00000000000E+00 -0.74505805969E-08  0.93827000000E+00  0.93827000000E+00 0. -1.
     999902    2    1    2    0    0 -0.16513600869E-01 -0.62269664847E-02  0.15255540029E-01  0.10206017847E+01  0.10203351397E+01 0.  0.
     999903    2    3    3    0    0 -0.13156064450E+00 -0.20599590434E-02 -0.57904966616E-03  0.13296226308E+00  0.19135869257E-01 0.  0.
         14    1    1    2    0    0  0.16513600869E-01  0.62269664847E-02 -0.15255540029E-01  0.23328215252E-01  0.00000000000E+00 0. -1.
     999901    1    3    3    0    0  0.11504704363E+00 -0.41670074413E-02  0.15834589695E-01  0.88763952167E+00  0.88000000000E+00 0.  1.
        -11    1    4    4    0    0 -0.72503119736E-01  0.74229124962E-02  0.38246652855E-02  0.72984184498E-01  0.51100000000E-03 0. -1.
         11    1    4    4    0    0 -0.59057524763E-01 -0.94828715396E-02 -0.44037149517E-02  0.59978078580E-01  0.51100000000E-03 0.  1.
</event>
<event>
 8    1  0.1196210E+005  0.1043930E+01  0.7957747E-01            NaN
         13   -1    0    0    0    0  0.00000000000E+00  0.00000000000E+00  0.74505805969E-08  0.10566000000E+00  0.10566000000E+00 0. -1.
     999900   -1    0    0    0    0 -0.00000000000E+00 -0.00000000000E+00 -0.74505805969E-08  0.93827000000E+00  0.93827000000E+00 0. -1.
     999902    2    1    2    0    0 -0.83488044318E-02 -0.20461807446E-01 -0.82605907519E-02  0.10203370888E+01  0.10200642869E+01 0.  0.
     999903    2    3    3    0    0 -0.35356638757E-01  0.11299641116E+00 -0.47514945646E-01  0.12900021443E+00  0.19107705862E-01 0.  0.
         14    1    1    2    0    0  0.83488044318E-02  0.20461807446E-01  0.82605907519E-02  0.23592911201E-01  0.00000000000E+00 0. -1.
     999901    1    3    3    0    0  0.27007834326E-01 -0.13345821861E+00  0.39254354894E-01  0.89133687437E+00  0.88000000000E+00 0.  1.
        -11    1    4    4    0    0 -0.31925409080E-01  0.10102016558E+00 -0.35635669554E-01  0.11177865478E+00  0.51100000000E-03 0. -1.
         11    1    4    4    0    0 -0.34312296771E-02  0.11976245589E-01 -0.11879276092E-01  0.17221559656E-01  0.51100000000E-03 0.  1.
</event>
<event>
 8    1  0.1196210E+005  0.1043930E+01  0.7957747E-01            NaN
         13   -1    0    0    0    0  0.00000000000E+00  0.00000000000E+00  0.74505805969E-08  0.10566000000E+00  0.10566000000E+00 0.  1.
     999900   -1    0    0    0    0 -0.00000000000E+00 -0.00000000000E+00 -0.74505805969E-08  0.93827000000E+00  0.93827000000E+00 0.  1.
     999902    2    1    2    0    0  0.19385154215E-02 -0.23373382714E-01  0.58748829179E-02  0.10197517637E+01  0.10194650913E+01 0.  0.
     999903    2    3    3    0    0  0.91222162268E-01  0.27155941578E-01 -0.84934142441E-01  0.12915024714E+00  0.20175473517E-01 0.  0.
         14    1    1    2    0    0 -0.19385154215E-02  0.23373382714E-01 -0.58748829179E-02  0.24178236305E-01  0.00000000000E+00 0. -1.
     999901    1    3    3    0    0 -0.89283646846E-01 -0.50529324292E-01  0.90809025359E-01  0.89060151656E+00  0.88000000000E+00 0. -1.
        -11    1    4    4    0    0  0.82856561269E-02 -0.10778876921E-03 -0.15569591105E-01  0.17644744375E-01  0.51100000000E-03 0. -1.
         11    1    4    4    0    0  0.82936506141E-01  0.27263730347E-01 -0.69364551336E-01  0.11150550276E+00  0.51100000000E-03 0.  1.
</event>
<event>
 7    1  0.1196210E+005  0.1043930E+01  0.7957747E-01            NaN
         13   -1    0    0    0    0  0.00000000000E+00  0.00000000000E+00  0.74505805969E-08  0.10566000000E+00  0.10566000000E+00 0. -1.
     999900   -1    0    0    0    0 -0.00000000000E+00 -0.00000000000E+00 -0.74505805969E-08  0.93827000000E+00  0.93827000000E+00 0.  1.
     999902    2    1    2    0    0 -0.17677209755E-01  0.80861352374E-04 -0.16230519879E-01  0.10199316655E+01  0.10196492937E+01 0.  0.
         14    1    1    2    0    0  0.17677209755E-01 -0.80861352374E-04  0.16230519879E-01  0.23998334500E-01  0.00000000000E+00 0. -1.
     999901    1    3    3    0    0 -0.51832749627E-01  0.84417111591E-01 -0.10622628637E+00  0.89190633285E+00  0.88000000000E+00 0. -1.
        -11    1    3    3    0    0  0.24584610002E-01 -0.56610200979E-01  0.60883116322E-01  0.86695633557E-01  0.51100000000E-03 0. -1.
         11    1    3    3    0    0  0.95709298703E-02 -0.27726049260E-01  0.29112650169E-01  0.41329699092E-01  0.51100000000E-03 0.  1.
</event>
<event>
 8    1  0.1196210E+005  0.1043930E+01  0.7957747E-01            NaN
         13   -1    0    0    0    0  0.00000000000E+00  0.00000000000E+00  0.74505805969E-08  0.10566000000E+00  0.10566000000E+00 0. -1.
     999900   -1    0    0    0    0 -0.00000000000E+00 -0.00000000000E+00 -0.74505805969E-08  0.93827000000E+00  0.93827000000E+00 0.  1.
     999902    2    1    2    0    0 -0.33419866856E-02  0.23498368396E-01 -0.23326615153E-02  0.10200808176E+01  0.10198019861E+01 0.  0.
     999903    2    3    3    0    0 -0.78681305902E-01 -0.95623007578E-01  0.26545159462E-01  0.12839710472E+00  0.21134415851E-01 0.  0.
         14    1    1    2    0    0  0.33419866856E-02 -0.23498368396E-01  0.23326615153E-02  0.23849182419E-01  0.00000000000E+00 0.  1.
     999901    1    3    3    0    0  0.75339319217E-01  0.11912137597E+00 -0.28877820977E-01  0.89168371286E+00  0.88000000000E+00 0. -1.
        -11    1    4    4    0    0 -0.44186031804E-01 -0.67864320939E-01  0.21784656028E-01  0.83861813851E-01  0.51100000000E-03 0. -1.
         11    1    4    4    0    0 -0.34495274098E-01 -0.27758686640E-01  0.47605034337E-02  0.44535290872E-01  0.51100000000E-03 0.  1.
</event>
<event>
 8    1  0.1196210E+005  0.1043930E+01  0.7957747E-01            NaN
         13   -1    0    0    0    0  0.00000000000E+00  0.00000000000E+00  0.74505805969E-08  0.10566000000E+00  0.10566000000E+00 0.  1.
     999900   -1    0    0    0    0 -0.00000000000E+00 -0.00000000000E+00 -0.74505805969E-08  0.93827000000E+00  0.93827000000E+00 0.  1.
     999902    2    1    2    0    0 -0.77361620781E-02 -0.51469792681E-02 -0.25133790715E-01  0.10171336003E+01  0.10167805633E+01 0.  0.
     999903    2    3    3    0    0 -0.11988473796E+00 -0.14157299329E-01  0.36843187009E-01  0.12780821854E+00  0.20118170292E-01 0.  0.
         14    1    1    2    0    0  0.77361620781E-02  0.51469792681E-02  0.25133790715E-01  0.26796399665E-01  0.00000000000E+00 0.  1.
     999901    1    3    3    0    0  0.11214857589E+00  0.90103200614E-02 -0.61976977724E-01  0.88932538180E+00  0.88000000000E+00 0.  1.
        -11    1    4    4    0    0 -0.68685490192E-01 -0.50427879644E-02  0.30820623184E-01  0.75453947596E-01  0.51100000000E-03 0. -1.
         11    1    4    4    0    0 -0.51199247772E-01 -0.91145113651E-02  0.60225638248E-02  0.52354270942E-01  0.51100000000E-03 0.  1.
</event>
<event>
 7    1  0.1196210E+005  0.1043930E+01  0.7957747E-01            NaN
         13   -1    0    0    0    0  0.00000000000E+00  0.00000000000E+00  0.74505805969E-08  0.10566000000E+00  0.10566000000E+00 0. -1.
     999900   -1    0    0    0    0 -0.00000000000E+00 -0.00000000000E+00 -0.74505805969E-08  0.93827000000E+00  0.93827000000E+00 0.  1.
     999903    2    1    2    0    0 -0.32571456905E-01  0.50317691429E-01 -0.70953603493E-01  0.95028948045E-01  0.20082759829E-01 0.  0.
         14    1    1    2    0    0 -0.36919703859E-02  0.58563766664E-01  0.86934940959E-03  0.58686465046E-01  0.00000000000E+00 0.  1.
     999901    1    1    2    0    0  0.36263427291E-01 -0.10888145809E+00  0.70084254083E-01  0.89021458691E+00  0.88000000000E+00 0. -1.
        -11    1    3    3    0    0 -0.25563798706E-01  0.40220555215E-01 -0.66772106425E-01  0.82036432050E-01  0.51100000000E-03 0.  1.
         11    1    3    3    0    0 -0.70076581995E-02  0.10097136214E-01 -0.41814970677E-02  0.12992515995E-01  0.51100000000E-03 0. -1.
</event>
<event>
 8    1  0.1196210E+005  0.1043930E+01  0.7957747E-01            NaN
         13   -1    0    0    0    0  0.00000000000E+00  0.00000000000E+00  0.74505805969E-08  0.10566000000E+00  0.10566000000E+00 0. -1.
     999900   -1    0    0    0    0 -0.00000000000E+00 -0.00000000000E+00 -0.74505805969E-08  0.93827000000E+00  0.93827000000E+00 0. -1.
     999902    2    1    2    0    0  0.59201341959E-02 -0.22866733151E-01 -0.34042523001E-02  0.10200652895E+01  0.10197860905E+01 0.  0.
     999903    2    3    3    0    0 -0.86154605519E-01 -0.97682512365E-01  0.84716188308E-02  0.13202464018E+00  0.19855679673E-01 0.  0.
         14    1    1    2    0    0 -0.59201341959E-02  0.22866733151E-01  0.34042523001E-02  0.23864710508E-01  0.00000000000E+00 0. -1.
     999901    1    3    3    0    0  0.92074739715E-01  0.74815779214E-01 -0.11875871131E-01  0.88804064931E+00  0.88000000000E+00 0.  1.
        -11    1    4    4    0    0 -0.67072053341E-01 -0.86125278761E-01  0.10225199969E-01  0.10964050263E+00  0.51100000000E-03 0. -1.
         11    1    4    4    0    0 -0.19082552178E-01 -0.11557233604E-01 -0.17535811378E-02  0.22384137554E-01  0.51100000000E-03 0.  1.
</event>
<event>
 8    1  0.1196210E+005  0.1043930E+01  0.7957747E-01            NaN
         13   -1    0    0    0    0  0.00000000000E+00  0.00000000000E+00  0.74505805969E-08  0.10566000000E+00  0.10566000000E+00 0.  1.
     999900   -1    0    0    0    0 -0.00000000000E+00 -0.00000000000E+00 -0.74505805969E-08  0.93827000000E+00  0.93827000000E+00 0. -1.
     999902    2    1    2    0    0 -0.14293175583E-01  0.80839158780E-02  0.20793459660E-01  0.10174344810E+01  0.10170894309E+01 0.  0.
     999903    2    3    3    0    0 -0.11652289172E+00 -0.51612737115E-01  0.10222823210E-01  0.12944442269E+00  0.20245827350E-01 0.  0.
         14    1    1    2    0    0  0.14293175583E-01 -0.80839158780E-02 -0.20793459660E-01  0.26495519032E-01  0.00000000000E+00 0. -1.
     999901    1    3    3    0    0  0.10222971614E+00  0.59696652993E-01  0.10570636450E-01  0.88799005827E+00  0.88000000000E+00 0. -1.
        -11    1    4    4    0    0 -0.67711317534E-01 -0.19097006333E-01  0.41160077999E-02  0.70474965869E-01  0.51100000000E-03 0. -1.
         11    1    4    4    0    0 -0.48811574184E-01 -0.32515730782E-01  0.61068154096E-02  0.58969456824E-01  0.51100000000E-03 0.  1.
</event>
<event>
 8    1  0.1196210E+005  0.1043930E+01  0.7957747E-01            NaN
         13   -1    0    0    0    0  0.00000000000E+00  0.00000000000E+00  0.74505805969E-08  0.10566000000E+00  0.10566000000E+00 0. -1.
     999900   -1    0    0    0    0 -0.00000000000E+00 -0.00000000000E+00 -0.74505805969E-08  0.93827000000E+00  0.93827000000E+00 0. -1.
     999902    2    1    2    0    0 -0.10764205743E-01 -0.34791209276E-02 -0.21214794241E-01  0.10198875396E+01  0.10196041161E+01 0.  0.
     999903    2    3    3    0    0 -0.44634706598E-01 -0.99274205184E-02  0.11723559547E+00  0.12839592336E+00  0.25505246123E-01 0.  0.
         14    1    1    2    0    0  0.10764205743E-01  0.34791209276E-02  0.21214794241E-01  0.24042460406E-01  0.00000000000E+00 0. -1.
     999901    1    3    3    0    0  0.33870500855E-01  0.64482995908E-02 -0.13845038971E+00  0.89149161623E+00  0.88000000000E+00 0. -1.
        -11    1    4    4    0    0  0.23071001278E-02 -0.24820090757E-02  0.18505039464E-01  0.18819688803E-01  0.51100000000E-03 0.  1.
         11    1    4    4    0    0 -0.46941806726E-01 -0.74454114427E-02  0.98730556007E-01  0.10957623456E+00  0.51100000000E-03 0. -1.
</event>
<event>
 8    1  0.1196210E+005  0.1043930E+01  0.7957747E-01            NaN
         13   -1    0    0    0    0  0.00000000000E+00  0.00000000000E+00  0.74505805969E-08  0.10566000000E+00  0.10566000000E+00 0. -1.
     999900   -1    0    0    0    0 -0.00000000000E+00 -0.00000000000E+00 -0.74505805969E-08  0.93827000000E+00  0.93827000000E+00 0. -1.
     999902    2    1    2    0    0  0.13798179318E-01  0.18909176926E-01  0.17759419685E-02  0.10204544660E+01  0.10201844032E+01 0.  0.
     999903    2    3    3    0    0 -0.15961838226E-01 -0.63549224565E-01  0.10926244301E+00  0.12959061869E+00  0.23709972125E-01 0.  0.
         14    1    1    2    0    0 -0.13798179318E-01 -0.18909176926E-01 -0.17759419685E-02  0.23475533953E-01  0.00000000000E+00 0. -1.
     999901    1    3    3    0    0  0.29760017544E-01  0.82458401491E-01 -0.10748650104E+00  0.89086384736E+00  0.88000000000E+00 0. -1.
        -11    1    4    4    0    0 -0.49159189118E-02 -0.21523604965E-01  0.17926698203E-01  0.28443970519E-01  0.51100000000E-03 0. -1.
         11    1    4    4    0    0 -0.11045919314E-01 -0.42025619600E-01  0.91335744805E-01  0.10114664817E+00  0.51100000000E-03 0.  1.
</event>
<event>
 8    1  0.1196210E+005  0.1043930E+01  0.7957747E-01            NaN
         13   -1    0    0    0    0  0.00000000000E+00  0.00000000000E+00  0.74505805969E-08  0.10566000000E+00  0.10566000000E+00 0.  1.
     999900   -1    0    0    0    0 -0.00000000000E+00 -0.00000000000E+00 -0.74505805969E-08  0.93827000000E+00  0.93827000000E+00 0.  1.
     999902    2    1    2    0    0  0.17794391621E-01 -0.31107356260E-02 -0.17170192568E-01  0.10190074688E+01  0.10187026499E+01 0.  0.
     999903    2    3    3    0    0 -0.75842373456E-01  0.10089502094E+00 -0.29797571076E-02  0.12783609939E+00  0.20032935199E-01 0.  0.
         14    1    1    2    0    0 -0.17794391621E-01  0.31107356260E-02  0.17170192568E-01  0.24922531214E-01  0.00000000000E+00 0.  1.
     999901    1    3    3    0    0  0.93636765077E-01 -0.10400575657E+00 -0.14190435460E-01  0.89117136940E+00  0.88000000000E+00 0. -1.
        -11    1    4    4    0    0 -0.45685717742E-01  0.75875658247E-01 -0.36196208765E-02  0.88643460539E-01  0.51100000000E-03 0. -1.
         11    1    4    4    0    0 -0.30156655714E-01  0.25019362694E-01  0.63986376886E-03  0.39192638851E-01  0.51100000000E-03 0.  1.
</event>
<event>
 8    1  0.1196210E+005  0.1043930E+01  0.7957747E-01            NaN
         13   -1    0    0    0    0  0.00000000000E+00  0.00000000000E+00  0.74505805969E-08  0.10566000000E+00  0.10566000000E+00 0.  1.
     999900   -1    0    0    0    0 -0.00000000000E+00 -0.00000000000E+00 -0.74505805969E-08  0.93827000000E+00  0.93827000000E+00 0.  1.
     999902    2    1    2    0    0 -0.86500963696E-02 -0.14465776772E-01  0.17376884524E-01  0.10197217580E+01  0.10194343651E+01 0.  0.
     999903    2    3    3    0    0  0.52653431753E-02  0.92635518796E-01 -0.84812969558E-01  0.12724929722E+00  0.19750459678E-01 0.  0.
         14    1    1    2    0    0  0.86500963696E-02  0.14465776772E-01 -0.17376884524E-01  0.24208241997E-01  0.00000000000E+00 0. -1.
     999901    1    3    3    0    0 -0.13915439545E-01 -0.10710129557E+00  0.10218985408E+00  0.89247246078E+00  0.88000000000E+00 0. -1.
        -11    1    4    4    0    0 -0.22911814660E-03  0.86731755067E-01 -0.76403242879E-01  0.11558618635E+00  0.51100000000E-03 0. -1.
         11    1    4    4    0    0  0.54944613219E-02  0.59037637284E-02 -0.84097266796E-02  0.11663110872E-01  0.51100000000E-03 0.  1.
</event>
<event>
 8    1  0.1196210E+005  0.1043930E+01  0.7957747E-01            NaN
         13   -1    0    0    0    0  0.00000000000E+00  0.00000000000E+00  0.74505805969E-08  0.10566000000E+00  0.10566000000E+00 0. -1.
     999900   -1    0    0    0    0 -0.00000000000E+00 -0.00000000000E+00 -0.74505805969E-08  0.93827000000E+00  0.93827000000E+00 0. -1.
     999902    2    1    2    0    0 -0.56639796341E-02 -0.13003320222E-01  0.19787091792E-01  0.10195846513E+01  0.10192939542E+01 0.  0.
     999903    2    3    3    0    0  0.36486221928E-01  0.12060680307E+00 -0.92963052138E-02  0.12802750308E+00  0.20673048104E-01 0.  0.
         14    1    1    2    0    0  0.56639796341E-02  0.13003320222E-01 -0.19787091792E-01  0.24345348708E-01  0.00000000000E+00 0.  1.
     999901    1    3    3    0    0 -0.42150201563E-01 -0.13361012329E+00  0.29083397006E-01  0.89155714821E+00  0.88000000000E+00 0.  1.
        -11    1    4    4    0    0  0.21258254909E-01  0.71236319630E-01 -0.15645105923E-01  0.75970764749E-01  0.51100000000E-03 0. -1.
         11    1    4    4    0    0  0.15227967020E-01  0.49370483441E-01  0.63488007088E-02  0.52056738336E-01  0.51100000000E-03 0.  1.
</event>
<event>
 8    1  0.1196210E+005  0.1043930E+01  0.7957747E-01            NaN
         13   -1    0    0    0    0  0.00000000000E+00  0.00000000000E+00  0.74505805969E-08  0.10566000000E+00  0.10566000000E+00 0. -1.
     999900   -1    0    0    0    0 -0.00000000000E+00 -0.00000000000E+00 -0.74505805969E-08  0.93827000000E+00  0.93827000000E+00 0. -1.
     999902    2    1    2    0    0  0.82525355480E-02 -0.13719881456E-01  0.19375679060E-01  0.10187952347E+01  0.10184851367E+01 0.  0.
     999903    2    3    3    0    0  0.10684453389E+00 -0.54399527434E-01  0.50629432463E-01  0.13180481033E+00  0.20835200660E-01 0.  0.
         14    1    1    2    0    0 -0.82525355480E-02  0.13719881456E-01 -0.19375679060E-01  0.25134765350E-01  0.00000000000E+00 0.  1.
     999901    1    3    3    0    0 -0.98591998345E-01  0.40679645979E-01 -0.31253753403E-01  0.88699042432E+00  0.88000000000E+00 0. -1.
        -11    1    4    4    0    0  0.67728661259E-01 -0.28473932492E-01  0.40118255350E-01  0.83711838594E-01  0.51100000000E-03 0.  1.
         11    1    4    4    0    0  0.39115872634E-01 -0.25925594942E-01  0.10511177114E-01  0.48092971736E-01  0.51100000000E-03 0. -1.
</event>
<event>
 8    1  0.1196210E+005  0.1043930E+01  0.7957747E-01            NaN
         13   -1    0    0    0    0  0.00000000000E+00  0.00000000000E+00  0.74505805969E-08  0.10566000000E+00  0.10566000000E+00 0. -1.
     999900   -1    0    0    0    0 -0.00000000000E+00 -0.00000000000E+00 -0.74505805969E-08  0.93827000000E+00  0.93827000000E+00 0.  1.
     999902    2    1    2    0    0 -0.22230009735E-01  0.47070991518E-03  0.10482979777E-01  0.10193477347E+01  0.10190512826E+01 0.  0.
     999903    2    3    3    0    0 -0.99196416148E-01  0.54425547197E-01  0.65885030954E-01  0.13260970157E+00  0.21033936447E-01 0.  0.
         14    1    1    2    0    0  0.22230009735E-01 -0.47070991518E-03 -0.10482979777E-01  0.24582265267E-01  0.00000000000E+00 0.  1.
     999901    1    3    3    0    0  0.76966406413E-01 -0.53954837281E-01 -0.55402051177E-01  0.88673803316E+00  0.88000000000E+00 0.  1.
        -11    1    4    4    0    0 -0.39261909059E-01  0.32646725939E-01  0.24976041877E-01  0.56845140569E-01  0.51100000000E-03 0. -1.
         11    1    4    4    0    0 -0.59934507089E-01  0.21778821258E-01  0.40908989077E-01  0.75764561001E-01  0.51100000000E-03 0.  1.
</event>
<event>
 8    1  0.1196210E+005  0.1043930E+01  0.7957747E-01            NaN
         13   -1    0    0    0    0  0.00000000000E+00  0.00000000000E+00  0.74505805969E-08  0.10566000000E+00  0.10566000000E+00 0. -1.
     999900   -1    0    0    0    0 -0.00000000000E+00 -0.00000000000E+00 -0.74505805969E-08  0.93827000000E+00  0.93827000000E+00 0.  1.
     999902    2    1    2    0    0 -0.17016561695E-01 -0.52920849196E-02 -0.16265393079E-01  0.10198025769E+01  0.10195171226E+01 0.  0.
     999903    2    3    3    0    0  0.41450388574E-01  0.11745048822E+00  0.24223676974E-01  0.12844210640E+00  0.19945833493E-01 0.  0.
         14    1    1    2    0    0  0.17016561695E-01  0.52920849196E-02  0.16265393079E-01  0.24127423127E-01  0.00000000000E+00 0. -1.
     999901    1    3    3    0    0 -0.58466950269E-01 -0.12274257314E+00 -0.40489070054E-01  0.89136047048E+00  0.88000000000E+00 0. -1.
        -11    1    4    4    0    0  0.12604564310E-01  0.25202202096E-01  0.13327247698E-01  0.31175353793E-01  0.51100000000E-03 0.  1.
         11    1    4    4    0    0  0.28845824264E-01  0.92248286123E-01  0.10896429277E-01  0.97266752604E-01  0.51100000000E-03 0. -1.
</event>
<event>
 8    1  0.1196210E+005  0.1043930E+01  0.7957747E-01            NaN
         13   -1    0    0    0    0  0.00000000000E+00  0.00000000000E+00  0.74505805969E-08  0.10566000000E+00  0.10566000000E+00 0. -1.
     999900   -1    0    0    0    0 -0.00000000000E+00 -0.00000000000E+00 -0.74505805969E-08  0.93827000000E+00  0.93827000000E+00 0.  1.
     999902    2    1    2    0    0 -0.19489715455E-01 -0.11714115190E-01 -0.69241422209E-02  0.10201599927E+01  0.10198830312E+01 0.  0.
     999903    2    3    3    0    0 -0.10392145341E+00  0.38229680538E-01  0.68713194458E-01  0.13148451320E+00  0.17478477224E-01 0.  0.
         14    1    1    2    0    0  0.19489715455E-01  0.11714115190E-01  0.69241422209E-02  0.23770007334E-01  0.00000000000E+00 0. -1.
     999901    1    3    3    0    0  0.84431737954E-01 -0.49943795727E-01 -0.75637336679E-01  0.88867547947E+00  0.88000000000E+00 0.  1.
        -11    1    4    4    0    0 -0.85376577806E-01  0.32462330233E-01  0.48382682961E-01  0.10336395916E+00  0.51100000000E-03 0.  1.
         11    1    4    4    0    0 -0.18544875602E-01  0.57673503044E-02  0.20330511497E-01  0.28120554037E-01  0.51100000000E-03 0. -1.
</event>
<event>
 8    1  0.1196210E+005  0.1043930E+01  0.7957747E-01            NaN
         13   -1    0    0    0    0  0.00000000000E+00  0.00000000000E+00  0.74505805969E-08  0.10566000000E+00  0.10566000000E+00 0.  1.
     999900   -1    0    0    0    0 -0.00000000000E+00 -0.00000000000E+00 -0.74505805969E-08  0.93827000000E+00  0.93827000000E+00 0. -1.
     999902    2    1    2    0    0  0.18879190615E-01 -0.11790583393E-01 -0.68868700435E-02  0.10206304147E+01  0.10203644314E+01 0.  0.
     999903    2    3    3    0    0  0.12844522435E+00  0.13718156510E-01 -0.26424057235E-01  0.13325388064E+00  0.19287364468E-01 0.  0.
         14    1    1    2    0    0 -0.18879190615E-01  0.11790583393E-01  0.68868700435E-02  0.23299585276E-01  0.00000000000E+00 0.  1.
     999901    1    3    3    0    0 -0.10956603374E+00 -0.25508739904E-01  0.19537187191E-01  0.88737653408E+00  0.88000000000E+00 0. -1.
        -11    1    4    4    0    0  0.91803053727E-01  0.16683488291E-01 -0.24334245285E-01  0.96429020889E-01  0.51100000000E-03 0. -1.
         11    1    4    4    0    0  0.36642170625E-01 -0.29653317805E-02 -0.20898119498E-02  0.36824859750E-01  0.51100000000E-03 0.  1.
</event>
<event>
 8    1  0.1196210E+005  0.1043930E+01  0.7957747E-01            NaN
         13   -1    0    0    0    0  0.00000000000E+00  0.00000000000E+00  0.74505805969E-08  0.10566000000E+00  0.10566000000E+00 0. -1.
     999900   -1    0    0    0    0 -0.00000000000E+00 -0.00000000000E+00 -0.74505805969E-08  0.93827000000E+00  0.93827000000E+00 0. -1.
     999902    2    1    2    0    0 -0.24466672428E-02 -0.31277210482E-02  0.23679046396E-01  0.10199202924E+01  0.10196376498E+01 0.  0.
     999903    2    3    3    0    0  0.10570563958E+00  0.27637896299E-01  0.70476375974E-01  0.13153218201E+00  0.19906274936E-01 0.  0.
         14    1    1    2    0    0  0.24466672428E-02  0.31277210482E-02 -0.23679046396E-01  0.24009707574E-01  0.00000000000E+00 0.  1.
     999901    1    3    3    0    0 -0.10815230682E+00 -0.30765617347E-01 -0.46797329578E-01  0.88838811042E+00  0.88000000000E+00 0. -1.
        -11    1    4    4    0    0  0.34274455604E-01  0.80113890080E-02  0.12128109358E-01  0.37232684813E-01  0.51100000000E-03 0. -1.
         11    1    4    4    0    0  0.71431183976E-01  0.19626507291E-01  0.58348266616E-01  0.94299497192E-01  0.51100000000E-03 0.  1.
</event>
<event>
 8    1  0.1196210E+005  0.1043930E+01  0.7957747E-01            NaN
         13   -1    0    0    0    0  0.00000000000E+00  0.00000000000E+00  0.74505805969E-08  0.10566000000E+00  0.10566000000E+00 0. -1.
     999900   -1    0    0    0    0 -0.00000000000E+00 -0.00000000000E+00 -0.74505805969E-08  0.93827000000E+00  0.93827000000E+00 0.  1.
     999902    2    1    2    0    0  0.19278961487E-01 -0.83457648914E-02 -0.10984177292E-01  0.10202238342E+01  0.10199483759E+01 0.  0.
     999903    2    3    3    0    0 -0.37699381371E-01  0.12145204567E+00 -0.72382680504E-03  0.12882085124E+00  0.20553467709E-01 0.  0.
         14    1    1    2    0    0 -0.19278961487E-01  0.83457648914E-02  0.10984177292E-01  0.23706165832E-01  0.00000000000E+00 0.  1.
     999901    1    3    3    0    0  0.56978342859E-01 -0.12979781056E+00 -0.10260350487E-01  0.89140298293E+00  0.88000000000E+00 0.  1.
        -11    1    4    4    0    0 -0.10174249367E-01  0.43180095497E-01  0.90367557568E-02  0.45276484768E-01  0.51100000000E-03 0.  1.
         11    1    4    4    0    0 -0.27525132005E-01  0.78271950176E-01 -0.97605825619E-02  0.83544366472E-01  0.51100000000E-03 0. -1.
</event>
<event>
 8    1  0.1196210E+005  0.1043930E+01  0.7957747E-01            NaN
         13   -1    0    0    0    0  0.00000000000E+00  0.00000000000E+00  0.74505805969E-08  0.10566000000E+00  0.10566000000E+00 0. -1.
     999900   -1    0    0    0    0 -0.00000000000E+00 -0.00000000000E+00 -0.74505805969E-08  0.93827000000E+00  0.93827000000E+00 0. -1.
     999902    2    1    2    0    0 -0.17997416600E-01  0.61820251849E-02 -0.14514502678E-01  0.10199968592E+01  0.10197160377E+01 0.  0.
     999903    2    3    3    0    0  0.56584896539E-01 -0.47482543502E-01  0.10181169859E+00  0.12759885806E+00  0.21433715403E-01 0.  0.
         14    1    1    2    0    0  0.17997416600E-01 -0.61820251849E-02  0.14514502678E-01  0.23933140781E-01  0.00000000000E+00 0. -1.
     999901    1    3    3    0    0 -0.74582313138E-01  0.53664568687E-01 -0.11632620127E+00  0.89239800116E+00  0.88000000000E+00 0. -1.
        -11    1    4    4    0    0  0.27783132561E-01 -0.15207542145E-01  0.29228281913E-01  0.43101338466E-01  0.51100000000E-03 0. -1.
         11    1    4    4    0    0  0.28801763977E-01 -0.32275001357E-01  0.72583416676E-01  0.84497519597E-01  0.51100000000E-03 0.  1.
</event>
<event>
 8    1  0.1196210E+005  0.1043930E+01  0.7957747E-01            NaN
         13   -1    0    0    0    0  0.00000000000E+00  0.00000000000E+00  0.74505805969E-08  0.10566000000E+00  0.10566000000E+00 0. -1.
     999900   -1    0    0    0    0 -0.00000000000E+00 -0.00000000000E+00 -0.74505805969E-08  0.93827000000E+00  0.93827000000E+00 0.  1.
     999902    2    1    2    0    0  0.22170109225E-01  0.54858816254E-03  0.39433693731E-02  0.10214052391E+01  0.10211568428E+01 0.  0.
     999903    2    3    3    0    0 -0.20568506310E-01 -0.10450059679E+00 -0.73010203208E-01  0.13079658606E+00  0.20828321370E-01 0.  0.
         14    1    1    2    0    0 -0.22170109225E-01 -0.54858816254E-03 -0.39433693731E-02  0.22524760910E-01  0.00000000000E+00 0.  1.
     999901    1    3    3    0    0  0.42738615535E-01  0.10504918495E+00  0.76953572581E-01  0.89060865303E+00  0.88000000000E+00 0.  1.
        -11    1    4    4    0    0 -0.69620385251E-02 -0.48804782202E-01 -0.21744811028E-01  0.53883899951E-01  0.51100000000E-03 0. -1.
         11    1    4    4    0    0 -0.13606467784E-01 -0.55695814589E-01 -0.51265392180E-01  0.76912686110E-01  0.51100000000E-03 0.  1.
</event>
<event>
 8    1  0.1196210E+005  0.1043930E+01  0.7957747E-01            NaN
         13   -1    0    0    0    0  0.00000000000E+00  0.00000000000E+00  0.74505805969E-08  0.10566000000E+00  0.10566000000E+00 0.  1.
     999900   -1    0    0    0    0 -0.00000000000E+00 -0.00000000000E+00 -0.74505805969E-08  0.93827000000E+00  0.93827000000E+00 0.  1.
     999902    2    1    2    0    0  0.20546915598E-01  0.47065810524E-02  0.92759667577E-02  0.10209002105E+01  0.10206404208E+01 0.  0.
     999903    2    3    3    0    0  0.35065896045E-01 -0.12092721679E+00 -0.29790718092E-01  0.13100085785E+00  0.20511680750E-01 0.  0.
         14    1    1    2    0    0 -0.20546915598E-01 -0.47065810524E-02 -0.92759667577E-02  0.23029789514E-01  0.00000000000E+00 0. -1.
     999901    1    3    3    0    0 -0.14518980447E-01  0.12563379784E+00  0.39066684850E-01  0.88989935263E+00  0.88000000000E+00 0. -1.
        -11    1    4    4    0    0  0.28322236347E-01 -0.66491289483E-01 -0.22308919566E-01  0.75638546138E-01  0.51100000000E-03 0. -1.
         11    1    4    4    0    0  0.67436596979E-02 -0.54435927308E-01 -0.74817985263E-02  0.55362311713E-01  0.51100000000E-03 0.  1.
</event>
<event>
 8    1  0.1196210E+005  0.1043930E+01  0.7957747E-01            NaN
         13   -1    0    0    0    0  0.00000000000E+00  0.00000000000E+00  0.74505805969E-08  0.10566000000E+00  0.10566000000E+00 0. -1.
     999900   -1    0    0    0    0 -0.00000000000E+00 -0.00000000000E+00 -0.74505805969E-08  0.93827000000E+00  0.93827000000E+00 0.  1.
     999902    2    1    2    0    0  0.15367884114E-01  0.17243516924E-01  0.86656027043E-02  0.10192601113E+01  0.10189615160E+01 0.  0.
     999903    2    3    3    0    0  0.11974624066E+00 -0.34427890143E-01 -0.33727440263E-01  0.13057459566E+00  0.19691191745E-01 0.  0.
         14    1    1    2    0    0 -0.15367884114E-01 -0.17243516924E-01 -0.86656027043E-02  0.24669888696E-01  0.00000000000E+00 0.  1.
     999901    1    3    3    0    0 -0.10437835655E+00  0.51671407067E-01  0.42393042967E-01  0.88868551564E+00  0.88000000000E+00 0.  1.
        -11    1    4    4    0    0  0.35361912751E-01 -0.16613621720E-01 -0.17509439543E-01  0.42817273316E-01  0.51100000000E-03 0.  1.
         11    1    4    4    0    0  0.84384327913E-01 -0.17814268423E-01 -0.16218000719E-01  0.87757322344E-01  0.51100000000E-03 0. -1.
</event>
<event>
 8    1  0.1196210E+005  0.1043930E+01  0.7957747E-01            NaN
         13   -1    0    0    0    0  0.00000000000E+00  0.00000000000E+00  0.74505805969E-08  0.10566000000E+00  0.10566000000E+00 0. -1.
     999900   -1    0    0    0    0 -0.00000000000E+00 -0.00000000000E+00 -0.74505805969E-08  0.93827000000E+00  0.93827000000E+00 0. -1.
     999902    2    1    2    0    0  0.67459318974E-02 -0.20163066449E-01  0.12488745749E-01  0.10192718246E+01  0.10189735162E+01 0.  0.
     999903    2    3    3    0    0 -0.12287653328E+00 -0.34906141613E-01 -0.17237887767E-02  0.12954077650E+00  0.21465324927E-01 0.  0.
         14    1    1    2    0    0 -0.67459318974E-02  0.20163066449E-01 -0.12488745749E-01  0.24658175443E-01  0.00000000000E+00 0.  1.
     999901    1    3    3    0    0  0.12962246518E+00  0.14743075163E-01  0.14212534525E-01  0.88973104806E+00  0.88000000000E+00 0. -1.
        -11    1    4    4    0    0 -0.57732653802E-01 -0.65847109521E-02 -0.57367243417E-02  0.58391684858E-01  0.51100000000E-03 0. -1.
         11    1    4    4    0    0 -0.65143879479E-01 -0.28321430661E-01  0.40129355649E-02  0.71149091639E-01  0.51100000000E-03 0.  1.
</event>
<event>
 8    1  0.1196210E+005  0.1043930E+01  0.7957747E-01            NaN
         13   -1    0    0    0    0  0.00000000000E+00  0.00000000000E+00  0.74505805969E-08  0.10566000000E+00  0.10566000000E+00 0.  1.
     999900   -1    0    0    0    0 -0.00000000000E+00 -0.00000000000E+00 -0.74505805969E-08  0.93827000000E+00  0.93827000000E+00 0. -1.
     999902    2    1    2    0    0  0.88436297429E-02  0.23915887065E-01  0.10803370445E-01  0.10162371805E+01  0.10158597909E+01 0.  0.
     999903    2    3    3    0    0 -0.11474484961E+00 -0.37255344881E-01  0.28205021255E-01  0.12532817877E+00  0.18902061667E-01 0.  0.
         14    1    1    2    0    0 -0.88436297429E-02 -0.23915887065E-01 -0.10803370445E-01  0.27692819541E-01  0.00000000000E+00 0. -1.
     999901    1    3    3    0    0  0.12358847935E+00  0.61171231946E-01 -0.17401650810E-01  0.89090900169E+00  0.88000000000E+00 0. -1.
        -11    1    4    4    0    0 -0.52791010760E-01 -0.25126119961E-01  0.78301246315E-02  0.58989699898E-01  0.51100000000E-03 0. -1.
         11    1    4    4    0    0 -0.61953838848E-01 -0.12129224920E-01  0.20374896624E-01  0.66338478869E-01  0.51100000000E-03 0.  1.
</event>
<event>
 7    1  0.1196210E+005  0.1043930E+01  0.7957747E-01            NaN
         13   -1    0    0    0    0  0.00000000000E+00  0.00000000000E+00  0.74505805969E-08  0.10566000000E+00  0.10566000000E+00 0. -1.
     999900   -1    0    0    0    0 -0.00000000000E+00 -0.00000000000E+00 -0.74505805969E-08  0.93827000000E+00  0.93827000000E+00 0.  1.
     999903    2    1    2    0    0  0.25854311856E-01 -0.72246191388E-01  0.43944714548E-01  0.90571499661E-01  0.19598494908E-01 0.  0.
         14    1    1    2    0    0  0.29346334402E-01  0.18241134478E-01  0.54476470983E-01  0.64510713999E-01  0.00000000000E+00 0. -1.
     999901    1    1    2    0    0 -0.55200646258E-01  0.54005056909E-01 -0.98421185531E-01  0.88884778634E+00  0.88000000000E+00 0.  1.
        -11    1    3    3    0    0  0.10430598075E-01 -0.29675947270E-01  0.29273997935E-01  0.42973099710E-01  0.51100000000E-03 0.  1.
         11    1    3    3    0    0  0.15423713781E-01 -0.42570244117E-01  0.14670716613E-01  0.47598399951E-01  0.51100000000E-03 0. -1.
</event>
<event>
 8    1  0.1196210E+005  0.1043930E+01  0.7957747E-01            NaN
         13   -1    0    0    0    0  0.00000000000E+00  0.00000000000E+00  0.74505805969E-08  0.10566000000E+00  0.10566000000E+00 0. -1.
     999900   -1    0    0    0    0 -0.00000000000E+00 -0.00000000000E+00 -0.74505805969E-08  0.93827000000E+00  0.93827000000E+00 0.  1.
     999902    2    1    2    0    0  0.61558472550E-03 -0.22936510146E-01 -0.46269920123E-02  0.10205233450E+01  0.10202548830E+01 0.  0.
     999903    2    3    3    0    0  0.12452977428E+00  0.23647531115E-01 -0.23202869730E-01  0.13042792176E+00  0.20154384163E-01 0.  0.
         14    1    1    2    0    0 -0.61558472550E-03  0.22936510146E-01  0.46269920123E-02  0.23406654979E-01  0.00000000000E+00 0. -1.
     999901    1    3    3    0    0 -0.12391418956E+00 -0.46584041261E-01  0.18575877718E-01  0.89009542326E+00  0.88000000000E+00 0. -1.
        -11    1    4    4    0    0  0.69085048761E-01  0.11941674214E-01 -0.26988290990E-02  0.70163326210E-01  0.51100000000E-03 0. -1.
         11    1    4    4    0    0  0.55444725521E-01  0.11705856901E-01 -0.20504040632E-01  0.60264595552E-01  0.51100000000E-03 0.  1.
</event>
<event>
 8    1  0.1196210E+005  0.1043930E+01  0.7957747E-01            NaN
         13   -1    0    0    0    0  0.00000000000E+00  0.00000000000E+00  0.74505805969E-08  0.10566000000E+00  0.10566000000E+00 0. -1.
     999900   -1    0    0    0    0 -0.00000000000E+00 -0.00000000000E+00 -0.74505805969E-08  0.93827000000E+00  0.93827000000E+00 0.  1.
     999902    2    1    2    0    0  0.18979300409E-01 -0.11971282979E-01  0.14246634851E-02  0.10214454469E+01  0.10211979465E+01 0.  0.
     999903    2    3    3    0    0  0.12183401868E+00 -0.16596936883E-01 -0.49289259817E-01  0.13399269228E+00  0.20140109964E-01 0.  0.
         14    1    1    2    0    0 -0.18979300409E-01  0.11971282979E-01 -0.14246634851E-02  0.22484553058E-01  0.00000000000E+00 0.  1.
     999901    1    3    3    0    0 -0.10285471827E+00  0.46256539040E-02  0.50713923302E-01  0.88745275466E+00  0.88000000000E+00 0.  1.
        -11    1    4    4    0    0  0.32593280245E-01  0.40921765575E-02 -0.10279730010E-01  0.34423855046E-01  0.51100000000E-03 0.  1.
         11    1    4    4    0    0  0.89240738433E-01 -0.20689113440E-01 -0.39009529807E-01  0.99568837232E-01  0.51100000000E-03 0. -1.
</event>
<event>
 8    1  0.1196210E+005  0.1043930E+01  0.7957747E-01            NaN
         13   -1    0    0    0    0  0.00000000000E+00  0.00000000000E+00  0.74505805969E-08  0.10566000000E+00  0.10566000000E+00 0.  1.
     999900   -1    0    0    0    0 -0.00000000000E+00 -0.00000000000E+00 -0.74505805969E-08  0.93827000000E+00  0.93827000000E+00 0. -1.
     999902    2    1    2    0    0 -0.19566053993E-01  0.59530072428E-02  0.12511196874E-01  0.10199550378E+01  0.10196732223E+01 0.  0.
     999903    2    3    3    0    0  0.10599233750E+00  0.54092193983E-01  0.45824766478E-01  0.12911718227E+00  0.20273048008E-01 0.  0.
         14    1    1    2    0    0  0.19566053993E-01 -0.59530072428E-02 -0.12511196874E-01  0.23974962175E-01  0.00000000000E+00 0.  1.
     999901    1    3    3    0    0 -0.12555839149E+00 -0.48139186740E-01 -0.33313569604E-01  0.89083785556E+00  0.88000000000E+00 0. -1.
        -11    1    4    4    0    0  0.78282797207E-01  0.35427485566E-01  0.41502399244E-01  0.95425433381E-01  0.51100000000E-03 0. -1.
         11    1    4    4    0    0  0.27709540293E-01  0.18664708417E-01  0.43223672344E-02  0.33691748886E-01  0.51100000000E-03 0.  1.
</event>
<event>
 8    1  0.1196210E+005  0.1043930E+01  0.7957747E-01            NaN
         13   -1    0    0    0    0  0.00000000000E+00  0.00000000000E+00  0.74505805969E-08  0.10566000000E+00  0.10566000000E+00 0.  1.
     999900   -1    0    0    0    0 -0.00000000000E+00 -0.00000000000E+00 -0.74505805969E-08  0.93827000000E+00  0.93827000000E+00 0. -1.
     999902    2    1    2    0    0 -0.16661114578E-01  0.21912569121E-02 -0.16729299736E-01  0.10202178973E+01  0.10199422994E+01 0.  0.
     999903    2    3    3    0    0  0.16417137957E-01  0.10457585558E+00  0.71455655632E-01  0.12928952575E+00  0.20105689720E-01 0.  0.
         14    1    1    2    0    0  0.16661114578E-01 -0.21912569121E-02  0.16729299736E-01  0.23712102721E-01  0.00000000000E+00 0.  1.
     999901    1    3    3    0    0 -0.33078252534E-01 -0.10238459867E+00 -0.88184955368E-01  0.89092837152E+00  0.88000000000E+00 0.  1.
        -11    1    4    4    0    0 -0.97910307736E-03  0.58262743818E-01  0.38411634779E-01  0.69794131325E-01  0.51100000000E-03 0.  1.
         11    1    4    4    0    0  0.17396241034E-01  0.46313111760E-01  0.33044020853E-01  0.59495394428E-01  0.51100000000E-03 0. -1.
</event>
<event>
 8    1  0.1196210E+005  0.1043930E+01  0.7957747E-01            NaN
         13   -1    0    0    0    0  0.00000000000E+00  0.00000000000E+00  0.74505805969E-08  0.10566000000E+00  0.10566000000E+00 0.  1.
     999900   -1    0    0    0    0 -0.00000000000E+00 -0.00000000000E+00 -0.74505805969E-08  0.93827000000E+00  0.93827000000E+00 0.  1.
     999902    2    1    2    0    0 -0.82010646801E-02  0.16428631127E-01 -0.10064058423E-01  0.10229909777E+01  0.10227766608E+01 0.  0.
     999903    2    3    3    0    0 -0.66736646553E-01  0.10345188351E+00 -0.53163117616E-01  0.13571594160E+00  0.20890848114E-01 0.  0.
         14    1    1    2    0    0  0.82010646801E-02 -0.16428631127E-01  0.10064058423E-01  0.20939022291E-01  0.00000000000E+00 0.  1.
     999901    1    3    3    0    0  0.58535581873E-01 -0.87023252381E-01  0.43099059193E-01  0.88727503611E+00  0.88000000000E+00 0. -1.
        -11    1    4    4    0    0 -0.32365401133E-01  0.60654131618E-01 -0.20077653459E-01  0.71622734954E-01  0.51100000000E-03 0.  1.
         11    1    4    4    0    0 -0.34371245420E-01  0.42797751890E-01 -0.33085464157E-01  0.64093206645E-01  0.51100000000E-03 0. -1.
</event>
<event>
 8    1  0.1196210E+005  0.1043930E+01  0.7957747E-01            NaN
         13   -1    0    0    0    0  0.00000000000E+00  0.00000000000E+00  0.74505805969E-08  0.10566000000E+00  0.10566000000E+00 0.  1.
     999900   -1    0    0    0    0 -0.00000000000E+00 -0.00000000000E+00 -0.74505805969E-08  0.93827000000E+00  0.93827000000E+00 0.  1.
     999902    2    1    2    0    0 -0.10491007687E-01  0.19527813016E-01 -0.66958024486E-02  0.10207733488E+01  0.10205106561E+01 0.  0.
     999903    2    3    3    0    0 -0.63585419745E-01 -0.30685231099E-01  0.10774289271E+00  0.13035963523E+00  0.20010361243E-01 0.  0.
         14    1    1    2    0    0  0.10491007687E-01 -0.19527813016E-01  0.66958024486E-02  0.23156651181E-01  0.00000000000E+00 0.  1.
     999901    1    3    3    0    0  0.53094412058E-01  0.50213044115E-01 -0.11443869516E+00  0.89041371359E+00  0.88000000000E+00 0.  1.
        -11    1    4    4    0    0 -0.42993579439E-01 -0.11884152575E-01  0.75830381380E-01  0.87978342884E-01  0.51100000000E-03 0. -1.
         11    1    4    4    0    0 -0.20591840306E-01 -0.18801078524E-01  0.31912511331E-01  0.42381292350E-01  0.51100000000E-03 0.  1.
</event>
<event>
 8    1  0.1196210E+005  0.1043930E+01  0.7957747E-01            NaN
         13   -1    0    0    0    0  0.00000000000E+00  0.00000000000E+00  0.74505805969E-08  0.10566000000E+00  0.10566000000E+00 0.  1.
     999900   -1    0    0    0    0 -0.00000000000E+00 -0.00000000000E+00 -0.74505805969E-08  0.93827000000E+00  0.93827000000E+00 0. -1.
     999902    2    1    2    0    0 -0.13488005523E-01 -0.11211528700E-01 -0.15799730404E-01  0.10203237265E+01  0.10200506118E+01 0.  0.
     999903    2    3    3    0    0 -0.80009964862E-01 -0.59642445093E-01 -0.86656576009E-01  0.13364936838E+00  0.19848822861E-01 0.  0.
         14    1    1    2    0    0  0.13488005523E-01  0.11211528700E-01  0.15799730404E-01  0.23606273523E-01  0.00000000000E+00 0. -1.
     999901    1    3    3    0    0  0.66521959339E-01  0.48430916393E-01  0.70856845605E-01  0.88667435810E+00  0.88000000000E+00 0.  1.
        -11    1    4    4    0    0 -0.71548401595E-01 -0.57938726349E-01 -0.73046535724E-01  0.11752500706E+00  0.51100000000E-03 0. -1.
         11    1    4    4    0    0 -0.84615632674E-02 -0.17037187437E-02 -0.13610040286E-01  0.16124361323E-01  0.51100000000E-03 0.  1.
</event>
<event>
 8    1  0.1196210E+005  0.1043930E+01  0.7957747E-01            NaN
         13   -1    0    0    0    0  0.00000000000E+00  0.00000000000E+00  0.74505805969E-08  0.10566000000E+00  0.10566000000E+00 0. -1.
     999900   -1    0    0    0    0 -0.00000000000E+00 -0.00000000000E+00 -0.74505805969E-08  0.93827000000E+00  0.93827000000E+00 0. -1.
     999902    2    1    2    0    0  0.17984549224E-02 -0.22307197460E-01  0.75575571086E-02  0.10203087772E+01  0.10200353124E+01 0.  0.
     999903    2    3    3    0    0  0.44414055508E-01 -0.11195249648E+00 -0.52087498328E-01  0.13272221706E+00  0.19902502964E-01 0.  0.
         14    1    1    2    0    0 -0.17984549224E-02  0.22307197460E-01 -0.75575571086E-02  0.23621222832E-01  0.00000000000E+00 0. -1.
     999901    1    3    3    0    0 -0.42615600586E-01  0.89645299019E-01  0.59645055436E-01  0.88758656011E+00  0.88000000000E+00 0.  1.
        -11    1    4    4    0    0  0.10469142863E-01 -0.40451294908E-01 -0.95497169454E-02  0.42864535770E-01  0.51100000000E-03 0.  1.
         11    1    4    4    0    0  0.33944912645E-01 -0.71501201571E-01 -0.42537781382E-01  0.89857681289E-01  0.51100000000E-03 0. -1.
</event>
<event>
 8    1  0.1196210E+005  0.1043930E+01  0.7957747E-01            NaN
         13   -1    0    0    0    0  0.00000000000E+00  0.00000000000E+00  0.74505805969E-08  0.10566000000E+00  0.10566000000E+00 0. -1.
     999900   -1    0    0    0    0 -0.00000000000E+00 -0.00000000000E+00 -0.74505805969E-08  0.93827000000E+00  0.93827000000E+00 0. -1.
     999902    2    1    2    0    0 -0.14916015769E-01 -0.34480642454E-02 -0.18649794180E-01  0.10198013553E+01  0.10195158717E+01 0.  0.
     999903    2    3    3    0    0  0.80129542814E-01  0.95029751159E-01 -0.28398318862E-01  0.12916867450E+00  0.20656348175E-01 0.  0.
         14    1    1    2    0    0  0.14916015769E-01  0.34480642454E-02  0.18649794180E-01  0.24128644728E-01  0.00000000000E+00 0. -1.
     999901    1    3    3    0    0 -0.95045558583E-01 -0.98477815404E-01  0.97485246819E-02  0.89063268078E+00  0.88000000000E+00 0. -1.
        -11    1    4    4    0    0  0.50412121331E-01  0.60135803416E-01 -0.28037044374E-01  0.83330869477E-01  0.51100000000E-03 0. -1.
         11    1    4    4    0    0  0.29717421483E-01  0.34893947743E-01 -0.36127448771E-03  0.45837805019E-01  0.51100000000E-03 0.  1.
</event>
<event>
 8    1  0.1196210E+005  0.1043930E+01  0.7957747E-01            NaN
         13   -1    0    0    0    0  0.00000000000E+00  0.00000000000E+00  0.74505805969E-08  0.10566000000E+00  0.10566000000E+00 0.  1.
     999900   -1    0    0    0    0 -0.00000000000E+00 -0.00000000000E+00 -0.74505805969E-08  0.93827000000E+00  0.93827000000E+00 0. -1.
     999902    2    1    2    0    0 -0.10499811060E-01 -0.16856160885E-01  0.69145651012E-02  0.10229017475E+01  0.10226855810E+01 0.  0.
     999903    2    3    3    0    0 -0.37865510411E-01  0.55061138499E-01  0.11341793938E+00  0.13314675417E+00  0.19972564224E-01 0.  0.
         14    1    1    2    0    0  0.10499811060E-01  0.16856160885E-01 -0.69145651012E-02  0.21028252486E-01  0.00000000000E+00 0.  1.
     999901    1    3    3    0    0  0.27365699352E-01 -0.71917299384E-01 -0.10650337427E+00  0.88975499335E+00  0.88000000000E+00 0. -1.
        -11    1    4    4    0    0 -0.21640010790E-01  0.46558272113E-01  0.86258388491E-01  0.10038293418E+00  0.51100000000E-03 0.  1.
         11    1    4    4    0    0 -0.16225499621E-01  0.85028663859E-02  0.27159550885E-01  0.32763819985E-01  0.51100000000E-03 0. -1.
</event>
<event>
 8    1  0.1196210E+005  0.1043930E+01  0.7957747E-01            NaN
         13   -1    0    0    0    0  0.00000000000E+00  0.00000000000E+00  0.74505805969E-08  0.10566000000E+00  0.10566000000E+00 0. -1.
     999900   -1    0    0    0    0 -0.00000000000E+00 -0.00000000000E+00 -0.74505805969E-08  0.93827000000E+00  0.93827000000E+00 0.  1.
     999902    2    1    2    0    0 -0.34596584599E-03  0.22270806860E-01 -0.62946656424E-02  0.10207841290E+01  0.10205216835E+01 0.  0.
     999903    2    3    3    0    0 -0.10624421299E+00 -0.68061712079E-01 -0.22837353132E-01  0.12969038348E+00  0.19437629082E-01 0.  0.
         14    1    1    2    0    0  0.34596584599E-03 -0.22270806860E-01  0.62946656424E-02  0.23145871038E-01  0.00000000000E+00 0. -1.
     999901    1    3    3    0    0  0.10589824714E+00  0.90332518939E-01  0.16542687490E-01  0.89109374548E+00  0.88000000000E+00 0.  1.
        -11    1    4    4    0    0 -0.80845715052E-01 -0.49592765150E-01 -0.86890679703E-02  0.95243020850E-01  0.51100000000E-03 0. -1.
         11    1    4    4    0    0 -0.25398497938E-01 -0.18468946929E-01 -0.14148285162E-01  0.34447362630E-01  0.51100000000E-03 0.  1.
</event>
<event>
 8    1  0.1196210E+005  0.1043930E+01  0.7957747E-01            NaN
         13   -1    0    0    0    0  0.00000000000E+00  0.00000000000E+00  0.74505805969E-08  0.10566000000E+00  0.10566000000E+00 0.  1.
     999900   -1    0    0    0    0 -0.00000000000E+00 -0.00000000000E+00 -0.74505805969E-08  0.93827000000E+00  0.93827000000E+00 0. -1.
     999902    2    1    2    0    0 -0.15032559793E-01  0.13837434210E-01  0.10066891818E-01  0.10211529337E+01  0.10208988781E+01 0.  0.
     999903    2    3    3    0    0  0.21145226487E-01  0.72753589300E-01  0.10822142147E+00  0.13300077484E+00  0.15398853382E-01 0.  0.
         14    1    1    2    0    0  0.15032559793E-01 -0.13837434210E-01 -0.10066891818E-01  0.22777066324E-01  0.00000000000E+00 0. -1.
     999901    1    3    3    0    0 -0.36177786280E-01 -0.58916155089E-01 -0.98154529648E-01  0.88815215883E+00  0.88000000000E+00 0. -1.
        -11    1    4    4    0    0  0.15248257315E-01  0.39315800309E-01  0.71296495004E-01  0.82835335612E-01  0.51100000000E-03 0. -1.
         11    1    4    4    0    0  0.58969691720E-02  0.33437788990E-01  0.36924926461E-01  0.50165439230E-01  0.51100000000E-03 0.  1.
</event>
<event>
 8    1  0.1196210E+005  0.1043930E+01  0.7957747E-01            NaN
         13   -1    0    0    0    0  0.00000000000E+00  0.00000000000E+00  0.74505805969E-08  0.10566000000E+00  0.10566000000E+00 0. -1.
     999900   -1    0    0    0    0 -0.00000000000E+00 -0.00000000000E+00 -0.74505805969E-08  0.93827000000E+00  0.93827000000E+00 0. -1.
     999902    2    1    2    0    0  0.72841245382E-02  0.12439815900E-01 -0.19600320989E-01  0.10195993594E+01  0.10193090177E+01 0.  0.
     999903    2    3    3    0    0 -0.91779937566E-01 -0.84030426188E-01 -0.26262888081E-01  0.12877693835E+00  0.20226000506E-01 0.  0.
         14    1    1    2    0    0 -0.72841245382E-02 -0.12439815900E-01  0.19600320989E-01  0.24330640616E-01  0.00000000000E+00 0. -1.
     999901    1    3    3    0    0  0.99064062104E-01  0.96470242089E-01  0.66625670914E-02  0.89082242103E+00  0.88000000000E+00 0. -1.
        -11    1    4    4    0    0 -0.41612419914E-01 -0.50947744295E-01 -0.10186262263E-01  0.66567914191E-01  0.51100000000E-03 0.  1.
         11    1    4    4    0    0 -0.50167517652E-01 -0.33082681893E-01 -0.16076625818E-01  0.62209024162E-01  0.51100000000E-03 0. -1.
</event>
<event>
 8    1  0.1196210E+005  0.1043930E+01  0.7957747E-01            NaN
         13   -1    0    0    0    0  0.00000000000E+00  0.00000000000E+00  0.74505805969E-08  0.10566000000E+00  0.10566000000E+00 0.  1.
     999900   -1    0    0    0    0 -0.00000000000E+00 -0.00000000000E+00 -0.74505805969E-08  0.93827000000E+00  0.93827000000E+00 0.  1.
     999902    2    1    2    0    0  0.47746568354E-02  0.14311690752E-01  0.16914038941E-01  0.10212649045E+01  0.10210133685E+01 0.  0.
     999903    2    3    3    0    0 -0.10105570155E+00 -0.15577203591E-01 -0.77008130937E-01  0.12946067445E+00  0.19362590508E-01 0.  0.
         14    1    1    2    0    0 -0.47746568354E-02 -0.14311690752E-01 -0.16914038941E-01  0.22665095486E-01  0.00000000000E+00 0. -1.
     999901    1    3    3    0    0  0.10583035839E+00  0.29888894343E-01  0.93922169878E-01  0.89180423006E+00  0.88000000000E+00 0. -1.
        -11    1    4    4    0    0 -0.36345342793E-01 -0.11796652288E-02 -0.37728873945E-01  0.52403288093E-01  0.51100000000E-03 0. -1.
         11    1    4    4    0    0 -0.64710358759E-01 -0.14397538362E-01 -0.39279256993E-01  0.77057386359E-01  0.51100000000E-03 0.  1.
</event>
<event>
 8    1  0.1196210E+005  0.1043930E+01  0.7957747E-01            NaN
         13   -1    0    0    0    0  0.00000000000E+00  0.00000000000E+00  0.74505805969E-08  0.10566000000E+00  0.10566000000E+00 0. -1.
     999900   -1    0    0    0    0 -0.00000000000E+00 -0.00000000000E+00 -0.74505805969E-08  0.93827000000E+00  0.93827000000E+00 0.  1.
     999902    2    1    2    0    0 -0.23601725626E-01 -0.77712899044E-02 -0.36028846643E-02  0.10188219300E+01  0.10185124987E+01 0.  0.
     999903    2    3    3    0    0 -0.63727259820E-01 -0.49160119992E-01  0.10104138723E+00  0.13074900657E+00  0.20200488741E-01 0.  0.
         14    1    1    2    0    0  0.23601725626E-01  0.77712899044E-02  0.36028846643E-02  0.25108069962E-01  0.00000000000E+00 0. -1.
     999901    1    3    3    0    0  0.40125534194E-01  0.41388830088E-01 -0.10464427189E+00  0.88807292346E+00  0.88000000000E+00 0.  1.
        -11    1    4    4    0    0 -0.13223965085E-01 -0.16385565168E-02  0.12452789518E-01  0.18245306459E-01  0.51100000000E-03 0.  1.
         11    1    4    4    0    0 -0.50503294736E-01 -0.47521563476E-01  0.88588597710E-01  0.11250370011E+00  0.51100000000E-03 0. -1.
</event>
<event>
 8    1  0.1196210E+005  0.1043930E+01  0.7957747E-01            NaN
         13   -1    0    0    0    0  0.00000000000E+00  0.00000000000E+00  0.74505805969E-08  0.10566000000E+00  0.10566000000E+00 0.  1.
     999900   -1    0    0    0    0 -0.00000000000E+00 -0.00000000000E+00 -0.74505805969E-08  0.93827000000E+00  0.93827000000E+00 0.  1.
     999902    2    1    2    0    0 -0.29175334201E-02 -0.16426701834E-01 -0.15696264075E-01  0.10210232054E+01  0.10207662145E+01 0.  0.
     999903    2    3    3    0    0 -0.11685547405E+00  0.52275445374E-01  0.16608376047E-01  0.13043607930E+00  0.18703171506E-01 0.  0.
         14    1    1    2    0    0  0.29175334201E-02  0.16426701834E-01  0.15696264075E-01  0.22906794633E-01  0.00000000000E+00 0.  1.
     999901    1    3    3    0    0  0.11393794063E+00 -0.68702147208E-01 -0.32304640122E-01  0.89058712607E+00  0.88000000000E+00 0. -1.
        -11    1    4    4    0    0 -0.51559225900E-01  0.14320159333E-01  0.11503561281E-01  0.54735854628E-01  0.51100000000E-03 0. -1.
         11    1    4    4    0    0 -0.65296248147E-01  0.37955286041E-01  0.51048147656E-02  0.75700224671E-01  0.51100000000E-03 0.  1.
</event>
<event>
 8    1  0.1196210E+005  0.1043930E+01  0.7957747E-01            NaN
         13   -1    0    0    0    0  0.00000000000E+00  0.00000000000E+00  0.74505805969E-08  0.10566000000E+00  0.10566000000E+00 0. -1.
     999900   -1    0    0    0    0 -0.00000000000E+00 -0.00000000000E+00 -0.74505805969E-08  0.93827000000E+00  0.93827000000E+00 0. -1.
     999902    2    1    2    0    0  0.51921431019E-02 -0.10653770050E-01 -0.20493748028E-01  0.10202560718E+01  0.10199813710E+01 0.  0.
     999903    2    3    3    0    0 -0.59486811580E-01  0.97571216554E-01  0.54516316109E-01  0.12811117070E+00  0.19535103912E-01 0.  0.
         14    1    1    2    0    0 -0.51921431019E-02  0.10653770050E-01  0.20493748028E-01  0.23673928160E-01  0.00000000000E+00 0. -1.
     999901    1    3    3    0    0  0.64678954682E-01 -0.10822498660E+00 -0.75010064137E-01  0.89214490114E+00  0.88000000000E+00 0. -1.
        -11    1    4    4    0    0 -0.23697189028E-01  0.57537686569E-01  0.28813037166E-01  0.68575464820E-01  0.51100000000E-03 0.  1.
         11    1    4    4    0    0 -0.35789622553E-01  0.40033529984E-01  0.25703278943E-01  0.59535705882E-01  0.51100000000E-03 0. -1.
</event>
<event>
 8    1  0.1196210E+005  0.1043930E+01  0.7957747E-01            NaN
         13   -1    0    0    0    0  0.00000000000E+00  0.00000000000E+00  0.74505805969E-08  0.10566000000E+00  0.10566000000E+00 0. -1.
     999900   -1    0    0    0    0 -0.00000000000E+00 -0.00000000000E+00 -0.74505805969E-08  0.93827000000E+00  0.93827000000E+00 0.  1.
     999902    2    1    2    0    0 -0.23427302108E-01 -0.36950699580E-02  0.32217609482E-02  0.10199952602E+01  0.10197144007E+01 0.  0.
     999903    2    3    3    0    0  0.20256015383E-01 -0.98867017854E-01  0.80287545825E-01  0.13044196382E+00  0.19596492832E-01 0.  0.
         14    1    1    2    0    0  0.23427302108E-01  0.36950699580E-02 -0.32217609482E-02  0.23934739808E-01  0.00000000000E+00 0.  1.
     999901    1    3    3    0    0 -0.43683317491E-01  0.95171947896E-01 -0.77065784876E-01  0.88955329638E+00  0.88000000000E+00 0.  1.
        -11    1    4    4    0    0  0.19717328546E-01 -0.64488434225E-01  0.61441055699E-01  0.91229357338E-01  0.51100000000E-03 0. -1.
         11    1    4    4    0    0  0.53868683666E-03 -0.34378583629E-01  0.18846490125E-01  0.39212606479E-01  0.51100000000E-03 0.  1.
</event>
<event>
 8    1  0.1196210E+005  0.1043930E+01  0.7957747E-01            NaN
         13   -1    0    0    0    0  0.00000000000E+00  0.00000000000E+00  0.74505805969E-08  0.10566000000E+00  0.10566000000E+00 0.  1.
     999900   -1    0    0    0    0 -0.00000000000E+00 -0.00000000000E+00 -0.74505805969E-08  0.93827000000E+00  0.93827000000E+00 0.  1.
     999902    2    1    2    0    0  0.22608124149E-01 -0.56007717164E-02  0.38863371757E-02  0.10203164544E+01  0.10200431694E+01 0.  0.
     999903    2    3    3    0    0  0.11280439917E+00  0.63351649809E-01 -0.20174739458E-01  0.13269674982E+00  0.21520764269E-01 0.  0.
         14    1    1    2    0    0 -0.22608124149E-01  0.56007717164E-02 -0.38863371757E-02  0.23613545647E-01  0.00000000000E+00 0. -1.
     999901    1    3    3    0    0 -0.90196275025E-01 -0.68952421526E-01  0.24061076634E-01  0.88761970453E+00  0.88000000000E+00 0. -1.
        -11    1    4    4    0    0  0.30519686722E-01  0.12586270895E-01 -0.13849719058E-01  0.35804208295E-01  0.51100000000E-03 0. -1.
         11    1    4    4    0    0  0.82284712452E-01  0.50765378914E-01 -0.63250204004E-02  0.96892541528E-01  0.51100000000E-03 0.  1.
</event>
<event>
 8    1  0.1196210E+005  0.1043930E+01  0.7957747E-01            NaN
         13   -1    0    0    0    0  0.00000000000E+00  0.00000000000E+00  0.74505805969E-08  0.10566000000E+00  0.10566000000E+00 0. -1.
     999900   -1    0    0    0    0 -0.00000000000E+00 -0.00000000000E+00 -0.74505805969E-08  0.93827000000E+00  0.93827000000E+00 0.  1.
     999902    2    1    2    0    0 -0.15549414409E-01  0.17649612885E-01 -0.11509785346E-02  0.10203796736E+01  0.10201078670E+01 0.  0.
     999903    2    3    3    0    0  0.13614873663E-01 -0.11717889900E+00 -0.46583866211E-01  0.12847528934E+00  0.20483755155E-01 0.  0.
         14    1    1    2    0    0  0.15549414409E-01 -0.17649612885E-01  0.11509785346E-02  0.23550326431E-01  0.00000000000E+00 0. -1.
     999901    1    3    3    0    0 -0.29164288072E-01  0.13482851188E+00  0.45432887676E-01  0.89190438422E+00  0.88000000000E+00 0.  1.
        -11    1    4    4    0    0 -0.48188009220E-02 -0.26311284280E-01 -0.69651649967E-02  0.27645599418E-01  0.51100000000E-03 0. -1.
         11    1    4    4    0    0  0.18433674585E-01 -0.90867614720E-01 -0.39618701214E-01  0.10082968993E+00  0.51100000000E-03 0.  1.
</event>
<event>
 8    1  0.1196210E+005  0.1043930E+01  0.7957747E-01            NaN
         13   -1    0    0    0    0  0.00000000000E+00  0.00000000000E+00  0.74505805969E-08  0.10566000000E+00  0.10566000000E+00 0. -1.
     999900   -1    0    0    0    0 -0.00000000000E+00 -0.00000000000E+00 -0.74505805969E-08  0.93827000000E+00  0.93827000000E+00 0.  1.
     999902    2    1    2    0    0 -0.42822892220E-02 -0.10506514134E-01  0.19643771562E-01  0.10212451460E+01  0.10209931663E+01 0.  0.
     999903    2    3    3    0    0  0.47632625030E-01 -0.12129501393E+00  0.16681609740E-01  0.13277566176E+00  0.19228959399E-01 0.  0.
         14    1    1    2    0    0  0.42822892220E-02  0.10506514134E-01 -0.19643771562E-01  0.22684854009E-01  0.00000000000E+00 0.  1.
     999901    1    3    3    0    0 -0.51914914252E-01  0.11078849980E+00  0.29621618221E-02  0.88846948423E+00  0.88000000000E+00 0. -1.
        -11    1    4    4    0    0  0.34546641321E-01 -0.72936240060E-01  0.26588767648E-02  0.80749590013E-01  0.51100000000E-03 0. -1.
         11    1    4    4    0    0  0.13085983709E-01 -0.48358773874E-01  0.14022732975E-01  0.52026071746E-01  0.51100000000E-03 0.  1.
</event>
<event>
 8    1  0.1196210E+005  0.1043930E+01  0.7957747E-01            NaN
         13   -1    0    0    0    0  0.00000000000E+00  0.00000000000E+00  0.74505805969E-08  0.10566000000E+00  0.10566000000E+00 0. -1.
     999900   -1    0    0    0    0 -0.00000000000E+00 -0.00000000000E+00 -0.74505805969E-08  0.93827000000E+00  0.93827000000E+00 0.  1.
     999902    2    1    2    0    0 -0.85461184344E-02  0.37047130836E-03 -0.22258772448E-01  0.10200841127E+01  0.10198053592E+01 0.  0.
     999903    2    3    3    0    0  0.46972512470E-01 -0.11818360677E+00 -0.21248128962E-01  0.13039966911E+00  0.19463013190E-01 0.  0.
         14    1    1    2    0    0  0.85461184344E-02 -0.37047130836E-03  0.22258772448E-01  0.23845887280E-01  0.00000000000E+00 0. -1.
     999901    1    3    3    0    0 -0.55518630905E-01  0.11855407808E+00 -0.10106434864E-02  0.88968444361E+00  0.88000000000E+00 0.  1.
        -11    1    4    4    0    0  0.13719829184E-01 -0.37182760573E-01 -0.15795345804E-01  0.42667850505E-01  0.51100000000E-03 0. -1.
         11    1    4    4    0    0  0.33252683286E-01 -0.81000846195E-01 -0.54527831575E-02  0.87731818602E-01  0.51100000000E-03 0.  1.
</event>
<event>
 8    1  0.1196210E+005  0.1043930E+01  0.7957747E-01            NaN
         13   -1    0    0    0    0  0.00000000000E+00  0.00000000000E+00  0.74505805969E-08  0.10566000000E+00  0.10566000000E+00 0.  1.
     999900   -1    0    0    0    0 -0.00000000000E+00 -0.00000000000E+00 -0.74505805969E-08  0.93827000000E+00  0.93827000000E+00 0. -1.
     999902    2    1    2    0    0  0.23078552058E-02 -0.12625824884E-01 -0.19443404315E-01  0.10206322829E+01  0.10203663427E+01 0.  0.
     999903    2    3    3    0    0  0.79948620799E-01 -0.75148555426E-01  0.68044723837E-01  0.13069332272E+00  0.20287257376E-01 0.  0.
         14    1    1    2    0    0 -0.23078552058E-02  0.12625824884E-01  0.19443404315E-01  0.23297717077E-01  0.00000000000E+00 0. -1.
     999901    1    3    3    0    0 -0.77640765593E-01  0.62522730542E-01 -0.87488128152E-01  0.88993896020E+00  0.88000000000E+00 0.  1.
        -11    1    4    4    0    0  0.61358265646E-01 -0.45626848739E-01  0.50532937595E-01  0.91654159709E-01  0.51100000000E-03 0.  1.
         11    1    4    4    0    0  0.18590355153E-01 -0.29521706686E-01  0.17511786242E-01  0.39039163013E-01  0.51100000000E-03 0. -1.
</event>
<event>
 8    1  0.1196210E+005  0.1043930E+01  0.7957747E-01            NaN
         13   -1    0    0    0    0  0.00000000000E+00  0.00000000000E+00  0.74505805969E-08  0.10566000000E+00  0.10566000000E+00 0. -1.
     999900   -1    0    0    0    0 -0.00000000000E+00 -0.00000000000E+00 -0.74505805969E-08  0.93827000000E+00  0.93827000000E+00 0.  1.
     999902    2    1    2    0    0  0.21795846514E-01  0.29243676239E-02  0.82257726370E-02  0.10204507712E+01  0.10201806223E+01 0.  0.
     999903    2    3    3    0    0 -0.44800699323E-01  0.28557775802E-01  0.11783689363E+00  0.13078410922E+00  0.19907297781E-01 0.  0.
         14    1    1    2    0    0 -0.21795846514E-01 -0.29243676239E-02 -0.82257726370E-02  0.23479228836E-01  0.00000000000E+00 0.  1.
     999901    1    3    3    0    0  0.66596545837E-01 -0.25633408178E-01 -0.10961112099E+00  0.88966666195E+00  0.88000000000E+00 0.  1.
        -11    1    4    4    0    0 -0.28655804492E-01  0.65070566603E-02  0.59712739273E-01  0.66553506819E-01  0.51100000000E-03 0.  1.
         11    1    4    4    0    0 -0.16144894832E-01  0.22050719142E-01  0.58124154358E-01  0.64230602399E-01  0.51100000000E-03 0. -1.
</event>
<event>
 8    1  0.1196210E+005  0.1043930E+01  0.7957747E-01            NaN
         13   -1    0    0    0    0  0.00000000000E+00  0.00000000000E+00  0.74505805969E-08  0.10566000000E+00  0.10566000000E+00 0. -1.
     999900   -1    0    0    0    0 -0.00000000000E+00 -0.00000000000E+00 -0.74505805969E-08  0.93827000000E+00  0.93827000000E+00 0. -1.
     999902    2    1    2    0    0  0.85630218944E-02 -0.22403468620E-01 -0.55168649982E-02  0.10193195033E+01  0.10190223615E+01 0.  0.
     999903    2    3    3    0    0  0.96625058157E-01  0.61878623985E-02 -0.85816319279E-01  0.13082617814E+00  0.19399915615E-01 0.  0.
         14    1    1    2    0    0 -0.85630218944E-02  0.22403468620E-01  0.55168649982E-02  0.24610496736E-01  0.00000000000E+00 0.  1.
     999901    1    3    3    0    0 -0.88062036263E-01 -0.28591331019E-01  0.80299454281E-01  0.88849332513E+00  0.88000000000E+00 0.  1.
        -11    1    4    4    0    0  0.38468448021E-01 -0.20971271609E-02 -0.45270017357E-01  0.59446236449E-01  0.51100000000E-03 0. -1.
         11    1    4    4    0    0  0.58156610136E-01  0.82849895594E-02 -0.40546301923E-01  0.71379941686E-01  0.51100000000E-03 0.  1.
</event>
<event>
 8    1  0.1196210E+005  0.1043930E+01  0.7957747E-01            NaN
         13   -1    0    0    0    0  0.00000000000E+00  0.00000000000E+00  0.74505805969E-08  0.10566000000E+00  0.10566000000E+00 0.  1.
     999900   -1    0    0    0    0 -0.00000000000E+00 -0.00000000000E+00 -0.74505805969E-08  0.93827000000E+00  0.93827000000E+00 0.  1.
     999902    2    1    2    0    0  0.24893041238E-01  0.82672765692E-02  0.13113289242E-01  0.10146047597E+01  0.10141808757E+01 0.  0.
     999903    2    3    3    0    0  0.32819979880E-01 -0.97429803927E-01 -0.67891155155E-01  0.12455058764E+00  0.18273537191E-01 0.  0.
         14    1    1    2    0    0 -0.24893041238E-01 -0.82672765692E-02 -0.13113289242E-01  0.29325240301E-01  0.00000000000E+00 0. -1.
     999901    1    3    3    0    0 -0.79269386426E-02  0.10569708050E+00  0.81004444398E-01  0.89005417206E+00  0.88000000000E+00 0. -1.
        -11    1    4    4    0    0  0.18293552174E-01 -0.28405013758E-01 -0.19564366309E-01  0.39045158571E-01  0.51100000000E-03 0.  1.
         11    1    4    4    0    0  0.14526427707E-01 -0.69024790169E-01 -0.48326788846E-01  0.85505429073E-01  0.51100000000E-03 0. -1.
</event>
<event>
 8    1  0.1196210E+005  0.1043930E+01  0.7957747E-01            NaN
         13   -1    0    0    0    0  0.00000000000E+00  0.00000000000E+00  0.74505805969E-08  0.10566000000E+00  0.10566000000E+00 0.  1.
     999900   -1    0    0    0    0 -0.00000000000E+00 -0.00000000000E+00 -0.74505805969E-08  0.93827000000E+00  0.93827000000E+00 0.  1.
     999902    2    1    2    0    0 -0.29234028842E-02  0.23701542492E-01 -0.11827376857E-02  0.10200195782E+01  0.10197392959E+01 0.  0.
     999903    2    3    3    0    0  0.20115752532E-01 -0.20349284167E-01  0.12478138089E+00  0.12966109021E+00  0.20563764999E-01 0.  0.
         14    1    1    2    0    0  0.29234028842E-02 -0.23701542492E-01  0.11827376857E-02  0.23910421773E-01  0.00000000000E+00 0.  1.
     999901    1    3    3    0    0 -0.23039155416E-01  0.44050826659E-01 -0.12596411858E+00  0.89035848802E+00  0.88000000000E+00 0.  1.
        -11    1    4    4    0    0  0.11949168496E-01 -0.62985391312E-02  0.23729344820E-01  0.27309286873E-01  0.51100000000E-03 0. -1.
         11    1    4    4    0    0  0.81665840360E-02 -0.14050745036E-01  0.10105203607E+00  0.10235180334E+00  0.51100000000E-03 0.  1.
</event>
<event>
 8    1  0.1196210E+005  0.1043930E+01  0.7957747E-01            NaN
         13   -1    0    0    0    0  0.00000000000E+00  0.00000000000E+00  0.74505805969E-08  0.10566000000E+00  0.10566000000E+00 0.  1.
     999900   -1    0    0    0    0 -0.00000000000E+00 -0.00000000000E+00 -0.74505805969E-08  0.93827000000E+00  0.93827000000E+00 0.  1.
     999902    2    1    2    0    0 -0.12951693673E-01 -0.16890722384E-01  0.12888769853E-01  0.10190470086E+01  0.10187431681E+01 0.  0.
     999903    2    3    3    0    0 -0.94351729311E-01  0.22871877360E-01  0.86384612208E-01  0.13134848492E+00  0.19098472872E-01 0.  0.
         14    1    1    2    0    0  0.12951693673E-01  0.16890722384E-01 -0.12888769853E-01  0.24882991379E-01  0.00000000000E+00 0. -1.
     999901    1    3    3    0    0  0.81400035638E-01 -0.39762599744E-01 -0.73495842355E-01  0.88769852370E+00  0.88000000000E+00 0.  1.
        -11    1    4    4    0    0 -0.60459113555E-01  0.96215432000E-02  0.43501169710E-01  0.75103204941E-01  0.51100000000E-03 0.  1.
         11    1    4    4    0    0 -0.33892615756E-01  0.13250334160E-01  0.42883442499E-01  0.56245279977E-01  0.51100000000E-03 0. -1.
</event>
<event>
 8    1  0.1196210E+005  0.1043930E+01  0.7957747E-01            NaN
         13   -1    0    0    0    0  0.00000000000E+00  0.00000000000E+00  0.74505805969E-08  0.10566000000E+00  0.10566000000E+00 0. -1.
     999900   -1    0    0    0    0 -0.00000000000E+00 -0.00000000000E+00 -0.74505805969E-08  0.93827000000E+00  0.93827000000E+00 0.  1.
     999902    2    1    2    0    0 -0.27575100918E-02  0.19174440519E-01  0.10095143876E-01  0.10220856652E+01  0.10218522066E+01 0.  0.
     999903    2    3    3    0    0  0.34791214300E-01  0.12680713235E-01 -0.12408702770E+00  0.13109917243E+00  0.20449290655E-01 0.  0.
         14    1    1    2    0    0  0.27575100918E-02 -0.19174440519E-01 -0.10095143876E-01  0.21844334757E-01  0.00000000000E+00 0. -1.
     999901    1    3    3    0    0 -0.37548724392E-01  0.64937272843E-02  0.13418217158E+00  0.89098649281E+00  0.88000000000E+00 0. -1.
        -11    1    4    4    0    0  0.13231896896E-01 -0.10449334631E-02 -0.70334896429E-01  0.71578165373E-01  0.51100000000E-03 0. -1.
         11    1    4    4    0    0  0.21559317404E-01  0.13725646698E-01 -0.53752131273E-01  0.59521007061E-01  0.51100000000E-03 0.  1.
</event>
<event>
 8    1  0.1196210E+005  0.1043930E+01  0.7957747E-01            NaN
         13   -1    0    0    0    0  0.00000000000E+00  0.00000000000E+00  0.74505805969E-08  0.10566000000E+00  0.10566000000E+00 0.  1.
     999900   -1    0    0    0    0 -0.00000000000E+00 -0.00000000000E+00 -0.74505805969E-08  0.93827000000E+00  0.93827000000E+00 0.  1.
     999902    2    1    2    0    0  0.95341064976E-02  0.17973285774E-01 -0.12269982528E-01  0.10201709878E+01  0.10198942856E+01 0.  0.
     999903    2    3    3    0    0 -0.26531717308E-01  0.14664798373E-01 -0.12697748826E+00  0.13198772880E+00  0.19454811606E-01 0.  0.
         14    1    1    2    0    0 -0.95341064976E-02 -0.17973285774E-01  0.12269982528E-01  0.23759012173E-01  0.00000000000E+00 0.  1.
     999901    1    3    3    0    0  0.36065823806E-01  0.33084874010E-02  0.11470750574E+00  0.88818325902E+00  0.88000000000E+00 0. -1.
        -11    1    4    4    0    0 -0.17293374792E-01  0.18939040414E-01 -0.84705023625E-01  0.88503955911E-01  0.51100000000E-03 0. -1.
         11    1    4    4    0    0 -0.92383425155E-02 -0.42742420414E-02 -0.42272464638E-01  0.43483772893E-01  0.51100000000E-03 0.  1.
</event>
<event>
 8    1  0.1196210E+005  0.1043930E+01  0.7957747E-01            NaN
         13   -1    0    0    0    0  0.00000000000E+00  0.00000000000E+00  0.74505805969E-08  0.10566000000E+00  0.10566000000E+00 0. -1.
     999900   -1    0    0    0    0 -0.00000000000E+00 -0.00000000000E+00 -0.74505805969E-08  0.93827000000E+00  0.93827000000E+00 0.  1.
     999902    2    1    2    0    0  0.14793759041E-01 -0.18611753562E-01  0.22247506126E-02  0.10200510931E+01  0.10197715580E+01 0.  0.
     999903    2    3    3    0    0  0.53980842915E-01 -0.93624974275E-01 -0.72990793995E-01  0.13279690805E+00  0.25055849006E-01 0.  0.
         14    1    1    2    0    0 -0.14793759041E-01  0.18611753562E-01 -0.22247506126E-02  0.23878906853E-01  0.00000000000E+00 0.  1.
     999901    1    3    3    0    0 -0.39187083874E-01  0.75013220713E-01  0.75215544607E-01  0.88725418510E+00  0.88000000000E+00 0. -1.
        -11    1    4    4    0    0  0.29128933674E-01 -0.58203141149E-01 -0.29552020082E-01  0.71482049694E-01  0.51100000000E-03 0. -1.
         11    1    4    4    0    0  0.24851909241E-01 -0.35421833126E-01 -0.43438773913E-01  0.61314858354E-01  0.51100000000E-03 0.  1.
</event>
<event>
 8    1  0.1196210E+005  0.1043930E+01  0.7957747E-01            NaN
         13   -1    0    0    0    0  0.00000000000E+00  0.00000000000E+00  0.74505805969E-08  0.10566000000E+00  0.10566000000E+00 0.  1.
     999900   -1    0    0    0    0 -0.00000000000E+00 -0.00000000000E+00 -0.74505805969E-08  0.93827000000E+00  0.93827000000E+00 0.  1.
     999902    2    1    2    0    0  0.17190963598E-02  0.21988462532E-01 -0.10636097484E-01  0.10194437927E+01  0.10191496810E+01 0.  0.
     999903    2    3    3    0    0  0.14694164245E-01 -0.12444784754E+00 -0.95202397153E-02  0.12724807965E+00  0.19956291985E-01 0.  0.
         14    1    1    2    0    0 -0.17190963598E-02 -0.21988462532E-01  0.10636097484E-01  0.24486207270E-01  0.00000000000E+00 0.  1.
     999901    1    3    3    0    0 -0.12975067885E-01  0.14643631008E+00 -0.11158577686E-02  0.89219571308E+00  0.88000000000E+00 0. -1.
        -11    1    4    4    0    0  0.13675815311E-01 -0.10873073159E+00 -0.15746785808E-02  0.10959991172E+00  0.51100000000E-03 0. -1.
         11    1    4    4    0    0  0.10183489336E-02 -0.15717115958E-01 -0.79455611344E-02  0.17648167931E-01  0.51100000000E-03 0.  1.
</event>
<event>
 8    1  0.1196210E+005  0.1043930E+01  0.7957747E-01            NaN
         13   -1    0    0    0    0  0.00000000000E+00  0.00000000000E+00  0.74505805969E-08  0.10566000000E+00  0.10566000000E+00 0.  1.
     999900   -1    0    0    0    0 -0.00000000000E+00 -0.00000000000E+00 -0.74505805969E-08  0.93827000000E+00  0.93827000000E+00 0. -1.
     999902    2    1    2    0    0 -0.28497236517E-02  0.20892321430E-01 -0.11059273444E-01  0.10201199696E+01  0.10198420636E+01 0.  0.
     999903    2    3    3    0    0 -0.80875354057E-02  0.55779166993E-01 -0.11851595182E+00  0.13288185926E+00  0.20852673351E-01 0.  0.
         14    1    1    2    0    0  0.28497236517E-02 -0.20892321430E-01  0.11059273444E-01  0.23810030423E-01  0.00000000000E+00 0.  1.
     999901    1    3    3    0    0  0.52378117540E-02 -0.34886845562E-01  0.10745667838E+00  0.88723811031E+00  0.88000000000E+00 0.  1.
        -11    1    4    4    0    0 -0.10346082533E-01  0.37514648337E-01 -0.59816460635E-01  0.71362877937E-01  0.51100000000E-03 0. -1.
         11    1    4    4    0    0  0.22585471269E-02  0.18264518655E-01 -0.58699491186E-01  0.61518981326E-01  0.51100000000E-03 0.  1.
</event>
<event>
 8    1  0.1196210E+005  0.1043930E+01  0.7957747E-01            NaN
         13   -1    0    0    0    0  0.00000000000E+00  0.00000000000E+00  0.74505805969E-08  0.10566000000E+00  0.10566000000E+00 0.  1.
     999900   -1    0    0    0    0 -0.00000000000E+00 -0.00000000000E+00 -0.74505805969E-08  0.93827000000E+00  0.93827000000E+00 0.  1.
     999902    2    1    2    0    0 -0.35157853538E-02 -0.23418540295E-01 -0.62133332102E-02  0.10194474698E+01  0.10191534474E+01 0.  0.
     999903    2    3    3    0    0 -0.44899363484E-01 -0.11114448196E+00  0.51914208149E-01  0.13221173310E+00  0.20391386681E-01 0.  0.
         14    1    1    2    0    0  0.35157853538E-02  0.23418540295E-01  0.62133332102E-02  0.24482530216E-01  0.00000000000E+00 0.  1.
     999901    1    3    3    0    0  0.41383578130E-01  0.87725941666E-01 -0.58127541359E-01  0.88723573668E+00  0.88000000000E+00 0.  1.
        -11    1    4    4    0    0 -0.34550465622E-01 -0.95279868870E-01  0.36292825975E-01  0.10765416121E+00  0.51100000000E-03 0.  1.
         11    1    4    4    0    0 -0.10348897862E-01 -0.15864613090E-01  0.15621382174E-01  0.24557571897E-01  0.51100000000E-03 0. -1.
</event>
<event>
 8    1  0.1196210E+005  0.1043930E+01  0.7957747E-01            NaN
         13   -1    0    0    0    0  0.00000000000E+00  0.00000000000E+00  0.74505805969E-08  0.10566000000E+00  0.10566000000E+00 0. -1.
     999900   -1    0    0    0    0 -0.00000000000E+00 -0.00000000000E+00 -0.74505805969E-08  0.93827000000E+00  0.93827000000E+00 0.  1.
     999902    2    1    2    0    0 -0.13787141005E-01  0.13900120706E-01 -0.69722505308E-02  0.10231475341E+01  0.10229364426E+01 0.  0.
     999903    2    3    3    0    0  0.28898832832E-01 -0.12036445679E+00  0.30603084129E-01  0.13114922975E+00  0.30672898584E-01 0.  0.
         14    1    1    2    0    0  0.13787141005E-01 -0.13900120706E-01  0.69722505308E-02  0.20782465931E-01  0.00000000000E+00 0.  1.
     999901    1    3    3    0    0 -0.42685973837E-01  0.13426457750E+00 -0.37575334660E-01  0.89199830432E+00  0.88000000000E+00 0.  1.
        -11    1    4    4    0    0  0.62611720599E-02 -0.23512243038E-01  0.19268923404E-01  0.31041591106E-01  0.51100000000E-03 0.  1.
         11    1    4    4    0    0  0.22637660772E-01 -0.96852213755E-01  0.11334160725E-01  0.10010763864E+00  0.51100000000E-03 0. -1.
</event>
<event>
 8    1  0.1196210E+005  0.1043930E+01  0.7957747E-01            NaN
         13   -1    0    0    0    0  0.00000000000E+00  0.00000000000E+00  0.74505805969E-08  0.10566000000E+00  0.10566000000E+00 0.  1.
     999900   -1    0    0    0    0 -0.00000000000E+00 -0.00000000000E+00 -0.74505805969E-08  0.93827000000E+00  0.93827000000E+00 0.  1.
     999902    2    1    2    0    0  0.80977787949E-02  0.17633715574E-01 -0.14367979520E-01  0.10197854192E+01  0.10194995539E+01 0.  0.
     999903    2    3    3    0    0  0.78272046984E-01 -0.32425757444E-01 -0.98712857028E-01  0.13155997647E+00  0.19643222283E-01 0.  0.
         14    1    1    2    0    0 -0.80977787949E-02 -0.17633715574E-01  0.14367979520E-01  0.24144580797E-01  0.00000000000E+00 0.  1.
     999901    1    3    3    0    0 -0.70174268189E-01  0.50059473018E-01  0.84344877507E-01  0.88822544273E+00  0.88000000000E+00 0. -1.
        -11    1    4    4    0    0  0.16926965347E-01 -0.66205484148E-02 -0.10300524918E-01  0.20897745136E-01  0.51100000000E-03 0. -1.
         11    1    4    4    0    0  0.61345081637E-01 -0.25805209029E-01 -0.88412332110E-01  0.11066223134E+00  0.51100000000E-03 0.  1.
</event>
<event>
 8    1  0.1196210E+005  0.1043930E+01  0.7957747E-01            NaN
         13   -1    0    0    0    0  0.00000000000E+00  0.00000000000E+00  0.74505805969E-08  0.10566000000E+00  0.10566000000E+00 0. -1.
     999900   -1    0    0    0    0 -0.00000000000E+00 -0.00000000000E+00 -0.74505805969E-08  0.93827000000E+00  0.93827000000E+00 0.  1.
     999902    2    1    2    0    0 -0.67720551078E-02 -0.25573587392E-01  0.20144700783E-02  0.10173983737E+01  0.10170523702E+01 0.  0.
     999903    2    3    3    0    0 -0.14874614611E-01  0.43750400815E-01 -0.11642088990E+00  0.12672536903E+00  0.19239122143E-01 0.  0.
         14    1    1    2    0    0  0.67720551078E-02  0.25573587392E-01 -0.20144700783E-02  0.26531626263E-01  0.00000000000E+00 0. -1.
     999901    1    3    3    0    0  0.81025595032E-02 -0.69323988207E-01  0.11843535998E+00  0.89067300470E+00  0.88000000000E+00 0. -1.
        -11    1    4    4    0    0 -0.10485291399E-01  0.44230142219E-01 -0.10858329135E+00  0.11771507592E+00  0.51100000000E-03 0.  1.
         11    1    4    4    0    0 -0.43893232117E-02 -0.47974140425E-03 -0.78375985453E-02  0.90102931156E-02  0.51100000000E-03 0. -1.
</event>
<event>
 8    1  0.1196210E+005  0.1043930E+01  0.7957747E-01            NaN
         13   -1    0    0    0    0  0.00000000000E+00  0.00000000000E+00  0.74505805969E-08  0.10566000000E+00  0.10566000000E+00 0. -1.
     999900   -1    0    0    0    0 -0.00000000000E+00 -0.00000000000E+00 -0.74505805969E-08  0.93827000000E+00  0.93827000000E+00 0. -1.
     999902    2    1    2    0    0 -0.22249200108E-01  0.44868506512E-02 -0.76108219197E-02  0.10199908408E+01  0.10197098763E+01 0.  0.
     999903    2    3    3    0    0  0.63607836575E-03  0.23732510432E-01  0.12570855774E+00  0.12944708082E+00  0.19755216944E-01 0.  0.
         14    1    1    2    0    0  0.22249200108E-01 -0.44868506512E-02  0.76108219197E-02  0.23939159227E-01  0.00000000000E+00 0.  1.
     999901    1    3    3    0    0 -0.22885278474E-01 -0.19245659780E-01 -0.13331937966E+00  0.89054375995E+00  0.88000000000E+00 0. -1.
        -11    1    4    4    0    0 -0.19467935624E-02  0.41117663087E-03  0.53099065820E-01  0.53138789818E-01  0.51100000000E-03 0. -1.
         11    1    4    4    0    0  0.25828719281E-02  0.23321333801E-01  0.72609491924E-01  0.76308291005E-01  0.51100000000E-03 0.  1.
</event>
<event>
 8    1  0.1196210E+005  0.1043930E+01  0.7957747E-01            NaN
         13   -1    0    0    0    0  0.00000000000E+00  0.00000000000E+00  0.74505805969E-08  0.10566000000E+00  0.10566000000E+00 0. -1.
     999900   -1    0    0    0    0 -0.00000000000E+00 -0.00000000000E+00 -0.74505805969E-08  0.93827000000E+00  0.93827000000E+00 0. -1.
     999902    2    1    2    0    0 -0.13561116548E-01  0.15339216799E-02 -0.17483946156E-01  0.10217501630E+01  0.10215093981E+01 0.  0.
     999903    2    3    3    0    0  0.23512741252E-01 -0.10162824015E+00  0.75168991722E-01  0.13012161392E+00  0.20002722219E-01 0.  0.
         14    1    1    2    0    0  0.13561116548E-01 -0.15339216799E-02  0.17483946156E-01  0.22179837036E-01  0.00000000000E+00 0. -1.
     999901    1    3    3    0    0 -0.37073857800E-01  0.10316216183E+00 -0.92652937878E-01  0.89162854904E+00  0.88000000000E+00 0. -1.
        -11    1    4    4    0    0  0.17153312046E-02 -0.50248127775E-01  0.32561671608E-01  0.59902756906E-01  0.51100000000E-03 0. -1.
         11    1    4    4    0    0  0.21797410047E-01 -0.51380112376E-01  0.42607320114E-01  0.70218857018E-01  0.51100000000E-03 0.  1.
</event>
<event>
 8    1  0.1196210E+005  0.1043930E+01  0.7957747E-01            NaN
         13   -1    0    0    0    0  0.00000000000E+00  0.00000000000E+00  0.74505805969E-08  0.10566000000E+00  0.10566000000E+00 0. -1.
     999900   -1    0    0    0    0 -0.00000000000E+00 -0.00000000000E+00 -0.74505805969E-08  0.93827000000E+00  0.93827000000E+00 0.  1.
     999902    2    1    2    0    0 -0.97441042375E-02  0.16642535702E-01 -0.54395834760E-02  0.10238922698E+01  0.10236961803E+01 0.  0.
     999903    2    3    3    0    0  0.90278838253E-01 -0.28153853776E-01 -0.91570348539E-01  0.13292099407E+00  0.18437836495E-01 0.  0.
         14    1    1    2    0    0  0.97441042375E-02 -0.16642535702E-01  0.54395834760E-02  0.20037730170E-01  0.00000000000E+00 0. -1.
     999901    1    3    3    0    0 -0.10002294249E+00  0.44796389478E-01  0.86130765063E-01  0.89097127576E+00  0.88000000000E+00 0.  1.
        -11    1    4    4    0    0  0.90220665962E-01 -0.27756509201E-01 -0.87217281103E-01  0.12851967792E+00  0.51100000000E-03 0.  1.
         11    1    4    4    0    0  0.58172290955E-04 -0.39734457532E-03 -0.43530674364E-02  0.44013161478E-02  0.51100000000E-03 0. -1.
</event>
<event>
 8    1  0.1196210E+005  0.1043930E+01  0.7957747E-01            NaN
         13   -1    0    0    0    0  0.00000000000E+00  0.00000000000E+00  0.74505805969E-08  0.10566000000E+00  0.10566000000E+00 0. -1.
     999900   -1    0    0    0    0 -0.00000000000E+00 -0.00000000000E+00 -0.74505805969E-08  0.93827000000E+00  0.93827000000E+00 0. -1.
     999902    2    1    2    0    0  0.19845409430E-01  0.11807869998E-01 -0.68182553435E-02  0.10198519047E+01  0.10195676303E+01 0.  0.
     999903    2    3    3    0    0  0.15820465809E-01  0.11300190617E+00 -0.63949399773E-01  0.13220309979E+00  0.19194163859E-01 0.  0.
         14    1    1    2    0    0 -0.19845409430E-01 -0.11807869998E-01  0.68182553435E-02  0.24078095342E-01  0.00000000000E+00 0.  1.
     999901    1    3    3    0    0  0.40249436216E-02 -0.10119403617E+00  0.57131144430E-01  0.88764880487E+00  0.88000000000E+00 0.  1.
        -11    1    4    4    0    0 -0.23623889927E-02  0.51378499503E-01 -0.27219242523E-01  0.58193465075E-01  0.51100000000E-03 0.  1.
         11    1    4    4    0    0  0.18182854802E-01  0.61623406663E-01 -0.36730157250E-01  0.74009634711E-01  0.51100000000E-03 0. -1.
</event>
<event>
 8    1  0.1196210E+005  0.1043930E+01  0.7957747E-01            NaN
         13   -1    0    0    0    0  0.00000000000E+00  0.00000000000E+00  0.74505805969E-08  0.10566000000E+00  0.10566000000E+00 0.  1.
     999900   -1    0    0    0    0 -0.00000000000E+00 -0.00000000000E+00 -0.74505805969E-08  0.93827000000E+00  0.93827000000E+00 0.  1.
     999902    2    1    2    0    0  0.54495158777E-02 -0.22629074711E-01 -0.46571913231E-02  0.10201926523E+01  0.10199164604E+01 0.  0.
     999903    2    3    3    0    0 -0.23628347316E-01 -0.11580668223E+00  0.57711952383E-01  0.13260181256E+00  0.16825124082E-01 0.  0.
         14    1    1    2    0    0 -0.54495158777E-02  0.22629074711E-01  0.46571913231E-02  0.23737347716E-01  0.00000000000E+00 0. -1.
     999901    1    3    3    0    0  0.29077863194E-01  0.93177607521E-01 -0.62369143706E-01  0.88759083972E+00  0.88000000000E+00 0.  1.
        -11    1    4    4    0    0 -0.13644900914E-01 -0.36361613767E-01  0.13403591458E-01  0.41088534431E-01  0.51100000000E-03 0.  1.
         11    1    4    4    0    0 -0.99834464026E-02 -0.79445068465E-01  0.44308360925E-01  0.91513278131E-01  0.51100000000E-03 0. -1.
</event>
<event>
 8    1  0.1196210E+005  0.1043930E+01  0.7957747E-01            NaN
         13   -1    0    0    0    0  0.00000000000E+00  0.00000000000E+00  0.74505805969E-08  0.10566000000E+00  0.10566000000E+00 0.  1.
     999900   -1    0    0    0    0 -0.00000000000E+00 -0.00000000000E+00 -0.74505805969E-08  0.93827000000E+00  0.93827000000E+00 0.  1.
     999902    2    1    2    0    0 -0.14010852765E-01 -0.16694531045E-01  0.54664474102E-02  0.10214601667E+01  0.10212129938E+01 0.  0.
     999903    2    3    3    0    0 -0.64360511315E-01  0.45483020364E-01 -0.10267277490E+00  0.13123815650E+00  0.21697337578E-01 0.  0.
         14    1    1    2    0    0  0.14010852765E-01  0.16694531045E-01 -0.54664474102E-02  0.22469833317E-01  0.00000000000E+00 0. -1.
     999901    1    3    3    0    0  0.50349658550E-01 -0.62177551409E-01  0.10813922231E+00  0.89022201018E+00  0.88000000000E+00 0. -1.
        -11    1    4    4    0    0  0.14466305918E-03  0.60070594079E-02 -0.61129972264E-02  0.85869404459E-02  0.51100000000E-03 0. -1.
         11    1    4    4    0    0 -0.64505174374E-01  0.39475960956E-01 -0.96559777670E-01  0.12265121605E+00  0.51100000000E-03 0.  1.
</event>
<event>
 8    1  0.1196210E+005  0.1043930E+01  0.7957747E-01            NaN
         13   -1    0    0    0    0  0.00000000000E+00  0.00000000000E+00  0.74505805969E-08  0.10566000000E+00  0.10566000000E+00 0.  1.
     999900   -1    0    0    0    0 -0.00000000000E+00 -0.00000000000E+00 -0.74505805969E-08  0.93827000000E+00  0.93827000000E+00 0.  1.
     999902    2    1    2    0    0  0.40430733348E-02 -0.17702240848E-01 -0.14911400544E-01  0.10204339229E+01  0.10201633817E+01 0.  0.
     999903    2    3    3    0    0  0.36737796295E-01  0.21395685134E-01  0.11984428546E+00  0.12871833616E+00  0.19957862741E-01 0.  0.
         14    1    1    2    0    0 -0.40430733348E-02  0.17702240848E-01  0.14911400544E-01  0.23496077103E-01  0.00000000000E+00 0.  1.
     999901    1    3    3    0    0 -0.32694722960E-01 -0.39097925982E-01 -0.13475568601E+00  0.89171558674E+00  0.88000000000E+00 0.  1.
        -11    1    4    4    0    0  0.54183677619E-02  0.13530715248E-01  0.40957140596E-01  0.43476286078E-01  0.51100000000E-03 0.  1.
         11    1    4    4    0    0  0.31319428533E-01  0.78649698866E-02  0.78887144869E-01  0.85242050078E-01  0.51100000000E-03 0. -1.
</event>
<event>
 8    1  0.1196210E+005  0.1043930E+01  0.7957747E-01            NaN
         13   -1    0    0    0    0  0.00000000000E+00  0.00000000000E+00  0.74505805969E-08  0.10566000000E+00  0.10566000000E+00 0. -1.
     999900   -1    0    0    0    0 -0.00000000000E+00 -0.00000000000E+00 -0.74505805969E-08  0.93827000000E+00  0.93827000000E+00 0. -1.
     999902    2    1    2    0    0  0.15033781794E-01  0.55049691985E-02  0.17502497810E-01  0.10202096140E+01  0.10199338213E+01 0.  0.
     999903    2    3    3    0    0 -0.63614663490E-02 -0.60800266555E-01  0.11541876142E+00  0.13204198593E+00  0.19402445532E-01 0.  0.
         14    1    1    2    0    0 -0.15033781794E-01 -0.55049691985E-02 -0.17502497810E-01  0.23720385969E-01  0.00000000000E+00 0.  1.
     999901    1    3    3    0    0  0.21395248143E-01  0.66305235753E-01 -0.97916263611E-01  0.88816762810E+00  0.88000000000E+00 0.  1.
        -11    1    4    4    0    0  0.65290047398E-02 -0.25160745409E-01  0.41481420082E-01  0.48955697784E-01  0.51100000000E-03 0.  1.
         11    1    4    4    0    0 -0.12890471089E-01 -0.35639521145E-01  0.73937341339E-01  0.83086288144E-01  0.51100000000E-03 0. -1.
</event>
<event>
 8    1  0.1196210E+005  0.1043930E+01  0.7957747E-01            NaN
         13   -1    0    0    0    0  0.00000000000E+00  0.00000000000E+00  0.74505805969E-08  0.10566000000E+00  0.10566000000E+00 0.  1.
     999900   -1    0    0    0    0 -0.00000000000E+00 -0.00000000000E+00 -0.74505805969E-08  0.93827000000E+00  0.93827000000E+00 0. -1.
     999902    2    1    2    0    0 -0.22752339499E-01 -0.27362200963E-02  0.15468154580E-02  0.10209615762E+01  0.10207031849E+01 0.  0.
     999903    2    3    3    0    0 -0.94536538940E-01 -0.67864721262E-01  0.62329305902E-01  0.13355569157E+00  0.20233704324E-01 0.  0.
         14    1    1    2    0    0  0.22752339499E-01  0.27362200963E-02 -0.15468154580E-02  0.22968423785E-01  0.00000000000E+00 0. -1.
     999901    1    3    3    0    0  0.71784199440E-01  0.65128501165E-01 -0.60782490444E-01  0.88740588464E+00  0.88000000000E+00 0. -1.
        -11    1    4    4    0    0 -0.86765200418E-01 -0.61895588063E-01  0.49801133143E-01  0.11764216000E+00  0.51100000000E-03 0. -1.
         11    1    4    4    0    0 -0.77713385211E-02 -0.59691331986E-02  0.12528172759E-01  0.15913531576E-01  0.51100000000E-03 0.  1.
</event>
<event>
 8    1  0.1196210E+005  0.1043930E+01  0.7957747E-01            NaN
         13   -1    0    0    0    0  0.00000000000E+00  0.00000000000E+00  0.74505805969E-08  0.10566000000E+00  0.10566000000E+00 0. -1.
     999900   -1    0    0    0    0 -0.00000000000E+00 -0.00000000000E+00 -0.74505805969E-08  0.93827000000E+00  0.93827000000E+00 0. -1.
     999902    2    1    2    0    0  0.75774429280E-02  0.75630511969E-03  0.22156096282E-01  0.10205017640E+01  0.10202328009E+01 0.  0.
     999903    2    3    3    0    0  0.92161762545E-01  0.81594488313E-01 -0.38868690134E-01  0.13066282154E+00  0.20261956042E-01 0.  0.
         14    1    1    2    0    0 -0.75774429280E-02 -0.75630511969E-03 -0.22156096282E-01  0.23428235982E-01  0.00000000000E+00 0.  1.
     999901    1    3    3    0    0 -0.84584319617E-01 -0.80838183193E-01  0.61024786416E-01  0.88983894247E+00  0.88000000000E+00 0. -1.
        -11    1    4    4    0    0  0.33080933848E-01  0.18016665082E-01 -0.15840696203E-01  0.40867311902E-01  0.51100000000E-03 0.  1.
         11    1    4    4    0    0  0.59080828697E-01  0.63577823231E-01 -0.23027993931E-01  0.89795509641E-01  0.51100000000E-03 0. -1.
</event>
<event>
 8    1  0.1196210E+005  0.1043930E+01  0.7957747E-01            NaN
         13   -1    0    0    0    0  0.00000000000E+00  0.00000000000E+00  0.74505805969E-08  0.10566000000E+00  0.10566000000E+00 0. -1.
     999900   -1    0    0    0    0 -0.00000000000E+00 -0.00000000000E+00 -0.74505805969E-08  0.93827000000E+00  0.93827000000E+00 0. -1.
     999902    2    1    2    0    0  0.21257326864E-02 -0.20562866819E-01 -0.13050999610E-01  0.10194825293E+01  0.10191893587E+01 0.  0.
     999903    2    3    3    0    0  0.39722743735E-01 -0.12052103986E-01 -0.12384416936E+00  0.13169815529E+00  0.16848627362E-01 0.  0.
         14    1    1    2    0    0 -0.21257326864E-02  0.20562866819E-01  0.13050999610E-01  0.24447470669E-01  0.00000000000E+00 0.  1.
     999901    1    3    3    0    0 -0.37597011048E-01 -0.85107628332E-02  0.11079316975E+00  0.88778437404E+00  0.88000000000E+00 0.  1.
        -11    1    4    4    0    0  0.59343888314E-02 -0.91000259256E-02 -0.30710507609E-01  0.32579500322E-01  0.51100000000E-03 0. -1.
         11    1    4    4    0    0  0.33788354903E-01 -0.29520780604E-02 -0.93133661746E-01  0.99118654971E-01  0.51100000000E-03 0.  1.
</event>
<event>
 8    1  0.1196210E+005  0.1043930E+01  0.7957747E-01            NaN
         13   -1    0    0    0    0  0.00000000000E+00  0.00000000000E+00  0.74505805969E-08  0.10566000000E+00  0.10566000000E+00 0.  1.
     999900   -1    0    0    0    0 -0.00000000000E+00 -0.00000000000E+00 -0.74505805969E-08  0.93827000000E+00  0.93827000000E+00 0.  1.
     999902    2    1    2    0    0 -0.77551850533E-02 -0.21360763827E-01  0.74524012701E-02  0.10200142435E+01  0.10197338346E+01 0.  0.
     999903    2    3    3    0    0  0.23449772943E-01  0.47215018186E-01  0.11707180126E+00  0.13001828833E+00  0.20488993558E-01 0.  0.
         14    1    1    2    0    0  0.77551850533E-02  0.21360763827E-01 -0.74524012701E-02  0.23915756546E-01  0.00000000000E+00 0. -1.
     999901    1    3    3    0    0 -0.31204957996E-01 -0.68575782013E-01 -0.10961939999E+00  0.88999595512E+00  0.88000000000E+00 0.  1.
        -11    1    4    4    0    0  0.17592614074E-01  0.44131316195E-01  0.86060984737E-01  0.98304767707E-01  0.51100000000E-03 0.  1.
         11    1    4    4    0    0  0.58571588684E-02  0.30837019918E-02  0.31010816522E-01  0.31713520624E-01  0.51100000000E-03 0. -1.
</event>
<event>
 8    1  0.1196210E+005  0.1043930E+01  0.7957747E-01            NaN
         13   -1    0    0    0    0  0.00000000000E+00  0.00000000000E+00  0.74505805969E-08  0.10566000000E+00  0.10566000000E+00 0.  1.
     999900   -1    0    0    0    0 -0.00000000000E+00 -0.00000000000E+00 -0.74505805969E-08  0.93827000000E+00  0.93827000000E+00 0. -1.
     999902    2    1    2    0    0 -0.13850102537E-01 -0.18392724118E-01 -0.24005032306E-02  0.10207809167E+01  0.10205183976E+01 0.  0.
     999903    2    3    3    0    0  0.48408568687E-01 -0.20799012766E-01  0.11769003011E+00  0.13044184167E+00  0.19701330326E-01 0.  0.
         14    1    1    2    0    0  0.13850102537E-01  0.18392724118E-01  0.24005032306E-02  0.23149083276E-01  0.00000000000E+00 0. -1.
     999901    1    3    3    0    0 -0.62258671224E-01  0.24062886483E-02 -0.12009053334E+00  0.89033907505E+00  0.88000000000E+00 0. -1.
        -11    1    4    4    0    0  0.14007314211E-01  0.18072116340E-02  0.20570910339E-01  0.24957851239E-01  0.51100000000E-03 0.  1.
         11    1    4    4    0    0  0.34401254476E-01 -0.22606224400E-01  0.97119119772E-01  0.10548399043E+00  0.51100000000E-03 0. -1.
</event>
<event>
 8    1  0.1196210E+005  0.1043930E+01  0.7957747E-01            NaN
         13   -1    0    0    0    0  0.00000000000E+00  0.00000000000E+00  0.74505805969E-08  0.10566000000E+00  0.10566000000E+00 0.  1.
     999900   -1    0    0    0    0 -0.00000000000E+00 -0.00000000000E+00 -0.74505805969E-08  0.93827000000E+00  0.93827000000E+00 0. -1.
     999902    2    1    2    0    0 -0.17033309066E-01  0.15501259339E-01  0.12578534733E-02  0.10208647696E+01  0.10206041705E+01 0.  0.
     999903    2    3    3    0    0 -0.12411510728E-01  0.57152445415E-01 -0.11664440753E+00  0.13201319285E+00  0.20027922073E-01 0.  0.
         14    1    1    2    0    0  0.17033309066E-01 -0.15501259339E-01 -0.12578534733E-02  0.23065230417E-01  0.00000000000E+00 0. -1.
     999901    1    3    3    0    0 -0.46217983374E-02 -0.41651186076E-01  0.11790226100E+00  0.88885157674E+00  0.88000000000E+00 0. -1.
        -11    1    4    4    0    0 -0.11634156614E-02  0.20874680400E-03 -0.14267419324E-01  0.14325414004E-01  0.51100000000E-03 0. -1.
         11    1    4    4    0    0 -0.11248095067E-01  0.56943698611E-01 -0.10237698820E+00  0.11768777884E+00  0.51100000000E-03 0.  1.
</event>
<event>
 8    1  0.1196210E+005  0.1043930E+01  0.7957747E-01            NaN
         13   -1    0    0    0    0  0.00000000000E+00  0.00000000000E+00  0.74505805969E-08  0.10566000000E+00  0.10566000000E+00 0. -1.
     999900   -1    0    0    0    0 -0.00000000000E+00 -0.00000000000E+00 -0.74505805969E-08  0.93827000000E+00  0.93827000000E+00 0.  1.
     999902    2    1    2    0    0 -0.16380680023E-01 -0.10863910273E-01 -0.11416486154E-01  0.10211992415E+01  0.10209462295E+01 0.  0.
     999903    2    3    3    0    0  0.28903455557E-01  0.77374464468E-01  0.96856250133E-01  0.12903353431E+00  0.21125867860E-01 0.  0.
         14    1    1    2    0    0  0.16380680023E-01  0.10863910273E-01  0.11416486154E-01  0.22730758468E-01  0.00000000000E+00 0.  1.
     999901    1    3    3    0    0 -0.45284135580E-01 -0.88238374741E-01 -0.10827273629E+00  0.89216570722E+00  0.88000000000E+00 0.  1.
        -11    1    4    4    0    0  0.19453046741E-01  0.26408137927E-01  0.30157193265E-01  0.44559266185E-01  0.51100000000E-03 0.  1.
         11    1    4    4    0    0  0.94504088153E-02  0.50966326541E-01  0.66699056868E-01  0.84474268129E-01  0.51100000000E-03 0. -1.
</event>
<event>
 8    1  0.1196210E+005  0.1043930E+01  0.7957747E-01            NaN
         13   -1    0    0    0    0  0.00000000000E+00  0.00000000000E+00  0.74505805969E-08  0.10566000000E+00  0.10566000000E+00 0.  1.
     999900   -1    0    0    0    0 -0.00000000000E+00 -0.00000000000E+00 -0.74505805969E-08  0.93827000000E+00  0.93827000000E+00 0. -1.
     999902    2    1    2    0    0 -0.11436365533E-01 -0.20579751039E-01  0.54067785789E-02  0.10197732232E+01  0.10194870656E+01 0.  0.
     999903    2    3    3    0    0  0.12608322297E+00 -0.18167945068E-01 -0.31664601375E-02  0.12904826318E+00  0.20405254624E-01 0.  0.
         14    1    1    2    0    0  0.11436365533E-01  0.20579751039E-01 -0.54067785789E-02  0.24156776773E-01  0.00000000000E+00 0. -1.
     999901    1    3    3    0    0 -0.13751958851E+00 -0.24118059714E-02  0.85732387164E-02  0.89072496005E+00  0.88000000000E+00 0. -1.
        -11    1    4    4    0    0  0.15631059416E-01 -0.88601965247E-02  0.19830841206E-02  0.18083883559E-01  0.51100000000E-03 0. -1.
         11    1    4    4    0    0  0.11045216356E+00 -0.93077485432E-02 -0.51495442580E-02  0.11096437962E+00  0.51100000000E-03 0.  1.
</event>
<event>
 8    1  0.1196210E+005  0.1043930E+01  0.7957747E-01            NaN
         13   -1    0    0    0    0  0.00000000000E+00  0.00000000000E+00  0.74505805969E-08  0.10566000000E+00  0.10566000000E+00 0. -1.
     999900   -1    0    0    0    0 -0.00000000000E+00 -0.00000000000E+00 -0.74505805969E-08  0.93827000000E+00  0.93827000000E+00 0.  1.
     999902    2    1    2    0    0 -0.16899830870E-02 -0.17443585555E-01  0.14073074711E-01  0.10214536535E+01  0.10212063357E+01 0.  0.
     999903    2    3    3    0    0 -0.80662137814E-01 -0.27601556811E-01 -0.97491949624E-01  0.13084344682E+00  0.18630644616E-01 0.  0.
         14    1    1    2    0    0  0.16899830870E-02  0.17443585555E-01 -0.14073074711E-01  0.22476346493E-01  0.00000000000E+00 0.  1.
     999901    1    3    3    0    0  0.78972154727E-01  0.10157971256E-01  0.11156502433E+00  0.89061020669E+00  0.88000000000E+00 0. -1.
        -11    1    4    4    0    0 -0.70502350701E-01 -0.17020066602E-01 -0.82827269482E-01  0.11009487641E+00  0.51100000000E-03 0. -1.
         11    1    4    4    0    0 -0.10159787113E-01 -0.10581490209E-01 -0.14664680141E-01  0.20748570405E-01  0.51100000000E-03 0.  1.
</event>
<event>
 8    1  0.1196210E+005  0.1043930E+01  0.7957747E-01            NaN
         13   -1    0    0    0    0  0.00000000000E+00  0.00000000000E+00  0.74505805969E-08  0.10566000000E+00  0.10566000000E+00 0.  1.
     999900   -1    0    0    0    0 -0.00000000000E+00 -0.00000000000E+00 -0.74505805969E-08  0.93827000000E+00  0.93827000000E+00 0. -1.
     999902    2    1    2    0    0  0.10363568429E-01 -0.17596646339E-01  0.18192827487E-01  0.10165799637E+01  0.10162119848E+01 0.  0.
     999903    2    3    3    0    0  0.14047418600E-01 -0.60036597029E-01 -0.10853625061E+00  0.12648166611E+00  0.20390468673E-01 0.  0.
         14    1    1    2    0    0 -0.10363568429E-01  0.17596646339E-01 -0.18192827487E-01  0.27350036288E-01  0.00000000000E+00 0. -1.
     999901    1    3    3    0    0 -0.36838501710E-02  0.42439950690E-01  0.12672907810E+00  0.89009829761E+00  0.88000000000E+00 0.  1.
        -11    1    4    4    0    0  0.18163756632E-01 -0.33933842737E-01 -0.62831830039E-01  0.73685329103E-01  0.51100000000E-03 0. -1.
         11    1    4    4    0    0 -0.41163380319E-02 -0.26102754292E-01 -0.45704420568E-01  0.52796337003E-01  0.51100000000E-03 0.  1.
</event>
<event>
 8    1  0.1196210E+005  0.1043930E+01  0.7957747E-01            NaN
         13   -1    0    0    0    0  0.00000000000E+00  0.00000000000E+00  0.74505805969E-08  0.10566000000E+00  0.10566000000E+00 0.  1.
     999900   -1    0    0    0    0 -0.00000000000E+00 -0.00000000000E+00 -0.74505805969E-08  0.93827000000E+00  0.93827000000E+00 0. -1.
     999902    2    1    2    0    0 -0.10146713703E-02  0.21577642556E-01  0.83991225667E-02  0.10207530831E+01  0.10204899251E+01 0.  0.
     999903    2    3    3    0    0  0.23393456072E-01 -0.11906674813E+00 -0.35371368606E-01  0.12817677982E+00  0.21307483915E-01 0.  0.
         14    1    1    2    0    0  0.10146713703E-02 -0.21577642556E-01 -0.83991225667E-02  0.23176916882E-01  0.00000000000E+00 0.  1.
     999901    1    3    3    0    0 -0.24408127443E-01  0.14064439068E+00  0.43770491173E-01  0.89257630330E+00  0.88000000000E+00 0.  1.
        -11    1    4    4    0    0  0.21979095859E-01 -0.63227761435E-01 -0.14135532604E-01  0.68417138743E-01  0.51100000000E-03 0.  1.
         11    1    4    4    0    0  0.14143602137E-02 -0.55838986692E-01 -0.21235836002E-01  0.59759641074E-01  0.51100000000E-03 0. -1.
</event>
<event>
 8    1  0.1196210E+005  0.1043930E+01  0.7957747E-01            NaN
         13   -1    0    0    0    0  0.00000000000E+00  0.00000000000E+00  0.74505805969E-08  0.10566000000E+00  0.10566000000E+00 0.  1.
     999900   -1    0    0    0    0 -0.00000000000E+00 -0.00000000000E+00 -0.74505805969E-08  0.93827000000E+00  0.93827000000E+00 0. -1.
     999902    2    1    2    0    0 -0.57616061284E-02 -0.50015011686E-02 -0.21412354987E-01  0.10211989625E+01  0.10209459442E+01 0.  0.
     999903    2    3    3    0    0 -0.11708896968E+00  0.56971621484E-01 -0.11500636101E-01  0.13196744487E+00  0.18098325825E-01 0.  0.
         14    1    1    2    0    0  0.57616061284E-02  0.50015011686E-02  0.21412354987E-01  0.22731037486E-01  0.00000000000E+00 0.  1.
     999901    1    3    3    0    0  0.11132736355E+00 -0.61973122653E-01 -0.99117188855E-02  0.88923151765E+00  0.88000000000E+00 0. -1.
        -11    1    4    4    0    0 -0.16027626241E-01  0.79192609068E-02 -0.79540253668E-02  0.19573633714E-01  0.51100000000E-03 0.  1.
         11    1    4    4    0    0 -0.10106134344E+00  0.49052360577E-01 -0.35466107346E-02  0.11239381115E+00  0.51100000000E-03 0. -1.
</event>
<event>
 8    1  0.1196210E+005  0.1043930E+01  0.7957747E-01            NaN
         13   -1    0    0    0    0  0.00000000000E+00  0.00000000000E+00  0.74505805969E-08  0.10566000000E+00  0.10566000000E+00 0. -1.
     999900   -1    0    0    0    0 -0.00000000000E+00 -0.00000000000E+00 -0.74505805969E-08  0.93827000000E+00  0.93827000000E+00 0.  1.
     999902    2    1    2    0    0 -0.29989947618E-02 -0.14769933184E-01 -0.18658625355E-01  0.10199448130E+01  0.10196627542E+01 0.  0.
     999903    2    3    3    0    0  0.56570664356E-01 -0.39487269969E-01 -0.11148677217E+00  0.13271510436E+00  0.20603737561E-01 0.  0.
         14    1    1    2    0    0  0.29989947618E-02  0.14769933184E-01  0.18658625355E-01  0.23985187012E-01  0.00000000000E+00 0. -1.
     999901    1    3    3    0    0 -0.59569659118E-01  0.24717336784E-01  0.92828146818E-01  0.88722970862E+00  0.88000000000E+00 0. -1.
        -11    1    4    4    0    0  0.27543061640E-01 -0.86825750077E-02 -0.35836547969E-01  0.46027455335E-01  0.51100000000E-03 0. -1.
         11    1    4    4    0    0  0.29027602716E-01 -0.30804694961E-01 -0.75650224203E-01  0.86687649029E-01  0.51100000000E-03 0.  1.
</event>
<event>
 8    1  0.1196210E+005  0.1043930E+01  0.7957747E-01            NaN
         13   -1    0    0    0    0  0.00000000000E+00  0.00000000000E+00  0.74505805969E-08  0.10566000000E+00  0.10566000000E+00 0. -1.
     999900   -1    0    0    0    0 -0.00000000000E+00 -0.00000000000E+00 -0.74505805969E-08  0.93827000000E+00  0.93827000000E+00 0.  1.
     999902    2    1    2    0    0 -0.23798217069E-01  0.39812045860E-02  0.17886508125E-02  0.10197348683E+01  0.10194477904E+01 0.  0.
     999903    2    3    3    0    0 -0.85749281548E-01  0.38926225109E-01  0.90948961333E-01  0.13237437234E+00  0.19572189360E-01 0.  0.
         14    1    1    2    0    0  0.23798217069E-01 -0.39812045860E-02 -0.17886508125E-02  0.24195131687E-01  0.00000000000E+00 0. -1.
     999901    1    3    3    0    0  0.61951064479E-01 -0.34945020523E-01 -0.89160310520E-01  0.88736049598E+00  0.88000000000E+00 0.  1.
        -11    1    4    4    0    0 -0.25371156596E-01  0.10324689097E-01  0.39394876262E-01  0.47984499462E-01  0.51100000000E-03 0. -1.
         11    1    4    4    0    0 -0.60378124952E-01  0.28601536012E-01  0.51554085071E-01  0.84389872873E-01  0.51100000000E-03 0.  1.
</event>
<event>
 8    1  0.1196210E+005  0.1043930E+01  0.7957747E-01            NaN
         13   -1    0    0    0    0  0.00000000000E+00  0.00000000000E+00  0.74505805969E-08  0.10566000000E+00  0.10566000000E+00 0.  1.
     999900   -1    0    0    0    0 -0.00000000000E+00 -0.00000000000E+00 -0.74505805969E-08  0.93827000000E+00  0.93827000000E+00 0. -1.
     999902    2    1    2    0    0  0.21788813983E-01 -0.69637407981E-02 -0.70572496467E-02  0.10199915190E+01  0.10197105707E+01 0.  0.
     999903    2    3    3    0    0  0.73530433063E-01  0.88564612786E-01 -0.61170355016E-01  0.13166101199E+00  0.18503905574E-01 0.  0.
         14    1    1    2    0    0 -0.21788813983E-01  0.69637407981E-02  0.70572496467E-02  0.23938481014E-01  0.00000000000E+00 0.  1.
     999901    1    3    3    0    0 -0.51741619080E-01 -0.95528353584E-01  0.54113105370E-01  0.88833050699E+00  0.88000000000E+00 0.  1.
        -11    1    4    4    0    0  0.39167575100E-01  0.60997426180E-01 -0.39704558286E-01  0.82652876595E-01  0.51100000000E-03 0. -1.
         11    1    4    4    0    0  0.34362857963E-01  0.27567186607E-01 -0.21465796731E-01  0.49008135397E-01  0.51100000000E-03 0.  1.
</event>
<event>
 8    1  0.1196210E+005  0.1043930E+01  0.7957747E-01            NaN
         13   -1    0    0    0    0  0.00000000000E+00  0.00000000000E+00  0.74505805969E-08  0.10566000000E+00  0.10566000000E+00 0.  1.
     999900   -1    0    0    0    0 -0.00000000000E+00 -0.00000000000E+00 -0.74505805969E-08  0.93827000000E+00  0.93827000000E+00 0.  1.
     999902    2    1    2    0    0 -0.18288310993E-01  0.14478653640E-01 -0.28599135055E-02  0.10204295141E+01  0.10201588702E+01 0.  0.
     999903    2    3    3    0    0 -0.98406371732E-01  0.18882925613E-01  0.84349346258E-01  0.13248595949E+00  0.19933348190E-01 0.  0.
         14    1    1    2    0    0  0.18288310993E-01 -0.14478653640E-01  0.28599135055E-02  0.23500485856E-01  0.00000000000E+00 0. -1.
     999901    1    3    3    0    0  0.80118060739E-01 -0.44042719730E-02 -0.87209259763E-01  0.88794355466E+00  0.88000000000E+00 0.  1.
        -11    1    4    4    0    0 -0.28620294302E-01 -0.45519097720E-03  0.15462300339E-01  0.32537244774E-01  0.51100000000E-03 0. -1.
         11    1    4    4    0    0 -0.69786077430E-01  0.19338116590E-01  0.68887045919E-01  0.99948714713E-01  0.51100000000E-03 0.  1.
</event>
<event>
 8    1  0.1576614E+005  0.1043930E+01  0.7957747E-01            NaN
         13   -1    0    0    0    0  0.00000000000E+00  0.00000000000E+00  0.74505805969E-08  0.10566000000E+00  0.10566000000E+00 0.  1.
     999900   -1    0    0    0    0 -0.00000000000E+00 -0.00000000000E+00 -0.74505805969E-08  0.93827000000E+00  0.93827000000E+00 0. -1.
     999902    2    1    2    0    0 -0.13826110824E-02  0.16569874445E-01  0.15370066530E-01  0.10212868709E+01  0.10210358276E+01 0.  0.
     999903    2    3    3    0    0  0.71858341976E-02 -0.11600892689E+00 -0.53684776235E-01  0.12863961234E+00  0.12505492125E-01 0.  0.
         14    1    1    2    0    0  0.13826110824E-02 -0.16569874445E-01 -0.15370066530E-01  0.22643129149E-01  0.00000000000E+00 0. -1.
     999901    1    3    3    0    0 -0.85684452800E-02  0.13257880133E+00  0.69054842765E-01  0.89264725851E+00  0.88000000000E+00 0.  1.
        -11    1    4    4    0    0  0.85481918840E-02 -0.42562591413E-01 -0.21251246314E-01  0.48337587478E-01  0.51100000000E-03 0. -1.
         11    1    4    4    0    0 -0.13623576864E-02 -0.73446335473E-01 -0.32433529922E-01  0.80302024862E-01  0.51100000000E-03 0.  1.
</event>
<event>
 8    1  0.1196210E+005  0.1043930E+01  0.7957747E-01            NaN
         13   -1    0    0    0    0  0.00000000000E+00  0.00000000000E+00  0.74505805969E-08  0.10566000000E+00  0.10566000000E+00 0. -1.
     999900   -1    0    0    0    0 -0.00000000000E+00 -0.00000000000E+00 -0.74505805969E-08  0.93827000000E+00  0.93827000000E+00 0. -1.
     999902    2    1    2    0    0  0.83980903452E-03 -0.13113346995E-01 -0.21118871136E-01  0.10190568847E+01  0.10187532882E+01 0.  0.
     999903    2    3    3    0    0  0.88518121202E-01 -0.91515762888E-01  0.22733601460E-01  0.13014886659E+00  0.14536787830E-01 0.  0.
         14    1    1    2    0    0 -0.83980903452E-03  0.13113346995E-01  0.21118871136E-01  0.24873115339E-01  0.00000000000E+00 0. -1.
     999901    1    3    3    0    0 -0.87678312167E-01  0.78402415893E-01 -0.43852472596E-01  0.88890801807E+00  0.88000000000E+00 0. -1.
        -11    1    4    4    0    0  0.27736131685E-01 -0.21305593161E-01  0.10235768697E-01  0.36445210695E-01  0.51100000000E-03 0.  1.
         11    1    4    4    0    0  0.60781989517E-01 -0.70210169727E-01  0.12497832764E-01  0.93703655892E-01  0.51100000000E-03 0. -1.
</event>
<event>
 7    1  0.1196210E+005  0.1043930E+01  0.7957747E-01            NaN
         13   -1    0    0    0    0  0.00000000000E+00  0.00000000000E+00  0.74505805969E-08  0.10566000000E+00  0.10566000000E+00 0.  1.
     999900   -1    0    0    0    0 -0.00000000000E+00 -0.00000000000E+00 -0.74505805969E-08  0.93827000000E+00  0.93827000000E+00 0.  1.
     999902    2    1    2    0    0 -0.21242987953E-01 -0.59709069163E-02 -0.76986691310E-02  0.10205593823E+01  0.10202917558E+01 0.  0.
         14    1    1    2    0    0  0.21242987953E-01  0.59709069163E-02  0.76986691310E-02  0.23370617728E-01  0.00000000000E+00 0. -1.
     999901    1    3    3    0    0  0.14533488494E-01 -0.21962047078E-01  0.10617607910E+00  0.88677331578E+00  0.88000000000E+00 0. -1.
        -11    1    3    3    0    0 -0.51463505193E-01  0.74947307007E-02 -0.90454519349E-01  0.10434052207E+00  0.51100000000E-03 0.  1.
         11    1    3    3    0    0  0.15687028745E-01  0.84964094611E-02 -0.23420228879E-01  0.29445544423E-01  0.51100000000E-03 0. -1.
</event>
<event>
 8    1  0.1196210E+005  0.1043930E+01  0.7957747E-01            NaN
         13   -1    0    0    0    0  0.00000000000E+00  0.00000000000E+00  0.74505805969E-08  0.10566000000E+00  0.10566000000E+00 0.  1.
     999900   -1    0    0    0    0 -0.00000000000E+00 -0.00000000000E+00 -0.74505805969E-08  0.93827000000E+00  0.93827000000E+00 0. -1.
     999902    2    1    2    0    0  0.20555190458E-01 -0.77341053461E-02  0.84909181358E-02  0.10203837066E+01  0.10201119943E+01 0.  0.
     999903    2    3    3    0    0  0.15302872676E-01  0.94546483204E-01  0.86947014586E-01  0.13097701411E+00  0.20542139192E-01 0.  0.
         14    1    1    2    0    0 -0.20555190458E-01  0.77341053461E-02 -0.84909181358E-02  0.23546293362E-01  0.00000000000E+00 0. -1.
     999901    1    3    3    0    0  0.52523177826E-02 -0.10228058855E+00 -0.78456096450E-01  0.88940669252E+00  0.88000000000E+00 0. -1.
        -11    1    4    4    0    0  0.14323562541E-01  0.74808717866E-01  0.57179392858E-01  0.95243124693E-01  0.51100000000E-03 0.  1.
         11    1    4    4    0    0  0.97931013442E-03  0.19737765338E-01  0.29767621727E-01  0.35733889421E-01  0.51100000000E-03 0. -1.
</event>
<event>
 8    1  0.1196210E+005  0.1043930E+01  0.7957747E-01            NaN
         13   -1    0    0    0    0  0.00000000000E+00  0.00000000000E+00  0.74505805969E-08  0.10566000000E+00  0.10566000000E+00 0. -1.
     999900   -1    0    0    0    0 -0.00000000000E+00 -0.00000000000E+00 -0.74505805969E-08  0.93827000000E+00  0.93827000000E+00 0.  1.
     999902    2    1    2    0    0  0.49907913237E-02  0.15669686214E-01  0.18786644200E-01  0.10189623196E+01  0.10186563816E+01 0.  0.
     999903    2    3    3    0    0  0.98126858405E-01 -0.76069418801E-01  0.29370195386E-01  0.12924191300E+00  0.20625878905E-01 0.  0.
         14    1    1    2    0    0 -0.49907913237E-02 -0.15669686214E-01 -0.18786644200E-01  0.24967680396E-01  0.00000000000E+00 0.  1.
     999901    1    3    3    0    0 -0.93136067081E-01  0.91739105014E-01 -0.10583551187E-01  0.88972040661E+00  0.88000000000E+00 0. -1.
        -11    1    4    4    0    0  0.35276153639E-01 -0.35114869436E-01  0.19984981125E-01  0.53638807432E-01  0.51100000000E-03 0.  1.
         11    1    4    4    0    0  0.62850704765E-01 -0.40954549364E-01  0.93852142613E-02  0.75603105564E-01  0.51100000000E-03 0. -1.
</event>
<event>
 8    1  0.1196210E+005  0.1043930E+01  0.7957747E-01            NaN
         13   -1    0    0    0    0  0.00000000000E+00  0.00000000000E+00  0.74505805969E-08  0.10566000000E+00  0.10566000000E+00 0.  1.
     999900   -1    0    0    0    0 -0.00000000000E+00 -0.00000000000E+00 -0.74505805969E-08  0.93827000000E+00  0.93827000000E+00 0.  1.
     999902    2    1    2    0    0  0.34282723942E-02 -0.22803362510E-01  0.71809243784E-02  0.10197781457E+01  0.10194921060E+01 0.  0.
     999903    2    3    3    0    0  0.46136018140E-01 -0.86212668828E-01 -0.85543199887E-01  0.13161011263E+00  0.21033931212E-01 0.  0.
         14    1    1    2    0    0 -0.34282723942E-02  0.22803362510E-01 -0.71809243784E-02  0.24151854345E-01  0.00000000000E+00 0.  1.
     999901    1    3    3    0    0 -0.42707745745E-01  0.63409306318E-01  0.92724124266E-01  0.88816803303E+00  0.88000000000E+00 0. -1.
        -11    1    4    4    0    0  0.18244362095E-01 -0.15430045718E-01 -0.18946378456E-01  0.30498679262E-01  0.51100000000E-03 0.  1.
         11    1    4    4    0    0  0.27891656045E-01 -0.70782623110E-01 -0.66596821431E-01  0.10111143336E+00  0.51100000000E-03 0. -1.
</event>
<event>
 8    1  0.1196210E+005  0.1043930E+01  0.7957747E-01            NaN
         13   -1    0    0    0    0  0.00000000000E+00  0.00000000000E+00  0.74505805969E-08  0.10566000000E+00  0.10566000000E+00 0. -1.
     999900   -1    0    0    0    0 -0.00000000000E+00 -0.00000000000E+00 -0.74505805969E-08  0.93827000000E+00  0.93827000000E+00 0.  1.
     999902    2    1    2    0    0  0.14349902610E-02  0.10628678874E-01  0.20864570310E-01  0.10204702833E+01  0.10202005885E+01 0.  0.
     999903    2    3    3    0    0  0.61179904133E-01 -0.10612051532E+00  0.40277921834E-01  0.13053955160E+00  0.20340086103E-01 0.  0.
         14    1    1    2    0    0 -0.14349902610E-02 -0.10628678874E-01 -0.20864570310E-01  0.23459716662E-01  0.00000000000E+00 0.  1.
     999901    1    3    3    0    0 -0.59744913872E-01  0.11674919419E+00 -0.19413351525E-01  0.88993073174E+00  0.88000000000E+00 0.  1.
        -11    1    4    4    0    0  0.29860284361E-01 -0.44773082446E-01  0.77879574886E-02  0.54379949400E-01  0.51100000000E-03 0.  1.
         11    1    4    4    0    0  0.31319619772E-01 -0.61347432873E-01  0.32489964346E-01  0.76159602198E-01  0.51100000000E-03 0. -1.
</event>
<event>
 8    1  0.1196210E+005  0.1043930E+01  0.7957747E-01            NaN
         13   -1    0    0    0    0  0.00000000000E+00  0.00000000000E+00  0.74505805969E-08  0.10566000000E+00  0.10566000000E+00 0.  1.
     999900   -1    0    0    0    0 -0.00000000000E+00 -0.00000000000E+00 -0.74505805969E-08  0.93827000000E+00  0.93827000000E+00 0.  1.
     999902    2    1    2    0    0  0.78514168039E-02 -0.22418000480E-01  0.10318939707E-02  0.10201544601E+01  0.10198773682E+01 0.  0.
     999903    2    3    3    0    0 -0.40334255755E-01 -0.54990854725E-01  0.11064912554E+00  0.13144821657E+00  0.19610159729E-01 0.  0.
         14    1    1    2    0    0 -0.78514168039E-02  0.22418000480E-01 -0.10318939707E-02  0.23775539878E-01  0.00000000000E+00 0. -1.
     999901    1    3    3    0    0  0.48185672559E-01  0.32572854246E-01 -0.10961723157E+00  0.88870624355E+00  0.88000000000E+00 0.  1.
        -11    1    4    4    0    0 -0.32705984505E-02 -0.19030037379E-01  0.29959823446E-01  0.35646756919E-01  0.51100000000E-03 0. -1.
         11    1    4    4    0    0 -0.37063657305E-01 -0.35960817346E-01  0.80689302097E-01  0.95801459649E-01  0.51100000000E-03 0.  1.
</event>
<event>
 8    1  0.1196210E+005  0.1043930E+01  0.7957747E-01            NaN
         13   -1    0    0    0    0  0.00000000000E+00  0.00000000000E+00  0.74505805969E-08  0.10566000000E+00  0.10566000000E+00 0.  1.
     999900   -1    0    0    0    0 -0.00000000000E+00 -0.00000000000E+00 -0.74505805969E-08  0.93827000000E+00  0.93827000000E+00 0.  1.
     999902    2    1    2    0    0 -0.11410755736E-01 -0.28698017776E-02 -0.20903056920E-01  0.10199429431E+01  0.10196608399E+01 0.  0.
     999903    2    3    3    0    0 -0.52832139504E-01 -0.85484748875E-01  0.79140799045E-01  0.12946569264E+00  0.19980546619E-01 0.  0.
         14    1    1    2    0    0  0.11410755736E-01  0.28698017776E-02  0.20903056920E-01  0.23987056871E-01  0.00000000000E+00 0.  1.
     999901    1    3    3    0    0  0.41421383768E-01  0.82614947098E-01 -0.10004385597E+00  0.89047725049E+00  0.88000000000E+00 0.  1.
        -11    1    4    4    0    0 -0.10163834412E-01 -0.12288990543E-01  0.22374731777E-01  0.27481131010E-01  0.51100000000E-03 0. -1.
         11    1    4    4    0    0 -0.42668305092E-01 -0.73195758333E-01  0.56766067268E-01  0.10198456163E+00  0.51100000000E-03 0.  1.
</event>
<event>
 8    1  0.1196210E+005  0.1043930E+01  0.7957747E-01            NaN
         13   -1    0    0    0    0  0.00000000000E+00  0.00000000000E+00  0.74505805969E-08  0.10566000000E+00  0.10566000000E+00 0. -1.
     999900   -1    0    0    0    0 -0.00000000000E+00 -0.00000000000E+00 -0.74505805969E-08  0.93827000000E+00  0.93827000000E+00 0. -1.
     999902    2    1    2    0    0  0.16866568344E-02 -0.21209857475E-01  0.11564480631E-01  0.10197134751E+01  0.10194258832E+01 0.  0.
     999903    2    3    3    0    0 -0.10658756372E+00 -0.59215008144E-01  0.45428464269E-01  0.13161749623E+00  0.19801364054E-01 0.  0.
         14    1    1    2    0    0 -0.16866568344E-02  0.21209857475E-01 -0.11564480631E-01  0.24216524888E-01  0.00000000000E+00 0.  1.
     999901    1    3    3    0    0  0.10827422056E+00  0.38005150669E-01 -0.33863983639E-01  0.88809597888E+00  0.88000000000E+00 0.  1.
        -11    1    4    4    0    0 -0.34378167291E-01 -0.17870128113E-01  0.48830644463E-02  0.39055157207E-01  0.51100000000E-03 0.  1.
         11    1    4    4    0    0 -0.72209396433E-01 -0.41344880031E-01  0.40545399823E-01  0.92562339025E-01  0.51100000000E-03 0. -1.
</event>
<event>
 8    1  0.1196210E+005  0.1043930E+01  0.7957747E-01            NaN
         13   -1    0    0    0    0  0.00000000000E+00  0.00000000000E+00  0.74505805969E-08  0.10566000000E+00  0.10566000000E+00 0. -1.
     999900   -1    0    0    0    0 -0.00000000000E+00 -0.00000000000E+00 -0.74505805969E-08  0.93827000000E+00  0.93827000000E+00 0. -1.
     999902    2    1    2    0    0 -0.23408426914E-01  0.16611091399E-02 -0.10065984479E-02  0.10204411308E+01  0.10201707575E+01 0.  0.
     999903    2    3    3    0    0 -0.12783111148E+00  0.90135888122E-02  0.32143614648E-01  0.13361696978E+00  0.19956071842E-01 0.  0.
         14    1    1    2    0    0  0.23408426914E-01 -0.16611091399E-02  0.10065984479E-02  0.23488869164E-01  0.00000000000E+00 0.  1.
     999901    1    3    3    0    0  0.10442268457E+00 -0.73524796723E-02 -0.33150213096E-01  0.88682416106E+00  0.88000000000E+00 0. -1.
        -11    1    4    4    0    0 -0.44481959191E-01  0.39209768520E-02  0.15539626092E-02  0.44684389598E-01  0.51100000000E-03 0. -1.
         11    1    4    4    0    0 -0.83349152293E-01  0.50926119602E-02  0.30589652039E-01  0.88932580179E-01  0.51100000000E-03 0.  1.
</event>
<event>
 8    1  0.1196210E+005  0.1043930E+01  0.7957747E-01            NaN
         13   -1    0    0    0    0  0.00000000000E+00  0.00000000000E+00  0.74505805969E-08  0.10566000000E+00  0.10566000000E+00 0. -1.
     999900   -1    0    0    0    0 -0.00000000000E+00 -0.00000000000E+00 -0.74505805969E-08  0.93827000000E+00  0.93827000000E+00 0.  1.
     999902    2    1    2    0    0  0.22020042576E-01 -0.26681974538E-02  0.63425558916E-02  0.10208598988E+01  0.10205991885E+01 0.  0.
     999903    2    3    3    0    0  0.78238721374E-01  0.16794107688E-01 -0.10283972963E+00  0.13211916462E+00  0.21820268006E-01 0.  0.
         14    1    1    2    0    0 -0.22020042576E-01  0.26681974538E-02 -0.63425558916E-02  0.23070101168E-01  0.00000000000E+00 0. -1.
     999901    1    3    3    0    0 -0.56218678799E-01 -0.19462305142E-01  0.10918228552E+00  0.88874073421E+00  0.88000000000E+00 0. -1.
        -11    1    4    4    0    0  0.32025586499E-01 -0.36848037269E-03 -0.28250034490E-01  0.42709478316E-01  0.51100000000E-03 0.  1.
         11    1    4    4    0    0  0.46213134876E-01  0.17162588060E-01 -0.74589695138E-01  0.89409686309E-01  0.51100000000E-03 0. -1.
</event>
<event>
 8    1  0.1196210E+005  0.1043930E+01  0.7957747E-01            NaN
         13   -1    0    0    0    0  0.00000000000E+00  0.00000000000E+00  0.74505805969E-08  0.10566000000E+00  0.10566000000E+00 0.  1.
     999900   -1    0    0    0    0 -0.00000000000E+00 -0.00000000000E+00 -0.74505805969E-08  0.93827000000E+00  0.93827000000E+00 0.  1.
     999902    2    1    2    0    0  0.15817238026E-01 -0.72758173941E-02 -0.17076114728E-01  0.10195431955E+01  0.10192514956E+01 0.  0.
     999903    2    3    3    0    0 -0.13541751442E-01  0.90471906139E-01 -0.91261147503E-01  0.13054376539E+00  0.18561594930E-01 0.  0.
         14    1    1    2    0    0 -0.15817238026E-01  0.72758173941E-02  0.17076114728E-01  0.24386804459E-01  0.00000000000E+00 0.  1.
     999901    1    3    3    0    0  0.29358989468E-01 -0.97747723533E-01  0.74185032775E-01  0.88899943015E+00  0.88000000000E+00 0. -1.
        -11    1    4    4    0    0 -0.16221186775E-01  0.54960977439E-01 -0.50161679912E-01  0.76159642818E-01  0.51100000000E-03 0.  1.
         11    1    4    4    0    0  0.26794353336E-02  0.35510928700E-01 -0.41099467591E-01  0.54384122573E-01  0.51100000000E-03 0. -1.
</event>
<event>
 8    1  0.1196210E+005  0.1043930E+01  0.7957747E-01            NaN
         13   -1    0    0    0    0  0.00000000000E+00  0.00000000000E+00  0.74505805969E-08  0.10566000000E+00  0.10566000000E+00 0.  1.
     999900   -1    0    0    0    0 -0.00000000000E+00 -0.00000000000E+00 -0.74505805969E-08  0.93827000000E+00  0.93827000000E+00 0. -1.
     999902    2    1    2    0    0 -0.13230459069E-01 -0.23538749176E-02  0.16315449875E-01  0.10227928365E+01  0.10225744016E+01 0.  0.
     999903    2    3    3    0    0  0.44523432932E-01 -0.10433400555E+00 -0.62542320477E-01  0.13152744003E+00  0.22803614531E-01 0.  0.
         14    1    1    2    0    0  0.13230459069E-01  0.23538749176E-02 -0.16315449875E-01  0.21137163455E-01  0.00000000000E+00 0. -1.
     999901    1    3    3    0    0 -0.57753892001E-01  0.10198013063E+00  0.78857770351E-01  0.89126539652E+00  0.88000000000E+00 0.  1.
        -11    1    4    4    0    0  0.28644493338E-01 -0.40641772117E-01 -0.31956503135E-01  0.59107866253E-01  0.51100000000E-03 0. -1.
         11    1    4    4    0    0  0.15878939594E-01 -0.63692233432E-01 -0.30585817342E-01  0.72419573775E-01  0.51100000000E-03 0.  1.
</event>
<event>
 8    1  0.1196210E+005  0.1043930E+01  0.7957747E-01            NaN
         13   -1    0    0    0    0  0.00000000000E+00  0.00000000000E+00  0.74505805969E-08  0.10566000000E+00  0.10566000000E+00 0. -1.
     999900   -1    0    0    0    0 -0.00000000000E+00 -0.00000000000E+00 -0.74505805969E-08  0.93827000000E+00  0.93827000000E+00 0.  1.
     999902    2    1    2    0    0 -0.10774237339E-01  0.20749621052E-01 -0.54727851243E-02  0.10199178710E+01  0.10196351706E+01 0.  0.
     999903    2    3    3    0    0 -0.15921191861E-01 -0.54478651399E-01 -0.11518511342E+00  0.12990518616E+00  0.19655513991E-01 0.  0.
         14    1    1    2    0    0  0.10774237339E-01 -0.20749621052E-01  0.54727851243E-02  0.24012129041E-01  0.00000000000E+00 0. -1.
     999901    1    3    3    0    0  0.51469545219E-02  0.75228272451E-01  0.10971232830E+00  0.89001268480E+00  0.88000000000E+00 0.  1.
        -11    1    4    4    0    0 -0.12691971873E-01 -0.54278684119E-01 -0.10116018043E+00  0.11550283514E+00  0.51100000000E-03 0.  1.
         11    1    4    4    0    0 -0.32292199880E-02 -0.19996728024E-03 -0.14024932995E-01  0.14402351028E-01  0.51100000000E-03 0. -1.
</event>
<event>
 8    1  0.1196210E+005  0.1043930E+01  0.7957747E-01            NaN
         13   -1    0    0    0    0  0.00000000000E+00  0.00000000000E+00  0.74505805969E-08  0.10566000000E+00  0.10566000000E+00 0. -1.
     999900   -1    0    0    0    0 -0.00000000000E+00 -0.00000000000E+00 -0.74505805969E-08  0.93827000000E+00  0.93827000000E+00 0. -1.
     999902    2    1    2    0    0  0.43802676755E-03  0.23291853153E-01  0.55374196321E-02  0.10199849524E+01  0.10197038480E+01 0.  0.
     999903    2    3    3    0    0 -0.21396793233E-01  0.12921647886E+00  0.86154580019E-02  0.13335861617E+00  0.23570600723E-01 0.  0.
         14    1    1    2    0    0 -0.43802676755E-03 -0.23291853153E-01 -0.55374196321E-02  0.23945047649E-01  0.00000000000E+00 0. -1.
     999901    1    3    3    0    0  0.21834820001E-01 -0.10592462571E+00 -0.30780383699E-02  0.88662633618E+00  0.88000000000E+00 0.  1.
        -11    1    4    4    0    0  0.75338919065E-03  0.11238914674E-02  0.28973561096E-02  0.32382897846E-02  0.51100000000E-03 0.  1.
         11    1    4    4    0    0 -0.22150182424E-01  0.12809258740E+00  0.57181018923E-02  0.13012032638E+00  0.51100000000E-03 0. -1.
</event>
<event>
 8    1  0.1196210E+005  0.1043930E+01  0.7957747E-01            NaN
         13   -1    0    0    0    0  0.00000000000E+00  0.00000000000E+00  0.74505805969E-08  0.10566000000E+00  0.10566000000E+00 0.  1.
     999900   -1    0    0    0    0 -0.00000000000E+00 -0.00000000000E+00 -0.74505805969E-08  0.93827000000E+00  0.93827000000E+00 0.  1.
     999902    2    1    2    0    0  0.71150013397E-02 -0.90040457037E-02 -0.21739338627E-01  0.10193475891E+01  0.10190511334E+01 0.  0.
     999903    2    3    3    0    0 -0.40818554264E-01  0.11478851693E+00  0.32689062398E-01  0.12772845785E+00  0.20085471188E-01 0.  0.
         14    1    1    2    0    0 -0.71150013397E-02  0.90040457037E-02  0.21739338627E-01  0.24582410928E-01  0.00000000000E+00 0.  1.
     999901    1    3    3    0    0  0.47933555604E-01 -0.12379256264E+00 -0.54428401025E-01  0.89161913122E+00  0.88000000000E+00 0.  1.
        -11    1    4    4    0    0 -0.41105515975E-01  0.10688117583E+00  0.34493979176E-01  0.11959659238E+00  0.51100000000E-03 0.  1.
         11    1    4    4    0    0  0.28696171068E-03  0.79073411077E-02 -0.18049167782E-02  0.81318654682E-02  0.51100000000E-03 0. -1.
</event>
<event>
 8    1  0.1196210E+005  0.1043930E+01  0.7957747E-01            NaN
         13   -1    0    0    0    0  0.00000000000E+00  0.00000000000E+00  0.74505805969E-08  0.10566000000E+00  0.10566000000E+00 0.  1.
     999900   -1    0    0    0    0 -0.00000000000E+00 -0.00000000000E+00 -0.74505805969E-08  0.93827000000E+00  0.93827000000E+00 0. -1.
     999902    2    1    2    0    0  0.62333145835E-03 -0.13717031164E-01  0.15117479016E-01  0.10235073739E+01  0.10233036014E+01 0.  0.
     999903    2    3    3    0    0 -0.71786194350E-01  0.56770453155E-01  0.95843721401E-01  0.13405341156E+00  0.20202875220E-01 0.  0.
         14    1    1    2    0    0 -0.62333145835E-03  0.13717031164E-01 -0.15117479016E-01  0.20422626126E-01  0.00000000000E+00 0. -1.
     999901    1    3    3    0    0  0.72409525808E-01 -0.70487484319E-01 -0.80726242385E-01  0.88945396232E+00  0.88000000000E+00 0. -1.
        -11    1    4    4    0    0 -0.46625394111E-01  0.48259417744E-01  0.66610595134E-01  0.94552267462E-01  0.51100000000E-03 0.  1.
         11    1    4    4    0    0 -0.25160800239E-01  0.85110354108E-02  0.29233126267E-01  0.39501144095E-01  0.51100000000E-03 0. -1.
</event>
<event>
 8    1  0.1196210E+005  0.1043930E+01  0.7957747E-01            NaN
         13   -1    0    0    0    0  0.00000000000E+00  0.00000000000E+00  0.74505805969E-08  0.10566000000E+00  0.10566000000E+00 0.  1.
     999900   -1    0    0    0    0 -0.00000000000E+00 -0.00000000000E+00 -0.74505805969E-08  0.93827000000E+00  0.93827000000E+00 0.  1.
     999902    2    1    2    0    0  0.83855187257E-02  0.21123953621E-01 -0.36501692526E-02  0.10209112668E+01  0.10206517294E+01 0.  0.
     999903    2    3    3    0    0  0.76761483012E-01 -0.53641770614E-01  0.87506760975E-01  0.13041995754E+00  0.24128142874E-01 0.  0.
         14    1    1    2    0    0 -0.83855187257E-02 -0.21123953621E-01  0.36501692526E-02  0.23018733163E-01  0.00000000000E+00 0.  1.
     999901    1    3    3    0    0 -0.68375964286E-01  0.74765724235E-01 -0.91156930227E-01  0.89049130930E+00  0.88000000000E+00 0.  1.
        -11    1    4    4    0    0  0.12779932056E-01 -0.17026511854E-01  0.30650239770E-01  0.37321938431E-01  0.51100000000E-03 0.  1.
         11    1    4    4    0    0  0.63981550955E-01 -0.36615258760E-01  0.56856521205E-01  0.93098019105E-01  0.51100000000E-03 0. -1.
</event>
<event>
 8    1  0.1196210E+005  0.1043930E+01  0.7957747E-01            NaN
         13   -1    0    0    0    0  0.00000000000E+00  0.00000000000E+00  0.74505805969E-08  0.10566000000E+00  0.10566000000E+00 0.  1.
     999900   -1    0    0    0    0 -0.00000000000E+00 -0.00000000000E+00 -0.74505805969E-08  0.93827000000E+00  0.93827000000E+00 0. -1.
     999902    2    1    2    0    0 -0.55693527848E-02  0.41620083051E-02  0.22758007350E-01  0.10201336368E+01  0.10198560536E+01 0.  0.
     999903    2    3    3    0    0  0.74681928793E-01  0.54696183166E-01 -0.86779629297E-01  0.12828585557E+00  0.18907504772E-01 0.  0.
         14    1    1    2    0    0  0.55693527848E-02 -0.41620083051E-02 -0.22758007350E-01  0.23796363212E-01  0.00000000000E+00 0. -1.
     999901    1    3    3    0    0 -0.80251281578E-01 -0.50534174861E-01  0.10953763665E+00  0.89184778122E+00  0.88000000000E+00 0.  1.
        -11    1    4    4    0    0  0.59868626534E-02  0.72312047761E-02 -0.26842089054E-02  0.97774713189E-02  0.51100000000E-03 0.  1.
         11    1    4    4    0    0  0.68695066140E-01  0.47464978390E-01 -0.84095420392E-01  0.11850838425E+00  0.51100000000E-03 0. -1.
</event>
<event>
 8    1  0.1196210E+005  0.1043930E+01  0.7957747E-01            NaN
         13   -1    0    0    0    0  0.00000000000E+00  0.00000000000E+00  0.74505805969E-08  0.10566000000E+00  0.10566000000E+00 0.  1.
     999900   -1    0    0    0    0 -0.00000000000E+00 -0.00000000000E+00 -0.74505805969E-08  0.93827000000E+00  0.93827000000E+00 0.  1.
     999902    2    1    2    0    0  0.19853676299E-01  0.92792530219E-03 -0.48239551721E-02  0.10234776150E+01  0.10232732423E+01 0.  0.
     999903    2    3    3    0    0  0.60171327214E-01  0.11803775251E+00  0.13123933059E-01  0.13462309863E+00  0.19940948558E-01 0.  0.
         14    1    1    2    0    0 -0.19853676299E-01 -0.92792530219E-03  0.48239551721E-02  0.20452384982E-01  0.00000000000E+00 0. -1.
     999901    1    3    3    0    0 -0.40317650915E-01 -0.11710982721E+00 -0.17947888231E-01  0.88885451638E+00  0.88000000000E+00 0.  1.
        -11    1    4    4    0    0  0.40506081465E-01  0.80535566587E-01 -0.45465018074E-03  0.90150917626E-01  0.51100000000E-03 0.  1.
         11    1    4    4    0    0  0.19665245748E-01  0.37502185928E-01  0.13578583240E-01  0.44472181007E-01  0.51100000000E-03 0. -1.
</event>
<event>
 8    1  0.1196210E+005  0.1043930E+01  0.7957747E-01            NaN
         13   -1    0    0    0    0  0.00000000000E+00  0.00000000000E+00  0.74505805969E-08  0.10566000000E+00  0.10566000000E+00 0.  1.
     999900   -1    0    0    0    0 -0.00000000000E+00 -0.00000000000E+00 -0.74505805969E-08  0.93827000000E+00  0.93827000000E+00 0.  1.
     999902    2    1    2    0    0  0.13821426795E-01  0.19131562373E-01 -0.17355000531E-02  0.10202644031E+01  0.10199898978E+01 0.  0.
     999903    2    3    3    0    0 -0.96036325326E-01 -0.29477673895E-01 -0.77874314410E-01  0.12884491562E+00  0.21087778381E-01 0.  0.
         14    1    1    2    0    0 -0.13821426795E-01 -0.19131562373E-01  0.17355000531E-02  0.23665596927E-01  0.00000000000E+00 0.  1.
     999901    1    3    3    0    0  0.10985775212E+00  0.48609236268E-01  0.76138814356E-01  0.89141948745E+00  0.88000000000E+00 0. -1.
        -11    1    4    4    0    0 -0.44418654867E-01 -0.15331427781E-01 -0.23477174270E-01  0.52531023316E-01  0.51100000000E-03 0. -1.
         11    1    4    4    0    0 -0.51617670460E-01 -0.14146246113E-01 -0.54397140140E-01  0.76313892308E-01  0.51100000000E-03 0.  1.
</event>
<event>
 8    1  0.1196210E+005  0.1043930E+01  0.7957747E-01            NaN
         13   -1    0    0    0    0  0.00000000000E+00  0.00000000000E+00  0.74505805969E-08  0.10566000000E+00  0.10566000000E+00 0.  1.
     999900   -1    0    0    0    0 -0.00000000000E+00 -0.00000000000E+00 -0.74505805969E-08  0.93827000000E+00  0.93827000000E+00 0.  1.
     999902    2    1    2    0    0 -0.11312391324E-01  0.61445057413E-02  0.19345472997E-01  0.10206926922E+01  0.10204281452E+01 0.  0.
     999903    2    3    3    0    0 -0.12128379092E+00  0.35053873009E-02  0.51457676732E-01  0.13326276973E+00  0.19723783120E-01 0.  0.
         14    1    1    2    0    0  0.11312391324E-01 -0.61445057413E-02 -0.19345472997E-01  0.23237307799E-01  0.00000000000E+00 0. -1.
     999901    1    3    3    0    0  0.10997139959E+00  0.26391184404E-02 -0.32112203735E-01  0.88742992247E+00  0.88000000000E+00 0.  1.
        -11    1    4    4    0    0 -0.18741782333E-01  0.67931878946E-02  0.45601481661E-02  0.20456243035E-01  0.51100000000E-03 0.  1.
         11    1    4    4    0    0 -0.10254200859E+00 -0.32878005937E-02  0.46897528566E-01  0.11280652669E+00  0.51100000000E-03 0. -1.
</event>
<event>
 8    1  0.1196210E+005  0.1043930E+01  0.7957747E-01            NaN
         13   -1    0    0    0    0  0.00000000000E+00  0.00000000000E+00  0.74505805969E-08  0.10566000000E+00  0.10566000000E+00 0.  1.
     999900   -1    0    0    0    0 -0.00000000000E+00 -0.00000000000E+00 -0.74505805969E-08  0.93827000000E+00  0.93827000000E+00 0. -1.
     999902    2    1    2    0    0  0.62491162975E-02  0.12022850436E-01 -0.19661057182E-01  0.10200520278E+01  0.10197725148E+01 0.  0.
     999903    2    3    3    0    0 -0.81944796918E-01  0.25319921311E-01 -0.98590903220E-01  0.13202899937E+00  0.18853177960E-01 0.  0.
         14    1    1    2    0    0 -0.62491162975E-02 -0.12022850436E-01  0.19661057182E-01  0.23877972205E-01  0.00000000000E+00 0.  1.
     999901    1    3    3    0    0  0.88193913216E-01 -0.13297070876E-01  0.78929846037E-01  0.88802302843E+00  0.88000000000E+00 0.  1.
        -11    1    4    4    0    0 -0.36330684515E-01  0.18397399390E-01 -0.55952313999E-01  0.69204808392E-01  0.51100000000E-03 0. -1.
         11    1    4    4    0    0 -0.45614112403E-01  0.69225219213E-02 -0.42638589220E-01  0.62824190976E-01  0.51100000000E-03 0.  1.
</event>
<event>
 8    1  0.1196210E+005  0.1043930E+01  0.7957747E-01            NaN
         13   -1    0    0    0    0  0.00000000000E+00  0.00000000000E+00  0.74505805969E-08  0.10566000000E+00  0.10566000000E+00 0.  1.
     999900   -1    0    0    0    0 -0.00000000000E+00 -0.00000000000E+00 -0.74505805969E-08  0.93827000000E+00  0.93827000000E+00 0.  1.
     999902    2    1    2    0    0 -0.14248455498E-01 -0.71441467903E-02 -0.16304426487E-01  0.10211288676E+01  0.10208742687E+01 0.  0.
     999903    2    3    3    0    0 -0.10800523406E+00  0.53860600519E-01 -0.52547773621E-01  0.13330822524E+00  0.21064651196E-01 0.  0.
         14    1    1    2    0    0  0.14248455498E-01  0.71441467903E-02  0.16304426487E-01  0.22801132439E-01  0.00000000000E+00 0.  1.
     999901    1    3    3    0    0  0.93756778567E-01 -0.61004747309E-01  0.36243347134E-01  0.88782064232E+00  0.88000000000E+00 0. -1.
        -11    1    4    4    0    0 -0.18390126065E-01  0.18276465032E-01 -0.83966715189E-02  0.27257863532E-01  0.51100000000E-03 0.  1.
         11    1    4    4    0    0 -0.89615108000E-01  0.35584135487E-01 -0.44151102102E-01  0.10605036171E+00  0.51100000000E-03 0. -1.
</event>
<event>
 8    1  0.1196210E+005  0.1043930E+01  0.7957747E-01            NaN
         13   -1    0    0    0    0  0.00000000000E+00  0.00000000000E+00  0.74505805969E-08  0.10566000000E+00  0.10566000000E+00 0. -1.
     999900   -1    0    0    0    0 -0.00000000000E+00 -0.00000000000E+00 -0.74505805969E-08  0.93827000000E+00  0.93827000000E+00 0.  1.
     999902    2    1    2    0    0  0.16783656835E-01  0.11833718591E-01 -0.12792352123E-01  0.10197355315E+01  0.10194484695E+01 0.  0.
     999903    2    3    3    0    0  0.36146126293E-01 -0.60421763094E-01 -0.10906138498E+00  0.13133050759E+00  0.19899362513E-01 0.  0.
         14    1    1    2    0    0 -0.16783656835E-01 -0.11833718591E-01  0.12792352123E-01  0.24194468485E-01  0.00000000000E+00 0. -1.
     999901    1    3    3    0    0 -0.19362469457E-01  0.72255481685E-01  0.96269032853E-01  0.88840502393E+00  0.88000000000E+00 0. -1.
        -11    1    4    4    0    0  0.93448965107E-02 -0.23163475878E-01 -0.55029091400E-01  0.60434557389E-01  0.51100000000E-03 0.  1.
         11    1    4    4    0    0  0.26801229782E-01 -0.37258287217E-01 -0.54032293575E-01  0.70895950196E-01  0.51100000000E-03 0. -1.
</event>
<event>
 8    1  0.1196210E+005  0.1043930E+01  0.7957747E-01            NaN
         13   -1    0    0    0    0  0.00000000000E+00  0.00000000000E+00  0.74505805969E-08  0.10566000000E+00  0.10566000000E+00 0.  1.
     999900   -1    0    0    0    0 -0.00000000000E+00 -0.00000000000E+00 -0.74505805969E-08  0.93827000000E+00  0.93827000000E+00 0.  1.
     999902    2    1    2    0    0  0.15235957709E-01 -0.13337829052E-01  0.13378389918E-01  0.10196604016E+01  0.10193715324E+01 0.  0.
     999903    2    3    3    0    0 -0.97581897926E-01 -0.80143951409E-01  0.21713844235E-01  0.12990739858E+00  0.21428052265E-01 0.  0.
         14    1    1    2    0    0 -0.15235957709E-01  0.13337829052E-01 -0.13378389918E-01  0.24269598429E-01  0.00000000000E+00 0. -1.
     999901    1    3    3    0    0  0.11281785563E+00  0.66806122357E-01 -0.83354543175E-02  0.88975300299E+00  0.88000000000E+00 0.  1.
        -11    1    4    4    0    0 -0.49055552406E-01 -0.30697828338E-01  0.21279336908E-02  0.57910215932E-01  0.51100000000E-03 0. -1.
         11    1    4    4    0    0 -0.48526345520E-01 -0.49446123070E-01  0.19585910544E-01  0.71997182647E-01  0.51100000000E-03 0.  1.
</event>
<event>
 8    1  0.1196210E+005  0.1043930E+01  0.7957747E-01            NaN
         13   -1    0    0    0    0  0.00000000000E+00  0.00000000000E+00  0.74505805969E-08  0.10566000000E+00  0.10566000000E+00 0.  1.
     999900   -1    0    0    0    0 -0.00000000000E+00 -0.00000000000E+00 -0.74505805969E-08  0.93827000000E+00  0.93827000000E+00 0. -1.
     999902    2    1    2    0    0 -0.23582886212E-02 -0.10130776544E-01  0.21477895077E-01  0.10200659237E+01  0.10197867398E+01 0.  0.
     999903    2    3    3    0    0  0.12684394662E-02  0.11762007711E+00  0.52301257352E-01  0.13029993573E+00  0.20163339324E-01 0.  0.
         14    1    1    2    0    0  0.23582886212E-02  0.10130776544E-01 -0.21477895077E-01  0.23864076255E-01  0.00000000000E+00 0. -1.
     999901    1    3    3    0    0 -0.36267280874E-02 -0.12775085365E+00 -0.30823362275E-01  0.88976598801E+00  0.88000000000E+00 0.  1.
        -11    1    4    4    0    0 -0.81452084894E-02  0.36720546467E-01  0.12427352298E-01  0.39616198206E-01  0.51100000000E-03 0.  1.
         11    1    4    4    0    0  0.94136479557E-02  0.80899530643E-01  0.39873905054E-01  0.90683737524E-01  0.51100000000E-03 0. -1.
</event>
<event>
 8    1  0.1196210E+005  0.1043930E+01  0.7957747E-01            NaN
         13   -1    0    0    0    0  0.00000000000E+00  0.00000000000E+00  0.74505805969E-08  0.10566000000E+00  0.10566000000E+00 0.  1.
     999900   -1    0    0    0    0 -0.00000000000E+00 -0.00000000000E+00 -0.74505805969E-08  0.93827000000E+00  0.93827000000E+00 0.  1.
     999902    2    1    2    0    0  0.96111416363E-02  0.18882910526E-01  0.90154527808E-02  0.10209035643E+01  0.10206438511E+01 0.  0.
     999903    2    3    3    0    0 -0.65509337513E-01  0.83110233002E-01  0.77332991373E-01  0.13273943450E+00  0.20990040133E-01 0.  0.
         14    1    1    2    0    0 -0.96111416363E-02 -0.18882910526E-01 -0.90154527808E-02  0.23026435728E-01  0.00000000000E+00 0. -1.
     999901    1    3    3    0    0  0.75120479150E-01 -0.64227322477E-01 -0.68317538592E-01  0.88816412978E+00  0.88000000000E+00 0.  1.
        -11    1    4    4    0    0 -0.14741229499E-01  0.71889633198E-02  0.93807481122E-02  0.18900915240E-01  0.51100000000E-03 0. -1.
         11    1    4    4    0    0 -0.50768108015E-01  0.75921269683E-01  0.67952243260E-01  0.11383851926E+00  0.51100000000E-03 0.  1.
</event>
<event>
 8    1  0.1196210E+005  0.1043930E+01  0.7957747E-01            NaN
         13   -1    0    0    0    0  0.00000000000E+00  0.00000000000E+00  0.74505805969E-08  0.10566000000E+00  0.10566000000E+00 0. -1.
     999900   -1    0    0    0    0 -0.00000000000E+00 -0.00000000000E+00 -0.74505805969E-08  0.93827000000E+00  0.93827000000E+00 0. -1.
     999902    2    1    2    0    0 -0.85720060899E-02  0.18909843452E-01  0.11604894017E-01  0.10201448148E+01  0.10198674954E+01 0.  0.
     999903    2    3    3    0    0 -0.68371879569E-01 -0.10709740095E+00  0.11909167929E-01  0.12915999842E+00  0.19897479884E-01 0.  0.
         14    1    1    2    0    0  0.85720060899E-02 -0.18909843452E-01 -0.11604894017E-01  0.23785185156E-01  0.00000000000E+00 0.  1.
     999901    1    3    3    0    0  0.59799873479E-01  0.12600724440E+00 -0.30427391205E-03  0.89098481642E+00  0.88000000000E+00 0. -1.
        -11    1    4    4    0    0 -0.50692719918E-01 -0.64208177620E-01  0.26481034598E-02  0.81851789833E-01  0.51100000000E-03 0. -1.
         11    1    4    4    0    0 -0.17679159650E-01 -0.42889223331E-01  0.92610644690E-02  0.47308208590E-01  0.51100000000E-03 0.  1.
</event>
<event>
 8    1  0.1196210E+005  0.1043930E+01  0.7957747E-01            NaN
         13   -1    0    0    0    0  0.00000000000E+00  0.00000000000E+00  0.74505805969E-08  0.10566000000E+00  0.10566000000E+00 0. -1.
     999900   -1    0    0    0    0 -0.00000000000E+00 -0.00000000000E+00 -0.74505805969E-08  0.93827000000E+00  0.93827000000E+00 0. -1.
     999902    2    1    2    0    0 -0.12194480394E-01 -0.89000584709E-03 -0.20198044122E-01  0.10203194420E+01  0.10200462270E+01 0.  0.
     999903    2    3    3    0    0 -0.10529096299E+00 -0.34242463245E-01  0.66315151210E-01  0.13056449009E+00  0.19764959338E-01 0.  0.
         14    1    1    2    0    0  0.12194480394E-01  0.89000584709E-03  0.20198044122E-01  0.23610557995E-01  0.00000000000E+00 0. -1.
     999901    1    3    3    0    0  0.93096482592E-01  0.33352457398E-01 -0.86513195331E-01  0.88975495191E+00  0.88000000000E+00 0. -1.
        -11    1    4    4    0    0 -0.85791925270E-01 -0.31002903121E-01  0.62079698374E-01  0.11034303111E+00  0.51100000000E-03 0. -1.
         11    1    4    4    0    0 -0.19499037716E-01 -0.32395601240E-02  0.42354528356E-02  0.20221458982E-01  0.51100000000E-03 0.  1.
</event>
<event>
 8    1  0.1196210E+005  0.1043930E+01  0.7957747E-01            NaN
         13   -1    0    0    0    0  0.00000000000E+00  0.00000000000E+00  0.74505805969E-08  0.10566000000E+00  0.10566000000E+00 0.  1.
     999900   -1    0    0    0    0 -0.00000000000E+00 -0.00000000000E+00 -0.74505805969E-08  0.93827000000E+00  0.93827000000E+00 0. -1.
     999902    2    1    2    0    0 -0.23191481523E-01  0.36709037065E-02 -0.98160237515E-03  0.10204292789E+01  0.10201586295E+01 0.  0.
     999903    2    3    3    0    0 -0.20961898647E-01  0.11989446923E+00 -0.45932680601E-01  0.13164725407E+00  0.20176803757E-01 0.  0.
         14    1    1    2    0    0  0.23191481523E-01 -0.36709037065E-02  0.98160237515E-03  0.23500721105E-01  0.00000000000E+00 0. -1.
     999901    1    3    3    0    0 -0.22295828757E-02 -0.11622356552E+00  0.44951078226E-01  0.88878202483E+00  0.88000000000E+00 0.  1.
        -11    1    4    4    0    0 -0.12952617855E-02  0.32505416156E-01 -0.41272555365E-02  0.32795962280E-01  0.51100000000E-03 0.  1.
         11    1    4    4    0    0 -0.19666636861E-01  0.87389053072E-01 -0.41805425065E-01  0.98851291788E-01  0.51100000000E-03 0. -1.
</event>
<event>
 8    1  0.1196210E+005  0.1043930E+01  0.7957747E-01            NaN
         13   -1    0    0    0    0  0.00000000000E+00  0.00000000000E+00  0.74505805969E-08  0.10566000000E+00  0.10566000000E+00 0.  1.
     999900   -1    0    0    0    0 -0.00000000000E+00 -0.00000000000E+00 -0.74505805969E-08  0.93827000000E+00  0.93827000000E+00 0.  1.
     999902    2    1    2    0    0 -0.14721246953E-01 -0.12855609869E-01  0.14120865764E-01  0.10198181633E+01  0.10195330822E+01 0.  0.
     999903    2    3    3    0    0 -0.81472119717E-01  0.56023346772E-01  0.84671674454E-01  0.13179935370E+00  0.20626572795E-01 0.  0.
         14    1    1    2    0    0  0.14721246953E-01  0.12855609869E-01 -0.14120865764E-01  0.24111836655E-01  0.00000000000E+00 0. -1.
     999901    1    3    3    0    0  0.66750872765E-01 -0.68878956641E-01 -0.70550808690E-01  0.88801880965E+00  0.88000000000E+00 0.  1.
        -11    1    4    4    0    0 -0.59579957426E-01  0.49595831808E-01  0.71432803955E-01  0.10541548492E+00  0.51100000000E-03 0. -1.
         11    1    4    4    0    0 -0.21892162291E-01  0.64275149639E-02  0.13238870499E-01  0.26383868774E-01  0.51100000000E-03 0.  1.
</event>
<event>
 8    1  0.1196210E+005  0.1043930E+01  0.7957747E-01            NaN
         13   -1    0    0    0    0  0.00000000000E+00  0.00000000000E+00  0.74505805969E-08  0.10566000000E+00  0.10566000000E+00 0.  1.
     999900   -1    0    0    0    0 -0.00000000000E+00 -0.00000000000E+00 -0.74505805969E-08  0.93827000000E+00  0.93827000000E+00 0. -1.
     999902    2    1    2    0    0  0.15958068449E-01 -0.12337477640E-02 -0.16102691178E-01  0.10212258430E+01  0.10209734295E+01 0.  0.
     999903    2    3    3    0    0 -0.12232831227E-01 -0.88588991429E-01 -0.96065562077E-01  0.13284544804E+00  0.20534587528E-01 0.  0.
         14    1    1    2    0    0 -0.15958068449E-01  0.12337477640E-02  0.16102691178E-01  0.22704157006E-01  0.00000000000E+00 0.  1.
     999901    1    3    3    0    0  0.28190899676E-01  0.87355243665E-01  0.79962870899E-01  0.88838039496E+00  0.88000000000E+00 0.  1.
        -11    1    4    4    0    0 -0.14101019108E-01 -0.30490537676E-01 -0.33587342418E-01  0.47506655527E-01  0.51100000000E-03 0. -1.
         11    1    4    4    0    0  0.18681878808E-02 -0.58098453752E-01 -0.62478219660E-01  0.85338792511E-01  0.51100000000E-03 0.  1.
</event>
<event>
 8    1  0.1196210E+005  0.1043930E+01  0.7957747E-01            NaN
         13   -1    0    0    0    0  0.00000000000E+00  0.00000000000E+00  0.74505805969E-08  0.10566000000E+00  0.10566000000E+00 0. -1.
     999900   -1    0    0    0    0 -0.00000000000E+00 -0.00000000000E+00 -0.74505805969E-08  0.93827000000E+00  0.93827000000E+00 0.  1.
     999902    2    1    2    0    0  0.27943101025E-03  0.46579945920E-02 -0.23078889806E-01  0.10203840842E+01  0.10201123807E+01 0.  0.
     999903    2    3    3    0    0 -0.60437439550E-01 -0.67120072170E-01 -0.94830095440E-01  0.13247256568E+00  0.19961098919E-01 0.  0.
         14    1    1    2    0    0 -0.27943101025E-03 -0.46579945920E-02  0.23078889806E-01  0.23545915781E-01  0.00000000000E+00 0. -1.
     999901    1    3    3    0    0  0.60716870560E-01  0.71778066761E-01  0.71751205634E-01  0.88791151854E+00  0.88000000000E+00 0. -1.
        -11    1    4    4    0    0 -0.40350093597E-01 -0.31322497359E-01 -0.58382253774E-01  0.77575624850E-01  0.51100000000E-03 0.  1.
         11    1    4    4    0    0 -0.20087345953E-01 -0.35797574810E-01 -0.36447841666E-01  0.54896940833E-01  0.51100000000E-03 0. -1.
</event>
<event>
 8    1  0.1196210E+005  0.1043930E+01  0.7957747E-01            NaN
         13   -1    0    0    0    0  0.00000000000E+00  0.00000000000E+00  0.74505805969E-08  0.10566000000E+00  0.10566000000E+00 0.  1.
     999900   -1    0    0    0    0 -0.00000000000E+00 -0.00000000000E+00 -0.74505805969E-08  0.93827000000E+00  0.93827000000E+00 0.  1.
     999902    2    1    2    0    0 -0.97869079388E-02  0.80421032071E-02 -0.18586509030E-01  0.10214373944E+01  0.10211897146E+01 0.  0.
     999903    2    3    3    0    0 -0.78924320000E-01  0.10367234508E+00  0.16694631608E-01  0.13285994483E+00  0.19901024984E-01 0.  0.
         14    1    1    2    0    0  0.97869079388E-02 -0.80421032071E-02  0.18586509030E-01  0.22492605650E-01  0.00000000000E+00 0.  1.
     999901    1    3    3    0    0  0.69137412061E-01 -0.95630241869E-01 -0.35281140638E-01  0.88857744952E+00  0.88000000000E+00 0. -1.
        -11    1    4    4    0    0 -0.60917125349E-01  0.90406762536E-01  0.98292253373E-02  0.10945845634E+00  0.51100000000E-03 0.  1.
         11    1    4    4    0    0 -0.18007194651E-01  0.13265582540E-01  0.68654062704E-02  0.23401488491E-01  0.51100000000E-03 0. -1.
</event>
<event>
 8    1  0.1196210E+005  0.1043930E+01  0.7957747E-01            NaN
         13   -1    0    0    0    0  0.00000000000E+00  0.00000000000E+00  0.74505805969E-08  0.10566000000E+00  0.10566000000E+00 0.  1.
     999900   -1    0    0    0    0 -0.00000000000E+00 -0.00000000000E+00 -0.74505805969E-08  0.93827000000E+00  0.93827000000E+00 0.  1.
     999902    2    1    2    0    0 -0.22572428829E-01  0.67722073639E-02 -0.40673547780E-02  0.10200151362E+01  0.10197347485E+01 0.  0.
     999903    2    3    3    0    0 -0.10192565676E+00  0.71516887643E-01  0.41927140055E-01  0.13288250690E+00  0.19909064342E-01 0.  0.
         14    1    1    2    0    0  0.22572428829E-01 -0.67722073639E-02  0.40673547780E-02  0.23914863803E-01  0.00000000000E+00 0. -1.
     999901    1    3    3    0    0  0.79353227931E-01 -0.64744680279E-01 -0.45994494833E-01  0.88713262930E+00  0.88000000000E+00 0.  1.
        -11    1    4    4    0    0 -0.48051683900E-01  0.23252328375E-01  0.22896937073E-01  0.58087571380E-01  0.51100000000E-03 0.  1.
         11    1    4    4    0    0 -0.53873972860E-01  0.48264559268E-01  0.19030202982E-01  0.74794935521E-01  0.51100000000E-03 0. -1.
</event>
<event>
 8    1  0.1196210E+005  0.1043930E+01  0.7957747E-01            NaN
         13   -1    0    0    0    0  0.00000000000E+00  0.00000000000E+00  0.74505805969E-08  0.10566000000E+00  0.10566000000E+00 0.  1.
     999900   -1    0    0    0    0 -0.00000000000E+00 -0.00000000000E+00 -0.74505805969E-08  0.93827000000E+00  0.93827000000E+00 0.  1.
     999902    2    1    2    0    0  0.73555795014E-02  0.30977238898E-02 -0.23352030038E-01  0.10192517150E+01  0.10189529139E+01 0.  0.
     999903    2    3    3    0    0  0.31283269064E-01 -0.16387472470E-01 -0.12623222153E+00  0.13272109455E+00  0.20811607584E-01 0.  0.
         14    1    1    2    0    0 -0.73555795014E-02 -0.30977238898E-02  0.23352030038E-01  0.24678284989E-01  0.00000000000E+00 0.  1.
     999901    1    3    3    0    0 -0.23927689563E-01  0.19485196359E-01  0.10288019149E+00  0.88653062046E+00  0.88000000000E+00 0. -1.
        -11    1    4    4    0    0  0.12093291995E-01 -0.38469656845E-02 -0.17653018219E-01  0.21747115429E-01  0.51100000000E-03 0. -1.
         11    1    4    4    0    0  0.19189977069E-01 -0.12540506785E-01 -0.10857920331E+00  0.11097397913E+00  0.51100000000E-03 0.  1.
</event>
<event>
 8    1  0.1196210E+005  0.1043930E+01  0.7957747E-01            NaN
         13   -1    0    0    0    0  0.00000000000E+00  0.00000000000E+00  0.74505805969E-08  0.10566000000E+00  0.10566000000E+00 0. -1.
     999900   -1    0    0    0    0 -0.00000000000E+00 -0.00000000000E+00 -0.74505805969E-08  0.93827000000E+00  0.93827000000E+00 0.  1.
     999902    2    1    2    0    0  0.17975346371E-01 -0.41871159629E-02  0.13693905258E-01  0.10209480928E+01  0.10206893945E+01 0.  0.
     999903    2    3    3    0    0 -0.88853606241E-01  0.89505749159E-01 -0.18786890618E-01  0.12895830576E+00  0.19262785113E-01 0.  0.
         14    1    1    2    0    0 -0.17975346371E-01  0.41871159629E-02 -0.13693905258E-01  0.22981907198E-01  0.00000000000E+00 0.  1.
     999901    1    3    3    0    0  0.10682895261E+00 -0.93692865122E-01  0.32480795876E-01  0.89198978704E+00  0.88000000000E+00 0.  1.
        -11    1    4    4    0    0 -0.65385351241E-01  0.71362445435E-01 -0.21558898602E-01  0.99160929833E-01  0.51100000000E-03 0. -1.
         11    1    4    4    0    0 -0.23468254999E-01  0.18143303724E-01  0.27720079837E-02  0.29797375925E-01  0.51100000000E-03 0.  1.
</event>
<event>
 8    1  0.1196210E+005  0.1043930E+01  0.7957747E-01            NaN
         13   -1    0    0    0    0  0.00000000000E+00  0.00000000000E+00  0.74505805969E-08  0.10566000000E+00  0.10566000000E+00 0.  1.
     999900   -1    0    0    0    0 -0.00000000000E+00 -0.00000000000E+00 -0.74505805969E-08  0.93827000000E+00  0.93827000000E+00 0.  1.
     999902    2    1    2    0    0  0.11823408838E-01 -0.17996057587E-01 -0.66835941956E-02  0.10213840133E+01  0.10211351434E+01 0.  0.
     999903    2    3    3    0    0  0.35356149149E-01 -0.11211639933E+00  0.60251477854E-01  0.13352550403E+00  0.19459582778E-01 0.  0.
         14    1    1    2    0    0 -0.11823408838E-01  0.17996057587E-01  0.66835941956E-02  0.22545986707E-01  0.00000000000E+00 0.  1.
     999901    1    3    3    0    0 -0.23532740311E-01  0.94120341744E-01 -0.66935072050E-01  0.88785850926E+00  0.88000000000E+00 0.  1.
        -11    1    4    4    0    0  0.12612192863E-01 -0.68426284533E-01  0.30433675414E-01  0.75945332602E-01  0.51100000000E-03 0.  1.
         11    1    4    4    0    0  0.22743956286E-01 -0.43690114797E-01  0.29817802440E-01  0.57580171430E-01  0.51100000000E-03 0. -1.
</event>
<event>
 8    1  0.1196210E+005  0.1043930E+01  0.7957747E-01            NaN
         13   -1    0    0    0    0  0.00000000000E+00  0.00000000000E+00  0.74505805969E-08  0.10566000000E+00  0.10566000000E+00 0.  1.
     999900   -1    0    0    0    0 -0.00000000000E+00 -0.00000000000E+00 -0.74505805969E-08  0.93827000000E+00  0.93827000000E+00 0.  1.
     999902    2    1    2    0    0  0.69689163843E-02 -0.18548853137E-02  0.22384457430E-01  0.10204125527E+01  0.10201415134E+01 0.  0.
     999903    2    3    3    0    0  0.82684078050E-01  0.19497564560E-02  0.10250716565E+00  0.13352647802E+00  0.21934972326E-01 0.  0.
         14    1    1    2    0    0 -0.69689163843E-02  0.18548853137E-02 -0.22384457430E-01  0.23517447343E-01  0.00000000000E+00 0. -1.
     999901    1    3    3    0    0 -0.75715161665E-01 -0.38046417697E-02 -0.80122708220E-01  0.88688607463E+00  0.88000000000E+00 0.  1.
        -11    1    4    4    0    0  0.27388756664E-01  0.10998871283E-01  0.36522662295E-01  0.46960463618E-01  0.51100000000E-03 0. -1.
         11    1    4    4    0    0  0.55295321386E-01 -0.90491148266E-02  0.65984503354E-01  0.86566014406E-01  0.51100000000E-03 0.  1.
</event>
<event>
 8    1  0.1196210E+005  0.1043930E+01  0.7957747E-01            NaN
         13   -1    0    0    0    0  0.00000000000E+00  0.00000000000E+00  0.74505805969E-08  0.10566000000E+00  0.10566000000E+00 0. -1.
     999900   -1    0    0    0    0 -0.00000000000E+00 -0.00000000000E+00 -0.74505805969E-08  0.93827000000E+00  0.93827000000E+00 0.  1.
     999902    2    1    2    0    0  0.39955591415E-02  0.36442814729E-01  0.43142781968E-02  0.10070158261E+01  0.10063390173E+01 0.  0.
     999903    2    3    3    0    0  0.99322028139E-02  0.97894716378E-01 -0.68908714907E-01  0.12181913232E+00  0.20235262855E-01 0.  0.
         14    1    1    2    0    0 -0.39955591415E-02 -0.36442814729E-01 -0.43142781968E-02  0.36914173898E-01  0.00000000000E+00 0. -1.
     999901    1    3    3    0    0 -0.59366436725E-02 -0.61451901648E-01  0.73222993104E-01  0.88519669378E+00  0.88000000000E+00 0. -1.
        -11    1    4    4    0    0  0.21519092748E-03  0.12531029078E-01 -0.18042436657E-01  0.21974158423E-01  0.51100000000E-03 0. -1.
         11    1    4    4    0    0  0.97170118865E-02  0.85363687300E-01 -0.50866278251E-01  0.99844973902E-01  0.51100000000E-03 0.  1.
</event>
<event>
 8    1  0.1196210E+005  0.1043930E+01  0.7957747E-01            NaN
         13   -1    0    0    0    0  0.00000000000E+00  0.00000000000E+00  0.74505805969E-08  0.10566000000E+00  0.10566000000E+00 0. -1.
     999900   -1    0    0    0    0 -0.00000000000E+00 -0.00000000000E+00 -0.74505805969E-08  0.93827000000E+00  0.93827000000E+00 0. -1.
     999902    2    1    2    0    0  0.13399272306E-01 -0.21502273331E-01 -0.46343471999E-02  0.10181741185E+01  0.10178483041E+01 0.  0.
     999903    2    3    3    0    0  0.87074464557E-01  0.61989440161E-01 -0.69096432297E-01  0.12881802528E+00  0.19877464906E-01 0.  0.
         14    1    1    2    0    0 -0.13399272306E-01  0.21502273331E-01  0.46343471999E-02  0.25755881477E-01  0.00000000000E+00 0. -1.
     999901    1    3    3    0    0 -0.73675192252E-01 -0.83491713492E-01  0.64462085097E-01  0.88935609324E+00  0.88000000000E+00 0.  1.
        -11    1    4    4    0    0  0.29526180454E-01  0.26402761663E-01 -0.15651936491E-01  0.42592785686E-01  0.51100000000E-03 0.  1.
         11    1    4    4    0    0  0.57548284104E-01  0.35586678499E-01 -0.53444495805E-01  0.86225239592E-01  0.51100000000E-03 0. -1.
</event>
<event>
 8    1  0.1196210E+005  0.1043930E+01  0.7957747E-01            NaN
         13   -1    0    0    0    0  0.00000000000E+00  0.00000000000E+00  0.74505805969E-08  0.10566000000E+00  0.10566000000E+00 0.  1.
     999900   -1    0    0    0    0 -0.00000000000E+00 -0.00000000000E+00 -0.74505805969E-08  0.93827000000E+00  0.93827000000E+00 0.  1.
     999902    2    1    2    0    0 -0.15992588341E-01 -0.14074130293E-01  0.32341805162E-02  0.10223822867E+01  0.10221551918E+01 0.  0.
     999903    2    3    3    0    0  0.96285653948E-02 -0.12862636815E+00 -0.30471390274E-01  0.13394842634E+00  0.19396480071E-01 0.  0.
         14    1    1    2    0    0  0.15992588341E-01  0.14074130293E-01 -0.32341805162E-02  0.21547713311E-01  0.00000000000E+00 0. -1.
     999901    1    3    3    0    0 -0.25621153736E-01  0.11455223785E+00  0.33705570790E-01  0.88843386035E+00  0.88000000000E+00 0. -1.
        -11    1    4    4    0    0  0.13024950856E-01 -0.89105324508E-01 -0.14639270002E-01  0.91235834778E-01  0.51100000000E-03 0.  1.
         11    1    4    4    0    0 -0.33963854616E-02 -0.39521043638E-01 -0.15832120271E-01  0.42712591560E-01  0.51100000000E-03 0. -1.
</event>
<event>
 8    1  0.1196210E+005  0.1043930E+01  0.7957747E-01            NaN
         13   -1    0    0    0    0  0.00000000000E+00  0.00000000000E+00  0.74505805969E-08  0.10566000000E+00  0.10566000000E+00 0.  1.
     999900   -1    0    0    0    0 -0.00000000000E+00 -0.00000000000E+00 -0.74505805969E-08  0.93827000000E+00  0.93827000000E+00 0. -1.
     999902    2    1    2    0    0 -0.23310986140E-01  0.27835846682E-02  0.13144307489E-02  0.10204166390E+01  0.10201456950E+01 0.  0.
     999903    2    3    3    0    0  0.64650551271E-01  0.11040572352E+00  0.15146293558E-02  0.12950710546E+00  0.20016960192E-01 0.  0.
         14    1    1    2    0    0  0.23310986140E-01 -0.27835846682E-02 -0.13144307489E-02  0.23513361024E-01  0.00000000000E+00 0.  1.
     999901    1    3    3    0    0 -0.87961537411E-01 -0.10762213886E+00 -0.20019860697E-03  0.89090953352E+00  0.88000000000E+00 0.  1.
        -11    1    4    4    0    0  0.36870064908E-01  0.43722013562E-01  0.26651294354E-02  0.57257140971E-01  0.51100000000E-03 0. -1.
         11    1    4    4    0    0  0.27780486363E-01  0.66683709962E-01 -0.11505000796E-02  0.72249964486E-01  0.51100000000E-03 0.  1.
</event>
<event>
 8    1  0.1196210E+005  0.1043930E+01  0.7957747E-01            NaN
         13   -1    0    0    0    0  0.00000000000E+00  0.00000000000E+00  0.74505805969E-08  0.10566000000E+00  0.10566000000E+00 0. -1.
     999900   -1    0    0    0    0 -0.00000000000E+00 -0.00000000000E+00 -0.74505805969E-08  0.93827000000E+00  0.93827000000E+00 0.  1.
     999902    2    1    2    0    0 -0.30245303519E-02 -0.22383219236E-01  0.90027263896E-02  0.10196152849E+01  0.10193253278E+01 0.  0.
     999903    2    3    3    0    0  0.29897679478E-01  0.11915354336E+00  0.27929240153E-01  0.12749716494E+00  0.19597103812E-01 0.  0.
         14    1    1    2    0    0  0.30245303519E-02  0.22383219236E-01 -0.90027263896E-02  0.24314715085E-01  0.00000000000E+00 0.  1.
     999901    1    3    3    0    0 -0.32922209830E-01 -0.14153676260E+00 -0.18926513763E-01  0.89211811998E+00  0.88000000000E+00 0.  1.
        -11    1    4    4    0    0  0.56400377112E-03  0.25233572687E-01  0.11493745646E-01  0.27738395785E-01  0.51100000000E-03 0. -1.
         11    1    4    4    0    0  0.29333675707E-01  0.93919970676E-01  0.16435494507E-01  0.99758769153E-01  0.51100000000E-03 0.  1.
</event>
<event>
 8    1  0.1196210E+005  0.1043930E+01  0.7957747E-01            NaN
         13   -1    0    0    0    0  0.00000000000E+00  0.00000000000E+00  0.74505805969E-08  0.10566000000E+00  0.10566000000E+00 0. -1.
     999900   -1    0    0    0    0 -0.00000000000E+00 -0.00000000000E+00 -0.74505805969E-08  0.93827000000E+00  0.93827000000E+00 0. -1.
     999902    2    1    2    0    0  0.40453029113E-02  0.22835956425E-01 -0.87240831061E-02  0.10191518845E+01  0.10188506312E+01 0.  0.
     999903    2    3    3    0    0  0.28179194823E-01 -0.91609197091E-01  0.80757499315E-01  0.12691475711E+00  0.19981738291E-01 0.  0.
         14    1    1    2    0    0 -0.40453029113E-02 -0.22835956425E-01  0.87240831061E-02  0.24778115496E-01  0.00000000000E+00 0. -1.
     999901    1    3    3    0    0 -0.24133891911E-01  0.11444515352E+00 -0.89481582421E-01  0.89223712739E+00  0.88000000000E+00 0. -1.
        -11    1    4    4    0    0  0.30304821589E-01 -0.77814241638E-01  0.64750548642E-01  0.10567087150E+00  0.51100000000E-03 0. -1.
         11    1    4    4    0    0 -0.21256267667E-02 -0.13794955453E-01  0.16006950673E-01  0.21243885613E-01  0.51100000000E-03 0.  1.
</event>
<event>
 8    1  0.1196210E+005  0.1043930E+01  0.7957747E-01            NaN
         13   -1    0    0    0    0  0.00000000000E+00  0.00000000000E+00  0.74505805969E-08  0.10566000000E+00  0.10566000000E+00 0.  1.
     999900   -1    0    0    0    0 -0.00000000000E+00 -0.00000000000E+00 -0.74505805969E-08  0.93827000000E+00  0.93827000000E+00 0. -1.
     999902    2    1    2    0    0  0.19831939681E-01 -0.14362030480E-01  0.22261843118E-02  0.10193428154E+01  0.10190462431E+01 0.  0.
     999903    2    3    3    0    0 -0.38012576434E-01  0.64895691386E-01 -0.10135540870E+00  0.12785141277E+00  0.20412205813E-01 0.  0.
         14    1    1    2    0    0 -0.19831939681E-01  0.14362030480E-01 -0.22261843118E-02  0.24587184621E-01  0.00000000000E+00 0. -1.
     999901    1    3    3    0    0  0.57844516115E-01 -0.79257721866E-01  0.10358159301E+00  0.89149140261E+00  0.88000000000E+00 0. -1.
        -11    1    4    4    0    0 -0.27110094126E-01  0.44193762827E-01 -0.84008523834E-01  0.98720509896E-01  0.51100000000E-03 0. -1.
         11    1    4    4    0    0 -0.10902482307E-01  0.20701928559E-01 -0.17346884866E-01  0.29130902871E-01  0.51100000000E-03 0.  1.
</event>
<event>
 8    1  0.1196210E+005  0.1043930E+01  0.7957747E-01            NaN
         13   -1    0    0    0    0  0.00000000000E+00  0.00000000000E+00  0.74505805969E-08  0.10566000000E+00  0.10566000000E+00 0. -1.
     999900   -1    0    0    0    0 -0.00000000000E+00 -0.00000000000E+00 -0.74505805969E-08  0.93827000000E+00  0.93827000000E+00 0.  1.
     999902    2    1    2    0    0 -0.12083908791E-01 -0.75700222492E-02  0.17917170383E-01  0.10210312864E+01  0.10207744789E+01 0.  0.
     999903    2    3    3    0    0  0.50733583713E-01 -0.70013519133E-01  0.99686790092E-01  0.13281312721E+00  0.15035998884E-01 0.  0.
         14    1    1    2    0    0  0.12083908791E-01  0.75700222492E-02 -0.17917170383E-01  0.22898713568E-01  0.00000000000E+00 0.  1.
     999901    1    3    3    0    0 -0.62817492504E-01  0.62443496883E-01 -0.81769619709E-01  0.88821815922E+00  0.88000000000E+00 0.  1.
        -11    1    4    4    0    0  0.27862273311E-01 -0.26394072903E-01  0.47168224014E-01  0.60811642274E-01  0.51100000000E-03 0.  1.
         11    1    4    4    0    0  0.22871310402E-01 -0.43619446230E-01  0.52518566078E-01  0.72001484935E-01  0.51100000000E-03 0. -1.
</event>
<event>
 8    1  0.1196210E+005  0.1043930E+01  0.7957747E-01            NaN
         13   -1    0    0    0    0  0.00000000000E+00  0.00000000000E+00  0.74505805969E-08  0.10566000000E+00  0.10566000000E+00 0.  1.
     999900   -1    0    0    0    0 -0.00000000000E+00 -0.00000000000E+00 -0.74505805969E-08  0.93827000000E+00  0.93827000000E+00 0.  1.
     999902    2    1    2    0    0  0.86054341550E-02 -0.20280825226E-01 -0.91603847236E-02  0.10200704523E+01  0.10197913755E+01 0.  0.
     999903    2    3    3    0    0  0.64004739538E-01 -0.45082703513E-01  0.10054775638E+00  0.13118345585E+00  0.31147888162E-01 0.  0.
         14    1    1    2    0    0 -0.86054341550E-02  0.20280825226E-01  0.91603847236E-02  0.23859547714E-01  0.00000000000E+00 0. -1.
     999901    1    3    3    0    0 -0.55399305383E-01  0.24801878287E-01 -0.10970814110E+00  0.88888699643E+00  0.88000000000E+00 0. -1.
        -11    1    4    4    0    0  0.29691659857E-01 -0.34705852260E-01  0.72391694002E-01  0.85597367528E-01  0.51100000000E-03 0.  1.
         11    1    4    4    0    0  0.34313079681E-01 -0.10376851253E-01  0.28156062378E-01  0.45586088325E-01  0.51100000000E-03 0. -1.
</event>
<event>
 8    1  0.1196210E+005  0.1043930E+01  0.7957747E-01            NaN
         13   -1    0    0    0    0  0.00000000000E+00  0.00000000000E+00  0.74505805969E-08  0.10566000000E+00  0.10566000000E+00 0.  1.
     999900   -1    0    0    0    0 -0.00000000000E+00 -0.00000000000E+00 -0.74505805969E-08  0.93827000000E+00  0.93827000000E+00 0.  1.
     999902    2    1    2    0    0 -0.14223316163E-01  0.18275667226E-01  0.39403769359E-02  0.10204389526E+01  0.10201685286E+01 0.  0.
     999903    2    3    3    0    0  0.30152581037E-01 -0.83388812734E-01 -0.90367355659E-01  0.12847548077E+00  0.21836161709E-01 0.  0.
         14    1    1    2    0    0  0.14223316163E-01 -0.18275667226E-01 -0.39403769359E-02  0.23491047350E-01  0.00000000000E+00 0.  1.
     999901    1    3    3    0    0 -0.44375897200E-01  0.10166447996E+00  0.94307732595E-01  0.89196347188E+00  0.88000000000E+00 0. -1.
        -11    1    4    4    0    0  0.26799150907E-01 -0.62406539831E-01 -0.79634492359E-01  0.10466462725E+00  0.51100000000E-03 0.  1.
         11    1    4    4    0    0  0.33534301297E-02 -0.20982272903E-01 -0.10732863300E-01  0.23810853521E-01  0.51100000000E-03 0. -1.
</event>
<event>
 8    1  0.1196210E+005  0.1043930E+01  0.7957747E-01            NaN
         13   -1    0    0    0    0  0.00000000000E+00  0.00000000000E+00  0.74505805969E-08  0.10566000000E+00  0.10566000000E+00 0. -1.
     999900   -1    0    0    0    0 -0.00000000000E+00 -0.00000000000E+00 -0.74505805969E-08  0.93827000000E+00  0.93827000000E+00 0. -1.
     999902    2    1    2    0    0 -0.53765094230E-02 -0.21791976705E-01  0.62834111199E-02  0.10206216676E+01  0.10203554822E+01 0.  0.
     999903    2    3    3    0    0 -0.80502004622E-02  0.12156330381E+00  0.36817112550E-01  0.12849488741E+00  0.17691629451E-01 0.  0.
         14    1    1    2    0    0  0.53765094230E-02  0.21791976705E-01 -0.62834111199E-02  0.23308332364E-01  0.00000000000E+00 0.  1.
     999901    1    3    3    0    0  0.26736910392E-02 -0.14335528052E+00 -0.30533701430E-01  0.89212678023E+00  0.88000000000E+00 0. -1.
        -11    1    4    4    0    0 -0.46556940826E-02  0.73322794558E-01  0.13103796962E-01  0.74631617328E-01  0.51100000000E-03 0.  1.
         11    1    4    4    0    0 -0.33945063797E-02  0.48240509253E-01  0.23713315588E-01  0.53863270080E-01  0.51100000000E-03 0. -1.
</event>
<event>
 8    1  0.1196210E+005  0.1043930E+01  0.7957747E-01            NaN
         13   -1    0    0    0    0  0.00000000000E+00  0.00000000000E+00  0.74505805969E-08  0.10566000000E+00  0.10566000000E+00 0. -1.
     999900   -1    0    0    0    0 -0.00000000000E+00 -0.00000000000E+00 -0.74505805969E-08  0.93827000000E+00  0.93827000000E+00 0.  1.
     999902    2    1    2    0    0  0.26302983081E-01 -0.96367698732E-02  0.12237389405E-02  0.10158905316E+01  0.10155035009E+01 0.  0.
     999903    2    3    3    0    0 -0.29046876406E-01 -0.10191480584E+00  0.66937726399E-01  0.12690393380E+00  0.19839367947E-01 0.  0.
         14    1    1    2    0    0 -0.26302983081E-01  0.96367698732E-02 -0.12237389405E-02  0.28039468425E-01  0.00000000000E+00 0.  1.
     999901    1    3    3    0    0  0.55349859488E-01  0.92278035970E-01 -0.65713987459E-01  0.88898659777E+00  0.88000000000E+00 0.  1.
        -11    1    4    4    0    0 -0.10831133010E-01 -0.51573949783E-01  0.44019977072E-01  0.68667352075E-01  0.51100000000E-03 0.  1.
         11    1    4    4    0    0 -0.18215743397E-01 -0.50340856061E-01  0.22917749327E-01  0.58236581730E-01  0.51100000000E-03 0. -1.
</event>
<event>
 8    1  0.1196210E+005  0.1043930E+01  0.7957747E-01            NaN
         13   -1    0    0    0    0  0.00000000000E+00  0.00000000000E+00  0.74505805969E-08  0.10566000000E+00  0.10566000000E+00 0.  1.
     999900   -1    0    0    0    0 -0.00000000000E+00 -0.00000000000E+00 -0.74505805969E-08  0.93827000000E+00  0.93827000000E+00 0.  1.
     999902    2    1    2    0    0 -0.33941113312E-02  0.23173874853E-01  0.32510380650E-03  0.10205066322E+01  0.10202377822E+01 0.  0.
     999903    2    3    3    0    0 -0.86412550376E-01 -0.81924553268E-01 -0.45325706151E-01  0.12920323980E+00  0.21454515774E-01 0.  0.
         14    1    1    2    0    0  0.33941113312E-02 -0.23173874853E-01 -0.32510380650E-03  0.23423367818E-01  0.00000000000E+00 0. -1.
     999901    1    3    3    0    0  0.83018439045E-01  0.10509842812E+00  0.45650809957E-01  0.89130339238E+00  0.88000000000E+00 0. -1.
        -11    1    4    4    0    0 -0.48192897394E-01 -0.34762501535E-01 -0.14730269284E-01  0.61222780289E-01  0.51100000000E-03 0. -1.
         11    1    4    4    0    0 -0.38219652982E-01 -0.47162051733E-01 -0.30595436866E-01  0.67980459515E-01  0.51100000000E-03 0.  1.
</event>
<event>
 8    1  0.1196210E+005  0.1043930E+01  0.7957747E-01            NaN
         13   -1    0    0    0    0  0.00000000000E+00  0.00000000000E+00  0.74505805969E-08  0.10566000000E+00  0.10566000000E+00 0. -1.
     999900   -1    0    0    0    0 -0.00000000000E+00 -0.00000000000E+00 -0.74505805969E-08  0.93827000000E+00  0.93827000000E+00 0. -1.
     999902    2    1    2    0    0 -0.10224836132E-01 -0.68677366403E-02  0.20466210889E-01  0.10200432072E+01  0.10197634852E+01 0.  0.
     999903    2    3    3    0    0  0.31582036022E-01  0.11539710767E+00 -0.42498630578E-01  0.12838123206E+00  0.19018140954E-01 0.  0.
         14    1    1    2    0    0  0.10224836132E-01  0.68677366403E-02 -0.20466210889E-01  0.23886792766E-01  0.00000000000E+00 0.  1.
     999901    1    3    3    0    0 -0.41806872154E-01 -0.12226484431E+00  0.62964841467E-01  0.89166197518E+00  0.88000000000E+00 0.  1.
        -11    1    4    4    0    0  0.16782077157E-01  0.91052611467E-01 -0.30765704790E-01  0.97565392844E-01  0.51100000000E-03 0.  1.
         11    1    4    4    0    0  0.14799958865E-01  0.24344496205E-01 -0.11732925788E-01  0.30815839214E-01  0.51100000000E-03 0. -1.
</event>
<event>
 8    1  0.1196210E+005  0.1043930E+01  0.7957747E-01            NaN
         13   -1    0    0    0    0  0.00000000000E+00  0.00000000000E+00  0.74505805969E-08  0.10566000000E+00  0.10566000000E+00 0. -1.
     999900   -1    0    0    0    0 -0.00000000000E+00 -0.00000000000E+00 -0.74505805969E-08  0.93827000000E+00  0.93827000000E+00 0. -1.
     999902    2    1    2    0    0 -0.16074158999E-01  0.96120918995E-02 -0.14546242115E-01  0.10202157836E+01  0.10199401360E+01 0.  0.
     999903    2    3    3    0    0  0.94974741901E-01 -0.83934747877E-01 -0.94808188692E-03  0.12821366503E+00  0.19302889471E-01 0.  0.
         14    1    1    2    0    0  0.16074158999E-01 -0.96120918995E-02  0.14546242115E-01  0.23714216366E-01  0.00000000000E+00 0. -1.
     999901    1    3    3    0    0 -0.11104890090E+00  0.93546839777E-01 -0.13598160228E-01  0.89200211860E+00  0.88000000000E+00 0.  1.
        -11    1    4    4    0    0  0.82485420482E-01 -0.78526963193E-01 -0.50184593630E-02  0.11399901138E+00  0.51100000000E-03 0. -1.
         11    1    4    4    0    0  0.12489321419E-01 -0.54077846847E-02  0.40703774761E-02  0.14214653654E-01  0.51100000000E-03 0.  1.
</event>
<event>
 8    1  0.1196210E+005  0.1043930E+01  0.7957747E-01            NaN
         13   -1    0    0    0    0  0.00000000000E+00  0.00000000000E+00  0.74505805969E-08  0.10566000000E+00  0.10566000000E+00 0. -1.
     999900   -1    0    0    0    0 -0.00000000000E+00 -0.00000000000E+00 -0.74505805969E-08  0.93827000000E+00  0.93827000000E+00 0. -1.
     999902    2    1    2    0    0 -0.23737977243E-01 -0.13604805745E-03 -0.30163069711E-02  0.10200007672E+01  0.10197200385E+01 0.  0.
     999903    2    3    3    0    0 -0.58446791783E-01 -0.49834006149E-02 -0.11613708618E+00  0.13206805058E+00  0.22655803805E-01 0.  0.
         14    1    1    2    0    0  0.23737977243E-01  0.13604805745E-03  0.30163069711E-02  0.23929232759E-01  0.00000000000E+00 0.  1.
     999901    1    3    3    0    0  0.34708814539E-01  0.48473525575E-02  0.11312077921E+00  0.88793271666E+00  0.88000000000E+00 0.  1.
        -11    1    4    4    0    0 -0.34301794130E-01  0.63047073899E-02 -0.78959864396E-01  0.86320818591E-01  0.51100000000E-03 0.  1.
         11    1    4    4    0    0 -0.24144997653E-01 -0.11288108005E-01 -0.37177221781E-01  0.45747231986E-01  0.51100000000E-03 0. -1.
</event>
<event>
 8    1  0.1196210E+005  0.1043930E+01  0.7957747E-01            NaN
         13   -1    0    0    0    0  0.00000000000E+00  0.00000000000E+00  0.74505805969E-08  0.10566000000E+00  0.10566000000E+00 0. -1.
     999900   -1    0    0    0    0 -0.00000000000E+00 -0.00000000000E+00 -0.74505805969E-08  0.93827000000E+00  0.93827000000E+00 0.  1.
     999902    2    1    2    0    0  0.72914400300E-02 -0.13488613357E-01 -0.18938591057E-01  0.10195624392E+01  0.10192712050E+01 0.  0.
     999903    2    3    3    0    0 -0.73636094326E-01 -0.16118277962E-01 -0.10574272889E+00  0.13159220361E+00  0.21281683831E-01 0.  0.
         14    1    1    2    0    0 -0.72914400300E-02  0.13488613357E-01  0.18938591057E-01  0.24367560798E-01  0.00000000000E+00 0.  1.
     999901    1    3    3    0    0  0.80927534356E-01  0.26296646051E-02  0.86804137829E-01  0.88797023559E+00  0.88000000000E+00 0. -1.
        -11    1    4    4    0    0 -0.51567319546E-01 -0.47505531905E-02 -0.57840652641E-01  0.77637351962E-01  0.51100000000E-03 0. -1.
         11    1    4    4    0    0 -0.22068774780E-01 -0.11367724771E-01 -0.47902076245E-01  0.53954851648E-01  0.51100000000E-03 0.  1.
</event>
<event>
 8    1  0.1196210E+005  0.1043930E+01  0.7957747E-01            NaN
         13   -1    0    0    0    0  0.00000000000E+00  0.00000000000E+00  0.74505805969E-08  0.10566000000E+00  0.10566000000E+00 0.  1.
     999900   -1    0    0    0    0 -0.00000000000E+00 -0.00000000000E+00 -0.74505805969E-08  0.93827000000E+00  0.93827000000E+00 0.  1.
     999902    2    1    2    0    0 -0.59983090485E-02  0.62392565305E-02 -0.22166649020E-01  0.10201336061E+01  0.10198560222E+01 0.  0.
     999903    2    3    3    0    0 -0.10311410671E+00 -0.64764943907E-01  0.40763845327E-01  0.12972172290E+00  0.18412423659E-01 0.  0.
         14    1    1    2    0    0  0.59983090485E-02 -0.62392565305E-02  0.22166649020E-01  0.23796393892E-01  0.00000000000E+00 0.  1.
     999901    1    3    3    0    0  0.97115797661E-01  0.71004200438E-01 -0.62930494347E-01  0.89041188321E+00  0.88000000000E+00 0.  1.
        -11    1    4    4    0    0 -0.24113445316E-01 -0.64931277226E-02  0.78089211495E-02  0.26169817026E-01  0.51100000000E-03 0. -1.
         11    1    4    4    0    0 -0.79000661393E-01 -0.58271816185E-01  0.32954924178E-01  0.10355190588E+00  0.51100000000E-03 0.  1.
</event>
<event>
 7    1  0.1196210E+005  0.1043930E+01  0.7957747E-01            NaN
         13   -1    0    0    0    0  0.00000000000E+00  0.00000000000E+00  0.74505805969E-08  0.10566000000E+00  0.10566000000E+00 0. -1.
     999900   -1    0    0    0    0 -0.00000000000E+00 -0.00000000000E+00 -0.74505805969E-08  0.93827000000E+00  0.93827000000E+00 0. -1.
     999903    2    1    2    0    0 -0.11479621465E-02  0.10033137039E+00 -0.52070139977E-01  0.11504853635E+00  0.21381406310E-01 0.  0.
         14    1    1    2    0    0 -0.15512002849E-01 -0.34366903524E-01  0.26129248425E-01  0.45874218396E-01  0.00000000000E+00 0. -1.
     999901    1    1    2    0    0  0.16659964996E-01 -0.65964466871E-01  0.25940891552E-01  0.88300724526E+00  0.88000000000E+00 0.  1.
        -11    1    3    3    0    0  0.24178492121E-02  0.84220600548E-01 -0.51034415968E-01  0.98507503703E-01  0.51100000000E-03 0. -1.
         11    1    3    3    0    0 -0.35658113586E-02  0.16110769846E-01 -0.10357240087E-02  0.16541032643E-01  0.51100000000E-03 0.  1.
</event>
<event>
 8    1  0.1196210E+005  0.1043930E+01  0.7957747E-01            NaN
         13   -1    0    0    0    0  0.00000000000E+00  0.00000000000E+00  0.74505805969E-08  0.10566000000E+00  0.10566000000E+00 0.  1.
     999900   -1    0    0    0    0 -0.00000000000E+00 -0.00000000000E+00 -0.74505805969E-08  0.93827000000E+00  0.93827000000E+00 0. -1.
     999902    2    1    2    0    0 -0.13874084318E-01  0.24616182306E-02  0.18604330467E-01  0.10205918147E+01  0.10203249391E+01 0.  0.
     999903    2    3    3    0    0 -0.17440280420E-01 -0.11888081201E+00  0.49826562023E-01  0.13170963418E+00  0.20686483692E-01 0.  0.
         14    1    1    2    0    0  0.13874084318E-01 -0.24616182306E-02 -0.18604330467E-01  0.23338185279E-01  0.00000000000E+00 0. -1.
     999901    1    3    3    0    0  0.35661961019E-02  0.12134243025E+00 -0.31222231555E-01  0.88888218054E+00  0.88000000000E+00 0. -1.
        -11    1    4    4    0    0 -0.11756828018E-01 -0.23215029385E-01  0.12319144969E-01  0.28795538685E-01  0.51100000000E-03 0. -1.
         11    1    4    4    0    0 -0.56834524014E-02 -0.95665782630E-01  0.37507417054E-01  0.10291409550E+00  0.51100000000E-03 0.  1.
</event>
<event>
 8    1  0.1196210E+005  0.1043930E+01  0.7957747E-01            NaN
         13   -1    0    0    0    0  0.00000000000E+00  0.00000000000E+00  0.74505805969E-08  0.10566000000E+00  0.10566000000E+00 0. -1.
     999900   -1    0    0    0    0 -0.00000000000E+00 -0.00000000000E+00 -0.74505805969E-08  0.93827000000E+00  0.93827000000E+00 0. -1.
     999902    2    1    2    0    0 -0.18299566145E-01 -0.17646741474E-03 -0.13993418776E-01  0.10208926167E+01  0.10206326537E+01 0.  0.
     999903    2    3    3    0    0 -0.63119169479E-01  0.89200428713E-01 -0.73487460690E-01  0.13323470540E+00  0.20256697824E-01 0.  0.
         14    1    1    2    0    0  0.18299566145E-01  0.17646741474E-03  0.13993418776E-01  0.23037383334E-01  0.00000000000E+00 0. -1.
     999901    1    3    3    0    0  0.44819603335E-01 -0.89376896128E-01  0.59494041914E-01  0.88765791126E+00  0.88000000000E+00 0.  1.
        -11    1    4    4    0    0 -0.28106790160E-01  0.30162407473E-01 -0.37489270190E-01  0.55726734859E-01  0.51100000000E-03 0. -1.
         11    1    4    4    0    0 -0.35012379320E-01  0.59038021241E-01 -0.35998190500E-01  0.77507970544E-01  0.51100000000E-03 0.  1.
</event>
<event>
 8    1  0.1196210E+005  0.1043930E+01  0.7957747E-01            NaN
         13   -1    0    0    0    0  0.00000000000E+00  0.00000000000E+00  0.74505805969E-08  0.10566000000E+00  0.10566000000E+00 0. -1.
     999900   -1    0    0    0    0 -0.00000000000E+00 -0.00000000000E+00 -0.74505805969E-08  0.93827000000E+00  0.93827000000E+00 0. -1.
     999902    2    1    2    0    0  0.97231866540E-02 -0.26538787853E-02  0.14452806427E-01  0.10263099249E+01  0.10261586598E+01 0.  0.
     999903    2    3    3    0    0  0.10512768599E+00 -0.27942881215E-01  0.82787072785E-01  0.13815952997E+00  0.20042986993E-01 0.  0.
         14    1    1    2    0    0 -0.97231866540E-02  0.26538787853E-02 -0.14452806427E-01  0.17620075055E-01  0.00000000000E+00 0.  1.
     999901    1    3    3    0    0 -0.95404499341E-01  0.25289002429E-01 -0.68334266358E-01  0.88815039498E+00  0.88000000000E+00 0. -1.
        -11    1    4    4    0    0  0.49619395153E-01 -0.17160904304E-01  0.51438119400E-01  0.73503212585E-01  0.51100000000E-03 0. -1.
         11    1    4    4    0    0  0.55508290842E-01 -0.10781976911E-01  0.31348953385E-01  0.64656317384E-01  0.51100000000E-03 0.  1.
</event>
<event>
 8    1  0.1196210E+005  0.1043930E+01  0.7957747E-01            NaN
         13   -1    0    0    0    0  0.00000000000E+00  0.00000000000E+00  0.74505805969E-08  0.10566000000E+00  0.10566000000E+00 0.  1.
     999900   -1    0    0    0    0 -0.00000000000E+00 -0.00000000000E+00 -0.74505805969E-08  0.93827000000E+00  0.93827000000E+00 0. -1.
     999902    2    1    2    0    0 -0.86080149198E-02  0.21316882858E-01  0.13265109032E-02  0.10209024720E+01  0.10206427339E+01 0.  0.
     999903    2    3    3    0    0 -0.69496002547E-01  0.11077379090E+00  0.20950112431E-01  0.13405695490E+00  0.20780587701E-01 0.  0.
         14    1    1    2    0    0  0.86080149198E-02 -0.21316882858E-01 -0.13265109032E-02  0.23027528022E-01  0.00000000000E+00 0.  1.
     999901    1    3    3    0    0  0.60887987628E-01 -0.89456908039E-01 -0.19623601528E-01  0.88684551708E+00  0.88000000000E+00 0.  1.
        -11    1    4    4    0    0 -0.49825258551E-01  0.64786901746E-01  0.19449402198E-01  0.84014518950E-01  0.51100000000E-03 0. -1.
         11    1    4    4    0    0 -0.19670743996E-01  0.45986889151E-01  0.15007102338E-02  0.50042435945E-01  0.51100000000E-03 0.  1.
</event>
<event>
 8    1  0.1196210E+005  0.1043930E+01  0.7957747E-01            NaN
         13   -1    0    0    0    0  0.00000000000E+00  0.00000000000E+00  0.74505805969E-08  0.10566000000E+00  0.10566000000E+00 0. -1.
     999900   -1    0    0    0    0 -0.00000000000E+00 -0.00000000000E+00 -0.74505805969E-08  0.93827000000E+00  0.93827000000E+00 0.  1.
     999902    2    1    2    0    0  0.51530134155E-02  0.11289817199E-01 -0.20700530929E-01  0.10197944349E+01  0.10195087857E+01 0.  0.
     999903    2    3    3    0    0  0.38784632255E-01  0.72568933233E-01 -0.10268472442E+00  0.13322372495E+00  0.20830518238E-01 0.  0.
         14    1    1    2    0    0 -0.51530134155E-02 -0.11289817199E-01  0.20700530929E-01  0.24135565052E-01  0.00000000000E+00 0. -1.
     999901    1    3    3    0    0 -0.33631618839E-01 -0.61279116034E-01  0.81984193491E-01  0.88657071000E+00  0.88000000000E+00 0. -1.
        -11    1    4    4    0    0  0.63743369254E-02  0.28428262865E-01 -0.45623872383E-01  0.54134990098E-01  0.51100000000E-03 0. -1.
         11    1    4    4    0    0  0.32410295329E-01  0.44140670369E-01 -0.57060852037E-01  0.79088734850E-01  0.51100000000E-03 0.  1.
</event>
<event>
 8    1  0.1196210E+005  0.1043930E+01  0.7957747E-01            NaN
         13   -1    0    0    0    0  0.00000000000E+00  0.00000000000E+00  0.74505805969E-08  0.10566000000E+00  0.10566000000E+00 0.  1.
     999900   -1    0    0    0    0 -0.00000000000E+00 -0.00000000000E+00 -0.74505805969E-08  0.93827000000E+00  0.93827000000E+00 0.  1.
     999902    2    1    2    0    0  0.38666807965E-02  0.14247768535E-01 -0.18419988401E-01  0.10203239393E+01  0.10200508296E+01 0.  0.
     999903    2    3    3    0    0 -0.10095155294E+00  0.54088213159E-01 -0.62677067014E-01  0.13210504052E+00  0.20163733755E-01 0.  0.
         14    1    1    2    0    0 -0.38666807965E-02 -0.14247768535E-01  0.18419988401E-01  0.23606060691E-01  0.00000000000E+00 0.  1.
     999901    1    3    3    0    0  0.10481823374E+00 -0.39840444623E-01  0.44257078613E-01  0.88821889878E+00  0.88000000000E+00 0. -1.
        -11    1    4    4    0    0 -0.74088684801E-01  0.43915416800E-01 -0.37624945212E-01  0.93987204829E-01  0.51100000000E-03 0. -1.
         11    1    4    4    0    0 -0.26862868138E-01  0.10172796358E-01 -0.25052121802E-01  0.38117835696E-01  0.51100000000E-03 0.  1.
</event>
<event>
 8    1  0.1196210E+005  0.1043930E+01  0.7957747E-01            NaN
         13   -1    0    0    0    0  0.00000000000E+00  0.00000000000E+00  0.74505805969E-08  0.10566000000E+00  0.10566000000E+00 0. -1.
     999900   -1    0    0    0    0 -0.00000000000E+00 -0.00000000000E+00 -0.74505805969E-08  0.93827000000E+00  0.93827000000E+00 0.  1.
     999902    2    1    2    0    0  0.73334933021E-02  0.17522097713E-01  0.13369834398E-01  0.10207016444E+01  0.10204373035E+01 0.  0.
     999903    2    3    3    0    0  0.17721542962E-01  0.12769993546E+00  0.23406501619E-01  0.13371359363E+00  0.26648343358E-01 0.  0.
         14    1    1    2    0    0 -0.73334933021E-02 -0.17522097713E-01 -0.13369834398E-01  0.23228355605E-01  0.00000000000E+00 0.  1.
     999901    1    3    3    0    0 -0.10388049660E-01 -0.11017783774E+00 -0.10036667221E-01  0.88698805076E+00  0.88000000000E+00 0. -1.
        -11    1    4    4    0    0  0.18964813942E-01  0.43766494265E-01  0.89379674053E-02  0.48531624436E-01  0.51100000000E-03 0.  1.
         11    1    4    4    0    0 -0.12432709791E-02  0.83933441191E-01  0.14468534214E-01  0.85181969197E-01  0.51100000000E-03 0. -1.
</event>
<event>
 8    1  0.1196210E+005  0.1043930E+01  0.7957747E-01            NaN
         13   -1    0    0    0    0  0.00000000000E+00  0.00000000000E+00  0.74505805969E-08  0.10566000000E+00  0.10566000000E+00 0. -1.
     999900   -1    0    0    0    0 -0.00000000000E+00 -0.00000000000E+00 -0.74505805969E-08  0.93827000000E+00  0.93827000000E+00 0. -1.
     999902    2    1    2    0    0  0.14051371470E-01 -0.16643557402E-01  0.74299158587E-02  0.10209158154E+01  0.10206563817E+01 0.  0.
     999903    2    3    3    0    0  0.20291239996E-01  0.12615366998E+00  0.43327605504E-02  0.12937805597E+00  0.19834961122E-01 0.  0.
         14    1    1    2    0    0 -0.14051371470E-01  0.16643557402E-01 -0.74299158587E-02  0.23014184601E-01  0.00000000000E+00 0. -1.
     999901    1    3    3    0    0 -0.62398685257E-02 -0.14279722739E+00  0.30971553083E-02  0.89153775942E+00  0.88000000000E+00 0.  1.
        -11    1    4    4    0    0 -0.39705958072E-02  0.20562872032E-01  0.25380110158E-04  0.20948964232E-01  0.51100000000E-03 0.  1.
         11    1    4    4    0    0  0.24261835803E-01  0.10559079795E+00  0.43073804402E-02  0.10842909174E+00  0.51100000000E-03 0. -1.
</event>
<event>
 8    1  0.1196210E+005  0.1043930E+01  0.7957747E-01            NaN
         13   -1    0    0    0    0  0.00000000000E+00  0.00000000000E+00  0.74505805969E-08  0.10566000000E+00  0.10566000000E+00 0.  1.
     999900   -1    0    0    0    0 -0.00000000000E+00 -0.00000000000E+00 -0.74505805969E-08  0.93827000000E+00  0.93827000000E+00 0.  1.
     999902    2    1    2    0    0 -0.22889032897E-01  0.29278091659E-02 -0.87023789320E-02  0.10192680598E+01  0.10189696593E+01 0.  0.
     999903    2    3    3    0    0  0.14694952033E-01  0.33463103067E-01  0.12132448212E+00  0.12839660744E+00  0.20744588654E-01 0.  0.
         14    1    1    2    0    0  0.22889032897E-01 -0.29278091659E-02  0.87023789320E-02  0.24661940162E-01  0.00000000000E+00 0. -1.
     999901    1    3    3    0    0 -0.37583984930E-01 -0.30535293901E-01 -0.13002686105E+00  0.89087145240E+00  0.88000000000E+00 0.  1.
        -11    1    4    4    0    0  0.18737563124E-01  0.20254413781E-01  0.90509534750E-01  0.94623329846E-01  0.51100000000E-03 0. -1.
         11    1    4    4    0    0 -0.40426110910E-02  0.13208689286E-01  0.30814947372E-01  0.33773277597E-01  0.51100000000E-03 0.  1.
</event>
<event>
 8    1  0.1196210E+005  0.1043930E+01  0.7957747E-01            NaN
         13   -1    0    0    0    0  0.00000000000E+00  0.00000000000E+00  0.74505805969E-08  0.10566000000E+00  0.10566000000E+00 0. -1.
     999900   -1    0    0    0    0 -0.00000000000E+00 -0.00000000000E+00 -0.74505805969E-08  0.93827000000E+00  0.93827000000E+00 0.  1.
     999902    2    1    2    0    0 -0.53186896837E-02 -0.15729673747E-01 -0.18233628715E-01  0.10192687690E+01  0.10189703858E+01 0.  0.
     999903    2    3    3    0    0 -0.61199780738E-01  0.30396022667E-02 -0.11471163832E+00  0.13203543536E+00  0.22802277981E-01 0.  0.
         14    1    1    2    0    0  0.53186896837E-02  0.15729673747E-01  0.18233628715E-01  0.24661230956E-01  0.00000000000E+00 0.  1.
     999901    1    3    3    0    0  0.55881091054E-01 -0.18769276013E-01  0.96478009604E-01  0.88723333368E+00  0.88000000000E+00 0. -1.
        -11    1    4    4    0    0 -0.16072025082E-01 -0.73099864238E-02 -0.45054159455E-01  0.48393019093E-01  0.51100000000E-03 0.  1.
         11    1    4    4    0    0 -0.45127755656E-01  0.10349588690E-01 -0.69657478864E-01  0.83642416269E-01  0.51100000000E-03 0. -1.
</event>
<event>
 8    1  0.1196210E+005  0.1043930E+01  0.7957747E-01            NaN
         13   -1    0    0    0    0  0.00000000000E+00  0.00000000000E+00  0.74505805969E-08  0.10566000000E+00  0.10566000000E+00 0.  1.
     999900   -1    0    0    0    0 -0.00000000000E+00 -0.00000000000E+00 -0.74505805969E-08  0.93827000000E+00  0.93827000000E+00 0.  1.
     999902    2    1    2    0    0  0.14872214674E-02  0.16133165486E-01 -0.17534254332E-01  0.10200565643E+01  0.10197771587E+01 0.  0.
     999903    2    3    3    0    0 -0.91153577579E-01 -0.35322319554E-01 -0.85333322447E-01  0.13110960402E+00  0.18743302319E-01 0.  0.
         14    1    1    2    0    0 -0.14872214674E-02 -0.16133165486E-01  0.17534254332E-01  0.23873435682E-01  0.00000000000E+00 0.  1.
     999901    1    3    3    0    0  0.92640799047E-01  0.51455485040E-01  0.67799068114E-01  0.88894696030E+00  0.88000000000E+00 0. -1.
        -11    1    4    4    0    0 -0.57870890891E-01 -0.12860923742E-01 -0.48009135515E-01  0.76286182142E-01  0.51100000000E-03 0.  1.
         11    1    4    4    0    0 -0.33282686689E-01 -0.22461395812E-01 -0.37324186932E-01  0.54823421876E-01  0.51100000000E-03 0. -1.
</event>
<event>
 8    1  0.1196210E+005  0.1043930E+01  0.7957747E-01            NaN
         13   -1    0    0    0    0  0.00000000000E+00  0.00000000000E+00  0.74505805969E-08  0.10566000000E+00  0.10566000000E+00 0. -1.
     999900   -1    0    0    0    0 -0.00000000000E+00 -0.00000000000E+00 -0.74505805969E-08  0.93827000000E+00  0.93827000000E+00 0.  1.
     999902    2    1    2    0    0  0.15549417051E-01  0.17346932298E-01 -0.31023816086E-02  0.10204284000E+01  0.10201577301E+01 0.  0.
     999903    2    3    3    0    0  0.12810329504E+00  0.26845413813E-01 -0.13252223622E-01  0.13315075693E+00  0.20551695763E-01 0.  0.
         14    1    1    2    0    0 -0.15549417051E-01 -0.17346932298E-01  0.31023816086E-02  0.23501599997E-01  0.00000000000E+00 0. -1.
     999901    1    3    3    0    0 -0.11255387799E+00 -0.94984815154E-02  0.10149842013E-01  0.88727764307E+00  0.88000000000E+00 0. -1.
        -11    1    4    4    0    0  0.12655227824E+00  0.28908470265E-01 -0.13472822315E-01  0.13051037063E+00  0.51100000000E-03 0.  1.
         11    1    4    4    0    0  0.15510167969E-02 -0.20630564515E-02  0.22059869298E-03  0.26403862994E-02  0.51100000000E-03 0. -1.
</event>
<event>
 8    1  0.1196210E+005  0.1043930E+01  0.7957747E-01            NaN
         13   -1    0    0    0    0  0.00000000000E+00  0.00000000000E+00  0.74505805969E-08  0.10566000000E+00  0.10566000000E+00 0. -1.
     999900   -1    0    0    0    0 -0.00000000000E+00 -0.00000000000E+00 -0.74505805969E-08  0.93827000000E+00  0.93827000000E+00 0.  1.
     999902    2    1    2    0    0  0.18073835975E-01  0.13460192077E-01 -0.80666047222E-02  0.10199944526E+01  0.10197135740E+01 0.  0.
     999903    2    3    3    0    0  0.11283547561E-01  0.75513801919E-01 -0.10627284822E+00  0.13233391795E+00  0.19715345461E-01 0.  0.
         14    1    1    2    0    0 -0.18073835975E-01 -0.13460192077E-01  0.80666047222E-02  0.23935547400E-01  0.00000000000E+00 0. -1.
     999901    1    3    3    0    0  0.67902884147E-02 -0.62053609842E-01  0.98206243494E-01  0.88766053465E+00  0.88000000000E+00 0. -1.
        -11    1    4    4    0    0  0.77982215068E-02  0.22923343635E-01 -0.47973188001E-01  0.53739927708E-01  0.51100000000E-03 0.  1.
         11    1    4    4    0    0  0.34853260538E-02  0.52590458284E-01 -0.58299660215E-01  0.78593990244E-01  0.51100000000E-03 0. -1.
</event>
<event>
 8    1  0.1196210E+005  0.1043930E+01  0.7957747E-01            NaN
         13   -1    0    0    0    0  0.00000000000E+00  0.00000000000E+00  0.74505805969E-08  0.10566000000E+00  0.10566000000E+00 0. -1.
     999900   -1    0    0    0    0 -0.00000000000E+00 -0.00000000000E+00 -0.74505805969E-08  0.93827000000E+00  0.93827000000E+00 0.  1.
     999902    2    1    2    0    0  0.53496183087E-02  0.80086826457E-02 -0.21774498990E-01  0.10201206275E+01  0.10198427371E+01 0.  0.
     999903    2    3    3    0    0 -0.29486334968E-03 -0.18506964299E-01 -0.13015490575E+00  0.13305735336E+00  0.20527180042E-01 0.  0.
         14    1    1    2    0    0 -0.53496183087E-02 -0.80086826457E-02  0.21774498990E-01  0.23809372525E-01  0.00000000000E+00 0. -1.
     999901    1    3    3    0    0  0.56444816584E-02  0.26515646944E-01  0.10838040676E+00  0.88706327411E+00  0.88000000000E+00 0. -1.
        -11    1    4    4    0    0 -0.10033553448E-01 -0.10673967965E-01 -0.57833215960E-01  0.59661945796E-01  0.51100000000E-03 0.  1.
         11    1    4    4    0    0  0.97386900986E-02 -0.78329963336E-02 -0.72321689794E-01  0.73395407567E-01  0.51100000000E-03 0. -1.
</event>
<event>
 8    1  0.1196210E+005  0.1043930E+01  0.7957747E-01            NaN
         13   -1    0    0    0    0  0.00000000000E+00  0.00000000000E+00  0.74505805969E-08  0.10566000000E+00  0.10566000000E+00 0. -1.
     999900   -1    0    0    0    0 -0.00000000000E+00 -0.00000000000E+00 -0.74505805969E-08  0.93827000000E+00  0.93827000000E+00 0.  1.
     999902    2    1    2    0    0  0.54717517762E-02  0.14506274286E-01  0.17581305595E-01  0.10204891304E+01  0.10202198738E+01 0.  0.
     999903    2    3    3    0    0  0.12774728444E+00  0.35717928616E-02  0.28730137099E-01  0.13189745521E+00  0.15472282558E-01 0.  0.
         14    1    1    2    0    0 -0.54717517762E-02 -0.14506274286E-01 -0.17581305595E-01  0.23440869599E-01  0.00000000000E+00 0.  1.
     999901    1    3    3    0    0 -0.12227553266E+00  0.10934481424E-01 -0.11148831505E-01  0.88859167519E+00  0.88000000000E+00 0.  1.
        -11    1    4    4    0    0  0.54764038241E-01 -0.29593628775E-02  0.18651160191E-01  0.57930860606E-01  0.51100000000E-03 0. -1.
         11    1    4    4    0    0  0.72983246199E-01  0.65311557390E-02  0.10078976909E-01  0.73966594605E-01  0.51100000000E-03 0.  1.
</event>
<event>
 8    1  0.1196210E+005  0.1043930E+01  0.7957747E-01            NaN
         13   -1    0    0    0    0  0.00000000000E+00  0.00000000000E+00  0.74505805969E-08  0.10566000000E+00  0.10566000000E+00 0.  1.
     999900   -1    0    0    0    0 -0.00000000000E+00 -0.00000000000E+00 -0.74505805969E-08  0.93827000000E+00  0.93827000000E+00 0. -1.
     999902    2    1    2    0    0  0.14339855254E-01  0.12245846035E-01  0.14200234279E-01  0.10203240930E+01  0.10200509869E+01 0.  0.
     999903    2    3    3    0    0 -0.11124904692E-02  0.12991845137E+00  0.14558611098E-01  0.13235689454E+00  0.20648310627E-01 0.  0.
         14    1    1    2    0    0 -0.14339855254E-01 -0.12245846035E-01 -0.14200234279E-01  0.23605907045E-01  0.00000000000E+00 0. -1.
     999901    1    3    3    0    0  0.15452345723E-01 -0.11767260534E+00 -0.35837681877E-03  0.88796719842E+00  0.88000000000E+00 0. -1.
        -11    1    4    4    0    0  0.90865955467E-02  0.50487858010E-01  0.89497704230E-02  0.52076381755E-01  0.51100000000E-03 0. -1.
         11    1    4    4    0    0 -0.10199086016E-01  0.79430593363E-01  0.56088406747E-02  0.80280512781E-01  0.51100000000E-03 0.  1.
</event>
<event>
 8    1  0.1196210E+005  0.1043930E+01  0.7957747E-01            NaN
         13   -1    0    0    0    0  0.00000000000E+00  0.00000000000E+00  0.74505805969E-08  0.10566000000E+00  0.10566000000E+00 0. -1.
     999900   -1    0    0    0    0 -0.00000000000E+00 -0.00000000000E+00 -0.74505805969E-08  0.93827000000E+00  0.93827000000E+00 0.  1.
     999902    2    1    2    0    0 -0.61028125046E-02 -0.46968415874E-02 -0.22215238504E-01  0.10204178444E+01  0.10201469284E+01 0.  0.
     999903    2    3    3    0    0  0.18906365191E-01 -0.12529080348E+00  0.24618209935E-01  0.13060790144E+00  0.19928160379E-01 0.  0.
         14    1    1    2    0    0  0.61028125046E-02  0.46968415874E-02  0.22215238504E-01  0.23512155647E-01  0.00000000000E+00 0. -1.
     999901    1    3    3    0    0 -0.25009177696E-01  0.12059396189E+00 -0.46833448440E-01  0.88980994291E+00  0.88000000000E+00 0.  1.
        -11    1    4    4    0    0  0.35099457451E-02 -0.54737971240E-01  0.19484594812E-01  0.58210615618E-01  0.51100000000E-03 0.  1.
         11    1    4    4    0    0  0.15396419446E-01 -0.70552832242E-01  0.51336151233E-02  0.72397285822E-01  0.51100000000E-03 0. -1.
</event>
<event>
 8    1  0.1196210E+005  0.1043930E+01  0.7957747E-01            NaN
         13   -1    0    0    0    0  0.00000000000E+00  0.00000000000E+00  0.74505805969E-08  0.10566000000E+00  0.10566000000E+00 0. -1.
     999900   -1    0    0    0    0 -0.00000000000E+00 -0.00000000000E+00 -0.74505805969E-08  0.93827000000E+00  0.93827000000E+00 0.  1.
     999902    2    1    2    0    0  0.51846945335E-02 -0.13277375888E-01  0.13797132996E-01  0.10240923931E+01  0.10239002388E+01 0.  0.
     999903    2    3    3    0    0  0.11806339993E+00  0.36407157675E-01  0.49978050821E-01  0.13475600354E+00  0.19923036753E-01 0.  0.
         14    1    1    2    0    0 -0.51846945335E-02  0.13277375888E-01 -0.13797132996E-01  0.19837606882E-01  0.00000000000E+00 0. -1.
     999901    1    3    3    0    0 -0.11287870540E+00 -0.49684533564E-01 -0.36180917825E-01  0.88933638958E+00  0.88000000000E+00 0.  1.
        -11    1    4    4    0    0  0.14556430098E-01  0.10702104883E-01  0.34707545529E-02  0.18404672350E-01  0.51100000000E-03 0.  1.
         11    1    4    4    0    0  0.10350696983E+00  0.25705052792E-01  0.46507296268E-01  0.11635133119E+00  0.51100000000E-03 0. -1.
</event>
<event>
 8    1  0.1196210E+005  0.1043930E+01  0.7957747E-01            NaN
         13   -1    0    0    0    0  0.00000000000E+00  0.00000000000E+00  0.74505805969E-08  0.10566000000E+00  0.10566000000E+00 0.  1.
     999900   -1    0    0    0    0 -0.00000000000E+00 -0.00000000000E+00 -0.74505805969E-08  0.93827000000E+00  0.93827000000E+00 0. -1.
     999902    2    1    2    0    0  0.88353416336E-02 -0.13081205333E-01  0.17848318402E-01  0.10201026278E+01  0.10198243121E+01 0.  0.
     999903    2    3    3    0    0 -0.64931455848E-02  0.68417097463E-01  0.11021335647E+00  0.13139106825E+00  0.19838566110E-01 0.  0.
         14    1    1    2    0    0 -0.88353416336E-02  0.13081205333E-01 -0.17848318402E-01  0.23827372170E-01  0.00000000000E+00 0.  1.
     999901    1    3    3    0    0  0.15328487218E-01 -0.81498302796E-01 -0.92365038070E-01  0.88871155958E+00  0.88000000000E+00 0. -1.
        -11    1    4    4    0    0 -0.37738679173E-02  0.55557467594E-01  0.72296916915E-01  0.91257764606E-01  0.51100000000E-03 0. -1.
         11    1    4    4    0    0 -0.27192776674E-02  0.12859629869E-01  0.37916439557E-01  0.40133303640E-01  0.51100000000E-03 0.  1.
</event>
<event>
 8    1  0.1196210E+005  0.1043930E+01  0.7957747E-01            NaN
         13   -1    0    0    0    0  0.00000000000E+00  0.00000000000E+00  0.74505805969E-08  0.10566000000E+00  0.10566000000E+00 0.  1.
     999900   -1    0    0    0    0 -0.00000000000E+00 -0.00000000000E+00 -0.74505805969E-08  0.93827000000E+00  0.93827000000E+00 0.  1.
     999902    2    1    2    0    0 -0.19949226152E-02 -0.13997161464E-01 -0.19038538197E-01  0.10202157388E+01  0.10199400902E+01 0.  0.
     999903    2    3    3    0    0  0.10900720561E+00 -0.69304523058E-01 -0.15548716788E-01  0.13151300139E+00  0.19189037176E-01 0.  0.
         14    1    1    2    0    0  0.19949226152E-02  0.13997161464E-01  0.19038538197E-01  0.23714261152E-01  0.00000000000E+00 0.  1.
     999901    1    3    3    0    0 -0.11100212823E+00  0.55307361594E-01 -0.34898214089E-02  0.88870273746E+00  0.88000000000E+00 0. -1.
        -11    1    4    4    0    0  0.10269068380E+00 -0.65260305105E-01 -0.19159464176E-01  0.12317317139E+00  0.51100000000E-03 0.  1.
         11    1    4    4    0    0  0.63165218178E-02 -0.40442179532E-02  0.36107473873E-02  0.83398299996E-02  0.51100000000E-03 0. -1.
</event>
<event>
 8    1  0.1196210E+005  0.1043930E+01  0.7957747E-01            NaN
         13   -1    0    0    0    0  0.00000000000E+00  0.00000000000E+00  0.74505805969E-08  0.10566000000E+00  0.10566000000E+00 0. -1.
     999900   -1    0    0    0    0 -0.00000000000E+00 -0.00000000000E+00 -0.74505805969E-08  0.93827000000E+00  0.93827000000E+00 0.  1.
     999902    2    1    2    0    0  0.80831792250E-02  0.16717609332E-01  0.10543584651E-01  0.10225762316E+01  0.10223532491E+01 0.  0.
     999903    2    3    3    0    0  0.12980835368E+00  0.27790800997E-01 -0.10857833642E-02  0.13405224436E+00  0.18608814769E-01 0.  0.
         14    1    1    2    0    0 -0.80831792250E-02 -0.16717609332E-01 -0.10543584651E-01  0.21353768414E-01  0.00000000000E+00 0.  1.
     999901    1    3    3    0    0 -0.12172517446E+00 -0.11073191665E-01  0.11629368015E-01  0.88852398722E+00  0.88000000000E+00 0. -1.
        -11    1    4    4    0    0  0.95643219991E-01  0.14401642875E-01  0.50025290758E-02  0.96852048331E-01  0.51100000000E-03 0. -1.
         11    1    4    4    0    0  0.34165133693E-01  0.13389158122E-01 -0.60883124400E-02  0.37200196032E-01  0.51100000000E-03 0.  1.
</event>
<event>
 8    1  0.1196210E+005  0.1043930E+01  0.7957747E-01            NaN
         13   -1    0    0    0    0  0.00000000000E+00  0.00000000000E+00  0.74505805969E-08  0.10566000000E+00  0.10566000000E+00 0. -1.
     999900   -1    0    0    0    0 -0.00000000000E+00 -0.00000000000E+00 -0.74505805969E-08  0.93827000000E+00  0.93827000000E+00 0.  1.
     999902    2    1    2    0    0 -0.10079844674E-01  0.15155820051E-01  0.16558854441E-01  0.10193231349E+01  0.10190260819E+01 0.  0.
     999903    2    3    3    0    0 -0.75128179400E-01  0.10667826264E+00 -0.28520671415E-02  0.13197628770E+00  0.19624249504E-01 0.  0.
         14    1    1    2    0    0  0.10079844674E-01 -0.15155820051E-01 -0.16558854441E-01  0.24606865109E-01  0.00000000000E+00 0. -1.
     999901    1    3    3    0    0  0.65048334726E-01 -0.91522442585E-01  0.19410921583E-01  0.88734684719E+00  0.88000000000E+00 0. -1.
        -11    1    4    4    0    0 -0.44552736681E-01  0.78925700929E-01 -0.29173271867E-02  0.90680673419E-01  0.51100000000E-03 0.  1.
         11    1    4    4    0    0 -0.30575442719E-01  0.27752561707E-01  0.65260045178E-04  0.41295614279E-01  0.51100000000E-03 0. -1.
</event>
<event>
 8    1  0.1196210E+005  0.1043930E+01  0.7957747E-01            NaN
         13   -1    0    0    0    0  0.00000000000E+00  0.00000000000E+00  0.74505805969E-08  0.10566000000E+00  0.10566000000E+00 0.  1.
     999900   -1    0    0    0    0 -0.00000000000E+00 -0.00000000000E+00 -0.74505805969E-08  0.93827000000E+00  0.93827000000E+00 0.  1.
     999902    2    1    2    0    0 -0.23261933124E-01  0.58489763394E-02 -0.10203378621E-02  0.10199223107E+01  0.10196397161E+01 0.  0.
     999903    2    3    3    0    0  0.71648721751E-01 -0.80998984329E-01  0.65632596798E-01  0.12807410926E+00  0.20024108222E-01 0.  0.
         14    1    1    2    0    0  0.23261933124E-01 -0.58489763394E-02  0.10203378621E-02  0.24007689315E-01  0.00000000000E+00 0.  1.
     999901    1    3    3    0    0 -0.94910654875E-01  0.86847960669E-01 -0.66652934660E-01  0.89184820142E+00  0.88000000000E+00 0. -1.
        -11    1    4    4    0    0  0.29315903279E-01 -0.19264664781E-01  0.19349175070E-01  0.40064962137E-01  0.51100000000E-03 0. -1.
         11    1    4    4    0    0  0.42332818472E-01 -0.61734319549E-01  0.46283421728E-01  0.88009147126E-01  0.51100000000E-03 0.  1.
</event>
<event>
 8    1  0.1196210E+005  0.1043930E+01  0.7957747E-01            NaN
         13   -1    0    0    0    0  0.00000000000E+00  0.00000000000E+00  0.74505805969E-08  0.10566000000E+00  0.10566000000E+00 0.  1.
     999900   -1    0    0    0    0 -0.00000000000E+00 -0.00000000000E+00 -0.74505805969E-08  0.93827000000E+00  0.93827000000E+00 0. -1.
     999902    2    1    2    0    0 -0.91442474995E-02 -0.20173984857E-01 -0.10112430700E-01  0.10195811154E+01  0.10192903329E+01 0.  0.
     999903    2    3    3    0    0 -0.55897606143E-01  0.72451149878E-01  0.86080177745E-01  0.12827964560E+00  0.25926029056E-01 0.  0.
         14    1    1    2    0    0  0.91442474995E-02  0.20173984857E-01  0.10112430700E-01  0.24348884615E-01  0.00000000000E+00 0.  1.
     999901    1    3    3    0    0  0.46753358643E-01 -0.92625134734E-01 -0.96192608444E-01  0.89130146979E+00  0.88000000000E+00 0. -1.
        -11    1    4    4    0    0 -0.55557268942E-01  0.60278692749E-01  0.68185079268E-01  0.10662831279E+00  0.51100000000E-03 0.  1.
         11    1    4    4    0    0 -0.34033720073E-03  0.12172457128E-01  0.17895098477E-01  0.21651332810E-01  0.51100000000E-03 0. -1.
</event>
<event>
 8    1  0.1196210E+005  0.1043930E+01  0.7957747E-01            NaN
         13   -1    0    0    0    0  0.00000000000E+00  0.00000000000E+00  0.74505805969E-08  0.10566000000E+00  0.10566000000E+00 0.  1.
     999900   -1    0    0    0    0 -0.00000000000E+00 -0.00000000000E+00 -0.74505805969E-08  0.93827000000E+00  0.93827000000E+00 0. -1.
     999902    2    1    2    0    0  0.23458706848E-01  0.12605458496E-01 -0.17608425604E-02  0.10172408809E+01  0.10168907025E+01 0.  0.
     999903    2    3    3    0    0 -0.30673084438E-01  0.10919391409E+00 -0.56736085977E-01  0.12860042608E+00  0.21329255783E-01 0.  0.
         14    1    1    2    0    0 -0.23458706848E-01 -0.12605458496E-01  0.17608425604E-02  0.26689119083E-01  0.00000000000E+00 0.  1.
     999901    1    3    3    0    0  0.54131791287E-01 -0.96588455597E-01  0.54975243417E-01  0.88864045484E+00  0.88000000000E+00 0.  1.
        -11    1    4    4    0    0 -0.16827263814E-01  0.86506100341E-01 -0.37442742383E-01  0.95753236404E-01  0.51100000000E-03 0.  1.
         11    1    4    4    0    0 -0.13845820625E-01  0.22687813752E-01 -0.19293343595E-01  0.32847189677E-01  0.51100000000E-03 0. -1.
</event>
<event>
 8    1  0.1196210E+005  0.1043930E+01  0.7957747E-01            NaN
         13   -1    0    0    0    0  0.00000000000E+00  0.00000000000E+00  0.74505805969E-08  0.10566000000E+00  0.10566000000E+00 0. -1.
     999900   -1    0    0    0    0 -0.00000000000E+00 -0.00000000000E+00 -0.74505805969E-08  0.93827000000E+00  0.93827000000E+00 0.  1.
     999902    2    1    2    0    0  0.47249411735E-02  0.64475718544E-02 -0.21866288725E-01  0.10206484443E+01  0.10203828772E+01 0.  0.
     999903    2    3    3    0    0  0.35232048373E-02  0.87964944860E-01  0.92765994133E-01  0.12947669514E+00  0.20209908984E-01 0.  0.
         14    1    1    2    0    0 -0.47249411735E-02 -0.64475718544E-02  0.21866288725E-01  0.23281555672E-01  0.00000000000E+00 0. -1.
     999901    1    3    3    0    0  0.12017363362E-02 -0.81517373005E-01 -0.11463228286E+00  0.89117174918E+00  0.88000000000E+00 0.  1.
        -11    1    4    4    0    0  0.84077284224E-02  0.60763125901E-01  0.53126770195E-01  0.81151476874E-01  0.51100000000E-03 0.  1.
         11    1    4    4    0    0 -0.48845235851E-02  0.27201818959E-01  0.39639223939E-01  0.48325218269E-01  0.51100000000E-03 0. -1.
</event>
<event>
 8    1  0.1196210E+005  0.1043930E+01  0.7957747E-01            NaN
         13   -1    0    0    0    0  0.00000000000E+00  0.00000000000E+00  0.74505805969E-08  0.10566000000E+00  0.10566000000E+00 0. -1.
     999900   -1    0    0    0    0 -0.00000000000E+00 -0.00000000000E+00 -0.74505805969E-08  0.93827000000E+00  0.93827000000E+00 0. -1.
     999902    2    1    2    0    0 -0.38717763228E-02 -0.15344842888E-01 -0.17922777829E-01  0.10200201522E+01  0.10197398836E+01 0.  0.
     999903    2    3    3    0    0  0.25200499192E-01  0.12050870553E+00  0.28318154838E-01  0.12792172287E+00  0.20115566638E-01 0.  0.
         14    1    1    2    0    0  0.38717763228E-02  0.15344842888E-01  0.17922777829E-01  0.23909847768E-01  0.00000000000E+00 0. -1.
     999901    1    3    3    0    0 -0.29072275514E-01 -0.13585354841E+00 -0.46240932667E-01  0.89209842936E+00  0.88000000000E+00 0. -1.
        -11    1    4    4    0    0  0.14992036208E-01  0.52597724526E-01  0.22007440146E-01  0.58956512090E-01  0.51100000000E-03 0.  1.
         11    1    4    4    0    0  0.10208462983E-01  0.67910980999E-01  0.63107146919E-02  0.68965210778E-01  0.51100000000E-03 0. -1.
</event>
<event>
 8    1  0.1196210E+005  0.1043930E+01  0.7957747E-01            NaN
         13   -1    0    0    0    0  0.00000000000E+00  0.00000000000E+00  0.74505805969E-08  0.10566000000E+00  0.10566000000E+00 0. -1.
     999900   -1    0    0    0    0 -0.00000000000E+00 -0.00000000000E+00 -0.74505805969E-08  0.93827000000E+00  0.93827000000E+00 0.  1.
     999902    2    1    2    0    0  0.23529345640E-01 -0.58105351736E-02 -0.24573375903E-02  0.10195695621E+01  0.10192785003E+01 0.  0.
     999903    2    3    3    0    0  0.14065560839E-01  0.80703746905E-01 -0.98846397850E-01  0.13003871097E+00  0.20700754001E-01 0.  0.
         14    1    1    2    0    0 -0.23529345640E-01  0.58105351736E-02  0.24573375903E-02  0.24360437872E-01  0.00000000000E+00 0. -1.
     999901    1    3    3    0    0  0.94637848017E-02 -0.86514282079E-01  0.96389060260E-01  0.88953085116E+00  0.88000000000E+00 0. -1.
        -11    1    4    4    0    0  0.16866065122E-01  0.37215827846E-01 -0.45558510260E-01  0.61199027550E-01  0.51100000000E-03 0. -1.
         11    1    4    4    0    0 -0.28005042838E-02  0.43487919059E-01 -0.53287887590E-01  0.68839683419E-01  0.51100000000E-03 0.  1.
</event>
<event>
 8    1  0.1196210E+005  0.1043930E+01  0.7957747E-01            NaN
         13   -1    0    0    0    0  0.00000000000E+00  0.00000000000E+00  0.74505805969E-08  0.10566000000E+00  0.10566000000E+00 0.  1.
     999900   -1    0    0    0    0 -0.00000000000E+00 -0.00000000000E+00 -0.74505805969E-08  0.93827000000E+00  0.93827000000E+00 0.  1.
     999902    2    1    2    0    0  0.12064729148E-01  0.45924498925E-02  0.19274636006E-01  0.10207317268E+01  0.10204680780E+01 0.  0.
     999903    2    3    3    0    0 -0.48155458588E-01 -0.11522649576E+00 -0.27007628031E-01  0.12937035301E+00  0.20277641595E-01 0.  0.
         14    1    1    2    0    0 -0.12064729148E-01 -0.45924498925E-02 -0.19274636006E-01  0.23198273181E-01  0.00000000000E+00 0. -1.
     999901    1    3    3    0    0  0.60220187737E-01  0.11981894566E+00  0.46282264036E-01  0.89136137381E+00  0.88000000000E+00 0.  1.
        -11    1    4    4    0    0 -0.28061780682E-01 -0.65301578937E-01 -0.50910078608E-02  0.71259660599E-01  0.51100000000E-03 0.  1.
         11    1    4    4    0    0 -0.20093677906E-01 -0.49924916828E-01 -0.21916620170E-01  0.58110692413E-01  0.51100000000E-03 0. -1.
</event>
<event>
 8    1  0.1196210E+005  0.1043930E+01  0.7957747E-01            NaN
         13   -1    0    0    0    0  0.00000000000E+00  0.00000000000E+00  0.74505805969E-08  0.10566000000E+00  0.10566000000E+00 0. -1.
     999900   -1    0    0    0    0 -0.00000000000E+00 -0.00000000000E+00 -0.74505805969E-08  0.93827000000E+00  0.93827000000E+00 0.  1.
     999902    2    1    2    0    0 -0.73036279908E-02 -0.17865495157E-01 -0.13572184511E-01  0.10203350198E+01  0.10200621694E+01 0.  0.
     999903    2    3    3    0    0 -0.53230570507E-02 -0.10826061239E+00 -0.74730379175E-01  0.13359067971E+00  0.22652704061E-01 0.  0.
         14    1    1    2    0    0  0.73036279908E-02  0.17865495157E-01  0.13572184511E-01  0.23594980217E-01  0.00000000000E+00 0.  1.
     999901    1    3    3    0    0 -0.19805709401E-02  0.90395117236E-01  0.61158194664E-01  0.88674434008E+00  0.88000000000E+00 0. -1.
        -11    1    4    4    0    0  0.53970612316E-02 -0.56355432849E-01 -0.29123986747E-01  0.63667344900E-01  0.51100000000E-03 0.  1.
         11    1    4    4    0    0 -0.10720118282E-01 -0.51905179543E-01 -0.45606392428E-01  0.69923334808E-01  0.51100000000E-03 0. -1.
</event>
<event>
 8    1  0.1196210E+005  0.1043930E+01  0.7957747E-01            NaN
         13   -1    0    0    0    0  0.00000000000E+00  0.00000000000E+00  0.74505805969E-08  0.10566000000E+00  0.10566000000E+00 0. -1.
     999900   -1    0    0    0    0 -0.00000000000E+00 -0.00000000000E+00 -0.74505805969E-08  0.93827000000E+00  0.93827000000E+00 0.  1.
     999902    2    1    2    0    0 -0.13268742439E-01  0.44576924038E-02  0.20138955748E-01  0.10194043382E+01  0.10191092663E+01 0.  0.
     999903    2    3    3    0    0  0.12456833320E+00 -0.13619636515E-01 -0.15283089611E-01  0.12778750877E+00  0.19832055731E-01 0.  0.
         14    1    1    2    0    0  0.13268742439E-01 -0.44576924038E-02 -0.20138955748E-01  0.24525661787E-01  0.00000000000E+00 0.  1.
     999901    1    3    3    0    0 -0.13783707564E+00  0.18077328919E-01  0.35422045359E-01  0.89161682944E+00  0.88000000000E+00 0.  1.
        -11    1    4    4    0    0  0.63212824975E-01 -0.16865126768E-01 -0.76348058015E-02  0.65869910603E-01  0.51100000000E-03 0. -1.
         11    1    4    4    0    0  0.61355508228E-01  0.32454902525E-02 -0.76482838099E-02  0.61917598170E-01  0.51100000000E-03 0.  1.
</event>
<event>
 8    1  0.1196210E+005  0.1043930E+01  0.7957747E-01            NaN
         13   -1    0    0    0    0  0.00000000000E+00  0.00000000000E+00  0.74505805969E-08  0.10566000000E+00  0.10566000000E+00 0.  1.
     999900   -1    0    0    0    0 -0.00000000000E+00 -0.00000000000E+00 -0.74505805969E-08  0.93827000000E+00  0.93827000000E+00 0.  1.
     999902    2    1    2    0    0  0.27233267225E-01  0.11519178577E-01  0.12114957537E-01  0.10119751175E+01  0.10114704761E+01 0.  0.
     999903    2    3    3    0    0  0.56713303974E-01 -0.10737817392E+00 -0.68653292406E-02  0.12328737466E+00  0.20153732283E-01 0.  0.
         14    1    1    2    0    0 -0.27233267225E-01 -0.11519178577E-01 -0.12114957537E-01  0.31954882490E-01  0.00000000000E+00 0.  1.
     999901    1    3    3    0    0 -0.29480036749E-01  0.11889735249E+00  0.18980286777E-01  0.88868774284E+00  0.88000000000E+00 0.  1.
        -11    1    4    4    0    0  0.20353667365E-01 -0.25190871616E-01  0.44929215440E-02  0.32700141483E-01  0.51100000000E-03 0.  1.
         11    1    4    4    0    0  0.36359636609E-01 -0.82187302300E-01 -0.11358250785E-01  0.90587233182E-01  0.51100000000E-03 0. -1.
</event>
<event>
 8    1  0.1196210E+005  0.1043930E+01  0.7957747E-01            NaN
         13   -1    0    0    0    0  0.00000000000E+00  0.00000000000E+00  0.74505805969E-08  0.10566000000E+00  0.10566000000E+00 0. -1.
     999900   -1    0    0    0    0 -0.00000000000E+00 -0.00000000000E+00 -0.74505805969E-08  0.93827000000E+00  0.93827000000E+00 0.  1.
     999902    2    1    2    0    0  0.14820642968E-01  0.16715359968E-01  0.82881409566E-02  0.10201025369E+01  0.10198242191E+01 0.  0.
     999903    2    3    3    0    0 -0.12878247866E-01  0.13000127669E+00  0.77708477136E-02  0.13240822293E+00  0.20133807806E-01 0.  0.
         14    1    1    2    0    0 -0.14820642968E-01 -0.16715359968E-01 -0.82881409566E-02  0.23827463092E-01  0.00000000000E+00 0. -1.
     999901    1    3    3    0    0  0.27698890835E-01 -0.11328591672E+00  0.51729324305E-03  0.88769431398E+00  0.88000000000E+00 0.  1.
        -11    1    4    4    0    0  0.49731939297E-02  0.31104969470E-01  0.48060701604E-02  0.31868655682E-01  0.51100000000E-03 0. -1.
         11    1    4    4    0    0 -0.17851441796E-01  0.98896307216E-01  0.29647775532E-02  0.10053956725E+00  0.51100000000E-03 0.  1.
</event>
<event>
 8    1  0.1196210E+005  0.1043930E+01  0.7957747E-01            NaN
         13   -1    0    0    0    0  0.00000000000E+00  0.00000000000E+00  0.74505805969E-08  0.10566000000E+00  0.10566000000E+00 0.  1.
     999900   -1    0    0    0    0 -0.00000000000E+00 -0.00000000000E+00 -0.74505805969E-08  0.93827000000E+00  0.93827000000E+00 0. -1.
     999902    2    1    2    0    0 -0.12226588118E-01 -0.75618427979E-02 -0.18218420452E-01  0.10207226355E+01  0.10204587776E+01 0.  0.
     999903    2    3    3    0    0  0.88249837496E-01 -0.93064396443E-01 -0.21434259993E-01  0.13088189671E+00  0.14887164963E-01 0.  0.
         14    1    1    2    0    0  0.12226588118E-01  0.75618427979E-02  0.18218420452E-01  0.23207364505E-01  0.00000000000E+00 0.  1.
     999901    1    3    3    0    0 -0.10047642561E+00  0.85502553645E-01  0.32158395409E-02  0.88984073879E+00  0.88000000000E+00 0. -1.
        -11    1    4    4    0    0  0.42757723864E-02 -0.94108802246E-02  0.39421034540E-03  0.10356805439E-01  0.51100000000E-03 0.  1.
         11    1    4    4    0    0  0.83974065110E-01 -0.83653516218E-01 -0.21828470338E-01  0.12052509127E+00  0.51100000000E-03 0. -1.
</event>
<event>
 8    1  0.1196210E+005  0.1043930E+01  0.7957747E-01            NaN
         13   -1    0    0    0    0  0.00000000000E+00  0.00000000000E+00  0.74505805969E-08  0.10566000000E+00  0.10566000000E+00 0.  1.
     999900   -1    0    0    0    0 -0.00000000000E+00 -0.00000000000E+00 -0.74505805969E-08  0.93827000000E+00  0.93827000000E+00 0.  1.
     999902    2    1    2    0    0  0.12117644118E-01 -0.19531395530E-02  0.18274059070E-01  0.10219165203E+01  0.10216793926E+01 0.  0.
     999903    2    3    3    0    0  0.73809301784E-02  0.13019117740E+00  0.36898012273E-02  0.13191806102E+00  0.19609675854E-01 0.  0.
         14    1    1    2    0    0 -0.12117644118E-01  0.19531395530E-02 -0.18274059070E-01  0.22013479688E-01  0.00000000000E+00 0.  1.
     999901    1    3    3    0    0  0.47367139391E-02 -0.13214431695E+00  0.14584257842E-01  0.88999845929E+00  0.88000000000E+00 0.  1.
        -11    1    4    4    0    0  0.65991299465E-02  0.48154799002E-01  0.10030537365E-01  0.49631703414E-01  0.51100000000E-03 0. -1.
         11    1    4    4    0    0  0.78180023189E-03  0.82036378400E-01 -0.63407361376E-02  0.82286357608E-01  0.51100000000E-03 0.  1.
</event>
<event>
 8    1  0.1196210E+005  0.1043930E+01  0.7957747E-01            NaN
         13   -1    0    0    0    0  0.00000000000E+00  0.00000000000E+00  0.74505805969E-08  0.10566000000E+00  0.10566000000E+00 0. -1.
     999900   -1    0    0    0    0 -0.00000000000E+00 -0.00000000000E+00 -0.74505805969E-08  0.93827000000E+00  0.93827000000E+00 0. -1.
     999902    2    1    2    0    0  0.14456533343E-01 -0.17972453221E-01 -0.57601115597E-02  0.10201564997E+01  0.10198794559E+01 0.  0.
     999903    2    3    3    0    0  0.10469236512E+00 -0.39439516035E-01  0.67781924555E-01  0.13223095598E+00  0.19356386143E-01 0.  0.
         14    1    1    2    0    0 -0.14456533343E-01  0.17972453221E-01  0.57601115597E-02  0.23773500295E-01  0.00000000000E+00 0. -1.
     999901    1    3    3    0    0 -0.90235831773E-01  0.21467062814E-01 -0.73542036115E-01  0.88792554372E+00  0.88000000000E+00 0. -1.
        -11    1    4    4    0    0  0.16642695306E-01 -0.10586432990E-01  0.51546809793E-02  0.20393227491E-01  0.51100000000E-03 0.  1.
         11    1    4    4    0    0  0.88049669811E-01 -0.28853083045E-01  0.62627243576E-01  0.11183772849E+00  0.51100000000E-03 0. -1.
</event>
<event>
 8    1  0.1196210E+005  0.1043930E+01  0.7957747E-01            NaN
         13   -1    0    0    0    0  0.00000000000E+00  0.00000000000E+00  0.74505805969E-08  0.10566000000E+00  0.10566000000E+00 0. -1.
     999900   -1    0    0    0    0 -0.00000000000E+00 -0.00000000000E+00 -0.74505805969E-08  0.93827000000E+00  0.93827000000E+00 0.  1.
     999902    2    1    2    0    0  0.24058110691E-01 -0.54833658437E-02  0.19573623179E-01  0.10124341794E+01  0.10119441590E+01 0.  0.
     999903    2    3    3    0    0  0.65923148298E-01 -0.71647394948E-01 -0.73832433216E-01  0.12403390278E+00  0.21306575519E-01 0.  0.
         14    1    1    2    0    0 -0.24058110691E-01  0.54833658437E-02 -0.19573623179E-01  0.31495820602E-01  0.00000000000E+00 0. -1.
     999901    1    3    3    0    0 -0.41865037607E-01  0.66164029104E-01  0.93406056395E-01  0.88840027662E+00  0.88000000000E+00 0.  1.
        -11    1    4    4    0    0  0.34579800139E-01 -0.44366065904E-01 -0.54041374818E-01  0.78005395292E-01  0.51100000000E-03 0. -1.
         11    1    4    4    0    0  0.31343348159E-01 -0.27281329043E-01 -0.19791058398E-01  0.46028507490E-01  0.51100000000E-03 0.  1.
</event>
<event>
 8    1  0.1196210E+005  0.1043930E+01  0.7957747E-01            NaN
         13   -1    0    0    0    0  0.00000000000E+00  0.00000000000E+00  0.74505805969E-08  0.10566000000E+00  0.10566000000E+00 0.  1.
     999900   -1    0    0    0    0 -0.00000000000E+00 -0.00000000000E+00 -0.74505805969E-08  0.93827000000E+00  0.93827000000E+00 0.  1.
     999902    2    1    2    0    0 -0.14355391906E-01  0.17372307500E-01 -0.64702363995E-02  0.10204835012E+01  0.10202141138E+01 0.  0.
     999903    2    3    3    0    0 -0.19979397990E-01 -0.12523459153E+00 -0.12788787082E-01  0.12896329330E+00  0.19623931395E-01 0.  0.
         14    1    1    2    0    0  0.14355391906E-01 -0.17372307500E-01  0.64702363995E-02  0.23446498752E-01  0.00000000000E+00 0.  1.
     999901    1    3    3    0    0  0.56240060840E-02  0.14260689903E+00  0.63185506820E-02  0.89152020795E+00  0.88000000000E+00 0. -1.
        -11    1    4    4    0    0 -0.14279237850E-01 -0.34218205221E-01 -0.53294261116E-02  0.37462596090E-01  0.51100000000E-03 0. -1.
         11    1    4    4    0    0 -0.57001601399E-02 -0.91016386313E-01 -0.74593609700E-02  0.91500697211E-01  0.51100000000E-03 0.  1.
</event>
<event>
 8    1  0.1196210E+005  0.1043930E+01  0.7957747E-01            NaN
         13   -1    0    0    0    0  0.00000000000E+00  0.00000000000E+00  0.74505805969E-08  0.10566000000E+00  0.10566000000E+00 0. -1.
     999900   -1    0    0    0    0 -0.00000000000E+00 -0.00000000000E+00 -0.74505805969E-08  0.93827000000E+00  0.93827000000E+00 0.  1.
     999902    2    1    2    0    0 -0.20182905363E-01 -0.13077291715E-01  0.20592077132E-02  0.10197927764E+01  0.10195070874E+01 0.  0.
     999903    2    3    3    0    0 -0.11510827197E+00  0.57804175481E-01 -0.18079475739E-01  0.13162580211E+00  0.20180370618E-01 0.  0.
         14    1    1    2    0    0  0.20182905363E-01  0.13077291715E-01 -0.20592077132E-02  0.24137223616E-01  0.00000000000E+00 0. -1.
     999901    1    3    3    0    0  0.94925366612E-01 -0.70881467196E-01  0.20138683452E-01  0.88816697427E+00  0.88000000000E+00 0. -1.
        -11    1    4    4    0    0 -0.80981846485E-01  0.30245898457E-01 -0.10045980277E-01  0.87029056494E-01  0.51100000000E-03 0. -1.
         11    1    4    4    0    0 -0.34126425490E-01  0.27558277024E-01 -0.80334954612E-02  0.44596745617E-01  0.51100000000E-03 0.  1.
</event>
<event>
 8    1  0.1196210E+005  0.1043930E+01  0.7957747E-01            NaN
         13   -1    0    0    0    0  0.00000000000E+00  0.00000000000E+00  0.74505805969E-08  0.10566000000E+00  0.10566000000E+00 0.  1.
     999900   -1    0    0    0    0 -0.00000000000E+00 -0.00000000000E+00 -0.74505805969E-08  0.93827000000E+00  0.93827000000E+00 0. -1.
     999902    2    1    2    0    0 -0.19315878104E-01  0.12499994149E-01  0.21604737770E-02  0.10208211132E+01  0.10205595155E+01 0.  0.
     999903    2    3    3    0    0  0.82151882039E-01 -0.84082398659E-01  0.48534488914E-01  0.12853505247E+00  0.18624758070E-01 0.  0.
         14    1    1    2    0    0  0.19315878104E-01 -0.12499994149E-01 -0.21604737770E-02  0.23108886766E-01  0.00000000000E+00 0.  1.
     999901    1    3    3    0    0 -0.10146776014E+00  0.96582392808E-01 -0.46374015137E-01  0.89228606076E+00  0.88000000000E+00 0. -1.
        -11    1    4    4    0    0  0.39843995319E-01 -0.51948728760E-01  0.21419219963E-01  0.68885836625E-01  0.51100000000E-03 0.  1.
         11    1    4    4    0    0  0.42307886720E-01 -0.32133669899E-01  0.27115268951E-01  0.59649215847E-01  0.51100000000E-03 0. -1.
</event>
<event>
 8    1  0.1196210E+005  0.1043930E+01  0.7957747E-01            NaN
         13   -1    0    0    0    0  0.00000000000E+00  0.00000000000E+00  0.74505805969E-08  0.10566000000E+00  0.10566000000E+00 0.  1.
     999900   -1    0    0    0    0 -0.00000000000E+00 -0.00000000000E+00 -0.74505805969E-08  0.93827000000E+00  0.93827000000E+00 0.  1.
     999902    2    1    2    0    0  0.48974875846E-03  0.19876683570E-01  0.12480791695E-01  0.10204546392E+01  0.10201845804E+01 0.  0.
     999903    2    3    3    0    0  0.59040432514E-01 -0.38398198858E-01 -0.10585220043E+00  0.12869971686E+00  0.19968335853E-01 0.  0.
         14    1    1    2    0    0 -0.48974875846E-03 -0.19876683570E-01 -0.12480791695E-01  0.23475360805E-01  0.00000000000E+00 0. -1.
     999901    1    3    3    0    0 -0.58550683756E-01  0.58274882428E-01  0.11833299212E+00  0.89175492234E+00  0.88000000000E+00 0. -1.
        -11    1    4    4    0    0  0.47346889218E-01 -0.22634895266E-01 -0.66437462360E-01  0.84665600619E-01  0.51100000000E-03 0. -1.
         11    1    4    4    0    0  0.11693543296E-01 -0.15763303592E-01 -0.39414738067E-01  0.44034116238E-01  0.51100000000E-03 0.  1.
</event>
<event>
 8    1  0.1196210E+005  0.1043930E+01  0.7957747E-01            NaN
         13   -1    0    0    0    0  0.00000000000E+00  0.00000000000E+00  0.74505805969E-08  0.10566000000E+00  0.10566000000E+00 0.  1.
     999900   -1    0    0    0    0 -0.00000000000E+00 -0.00000000000E+00 -0.74505805969E-08  0.93827000000E+00  0.93827000000E+00 0.  1.
     999902    2    1    2    0    0  0.17706018833E-01  0.59338239409E-03  0.15846856859E-01  0.10201607325E+01  0.10198837885E+01 0.  0.
     999903    2    3    3    0    0  0.11558666173E+00  0.49711614476E-01  0.38809468045E-01  0.13307533497E+00  0.19270417358E-01 0.  0.
         14    1    1    2    0    0 -0.17706018833E-01 -0.59338239409E-03 -0.15846856859E-01  0.23769267508E-01  0.00000000000E+00 0. -1.
     999901    1    3    3    0    0 -0.97880642896E-01 -0.49118232082E-01 -0.22962611186E-01  0.88708539752E+00  0.88000000000E+00 0. -1.
        -11    1    4    4    0    0  0.82196219967E-01  0.32413507338E-01  0.18282464685E-01  0.90229505544E-01  0.51100000000E-03 0. -1.
         11    1    4    4    0    0  0.33390441762E-01  0.17298107138E-01  0.20527003359E-01  0.42845829430E-01  0.51100000000E-03 0.  1.
</event>
<event>
 8    1  0.1196210E+005  0.1043930E+01  0.7957747E-01            NaN
         13   -1    0    0    0    0  0.00000000000E+00  0.00000000000E+00  0.74505805969E-08  0.10566000000E+00  0.10566000000E+00 0.  1.
     999900   -1    0    0    0    0 -0.00000000000E+00 -0.00000000000E+00 -0.74505805969E-08  0.93827000000E+00  0.93827000000E+00 0. -1.
     999902    2    1    2    0    0  0.14432064670E-03  0.13173091872E-01 -0.18802802633E-01  0.10209714163E+01  0.10207132488E+01 0.  0.
     999903    2    3    3    0    0 -0.10902199042E+00  0.21721840076E-01  0.65180247019E-01  0.13021695116E+00  0.18717826699E-01 0.  0.
         14    1    1    2    0    0 -0.14432064670E-03 -0.13173091872E-01  0.18802802633E-01  0.22958583684E-01  0.00000000000E+00 0. -1.
     999901    1    3    3    0    0  0.10916631107E+00 -0.85487482045E-02 -0.83983049652E-01  0.89075446516E+00  0.88000000000E+00 0. -1.
        -11    1    4    4    0    0 -0.56152399268E-01  0.65932524127E-02  0.42488045951E-01  0.70725229521E-01  0.51100000000E-03 0. -1.
         11    1    4    4    0    0 -0.52869591151E-01  0.15128587664E-01  0.22692201067E-01  0.59491721638E-01  0.51100000000E-03 0.  1.
</event>
<event>
 8    1  0.1196210E+005  0.1043930E+01  0.7957747E-01            NaN
         13   -1    0    0    0    0  0.00000000000E+00  0.00000000000E+00  0.74505805969E-08  0.10566000000E+00  0.10566000000E+00 0. -1.
     999900   -1    0    0    0    0 -0.00000000000E+00 -0.00000000000E+00 -0.74505805969E-08  0.93827000000E+00  0.93827000000E+00 0.  1.
     999902    2    1    2    0    0 -0.24786539329E-02 -0.20680111540E-01 -0.12264260019E-01  0.10197592985E+01  0.10194728069E+01 0.  0.
     999903    2    3    3    0    0  0.35665114825E-01 -0.10793702903E+00 -0.66079595016E-01  0.13298717045E+00  0.19916625638E-01 0.  0.
         14    1    1    2    0    0  0.24786539329E-02  0.20680111540E-01  0.12264260019E-01  0.24170701530E-01  0.00000000000E+00 0. -1.
     999901    1    3    3    0    0 -0.38143768758E-01  0.87256917490E-01  0.53815334997E-01  0.88677212802E+00  0.88000000000E+00 0. -1.
        -11    1    4    4    0    0  0.21690950449E-01 -0.43495890982E-01 -0.36126343685E-01  0.60562064799E-01  0.51100000000E-03 0. -1.
         11    1    4    4    0    0  0.13974164376E-01 -0.64441138048E-01 -0.29953251331E-01  0.72425105655E-01  0.51100000000E-03 0.  1.
</event>
<event>
 8    1  0.1196210E+005  0.1043930E+01  0.7957747E-01            NaN
         13   -1    0    0    0    0  0.00000000000E+00  0.00000000000E+00  0.74505805969E-08  0.10566000000E+00  0.10566000000E+00 0.  1.
     999900   -1    0    0    0    0 -0.00000000000E+00 -0.00000000000E+00 -0.74505805969E-08  0.93827000000E+00  0.93827000000E+00 0. -1.
     999902    2    1    2    0    0  0.46522847663E-02 -0.20221229170E-01 -0.99114249634E-02  0.10209348221E+01  0.10206758216E+01 0.  0.
     999903    2    3    3    0    0  0.45754672723E-01 -0.12407759462E+00 -0.74997796159E-02  0.13387148332E+00  0.19405870003E-01 0.  0.
         14    1    1    2    0    0 -0.46522847663E-02  0.20221229170E-01  0.99114249634E-02  0.22995177919E-01  0.00000000000E+00 0.  1.
     999901    1    3    3    0    0 -0.41102387957E-01  0.10385636545E+00 -0.24116453475E-02  0.88706333876E+00  0.88000000000E+00 0. -1.
        -11    1    4    4    0    0  0.19749455400E-01 -0.39657862880E-01 -0.10313447950E-01  0.45490827718E-01  0.51100000000E-03 0.  1.
         11    1    4    4    0    0  0.26005217323E-01 -0.84419731736E-01  0.28136683341E-02  0.88380655603E-01  0.51100000000E-03 0. -1.
</event>
<event>
 8    1  0.1196210E+005  0.1043930E+01  0.7957747E-01            NaN
         13   -1    0    0    0    0  0.00000000000E+00  0.00000000000E+00  0.74505805969E-08  0.10566000000E+00  0.10566000000E+00 0. -1.
     999900   -1    0    0    0    0 -0.00000000000E+00 -0.00000000000E+00 -0.74505805969E-08  0.93827000000E+00  0.93827000000E+00 0. -1.
     999902    2    1    2    0    0 -0.78568685233E-02  0.98157706393E-02  0.52988848290E-02  0.10302860300E+01  0.10301956832E+01 0.  0.
     999903    2    3    3    0    0 -0.11987519403E+00 -0.26908802558E-02 -0.65753722422E-01  0.14025625830E+00  0.31160279200E-01 0.  0.
         14    1    1    2    0    0  0.78568685233E-02 -0.98157706393E-02 -0.52988848290E-02  0.13643969975E-01  0.00000000000E+00 0.  1.
     999901    1    3    3    0    0  0.11201832550E+00  0.12506650895E-01  0.71052607251E-01  0.89002977173E+00  0.88000000000E+00 0.  1.
        -11    1    4    4    0    0 -0.58820187328E-01 -0.79203700036E-02 -0.16413017402E-01  0.61580800251E-01  0.51100000000E-03 0.  1.
         11    1    4    4    0    0 -0.61055006698E-01  0.52294897478E-02 -0.49340705020E-01  0.78675458047E-01  0.51100000000E-03 0. -1.
</event>
<event>
 8    1  0.1196210E+005  0.1043930E+01  0.7957747E-01            NaN
         13   -1    0    0    0    0  0.00000000000E+00  0.00000000000E+00  0.74505805969E-08  0.10566000000E+00  0.10566000000E+00 0. -1.
     999900   -1    0    0    0    0 -0.00000000000E+00 -0.00000000000E+00 -0.74505805969E-08  0.93827000000E+00  0.93827000000E+00 0. -1.
     999902    2    1    2    0    0 -0.16749140917E-01  0.12968858204E-01 -0.99787226608E-02  0.10205141953E+01  0.10202455209E+01 0.  0.
     999903    2    3    3    0    0  0.10818656867E+00 -0.58787826214E-01  0.28369536709E-01  0.12797369632E+00  0.20300103107E-01 0.  0.
         14    1    1    2    0    0  0.16749140917E-01 -0.12968858204E-01  0.99787226608E-02  0.23415804716E-01  0.00000000000E+00 0. -1.
     999901    1    3    3    0    0 -0.12493570959E+00  0.71756684419E-01 -0.38348259369E-01  0.89254049896E+00  0.88000000000E+00 0. -1.
        -11    1    4    4    0    0  0.65999118270E-01 -0.46862881312E-01  0.18369905046E-01  0.83004384159E-01  0.51100000000E-03 0. -1.
         11    1    4    4    0    0  0.42187450399E-01 -0.11924944903E-01  0.99996316628E-02  0.44969312164E-01  0.51100000000E-03 0.  1.
</event>
<event>
 8    1  0.1196210E+005  0.1043930E+01  0.7957747E-01            NaN
         13   -1    0    0    0    0  0.00000000000E+00  0.00000000000E+00  0.74505805969E-08  0.10566000000E+00  0.10566000000E+00 0.  1.
     999900   -1    0    0    0    0 -0.00000000000E+00 -0.00000000000E+00 -0.74505805969E-08  0.93827000000E+00  0.93827000000E+00 0.  1.
     999902    2    1    2    0    0 -0.20509520166E-01  0.11335891915E-01  0.12277449934E-01  0.10174747805E+01  0.10171307931E+01 0.  0.
     999903    2    3    3    0    0 -0.55425168046E-01  0.11202461325E+00  0.33120889033E-01  0.13080022348E+00  0.19754542454E-01 0.  0.
         14    1    1    2    0    0  0.20509520166E-01 -0.11335891915E-01 -0.12277449934E-01  0.26455219520E-01  0.00000000000E+00 0. -1.
     999901    1    3    3    0    0  0.34915647880E-01 -0.10068872133E+00 -0.20843439099E-01  0.88667455700E+00  0.88000000000E+00 0.  1.
        -11    1    4    4    0    0 -0.21469050299E-01  0.64886419304E-01  0.20390084959E-01  0.71324499413E-01  0.51100000000E-03 0. -1.
         11    1    4    4    0    0 -0.33956117747E-01  0.47138193942E-01  0.12730804074E-01  0.59475724072E-01  0.51100000000E-03 0.  1.
</event>
<event>
 8    1  0.1196210E+005  0.1043930E+01  0.7957747E-01            NaN
         13   -1    0    0    0    0  0.00000000000E+00  0.00000000000E+00  0.74505805969E-08  0.10566000000E+00  0.10566000000E+00 0. -1.
     999900   -1    0    0    0    0 -0.00000000000E+00 -0.00000000000E+00 -0.74505805969E-08  0.93827000000E+00  0.93827000000E+00 0. -1.
     999902    2    1    2    0    0  0.20335146355E-02  0.67070029416E-02  0.30737674226E-01  0.10124034447E+01  0.10119124523E+01 0.  0.
     999903    2    3    3    0    0 -0.85913348276E-02  0.67210334037E-01  0.10539400608E+00  0.12710851739E+00  0.21392490244E-01 0.  0.
         14    1    1    2    0    0 -0.20335146355E-02 -0.67070029416E-02 -0.30737674226E-01  0.31526555268E-01  0.00000000000E+00 0.  1.
     999901    1    3    3    0    0  0.10624849463E-01 -0.60503331095E-01 -0.74656331854E-01  0.88529492735E+00  0.88000000000E+00 0. -1.
        -11    1    4    4    0    0 -0.14351913315E-01  0.46008450013E-01  0.81170184747E-01  0.94401350103E-01  0.51100000000E-03 0.  1.
         11    1    4    4    0    0  0.57605784870E-02  0.21201884024E-01  0.24223821332E-01  0.32707167282E-01  0.51100000000E-03 0. -1.
</event>
<event>
 8    1  0.1196210E+005  0.1043930E+01  0.7957747E-01            NaN
         13   -1    0    0    0    0  0.00000000000E+00  0.00000000000E+00  0.74505805969E-08  0.10566000000E+00  0.10566000000E+00 0.  1.
     999900   -1    0    0    0    0 -0.00000000000E+00 -0.00000000000E+00 -0.74505805969E-08  0.93827000000E+00  0.93827000000E+00 0.  1.
     999902    2    1    2    0    0 -0.43949453697E-02 -0.11266631623E-01  0.21488792036E-01  0.10192719239E+01  0.10189736180E+01 0.  0.
     999903    2    3    3    0    0 -0.97552374906E-01  0.78167491680E-01  0.28882394938E-01  0.12981622831E+00  0.19784786813E-01 0.  0.
         14    1    1    2    0    0  0.43949453697E-02  0.11266631623E-01 -0.21488792036E-01  0.24658076083E-01  0.00000000000E+00 0. -1.
     999901    1    3    3    0    0  0.93157429536E-01 -0.89434123303E-01 -0.73936029013E-02  0.88945569561E+00  0.88000000000E+00 0. -1.
        -11    1    4    4    0    0 -0.26060485374E-01  0.18767231471E-01  0.16300262304E-01  0.36018294618E-01  0.51100000000E-03 0.  1.
         11    1    4    4    0    0 -0.71491889532E-01  0.59400260209E-01  0.12582132634E-01  0.93797933689E-01  0.51100000000E-03 0. -1.
</event>
<event>
 8    1  0.1196210E+005  0.1043930E+01  0.7957747E-01            NaN
         13   -1    0    0    0    0  0.00000000000E+00  0.00000000000E+00  0.74505805969E-08  0.10566000000E+00  0.10566000000E+00 0. -1.
     999900   -1    0    0    0    0 -0.00000000000E+00 -0.00000000000E+00 -0.74505805969E-08  0.93827000000E+00  0.93827000000E+00 0. -1.
     999902    2    1    2    0    0 -0.52663316108E-03  0.18544600089E-01 -0.34703199650E-02  0.10250561383E+01  0.10248823659E+01 0.  0.
     999903    2    3    3    0    0  0.12711016134E+00 -0.27985188631E-01 -0.26465128187E-01  0.13433455792E+00  0.20129742753E-01 0.  0.
         14    1    1    2    0    0  0.52663316108E-03 -0.18544600089E-01  0.34703199650E-02  0.18873861704E-01  0.00000000000E+00 0. -1.
     999901    1    3    3    0    0 -0.12763679450E+00  0.46529788720E-01  0.22994808222E-01  0.89072158038E+00  0.88000000000E+00 0.  1.
        -11    1    4    4    0    0  0.77685460943E-01 -0.15143300448E-01 -0.25846189986E-01  0.83262458817E-01  0.51100000000E-03 0.  1.
         11    1    4    4    0    0  0.49424700393E-01 -0.12841888183E-01 -0.61893820072E-03  0.51072099100E-01  0.51100000000E-03 0. -1.
</event>
<event>
 8    1  0.1196210E+005  0.1043930E+01  0.7957747E-01            NaN
         13   -1    0    0    0    0  0.00000000000E+00  0.00000000000E+00  0.74505805969E-08  0.10566000000E+00  0.10566000000E+00 0.  1.
     999900   -1    0    0    0    0 -0.00000000000E+00 -0.00000000000E+00 -0.74505805969E-08  0.93827000000E+00  0.93827000000E+00 0. -1.
     999902    2    1    2    0    0 -0.17481795861E-01  0.16095058576E-01  0.73157105960E-03  0.10201560796E+01  0.10198790258E+01 0.  0.
     999903    2    3    3    0    0  0.85789983472E-02 -0.44769923916E-01  0.11973441184E+00  0.12968126958E+00  0.20073788916E-01 0.  0.
         14    1    1    2    0    0  0.17481795861E-01 -0.16095058576E-01 -0.73157105960E-03  0.23773920444E-01  0.00000000000E+00 0. -1.
     999901    1    3    3    0    0 -0.26060794208E-01  0.60864982491E-01 -0.11900284078E+00  0.89047480998E+00  0.88000000000E+00 0. -1.
        -11    1    4    4    0    0  0.10227732474E-01 -0.33818882724E-01  0.10756031289E+00  0.11321574701E+00  0.51100000000E-03 0. -1.
         11    1    4    4    0    0 -0.16487341264E-02 -0.10951041192E-01  0.12174098948E-01  0.16465522573E-01  0.51100000000E-03 0.  1.
</event>
<event>
 8    1  0.1196210E+005  0.1043930E+01  0.7957747E-01            NaN
         13   -1    0    0    0    0  0.00000000000E+00  0.00000000000E+00  0.74505805969E-08  0.10566000000E+00  0.10566000000E+00 0. -1.
     999900   -1    0    0    0    0 -0.00000000000E+00 -0.00000000000E+00 -0.74505805969E-08  0.93827000000E+00  0.93827000000E+00 0. -1.
     999902    2    1    2    0    0  0.13974087151E-01 -0.79334311593E-02  0.17426190209E-01  0.10202258538E+01  0.10199504430E+01 0.  0.
     999903    2    3    3    0    0 -0.96544891396E-01  0.45898871378E-01  0.71530978431E-01  0.13003503745E+00  0.19099938232E-01 0.  0.
         14    1    1    2    0    0 -0.13974087151E-01  0.79334311593E-02 -0.17426190209E-01  0.23704146196E-01  0.00000000000E+00 0.  1.
     999901    1    3    3    0    0  0.11051897855E+00 -0.53832302538E-01 -0.54104788222E-01  0.89019081636E+00  0.88000000000E+00 0. -1.
        -11    1    4    4    0    0 -0.80157974028E-01  0.45305441293E-01  0.58559605870E-01  0.10912090712E+00  0.51100000000E-03 0.  1.
         11    1    4    4    0    0 -0.16386917368E-01  0.59343008518E-03  0.12971372561E-01  0.20914130324E-01  0.51100000000E-03 0. -1.
</event>
<event>
 8    1  0.1196210E+005  0.1043930E+01  0.7957747E-01            NaN
         13   -1    0    0    0    0  0.00000000000E+00  0.00000000000E+00  0.74505805969E-08  0.10566000000E+00  0.10566000000E+00 0. -1.
     999900   -1    0    0    0    0 -0.00000000000E+00 -0.00000000000E+00 -0.74505805969E-08  0.93827000000E+00  0.93827000000E+00 0. -1.
     999902    2    1    2    0    0 -0.13273286980E-01  0.57862855511E-02 -0.18545046082E-01  0.10204017195E+01  0.10201304276E+01 0.  0.
     999903    2    3    3    0    0  0.69361213200E-01  0.92646403201E-01  0.54041390367E-01  0.12931141467E+00  0.20165221757E-01 0.  0.
         14    1    1    2    0    0  0.13273286980E-01 -0.57862855511E-02  0.18545046082E-01  0.23528280471E-01  0.00000000000E+00 0. -1.
     999901    1    3    3    0    0 -0.82634500180E-01 -0.86860117650E-01 -0.72586436449E-01  0.89109030486E+00  0.88000000000E+00 0. -1.
        -11    1    4    4    0    0  0.58112027684E-01  0.71467293640E-01  0.50549679663E-01  0.10507194229E+00  0.51100000000E-03 0. -1.
         11    1    4    4    0    0  0.11249185516E-01  0.21179109560E-01  0.34917107036E-02  0.24239472378E-01  0.51100000000E-03 0.  1.
</event>
<event>
 8    1  0.1196210E+005  0.1043930E+01  0.7957747E-01            NaN
         13   -1    0    0    0    0  0.00000000000E+00  0.00000000000E+00  0.74505805969E-08  0.10566000000E+00  0.10566000000E+00 0.  1.
     999900   -1    0    0    0    0 -0.00000000000E+00 -0.00000000000E+00 -0.74505805969E-08  0.93827000000E+00  0.93827000000E+00 0. -1.
     999902    2    1    2    0    0  0.19583863909E-01 -0.10626282107E-01  0.67345188436E-02  0.10206534165E+01  0.10203879641E+01 0.  0.
     999903    2    3    3    0    0 -0.17172515593E-01 -0.62079641457E-01 -0.11176144031E+00  0.13046255381E+00  0.19521301985E-01 0.  0.
         14    1    1    2    0    0 -0.19583863909E-01  0.10626282107E-01 -0.67345188436E-02  0.23276583535E-01  0.00000000000E+00 0. -1.
     999901    1    3    3    0    0  0.36756379502E-01  0.51453359350E-01  0.11849595915E+00  0.89019086266E+00  0.88000000000E+00 0.  1.
        -11    1    4    4    0    0 -0.11243047707E-01 -0.19511070773E-01 -0.53613747625E-01  0.58153100174E-01  0.51100000000E-03 0. -1.
         11    1    4    4    0    0 -0.59294678854E-02 -0.42568570684E-01 -0.58147692682E-01  0.72309453633E-01  0.51100000000E-03 0.  1.
</event>
<event>
 8    1  0.1196210E+005  0.1043930E+01  0.7957747E-01            NaN
         13   -1    0    0    0    0  0.00000000000E+00  0.00000000000E+00  0.74505805969E-08  0.10566000000E+00  0.10566000000E+00 0.  1.
     999900   -1    0    0    0    0 -0.00000000000E+00 -0.00000000000E+00 -0.74505805969E-08  0.93827000000E+00  0.93827000000E+00 0. -1.
     999902    2    1    2    0    0 -0.90734567740E-02  0.98737862518E-02 -0.18991254697E-01  0.10206816231E+01  0.10204168211E+01 0.  0.
     999903    2    3    3    0    0  0.88188016695E-01  0.33319039038E-01  0.85477821070E-01  0.12887264027E+00  0.20357182102E-01 0.  0.
         14    1    1    2    0    0  0.90734567740E-02 -0.98737862518E-02  0.18991254697E-01  0.23248376884E-01  0.00000000000E+00 0.  1.
     999901    1    3    3    0    0 -0.97261473469E-01 -0.23445252786E-01 -0.10446907577E+00  0.89180898285E+00  0.88000000000E+00 0. -1.
        -11    1    4    4    0    0  0.63626711755E-01  0.25846210461E-01  0.49440371839E-01  0.84622671504E-01  0.51100000000E-03 0.  1.
         11    1    4    4    0    0  0.24561304940E-01  0.74728285770E-02  0.36037449231E-01  0.44249968762E-01  0.51100000000E-03 0. -1.
</event>
<event>
 8    1  0.1196210E+005  0.1043930E+01  0.7957747E-01            NaN
         13   -1    0    0    0    0  0.00000000000E+00  0.00000000000E+00  0.74505805969E-08  0.10566000000E+00  0.10566000000E+00 0.  1.
     999900   -1    0    0    0    0 -0.00000000000E+00 -0.00000000000E+00 -0.74505805969E-08  0.93827000000E+00  0.93827000000E+00 0.  1.
     999902    2    1    2    0    0 -0.13328437110E-01 -0.16230752366E-02  0.19308145216E-01  0.10204122178E+01  0.10201411707E+01 0.  0.
     999903    2    3    3    0    0 -0.47322859215E-01 -0.37607537854E-01 -0.11237520539E+00  0.12923826893E+00  0.20507643979E-01 0.  0.
         14    1    1    2    0    0  0.13328437110E-01  0.16230752366E-02 -0.19308145216E-01  0.23517782223E-01  0.00000000000E+00 0. -1.
     999901    1    3    3    0    0  0.33994422104E-01  0.35984462617E-01  0.13168335060E+00  0.89117394885E+00  0.88000000000E+00 0. -1.
        -11    1    4    4    0    0 -0.64190869211E-02 -0.72349203322E-02 -0.62796142850E-02  0.11543111612E-01  0.51100000000E-03 0. -1.
         11    1    4    4    0    0 -0.40903772294E-01 -0.30372617522E-01 -0.10609559110E+00  0.11769515731E+00  0.51100000000E-03 0.  1.
</event>
<event>
 8    1  0.1196210E+005  0.1043930E+01  0.7957747E-01            NaN
         13   -1    0    0    0    0  0.00000000000E+00  0.00000000000E+00  0.74505805969E-08  0.10566000000E+00  0.10566000000E+00 0.  1.
     999900   -1    0    0    0    0 -0.00000000000E+00 -0.00000000000E+00 -0.74505805969E-08  0.93827000000E+00  0.93827000000E+00 0. -1.
     999902    2    1    2    0    0 -0.73793049485E-02 -0.16302467603E-01  0.14601131941E-01  0.10208341639E+01  0.10205728649E+01 0.  0.
     999903    2    3    3    0    0  0.11161188318E+00 -0.27135548704E-01 -0.57761677923E-01  0.12981641169E+00  0.17953797291E-01 0.  0.
         14    1    1    2    0    0  0.73793049485E-02  0.16302467603E-01 -0.14601131941E-01  0.23095836106E-01  0.00000000000E+00 0.  1.
     999901    1    3    3    0    0 -0.11899118812E+00  0.10833081100E-01  0.72362809864E-01  0.89101775221E+00  0.88000000000E+00 0.  1.
        -11    1    4    4    0    0  0.43460777771E-01 -0.47091376184E-02 -0.29304054678E-01  0.52630826738E-01  0.51100000000E-03 0. -1.
         11    1    4    4    0    0  0.68151105404E-01 -0.22426411086E-01 -0.28457623246E-01  0.77185584948E-01  0.51100000000E-03 0.  1.
</event>
<event>
 8    1  0.1196210E+005  0.1043930E+01  0.7957747E-01            NaN
         13   -1    0    0    0    0  0.00000000000E+00  0.00000000000E+00  0.74505805969E-08  0.10566000000E+00  0.10566000000E+00 0.  1.
     999900   -1    0    0    0    0 -0.00000000000E+00 -0.00000000000E+00 -0.74505805969E-08  0.93827000000E+00  0.93827000000E+00 0. -1.
     999902    2    1    2    0    0 -0.20492488533E-01  0.11324145128E-01  0.11987635684E-03  0.10205164843E+01  0.10202478630E+01 0.  0.
     999903    2    3    3    0    0 -0.12422962419E+00 -0.24004838848E-01 -0.35872433434E-01  0.13298903297E+00  0.19748913804E-01 0.  0.
         14    1    1    2    0    0  0.20492488533E-01 -0.11324145128E-01 -0.11987635684E-03  0.23413515744E-01  0.00000000000E+00 0.  1.
     999901    1    3    3    0    0  0.10373713565E+00  0.35328983976E-01  0.35992309791E-01  0.88752745129E+00  0.88000000000E+00 0. -1.
        -11    1    4    4    0    0 -0.29896572174E-01  0.99522807731E-03 -0.32668335814E-02  0.30095329028E-01  0.51100000000E-03 0.  1.
         11    1    4    4    0    0 -0.94333052012E-01 -0.25000066925E-01 -0.32605599853E-01  0.10289370394E+00  0.51100000000E-03 0. -1.
</event>
<event>
 7    1  0.1348388E+005  0.1043930E+01  0.7957747E-01            NaN
         13   -1    0    0    0    0  0.00000000000E+00  0.00000000000E+00  0.74505805969E-08  0.10566000000E+00  0.10566000000E+00 0. -1.
     999900   -1    0    0    0    0 -0.00000000000E+00 -0.00000000000E+00 -0.74505805969E-08  0.93827000000E+00  0.93827000000E+00 0. -1.
     999903    2    1    2    0    0 -0.90895411441E-01  0.51105089869E-01 -0.16138469608E-01  0.10757294490E+00  0.20923246447E-01 0.  0.
         14    1    1    2    0    0  0.36743356149E-01  0.17677079223E-01 -0.30292408566E-01  0.50795505389E-01  0.00000000000E+00 0. -1.
     999901    1    1    2    0    0  0.54152055292E-01 -0.68782169092E-01  0.46430878174E-01  0.88556154971E+00  0.88000000000E+00 0. -1.
        -11    1    3    3    0    0 -0.61691439245E-01  0.32880129429E-01 -0.87694315769E-03  0.69913995292E-01  0.51100000000E-03 0. -1.
         11    1    3    3    0    0 -0.29203972195E-01  0.18224960440E-01 -0.15261526450E-01  0.37658949609E-01  0.51100000000E-03 0.  1.
</event>
<event>
 8    1  0.1196210E+005  0.1043930E+01  0.7957747E-01            NaN
         13   -1    0    0    0    0  0.00000000000E+00  0.00000000000E+00  0.74505805969E-08  0.10566000000E+00  0.10566000000E+00 0.  1.
     999900   -1    0    0    0    0 -0.00000000000E+00 -0.00000000000E+00 -0.74505805969E-08  0.93827000000E+00  0.93827000000E+00 0. -1.
     999902    2    1    2    0    0 -0.52068270606E-02  0.23561367038E-01 -0.56237861789E-03  0.10197936097E+01  0.10195079407E+01 0.  0.
     999903    2    3    3    0    0  0.92175694729E-01  0.70793111237E-01 -0.58225629090E-01  0.13128967410E+00  0.18404655502E-01 0.  0.
         14    1    1    2    0    0  0.52068270606E-02 -0.23561367038E-01  0.56237861789E-03  0.24136390253E-01  0.00000000000E+00 0. -1.
     999901    1    3    3    0    0 -0.97382521790E-01 -0.47231744199E-01  0.57663250472E-01  0.88850393565E+00  0.88000000000E+00 0. -1.
        -11    1    4    4    0    0  0.50268432439E-01  0.27197916489E-01 -0.30047695442E-01  0.64573733697E-01  0.51100000000E-03 0. -1.
         11    1    4    4    0    0  0.41907262290E-01  0.43595194748E-01 -0.28177933648E-01  0.66715940400E-01  0.51100000000E-03 0.  1.
</event>
<event>
 8    1  0.1196210E+005  0.1043930E+01  0.7957747E-01            NaN
         13   -1    0    0    0    0  0.00000000000E+00  0.00000000000E+00  0.74505805969E-08  0.10566000000E+00  0.10566000000E+00 0. -1.
     999900   -1    0    0    0    0 -0.00000000000E+00 -0.00000000000E+00 -0.74505805969E-08  0.93827000000E+00  0.93827000000E+00 0.  1.
     999902    2    1    2    0    0  0.13452390152E-02 -0.52347813923E-03  0.23605670220E-01  0.10202802354E+01  0.10200061017E+01 0.  0.
     999903    2    3    3    0    0 -0.91643970971E-01  0.91087097013E-01  0.54902472540E-02  0.13046696334E+00  0.17204913545E-01 0.  0.
         14    1    1    2    0    0 -0.13452390152E-02  0.52347813923E-03 -0.23605670220E-01  0.23649764564E-01  0.00000000000E+00 0.  1.
     999901    1    3    3    0    0  0.92989209986E-01 -0.91610575153E-01  0.18115422966E-01  0.88981327210E+00  0.88000000000E+00 0.  1.
        -11    1    4    4    0    0 -0.53941299318E-01  0.41764638140E-01  0.45929357600E-02  0.68376201641E-01  0.51100000000E-03 0. -1.
         11    1    4    4    0    0 -0.37702671653E-01  0.49322458874E-01  0.89731149408E-03  0.62090761696E-01  0.51100000000E-03 0.  1.
</event>
<event>
 8    1  0.1196210E+005  0.1043930E+01  0.7957747E-01            NaN
         13   -1    0    0    0    0  0.00000000000E+00  0.00000000000E+00  0.74505805969E-08  0.10566000000E+00  0.10566000000E+00 0.  1.
     999900   -1    0    0    0    0 -0.00000000000E+00 -0.00000000000E+00 -0.74505805969E-08  0.93827000000E+00  0.93827000000E+00 0. -1.
     999902    2    1    2    0    0 -0.12483081228E-01  0.12308242163E-02  0.20096633898E-01  0.10202399823E+01  0.10199649036E+01 0.  0.
     999903    2    3    3    0    0 -0.34760216286E-01 -0.12448246316E+00  0.64996453417E-02  0.13092284006E+00  0.19859214153E-01 0.  0.
         14    1    1    2    0    0  0.12483081228E-01 -0.12308242163E-02 -0.20096633898E-01  0.23690017713E-01  0.00000000000E+00 0.  1.
     999901    1    3    3    0    0  0.22277135058E-01  0.12571328738E+00  0.13596988556E-01  0.88931714223E+00  0.88000000000E+00 0. -1.
        -11    1    4    4    0    0 -0.15027497658E-01 -0.46707342387E-01 -0.69657379444E-02  0.49559904609E-01  0.51100000000E-03 0. -1.
         11    1    4    4    0    0 -0.19732718628E-01 -0.77775120777E-01  0.13465383286E-01  0.81362935446E-01  0.51100000000E-03 0.  1.
</event>
<event>
 8    1  0.1196210E+005  0.1043930E+01  0.7957747E-01            NaN
         13   -1    0    0    0    0  0.00000000000E+00  0.00000000000E+00  0.74505805969E-08  0.10566000000E+00  0.10566000000E+00 0.  1.
     999900   -1    0    0    0    0 -0.00000000000E+00 -0.00000000000E+00 -0.74505805969E-08  0.93827000000E+00  0.93827000000E+00 0.  1.
     999902    2    1    2    0    0 -0.63202399036E-02 -0.18027857141E-01  0.49278350213E-02  0.10242010207E+01  0.10240109854E+01 0.  0.
     999903    2    3    3    0    0  0.74073838948E-01 -0.11140766554E+00 -0.85593428767E-02  0.13551384263E+00  0.19802465395E-01 0.  0.
         14    1    1    2    0    0  0.63202399036E-02  0.18027857141E-01 -0.49278350213E-02  0.19728979282E-01  0.00000000000E+00 0. -1.
     999901    1    3    3    0    0 -0.80394078851E-01  0.93379808401E-01  0.13487177898E-01  0.88868717809E+00  0.88000000000E+00 0. -1.
        -11    1    4    4    0    0  0.39702881468E-01 -0.42127747066E-01 -0.27152390646E-02  0.57954288141E-01  0.51100000000E-03 0. -1.
         11    1    4    4    0    0  0.34370957479E-01 -0.69279918475E-01 -0.58441038121E-02  0.77559554488E-01  0.51100000000E-03 0.  1.
</event>
<event>
 8    1  0.1196210E+005  0.1043930E+01  0.7957747E-01            NaN
         13   -1    0    0    0    0  0.00000000000E+00  0.00000000000E+00  0.74505805969E-08  0.10566000000E+00  0.10566000000E+00 0. -1.
     999900   -1    0    0    0    0 -0.00000000000E+00 -0.00000000000E+00 -0.74505805969E-08  0.93827000000E+00  0.93827000000E+00 0. -1.
     999902    2    1    2    0    0 -0.20677151412E-01  0.57616118710E-02 -0.93152289911E-02  0.10205309775E+01  0.10202626926E+01 0.  0.
     999903    2    3    3    0    0  0.10229119722E+00 -0.71725426134E-01  0.19431896446E-01  0.12814549296E+00  0.20872062311E-01 0.  0.
         14    1    1    2    0    0  0.20677151412E-01 -0.57616118710E-02  0.93152289911E-02  0.23399022480E-01  0.00000000000E+00 0. -1.
     999901    1    3    3    0    0 -0.12296834863E+00  0.77487038005E-01 -0.28747125437E-01  0.89238548456E+00  0.88000000000E+00 0.  1.
        -11    1    4    4    0    0  0.88833370994E-01 -0.54604466241E-01  0.11264727924E-01  0.10488169884E+00  0.51100000000E-03 0. -1.
         11    1    4    4    0    0  0.13457826225E-01 -0.17120959893E-01  0.81671685220E-02  0.23263794124E-01  0.51100000000E-03 0.  1.
</event>
<event>
 8    1  0.1196210E+005  0.1043930E+01  0.7957747E-01            NaN
         13   -1    0    0    0    0  0.00000000000E+00  0.00000000000E+00  0.74505805969E-08  0.10566000000E+00  0.10566000000E+00 0.  1.
     999900   -1    0    0    0    0 -0.00000000000E+00 -0.00000000000E+00 -0.74505805969E-08  0.93827000000E+00  0.93827000000E+00 0. -1.
     999902    2    1    2    0    0 -0.10921716955E-01  0.20850502288E-01 -0.37887576080E-02  0.10200892359E+01  0.10198106036E+01 0.  0.
     999903    2    3    3    0    0 -0.63874021370E-01 -0.75624592388E-01 -0.81767440059E-01  0.12981283765E+00  0.19143902019E-01 0.  0.
         14    1    1    2    0    0  0.10921716955E-01 -0.20850502288E-01  0.37887576080E-02  0.23840764063E-01  0.00000000000E+00 0.  1.
     999901    1    3    3    0    0  0.52952304415E-01  0.96475094675E-01  0.77978682451E-01  0.89027639829E+00  0.88000000000E+00 0.  1.
        -11    1    4    4    0    0 -0.70727091661E-02 -0.16286175099E-01 -0.82947850491E-02  0.19604267247E-01  0.51100000000E-03 0. -1.
         11    1    4    4    0    0 -0.56801312203E-01 -0.59338417289E-01 -0.73472655010E-01  0.11020857040E+00  0.51100000000E-03 0.  1.
</event>
<event>
 8    1  0.1196210E+005  0.1043930E+01  0.7957747E-01            NaN
         13   -1    0    0    0    0  0.00000000000E+00  0.00000000000E+00  0.74505805969E-08  0.10566000000E+00  0.10566000000E+00 0. -1.
     999900   -1    0    0    0    0 -0.00000000000E+00 -0.00000000000E+00 -0.74505805969E-08  0.93827000000E+00  0.93827000000E+00 0. -1.
     999902    2    1    2    0    0  0.65910238680E-02  0.36724983254E-02 -0.24350082274E-01  0.10184377395E+01  0.10181186443E+01 0.  0.
     999903    2    3    3    0    0 -0.10826415745E+00  0.56085793249E-01 -0.38742972657E-01  0.12931118974E+00  0.18804836295E-01 0.  0.
         14    1    1    2    0    0 -0.65910238680E-02 -0.36724983254E-02  0.24350082274E-01  0.25492260518E-01  0.00000000000E+00 0. -1.
     999901    1    3    3    0    0  0.11485518132E+00 -0.52413294923E-01  0.14392890383E-01  0.88912654974E+00  0.88000000000E+00 0.  1.
        -11    1    4    4    0    0 -0.56805598355E-01  0.21399852868E-01 -0.25563090667E-01  0.65867764746E-01  0.51100000000E-03 0.  1.
         11    1    4    4    0    0 -0.51458559100E-01  0.34685940381E-01 -0.13179881990E-01  0.63443424994E-01  0.51100000000E-03 0. -1.
</event>
<event>
 8    1  0.1196210E+005  0.1043930E+01  0.7957747E-01            NaN
         13   -1    0    0    0    0  0.00000000000E+00  0.00000000000E+00  0.74505805969E-08  0.10566000000E+00  0.10566000000E+00 0.  1.
     999900   -1    0    0    0    0 -0.00000000000E+00 -0.00000000000E+00 -0.74505805969E-08  0.93827000000E+00  0.93827000000E+00 0.  1.
     999902    2    1    2    0    0 -0.16277585288E-01 -0.12794973362E-01  0.11040060661E-01  0.10204661115E+01  0.10201963196E+01 0.  0.
     999903    2    3    3    0    0  0.51046872922E-01 -0.10534878768E+00  0.57072146883E-01  0.13186173144E+00  0.20643061033E-01 0.  0.
         14    1    1    2    0    0  0.16277585288E-01  0.12794973362E-01 -0.11040060661E-01  0.23463888543E-01  0.00000000000E+00 0. -1.
     999901    1    3    3    0    0 -0.67324458210E-01  0.92553814317E-01 -0.46032086222E-01  0.88860438001E+00  0.88000000000E+00 0.  1.
        -11    1    4    4    0    0 -0.15125477178E-03 -0.81455177352E-02  0.23396820578E-03  0.81662843020E-02  0.51100000000E-03 0. -1.
         11    1    4    4    0    0  0.51198127694E-01 -0.97203269944E-01  0.56838178677E-01  0.12369544714E+00  0.51100000000E-03 0.  1.
</event>
<event>
 8    1  0.1196210E+005  0.1043930E+01  0.7957747E-01            NaN
         13   -1    0    0    0    0  0.00000000000E+00  0.00000000000E+00  0.74505805969E-08  0.10566000000E+00  0.10566000000E+00 0. -1.
     999900   -1    0    0    0    0 -0.00000000000E+00 -0.00000000000E+00 -0.74505805969E-08  0.93827000000E+00  0.93827000000E+00 0. -1.
     999902    2    1    2    0    0  0.81240632299E-02  0.22391446881E-01 -0.30583912224E-02  0.10199147745E+01  0.10196320004E+01 0.  0.
     999903    2    3    3    0    0 -0.11203044436E+00 -0.47388635475E-01  0.35379593231E-01  0.12818396077E+00  0.19568059306E-01 0.  0.
         14    1    1    2    0    0 -0.81240632299E-02 -0.22391446881E-01  0.30583912224E-02  0.24015225455E-01  0.00000000000E+00 0.  1.
     999901    1    3    3    0    0  0.12015450759E+00  0.69780082356E-01 -0.38437984453E-01  0.89173081378E+00  0.88000000000E+00 0. -1.
        -11    1    4    4    0    0 -0.69840800420E-01 -0.38150708153E-01  0.17788681059E-01  0.81546994001E-01  0.51100000000E-03 0. -1.
         11    1    4    4    0    0 -0.42189643944E-01 -0.92379273216E-02  0.17590912172E-01  0.46636966768E-01  0.51100000000E-03 0.  1.
</event>
<event>
 8    1  0.1196210E+005  0.1043930E+01  0.7957747E-01            NaN
         13   -1    0    0    0    0  0.00000000000E+00  0.00000000000E+00  0.74505805969E-08  0.10566000000E+00  0.10566000000E+00 0.  1.
     999900   -1    0    0    0    0 -0.00000000000E+00 -0.00000000000E+00 -0.74505805969E-08  0.93827000000E+00  0.93827000000E+00 0.  1.
     999902    2    1    2    0    0 -0.19858309749E-01 -0.63862334723E-02 -0.11981164102E-01  0.10198741330E+01  0.10195903895E+01 0.  0.
     999903    2    3    3    0    0 -0.55637725807E-01  0.91102413476E-01  0.71220699981E-01  0.12987033914E+00  0.19967739179E-01 0.  0.
         14    1    1    2    0    0  0.19858309749E-01  0.63862334723E-02  0.11981164102E-01  0.24055867003E-01  0.00000000000E+00 0.  1.
     999901    1    3    3    0    0  0.35779416057E-01 -0.97488646948E-01 -0.83201864082E-01  0.89000379386E+00  0.88000000000E+00 0.  1.
        -11    1    4    4    0    0 -0.44306731565E-01  0.55005302606E-01  0.43320397888E-01  0.82858842442E-01  0.51100000000E-03 0. -1.
         11    1    4    4    0    0 -0.11330994242E-01  0.36097110869E-01  0.27900302093E-01  0.47011496695E-01  0.51100000000E-03 0.  1.
</event>
<event>
 8    1  0.1196210E+005  0.1043930E+01  0.7957747E-01            NaN
         13   -1    0    0    0    0  0.00000000000E+00  0.00000000000E+00  0.74505805969E-08  0.10566000000E+00  0.10566000000E+00 0. -1.
     999900   -1    0    0    0    0 -0.00000000000E+00 -0.00000000000E+00 -0.74505805969E-08  0.93827000000E+00  0.93827000000E+00 0.  1.
     999902    2    1    2    0    0 -0.23283981973E-02 -0.11225296247E-01  0.20520170709E-01  0.10204245513E+01  0.10201537917E+01 0.  0.
     999903    2    3    3    0    0  0.16162290879E-01 -0.78221229759E-01  0.10523488608E+00  0.13362866512E+00  0.20061367408E-01 0.  0.
         14    1    1    2    0    0  0.23283981973E-02  0.11225296247E-01 -0.20520170709E-01  0.23505448729E-01  0.00000000000E+00 0.  1.
     999901    1    3    3    0    0 -0.18490689076E-01  0.66995933512E-01 -0.84714715373E-01  0.88679588615E+00  0.88000000000E+00 0.  1.
        -11    1    4    4    0    0  0.40837801774E-02 -0.16999649363E-02  0.30520440694E-02  0.53984474919E-02  0.51100000000E-03 0. -1.
         11    1    4    4    0    0  0.12078510702E-01 -0.76521264823E-01  0.10218284201E+00  0.12823021763E+00  0.51100000000E-03 0.  1.
</event>
<event>
 8    1  0.1196210E+005  0.1043930E+01  0.7957747E-01            NaN
         13   -1    0    0    0    0  0.00000000000E+00  0.00000000000E+00  0.74505805969E-08  0.10566000000E+00  0.10566000000E+00 0.  1.
     999900   -1    0    0    0    0 -0.00000000000E+00 -0.00000000000E+00 -0.74505805969E-08  0.93827000000E+00  0.93827000000E+00 0.  1.
     999902    2    1    2    0    0 -0.55616838606E-02  0.17971466605E-01 -0.18081137092E-02  0.10250309203E+01  0.10248566789E+01 0.  0.
     999903    2    3    3    0    0  0.66476330909E-01 -0.10444128318E+00  0.42945319076E-01  0.13251916874E+00  0.19747036460E-01 0.  0.
         14    1    1    2    0    0  0.55616838606E-02 -0.17971466605E-01  0.18081137092E-02  0.18899079726E-01  0.00000000000E+00 0.  1.
     999901    1    3    3    0    0 -0.72038014770E-01  0.12241274979E+00 -0.44753432785E-01  0.89251175154E+00  0.88000000000E+00 0.  1.
        -11    1    4    4    0    0  0.17421520353E-01 -0.18410532646E-01  0.22589193632E-02  0.25452326444E-01  0.51100000000E-03 0.  1.
         11    1    4    4    0    0  0.49054810556E-01 -0.86030750536E-01  0.40686399713E-01  0.10706684230E+00  0.51100000000E-03 0. -1.
</event>
<event>
 8    1  0.1196210E+005  0.1043930E+01  0.7957747E-01            NaN
         13   -1    0    0    0    0  0.00000000000E+00  0.00000000000E+00  0.74505805969E-08  0.10566000000E+00  0.10566000000E+00 0. -1.
     999900   -1    0    0    0    0 -0.00000000000E+00 -0.00000000000E+00 -0.74505805969E-08  0.93827000000E+00  0.93827000000E+00 0.  1.
     999902    2    1    2    0    0 -0.68717209149E-02 -0.18594201724E-01 -0.12568640771E-01  0.10204579823E+01  0.10201880013E+01 0.  0.
     999903    2    3    3    0    0 -0.86555583741E-01 -0.45446642680E-02  0.93801501391E-01  0.13036724832E+00  0.26160556590E-01 0.  0.
         14    1    1    2    0    0  0.68717209149E-02  0.18594201724E-01  0.12568640771E-01  0.23472017743E-01  0.00000000000E+00 0. -1.
     999901    1    3    3    0    0  0.79683862827E-01 -0.14049537456E-01 -0.10637014216E+00  0.89009073394E+00  0.88000000000E+00 0.  1.
        -11    1    4    4    0    0 -0.65840115457E-01 -0.38087157057E-02  0.53036362037E-01  0.84631813982E-01  0.51100000000E-03 0. -1.
         11    1    4    4    0    0 -0.20715468284E-01 -0.73594856230E-03  0.40765139354E-01  0.45735434337E-01  0.51100000000E-03 0.  1.
</event>
<event>
 8    1  0.1196210E+005  0.1043930E+01  0.7957747E-01            NaN
         13   -1    0    0    0    0  0.00000000000E+00  0.00000000000E+00  0.74505805969E-08  0.10566000000E+00  0.10566000000E+00 0.  1.
     999900   -1    0    0    0    0 -0.00000000000E+00 -0.00000000000E+00 -0.74505805969E-08  0.93827000000E+00  0.93827000000E+00 0.  1.
     999902    2    1    2    0    0 -0.12836243923E-01 -0.16137735285E-01  0.11107560045E-01  0.10205083530E+01  0.10202395429E+01 0.  0.
     999903    2    3    3    0    0 -0.93463229744E-01 -0.46531040534E-01  0.81079731200E-01  0.13353565410E+00  0.18903308119E-01 0.  0.
         14    1    1    2    0    0  0.12836243923E-01  0.16137735285E-01 -0.11107560045E-01  0.23421647003E-01  0.00000000000E+00 0. -1.
     999901    1    3    3    0    0  0.80626985821E-01  0.30393305249E-01 -0.69972171156E-01  0.88697269889E+00  0.88000000000E+00 0.  1.
        -11    1    4    4    0    0 -0.56328721634E-01 -0.25796109000E-01  0.36449497652E-01  0.71883176896E-01  0.51100000000E-03 0.  1.
         11    1    4    4    0    0 -0.37134508110E-01 -0.20734931534E-01  0.44630233548E-01  0.61652477208E-01  0.51100000000E-03 0. -1.
</event>
<event>
 8    1  0.1196210E+005  0.1043930E+01  0.7957747E-01            NaN
         13   -1    0    0    0    0  0.00000000000E+00  0.00000000000E+00  0.74505805969E-08  0.10566000000E+00  0.10566000000E+00 0. -1.
     999900   -1    0    0    0    0 -0.00000000000E+00 -0.00000000000E+00 -0.74505805969E-08  0.93827000000E+00  0.93827000000E+00 0.  1.
     999902    2    1    2    0    0 -0.18643019472E-01 -0.15464374038E-01 -0.23495121518E-02  0.10195942393E+01  0.10193037740E+01 0.  0.
     999903    2    3    3    0    0  0.27843163068E-01  0.12250871571E+00 -0.10197906733E-01  0.12759696583E+00  0.19833336345E-01 0.  0.
         14    1    1    2    0    0  0.18643019472E-01  0.15464374038E-01  0.23495121518E-02  0.24335760657E-01  0.00000000000E+00 0.  1.
     999901    1    3    3    0    0 -0.46486182540E-01 -0.13797308975E+00  0.78483945810E-02  0.89199727352E+00  0.88000000000E+00 0. -1.
        -11    1    4    4    0    0  0.23693963247E-01  0.61933058354E-01 -0.84826168479E-02  0.66852999342E-01  0.51100000000E-03 0.  1.
         11    1    4    4    0    0  0.41491998212E-02  0.60575657360E-01 -0.17152898849E-02  0.60743966484E-01  0.51100000000E-03 0. -1.
</event>
<event>
 8    1  0.1196210E+005  0.1043930E+01  0.7957747E-01            NaN
         13   -1    0    0    0    0  0.00000000000E+00  0.00000000000E+00  0.74505805969E-08  0.10566000000E+00  0.10566000000E+00 0. -1.
     999900   -1    0    0    0    0 -0.00000000000E+00 -0.00000000000E+00 -0.74505805969E-08  0.93827000000E+00  0.93827000000E+00 0. -1.
     999902    2    1    2    0    0 -0.21666456714E-01  0.10348962776E-01  0.11502188159E-01  0.10173060125E+01  0.10169575637E+01 0.  0.
     999903    2    3    3    0    0 -0.16729663194E-01  0.98402939536E-01  0.80860697505E-01  0.13018230211E+00  0.21117747059E-01 0.  0.
         14    1    1    2    0    0  0.21666456714E-01 -0.10348962776E-01 -0.11502188159E-01  0.26623987483E-01  0.00000000000E+00 0.  1.
     999901    1    3    3    0    0 -0.49367935200E-02 -0.88053976759E-01 -0.69358509346E-01  0.88712371041E+00  0.88000000000E+00 0. -1.
        -11    1    4    4    0    0 -0.95274302942E-02  0.50348320013E-01  0.28060614229E-01  0.58424176914E-01  0.51100000000E-03 0. -1.
         11    1    4    4    0    0 -0.72022328994E-02  0.48054619523E-01  0.52800083276E-01  0.71758125193E-01  0.51100000000E-03 0.  1.
</event>
<event>
 8    1  0.1196210E+005  0.1043930E+01  0.7957747E-01            NaN
         13   -1    0    0    0    0  0.00000000000E+00  0.00000000000E+00  0.74505805969E-08  0.10566000000E+00  0.10566000000E+00 0. -1.
     999900   -1    0    0    0    0 -0.00000000000E+00 -0.00000000000E+00 -0.74505805969E-08  0.93827000000E+00  0.93827000000E+00 0.  1.
     999902    2    1    2    0    0  0.12518053234E-01  0.10290293772E-01 -0.16048894862E-01  0.10211230092E+01  0.10208682780E+01 0.  0.
     999903    2    3    3    0    0 -0.73333950165E-01  0.82783140538E-01  0.65780751594E-01  0.13021231202E+00  0.19930436974E-01 0.  0.
         14    1    1    2    0    0 -0.12518053234E-01 -0.10290293772E-01  0.16048894862E-01  0.22806990792E-01  0.00000000000E+00 0. -1.
     999901    1    3    3    0    0  0.85852003399E-01 -0.72492846766E-01 -0.81829646456E-01  0.89091069719E+00  0.88000000000E+00 0.  1.
        -11    1    4    4    0    0 -0.30879711022E-01  0.29012625559E-01  0.35615558598E-01  0.55353573777E-01  0.51100000000E-03 0. -1.
         11    1    4    4    0    0 -0.42454239143E-01  0.53770514979E-01  0.30165192997E-01  0.74858738246E-01  0.51100000000E-03 0.  1.
</event>
<event>
 8    1  0.1196210E+005  0.1043930E+01  0.7957747E-01            NaN
         13   -1    0    0    0    0  0.00000000000E+00  0.00000000000E+00  0.74505805969E-08  0.10566000000E+00  0.10566000000E+00 0.  1.
     999900   -1    0    0    0    0 -0.00000000000E+00 -0.00000000000E+00 -0.74505805969E-08  0.93827000000E+00  0.93827000000E+00 0.  1.
     999902    2    1    2    0    0  0.23626959285E-02  0.12351154065E-01  0.18179326022E-01  0.10218252215E+01  0.10215861011E+01 0.  0.
     999903    2    3    3    0    0 -0.60685850886E-01  0.13462083598E-01  0.11702769464E+00  0.13404858662E+00  0.20237145791E-01 0.  0.
         14    1    1    2    0    0 -0.23626959285E-02 -0.12351154065E-01 -0.18179326022E-01  0.22104778520E-01  0.00000000000E+00 0. -1.
     999901    1    3    3    0    0  0.63048546814E-01 -0.11109295325E-02 -0.98848368620E-01  0.88777663486E+00  0.88000000000E+00 0.  1.
        -11    1    4    4    0    0 -0.24395716843E-02 -0.22618418367E-02  0.14376473631E-02  0.36599712345E-02  0.51100000000E-03 0. -1.
         11    1    4    4    0    0 -0.58246279202E-01  0.15723925435E-01  0.11559004728E+00  0.13038861539E+00  0.51100000000E-03 0.  1.
</event>
<event>
 8    1  0.1196210E+005  0.1043930E+01  0.7957747E-01            NaN
         13   -1    0    0    0    0  0.00000000000E+00  0.00000000000E+00  0.74505805969E-08  0.10566000000E+00  0.10566000000E+00 0.  1.
     999900   -1    0    0    0    0 -0.00000000000E+00 -0.00000000000E+00 -0.74505805969E-08  0.93827000000E+00  0.93827000000E+00 0.  1.
     999902    2    1    2    0    0  0.92620929887E-02  0.65789542238E-02  0.19692107050E-01  0.10211957068E+01  0.10209426152E+01 0.  0.
     999903    2    3    3    0    0  0.25946433355E-01 -0.23443434861E-01 -0.12272201310E+00  0.12908501154E+00  0.19479108374E-01 0.  0.
         14    1    1    2    0    0 -0.92620929887E-02 -0.65789542238E-02 -0.19692107050E-01  0.22734293155E-01  0.00000000000E+00 0. -1.
     999901    1    3    3    0    0 -0.16684340366E-01  0.30022389085E-01  0.14241412015E+00  0.89211069531E+00  0.88000000000E+00 0. -1.
        -11    1    4    4    0    0 -0.79804754206E-03 -0.97283180386E-02 -0.24952954190E-01  0.26799031616E-01  0.51100000000E-03 0. -1.
         11    1    4    4    0    0  0.26744480897E-01 -0.13715116823E-01 -0.97769058910E-01  0.10228597992E+00  0.51100000000E-03 0.  1.
</event>
<event>
 8    1  0.1196210E+005  0.1043930E+01  0.7957747E-01            NaN
         13   -1    0    0    0    0  0.00000000000E+00  0.00000000000E+00  0.74505805969E-08  0.10566000000E+00  0.10566000000E+00 0.  1.
     999900   -1    0    0    0    0 -0.00000000000E+00 -0.00000000000E+00 -0.74505805969E-08  0.93827000000E+00  0.93827000000E+00 0. -1.
     999902    2    1    2    0    0  0.39889463379E-02 -0.73039048430E-02  0.21828713613E-01  0.10205686760E+01  0.10203012649E+01 0.  0.
     999903    2    3    3    0    0  0.60574569606E-01 -0.90911740462E-01  0.73835611164E-01  0.13327113839E+00  0.19372036944E-01 0.  0.
         14    1    1    2    0    0 -0.39889463379E-02  0.73039048430E-02 -0.21828713613E-01  0.23361323953E-01  0.00000000000E+00 0. -1.
     999901    1    3    3    0    0 -0.56585623268E-01  0.83607835619E-01 -0.52006897551E-01  0.88729753766E+00  0.88000000000E+00 0.  1.
        -11    1    4    4    0    0  0.23852260648E-01 -0.45138197038E-01  0.44186318826E-01  0.67520952765E-01  0.51100000000E-03 0.  1.
         11    1    4    4    0    0  0.36722308958E-01 -0.45773543425E-01  0.29649292338E-01  0.65750185627E-01  0.51100000000E-03 0. -1.
</event>
<event>
 8    1  0.1196210E+005  0.1043930E+01  0.7957747E-01            NaN
         13   -1    0    0    0    0  0.00000000000E+00  0.00000000000E+00  0.74505805969E-08  0.10566000000E+00  0.10566000000E+00 0. -1.
     999900   -1    0    0    0    0 -0.00000000000E+00 -0.00000000000E+00 -0.74505805969E-08  0.93827000000E+00  0.93827000000E+00 0. -1.
     999902    2    1    2    0    0  0.10548902934E-02 -0.23214555590E-01  0.21441164153E-02  0.10205927847E+01  0.10203259315E+01 0.  0.
     999903    2    3    3    0    0 -0.93911259421E-01 -0.82530379996E-01  0.40173425240E-01  0.13268334955E+00  0.18983647827E-01 0.  0.
         14    1    1    2    0    0 -0.10548902934E-02  0.23214555590E-01 -0.21441164153E-02  0.23337215343E-01  0.00000000000E+00 0. -1.
     999901    1    3    3    0    0  0.94966149714E-01  0.59315824406E-01 -0.38029308825E-01  0.88790943510E+00  0.88000000000E+00 0. -1.
        -11    1    4    4    0    0 -0.37393237661E-01 -0.44611435498E-01  0.14985040811E-01  0.60110290043E-01  0.51100000000E-03 0. -1.
         11    1    4    4    0    0 -0.56518021760E-01 -0.37918944498E-01  0.25188384429E-01  0.72573059510E-01  0.51100000000E-03 0.  1.
</event>
<event>
 8    1  0.1196210E+005  0.1043930E+01  0.7957747E-01            NaN
         13   -1    0    0    0    0  0.00000000000E+00  0.00000000000E+00  0.74505805969E-08  0.10566000000E+00  0.10566000000E+00 0.  1.
     999900   -1    0    0    0    0 -0.00000000000E+00 -0.00000000000E+00 -0.74505805969E-08  0.93827000000E+00  0.93827000000E+00 0. -1.
     999902    2    1    2    0    0  0.14360135294E-02 -0.22830647867E-01  0.47338749595E-02  0.10205695593E+01  0.10203021686E+01 0.  0.
     999903    2    3    3    0    0  0.90511565578E-01 -0.44189055535E-01  0.85260287010E-01  0.13215797756E+00  0.71692649827E-02 0.  0.
         14    1    1    2    0    0 -0.14360135294E-02  0.22830647867E-01 -0.47338749595E-02  0.23360440685E-01  0.00000000000E+00 0. -1.
     999901    1    3    3    0    0 -0.89075552049E-01  0.21358407669E-01 -0.80526412050E-01  0.88841158175E+00  0.88000000000E+00 0. -1.
        -11    1    4    4    0    0  0.24533865165E-01 -0.15347961813E-01  0.23101058261E-01  0.37032289769E-01  0.51100000000E-03 0. -1.
         11    1    4    4    0    0  0.65977700413E-01 -0.28841093722E-01  0.62159228749E-01  0.95125687796E-01  0.51100000000E-03 0.  1.
</event>
<event>
 8    1  0.1196210E+005  0.1043930E+01  0.7957747E-01            NaN
         13   -1    0    0    0    0  0.00000000000E+00  0.00000000000E+00  0.74505805969E-08  0.10566000000E+00  0.10566000000E+00 0.  1.
     999900   -1    0    0    0    0 -0.00000000000E+00 -0.00000000000E+00 -0.74505805969E-08  0.93827000000E+00  0.93827000000E+00 0. -1.
     999902    2    1    2    0    0  0.14293060971E-01  0.75939837865E-02 -0.19142934804E-01  0.10188618502E+01  0.10185534142E+01 0.  0.
     999903    2    3    3    0    0 -0.86533774846E-01  0.42122110409E-01 -0.84986111755E-01  0.12998977487E+00  0.20306058322E-01 0.  0.
         14    1    1    2    0    0 -0.14293060971E-01 -0.75939837865E-02  0.19142934804E-01  0.25068149803E-01  0.00000000000E+00 0.  1.
     999901    1    3    3    0    0  0.10082683582E+00 -0.34528126622E-01  0.65843176951E-01  0.88887207533E+00  0.88000000000E+00 0. -1.
        -11    1    4    4    0    0 -0.63364666076E-01  0.37826758076E-01 -0.71891112204E-01  0.10302687838E+00  0.51100000000E-03 0.  1.
         11    1    4    4    0    0 -0.23169108770E-01  0.42953523330E-02 -0.13094999551E-01  0.26962896489E-01  0.51100000000E-03 0. -1.
</event>
<event>
 8    1  0.1196210E+005  0.1043930E+01  0.7957747E-01            NaN
         13   -1    0    0    0    0  0.00000000000E+00  0.00000000000E+00  0.74505805969E-08  0.10566000000E+00  0.10566000000E+00 0.  1.
     999900   -1    0    0    0    0 -0.00000000000E+00 -0.00000000000E+00 -0.74505805969E-08  0.93827000000E+00  0.93827000000E+00 0. -1.
     999902    2    1    2    0    0  0.79455653734E-02  0.10371478065E-01 -0.77418862755E-02  0.10287432831E+01  0.10286311808E+01 0.  0.
     999903    2    3    3    0    0 -0.44679074237E-01  0.21523194199E-01 -0.12803596835E+00  0.13893185386E+00  0.21198661800E-01 0.  0.
         14    1    1    2    0    0 -0.79455653734E-02 -0.10371478065E-01  0.77418862755E-02  0.15186716876E-01  0.00000000000E+00 0. -1.
     999901    1    3    3    0    0  0.52624639611E-01 -0.11151716133E-01  0.12029408208E+00  0.88981142926E+00  0.88000000000E+00 0.  1.
        -11    1    4    4    0    0 -0.26066815708E-01  0.12800223854E-01 -0.46353871706E-01  0.54701619309E-01  0.51100000000E-03 0. -1.
         11    1    4    4    0    0 -0.18612258529E-01  0.87229703450E-02 -0.81682096645E-01  0.84230234551E-01  0.51100000000E-03 0.  1.
</event>
<event>
 8    1  0.1196210E+005  0.1043930E+01  0.7957747E-01            NaN
         13   -1    0    0    0    0  0.00000000000E+00  0.00000000000E+00  0.74505805969E-08  0.10566000000E+00  0.10566000000E+00 0. -1.
     999900   -1    0    0    0    0 -0.00000000000E+00 -0.00000000000E+00 -0.74505805969E-08  0.93827000000E+00  0.93827000000E+00 0.  1.
     999902    2    1    2    0    0  0.22217703564E-01  0.73361543875E-02  0.45985941251E-02  0.10200848206E+01  0.10198060838E+01 0.  0.
     999903    2    3    3    0    0  0.11096043784E+00 -0.64182036891E-02 -0.65704989526E-01  0.13272522656E+00  0.30747813140E-01 0.  0.
         14    1    1    2    0    0 -0.22217703564E-01 -0.73361543875E-02 -0.45985941251E-02  0.23845179404E-01  0.00000000000E+00 0. -1.
     999901    1    3    3    0    0 -0.88742734276E-01  0.13754358077E-01  0.70303583651E-01  0.88735959404E+00  0.88000000000E+00 0. -1.
        -11    1    4    4    0    0  0.54163406479E-01  0.82624968976E-02 -0.19895276341E-01  0.58292594711E-01  0.51100000000E-03 0.  1.
         11    1    4    4    0    0  0.56797031360E-01 -0.14680700587E-01 -0.45809713185E-01  0.74432631850E-01  0.51100000000E-03 0. -1.
</event>
<event>
 8    1  0.1196210E+005  0.1043930E+01  0.7957747E-01            NaN
         13   -1    0    0    0    0  0.00000000000E+00  0.00000000000E+00  0.74505805969E-08  0.10566000000E+00  0.10566000000E+00 0.  1.
     999900   -1    0    0    0    0 -0.00000000000E+00 -0.00000000000E+00 -0.74505805969E-08  0.93827000000E+00  0.93827000000E+00 0.  1.
     999902    2    1    2    0    0  0.10755715255E-01  0.18892645095E-01 -0.11995241482E-01  0.10191005162E+01  0.10187979970E+01 0.  0.
     999903    2    3    3    0    0 -0.12183738133E+00 -0.32328809546E-01  0.55972926335E-02  0.12752098301E+00  0.18460011020E-01 0.  0.
         14    1    1    2    0    0 -0.10755715255E-01 -0.18892645095E-01  0.11995241482E-01  0.24829483836E-01  0.00000000000E+00 0.  1.
     999901    1    3    3    0    0  0.13259309659E+00  0.51221454641E-01 -0.17592534115E-01  0.89157953315E+00  0.88000000000E+00 0.  1.
        -11    1    4    4    0    0 -0.34006915388E-01 -0.17497655218E-01 -0.32156190423E-03  0.38249219017E-01  0.51100000000E-03 0. -1.
         11    1    4    4    0    0 -0.87830465946E-01 -0.14831154328E-01  0.59188545378E-02  0.89271763996E-01  0.51100000000E-03 0.  1.
</event>
<event>
 8    1  0.1196210E+005  0.1043930E+01  0.7957747E-01            NaN
         13   -1    0    0    0    0  0.00000000000E+00  0.00000000000E+00  0.74505805969E-08  0.10566000000E+00  0.10566000000E+00 0. -1.
     999900   -1    0    0    0    0 -0.00000000000E+00 -0.00000000000E+00 -0.74505805969E-08  0.93827000000E+00  0.93827000000E+00 0.  1.
     999902    2    1    2    0    0  0.40599765446E-02  0.17739006193E-01  0.13468274385E-01  0.10212904292E+01  0.10210394658E+01 0.  0.
     999903    2    3    3    0    0 -0.90212134157E-01 -0.30576949684E-01 -0.85136770123E-01  0.12946947339E+00  0.20997521576E-01 0.  0.
         14    1    1    2    0    0 -0.40599765446E-02 -0.17739006193E-01 -0.13468274385E-01  0.22639570781E-01  0.00000000000E+00 0.  1.
     999901    1    3    3    0    0  0.94272110702E-01  0.48315955878E-01  0.98605044507E-01  0.89182095583E+00  0.88000000000E+00 0. -1.
        -11    1    4    4    0    0 -0.77249867151E-01 -0.24415186685E-01 -0.61121452519E-01  0.10148761695E+00  0.51100000000E-03 0.  1.
         11    1    4    4    0    0 -0.12962267006E-01 -0.61617629994E-02 -0.24015317603E-01  0.27981856439E-01  0.51100000000E-03 0. -1.
</event>
<event>
 8    1  0.1196210E+005  0.1043930E+01  0.7957747E-01            NaN
         13   -1    0    0    0    0  0.00000000000E+00  0.00000000000E+00  0.74505805969E-08  0.10566000000E+00  0.10566000000E+00 0.  1.
     999900   -1    0    0    0    0 -0.00000000000E+00 -0.00000000000E+00 -0.74505805969E-08  0.93827000000E+00  0.93827000000E+00 0.  1.
     999902    2    1    2    0    0 -0.22892443572E-01 -0.45067210432E-03 -0.66403427506E-02  0.10200896722E+01  0.10198110502E+01 0.  0.
     999903    2    3    3    0    0 -0.10360094521E+00 -0.17875462832E-01 -0.79224586494E-01  0.13324923671E+00  0.20643060813E-01 0.  0.
         14    1    1    2    0    0  0.22892443572E-01  0.45067210432E-03  0.66403427506E-02  0.23840327805E-01  0.00000000000E+00 0. -1.
     999901    1    3    3    0    0  0.80708501636E-01  0.17424790728E-01  0.72584243744E-01  0.88684043548E+00  0.88000000000E+00 0. -1.
        -11    1    4    4    0    0 -0.84510020807E-01 -0.11691557149E-01 -0.53830980134E-01  0.10087949082E+00  0.51100000000E-03 0. -1.
         11    1    4    4    0    0 -0.19090924401E-01 -0.61839056838E-02 -0.25393606360E-01  0.32369745890E-01  0.51100000000E-03 0.  1.
</event>
<event>
 8    1  0.1196210E+005  0.1043930E+01  0.7957747E-01            NaN
         13   -1    0    0    0    0  0.00000000000E+00  0.00000000000E+00  0.74505805969E-08  0.10566000000E+00  0.10566000000E+00 0. -1.
     999900   -1    0    0    0    0 -0.00000000000E+00 -0.00000000000E+00 -0.74505805969E-08  0.93827000000E+00  0.93827000000E+00 0. -1.
     999902    2    1    2    0    0 -0.23007658625E-01  0.16390832366E-02  0.17077760782E-02  0.10208008961E+01  0.10205388351E+01 0.  0.
     999903    2    3    3    0    0 -0.11966114022E+00 -0.55518732918E-01 -0.73007736735E-02  0.13361993064E+00  0.19996659339E-01 0.  0.
         14    1    1    2    0    0  0.23007658625E-01 -0.16390832366E-02 -0.17077760782E-02  0.23129103925E-01  0.00000000000E+00 0. -1.
     999901    1    3    3    0    0  0.96653481600E-01  0.57157816155E-01  0.90085497517E-02  0.88718096543E+00  0.88000000000E+00 0. -1.
        -11    1    4    4    0    0 -0.42062061392E-01 -0.96964357736E-02 -0.51519844211E-02  0.43474612589E-01  0.51100000000E-03 0. -1.
         11    1    4    4    0    0 -0.77599078832E-01 -0.45822297144E-01 -0.21487892524E-02  0.90145318056E-01  0.51100000000E-03 0.  1.
</event>
<event>
 8    1  0.1196210E+005  0.1043930E+01  0.7957747E-01            NaN
         13   -1    0    0    0    0  0.00000000000E+00  0.00000000000E+00  0.74505805969E-08  0.10566000000E+00  0.10566000000E+00 0. -1.
     999900   -1    0    0    0    0 -0.00000000000E+00 -0.00000000000E+00 -0.74505805969E-08  0.93827000000E+00  0.93827000000E+00 0.  1.
     999902    2    1    2    0    0  0.22722497266E-01 -0.58449334667E-02  0.38251358331E-02  0.10201580250E+01  0.10198810172E+01 0.  0.
     999903    2    3    3    0    0  0.16933365215E-01 -0.12822373271E+00  0.10478977969E-01  0.13164558384E+00  0.22196537522E-01 0.  0.
         14    1    1    2    0    0 -0.22722497266E-01  0.58449334667E-02 -0.38251358331E-02  0.23771974957E-01  0.00000000000E+00 0.  1.
     999901    1    3    3    0    0  0.57891320508E-02  0.12237879924E+00 -0.66538421360E-02  0.88851244120E+00  0.88000000000E+00 0. -1.
        -11    1    4    4    0    0 -0.44277656826E-03 -0.34986422104E-01 -0.56309093105E-02  0.35443109956E-01  0.51100000000E-03 0. -1.
         11    1    4    4    0    0  0.17376141784E-01 -0.93237310607E-01  0.16109887280E-01  0.96202473885E-01  0.51100000000E-03 0.  1.
</event>
<event>
 8    1  0.1196210E+005  0.1043930E+01  0.7957747E-01            NaN
         13   -1    0    0    0    0  0.00000000000E+00  0.00000000000E+00  0.74505805969E-08  0.10566000000E+00  0.10566000000E+00 0.  1.
     999900   -1    0    0    0    0 -0.00000000000E+00 -0.00000000000E+00 -0.74505805969E-08  0.93827000000E+00  0.93827000000E+00 0.  1.
     999902    2    1    2    0    0 -0.18218041927E-01  0.54603552097E-02  0.12767756539E-01  0.10210230548E+01  0.10207660605E+01 0.  0.
     999903    2    3    3    0    0 -0.57587375454E-01  0.16555025749E-01 -0.11458010331E+00  0.13091603117E+00  0.20494693270E-01 0.  0.
         14    1    1    2    0    0  0.18218041927E-01 -0.54603552097E-02 -0.12767756539E-01  0.22906945185E-01  0.00000000000E+00 0. -1.
     999901    1    3    3    0    0  0.39369333527E-01 -0.11094670539E-01  0.12734785985E+00  0.89010702365E+00  0.88000000000E+00 0. -1.
        -11    1    4    4    0    0 -0.30946958170E-01  0.19025737692E-01 -0.60324043524E-01  0.70419771817E-01  0.51100000000E-03 0. -1.
         11    1    4    4    0    0 -0.26640417285E-01 -0.24707119429E-02 -0.54256059790E-01  0.60496259351E-01  0.51100000000E-03 0.  1.
</event>
<event>
 8    1  0.1196210E+005  0.1043930E+01  0.7957747E-01            NaN
         13   -1    0    0    0    0  0.00000000000E+00  0.00000000000E+00  0.74505805969E-08  0.10566000000E+00  0.10566000000E+00 0. -1.
     999900   -1    0    0    0    0 -0.00000000000E+00 -0.00000000000E+00 -0.74505805969E-08  0.93827000000E+00  0.93827000000E+00 0.  1.
     999902    2    1    2    0    0 -0.67084188786E-02 -0.21069363681E-01  0.73622545674E-02  0.10206249842E+01  0.10203588754E+01 0.  0.
     999903    2    3    3    0    0  0.10229522628E+00  0.62611182170E-01  0.43776610874E-01  0.12921585603E+00  0.19896540852E-01 0.  0.
         14    1    1    2    0    0  0.67084188786E-02  0.21069363681E-01 -0.73622545674E-02  0.23305015814E-01  0.00000000000E+00 0.  1.
     999901    1    3    3    0    0 -0.10900364516E+00 -0.83680545851E-01 -0.36414356307E-01  0.89140912815E+00  0.88000000000E+00 0. -1.
        -11    1    4    4    0    0  0.39093917196E-01  0.16606871101E-01  0.23106895866E-01  0.48356098758E-01  0.51100000000E-03 0. -1.
         11    1    4    4    0    0  0.63201309084E-01  0.46004311069E-01  0.20669715009E-01  0.80859757274E-01  0.51100000000E-03 0.  1.
</event>
<event>
 8    1  0.1196210E+005  0.1043930E+01  0.7957747E-01            NaN
         13   -1    0    0    0    0  0.00000000000E+00  0.00000000000E+00  0.74505805969E-08  0.10566000000E+00  0.10566000000E+00 0. -1.
     999900   -1    0    0    0    0 -0.00000000000E+00 -0.00000000000E+00 -0.74505805969E-08  0.93827000000E+00  0.93827000000E+00 0.  1.
     999902    2    1    2    0    0  0.12665742496E-01 -0.89928851274E-02  0.18305363209E-01  0.10199220984E+01  0.10196394988E+01 0.  0.
     999903    2    3    3    0    0  0.68663535937E-01  0.31589093777E-01 -0.10263599320E+00  0.12896224435E+00  0.19610235947E-01 0.  0.
         14    1    1    2    0    0 -0.12665742496E-01  0.89928851274E-02 -0.18305363209E-01  0.24007901577E-01  0.00000000000E+00 0.  1.
     999901    1    3    3    0    0 -0.55997793440E-01 -0.40581978904E-01  0.12094135641E+00  0.89095985407E+00  0.88000000000E+00 0. -1.
        -11    1    4    4    0    0  0.44561385677E-01  0.16089517386E-01 -0.77527944322E-01  0.90859413023E-01  0.51100000000E-03 0. -1.
         11    1    4    4    0    0  0.24102150259E-01  0.15499576391E-01 -0.25108048880E-01  0.38102831325E-01  0.51100000000E-03 0.  1.
</event>
<event>
 8    1  0.1196210E+005  0.1043930E+01  0.7957747E-01            NaN
         13   -1    0    0    0    0  0.00000000000E+00  0.00000000000E+00  0.74505805969E-08  0.10566000000E+00  0.10566000000E+00 0. -1.
     999900   -1    0    0    0    0 -0.00000000000E+00 -0.00000000000E+00 -0.74505805969E-08  0.93827000000E+00  0.93827000000E+00 0.  1.
     999902    2    1    2    0    0  0.67207805753E-02 -0.22157038601E-01 -0.83000977472E-03  0.10207612243E+01  0.10204982532E+01 0.  0.
     999903    2    3    3    0    0  0.51330387761E-01  0.11079535970E+00 -0.36121784057E-01  0.12895863034E+00  0.20374607161E-01 0.  0.
         14    1    1    2    0    0 -0.67207805753E-02  0.22157038601E-01  0.83000977472E-03  0.23168775698E-01  0.00000000000E+00 0.  1.
     999901    1    3    3    0    0 -0.44609607186E-01 -0.13295239830E+00  0.35291774283E-01  0.89180259396E+00  0.88000000000E+00 0.  1.
        -11    1    4    4    0    0  0.21722307969E-01  0.60203518678E-01 -0.10000576274E-01  0.64781131292E-01  0.51100000000E-03 0.  1.
         11    1    4    4    0    0  0.29608079792E-01  0.50591841021E-01 -0.26121207783E-01  0.64177499047E-01  0.51100000000E-03 0. -1.
</event>
<event>
 8    1  0.1196210E+005  0.1043930E+01  0.7957747E-01            NaN
         13   -1    0    0    0    0  0.00000000000E+00  0.00000000000E+00  0.74505805969E-08  0.10566000000E+00  0.10566000000E+00 0. -1.
     999900   -1    0    0    0    0 -0.00000000000E+00 -0.00000000000E+00 -0.74505805969E-08  0.93827000000E+00  0.93827000000E+00 0. -1.
     999902    2    1    2    0    0  0.12657355851E-01 -0.18149325912E-01  0.51142825656E-02  0.10212195933E+01  0.10209670392E+01 0.  0.
     999903    2    3    3    0    0  0.30954174186E-01 -0.11360595679E+00 -0.60099183710E-01  0.13346988860E+00  0.18380015293E-01 0.  0.
         14    1    1    2    0    0 -0.12657355851E-01  0.18149325912E-01 -0.51142825656E-02  0.22710406741E-01  0.00000000000E+00 0. -1.
     999901    1    3    3    0    0 -0.18296818335E-01  0.95456630878E-01  0.65213466276E-01  0.88774970466E+00  0.88000000000E+00 0.  1.
        -11    1    4    4    0    0  0.29524128572E-01 -0.75981680592E-01 -0.40897929444E-01  0.91201928200E-01  0.51100000000E-03 0.  1.
         11    1    4    4    0    0  0.14300456138E-02 -0.37624276198E-01 -0.19201254266E-01  0.42267960399E-01  0.51100000000E-03 0. -1.
</event>
<event>
 8    1  0.1196210E+005  0.1043930E+01  0.7957747E-01            NaN
         13   -1    0    0    0    0  0.00000000000E+00  0.00000000000E+00  0.74505805969E-08  0.10566000000E+00  0.10566000000E+00 0.  1.
     999900   -1    0    0    0    0 -0.00000000000E+00 -0.00000000000E+00 -0.74505805969E-08  0.93827000000E+00  0.93827000000E+00 0. -1.
     999902    2    1    2    0    0  0.88041683526E-03 -0.20235380699E-02 -0.23573211234E-01  0.10202537223E+01  0.10199789663E+01 0.  0.
     999903    2    3    3    0    0  0.47454628768E-01  0.10592517584E+00 -0.59196298808E-01  0.13172061290E+00  0.19339943165E-01 0.  0.
         14    1    1    2    0    0 -0.88041683526E-03  0.20235380699E-02  0.23573211234E-01  0.23676277748E-01  0.00000000000E+00 0.  1.
     999901    1    3    3    0    0 -0.46574211933E-01 -0.10794871391E+00  0.35623087575E-01  0.88853310935E+00  0.88000000000E+00 0.  1.
        -11    1    4    4    0    0  0.42670719219E-01  0.74907133791E-01 -0.41358277040E-01  0.95617138485E-01  0.51100000000E-03 0. -1.
         11    1    4    4    0    0  0.47839095494E-02  0.31018042047E-01 -0.17838021768E-01  0.36103474412E-01  0.51100000000E-03 0.  1.
</event>
<event>
 8    1  0.1196210E+005  0.1043930E+01  0.7957747E-01            NaN
         13   -1    0    0    0    0  0.00000000000E+00  0.00000000000E+00  0.74505805969E-08  0.10566000000E+00  0.10566000000E+00 0. -1.
     999900   -1    0    0    0    0 -0.00000000000E+00 -0.00000000000E+00 -0.74505805969E-08  0.93827000000E+00  0.93827000000E+00 0. -1.
     999902    2    1    2    0    0 -0.14699885664E-01  0.82658294126E-02  0.17085650662E-01  0.10199231253E+01  0.10196405501E+01 0.  0.
     999903    2    3    3    0    0 -0.87936152638E-01  0.55861260197E-01  0.80633727691E-01  0.13331879758E+00  0.20465981905E-01 0.  0.
         14    1    1    2    0    0  0.14699885664E-01 -0.82658294126E-02 -0.17085650662E-01  0.24006874703E-01  0.00000000000E+00 0.  1.
     999901    1    3    3    0    0  0.73236266974E-01 -0.47595430785E-01 -0.63548077029E-01  0.88660432772E+00  0.88000000000E+00 0. -1.
        -11    1    4    4    0    0 -0.12867375064E-01  0.17801573701E-01  0.15381493215E-01  0.26820082434E-01  0.51100000000E-03 0. -1.
         11    1    4    4    0    0 -0.75068777574E-01  0.38059686497E-01  0.65252234476E-01  0.10649871515E+00  0.51100000000E-03 0.  1.
</event>
<event>
 8    1  0.1196210E+005  0.1043930E+01  0.7957747E-01            NaN
         13   -1    0    0    0    0  0.00000000000E+00  0.00000000000E+00  0.74505805969E-08  0.10566000000E+00  0.10566000000E+00 0. -1.
     999900   -1    0    0    0    0 -0.00000000000E+00 -0.00000000000E+00 -0.74505805969E-08  0.93827000000E+00  0.93827000000E+00 0. -1.
     999902    2    1    2    0    0  0.23445603367E-01  0.43618015071E-02  0.40400446745E-03  0.10200786929E+01  0.10197998112E+01 0.  0.
     999903    2    3    3    0    0 -0.63330739322E-01  0.11100928052E+00  0.11941068842E-01  0.12932792964E+00  0.15788646464E-01 0.  0.
         14    1    1    2    0    0 -0.23445603367E-01 -0.43618015071E-02 -0.40400446745E-03  0.23851307076E-01  0.00000000000E+00 0.  1.
     999901    1    3    3    0    0  0.86776342689E-01 -0.10664747901E+00 -0.11537064375E-01  0.89075076328E+00  0.88000000000E+00 0. -1.
        -11    1    4    4    0    0 -0.26237373587E-01  0.50761018293E-01  0.12844001301E-01  0.58568850435E-01  0.51100000000E-03 0.  1.
         11    1    4    4    0    0 -0.37093365735E-01  0.60248262223E-01 -0.90293245933E-03  0.70759079209E-01  0.51100000000E-03 0. -1.
</event>
<event>
 8    1  0.1196210E+005  0.1043930E+01  0.7957747E-01            NaN
         13   -1    0    0    0    0  0.00000000000E+00  0.00000000000E+00  0.74505805969E-08  0.10566000000E+00  0.10566000000E+00 0.  1.
     999900   -1    0    0    0    0 -0.00000000000E+00 -0.00000000000E+00 -0.74505805969E-08  0.93827000000E+00  0.93827000000E+00 0.  1.
     999902    2    1    2    0    0  0.29338840254E-02  0.81278892304E-02  0.22387815127E-01  0.10199324059E+01  0.10196500517E+01 0.  0.
     999903    2    3    3    0    0  0.22904581859E-01  0.17822378006E-01  0.12838895663E+00  0.13329321549E+00  0.21002382772E-01 0.  0.
         14    1    1    2    0    0 -0.29338840254E-02 -0.81278892304E-02 -0.22387815127E-01  0.23997594149E-01  0.00000000000E+00 0. -1.
     999901    1    3    3    0    0 -0.19970697834E-01 -0.96944887758E-02 -0.10600114151E+00  0.88663919036E+00  0.88000000000E+00 0.  1.
        -11    1    4    4    0    0  0.10609823345E-01  0.20535505739E-01  0.87817689612E-01  0.90810148536E-01  0.51100000000E-03 0. -1.
         11    1    4    4    0    0  0.12294758514E-01 -0.27131277330E-02  0.40571267021E-01  0.42483066953E-01  0.51100000000E-03 0.  1.
</event>
<event>
 8    1  0.1196210E+005  0.1043930E+01  0.7957747E-01            NaN
         13   -1    0    0    0    0  0.00000000000E+00  0.00000000000E+00  0.74505805969E-08  0.10566000000E+00  0.10566000000E+00 0. -1.
     999900   -1    0    0    0    0 -0.00000000000E+00 -0.00000000000E+00 -0.74505805969E-08  0.93827000000E+00  0.93827000000E+00 0.  1.
     999902    2    1    2    0    0 -0.75664819600E-03  0.12556208203E-01 -0.18951057710E-01  0.10211841549E+01  0.10209308031E+01 0.  0.
     999903    2    3    3    0    0 -0.48321798829E-01 -0.77665637110E-01  0.88453304445E-01  0.12880636386E+00  0.20003621544E-01 0.  0.
         14    1    1    2    0    0  0.75664819600E-03 -0.12556208203E-01  0.18951057710E-01  0.22745845099E-01  0.00000000000E+00 0.  1.
     999901    1    3    3    0    0  0.47565150633E-01  0.90221845312E-01 -0.10740436216E+00  0.89237779104E+00  0.88000000000E+00 0.  1.
        -11    1    4    4    0    0 -0.15474528015E-01 -0.41757599314E-01  0.48435448931E-01  0.65798267089E-01  0.51100000000E-03 0.  1.
         11    1    4    4    0    0 -0.32847270814E-01 -0.35908037796E-01  0.40017855514E-01  0.63008096775E-01  0.51100000000E-03 0. -1.
</event>
<event>
 8    1  0.1196210E+005  0.1043930E+01  0.7957747E-01            NaN
         13   -1    0    0    0    0  0.00000000000E+00  0.00000000000E+00  0.74505805969E-08  0.10566000000E+00  0.10566000000E+00 0.  1.
     999900   -1    0    0    0    0 -0.00000000000E+00 -0.00000000000E+00 -0.74505805969E-08  0.93827000000E+00  0.93827000000E+00 0.  1.
     999902    2    1    2    0    0  0.13567116843E-01  0.10344500700E-01  0.17354566408E-01  0.10195936829E+01  0.10193032041E+01 0.  0.
     999903    2    3    3    0    0 -0.52244055915E-01 -0.47511954048E-01  0.10806940100E+00  0.13060118518E+00  0.19769850299E-01 0.  0.
         14    1    1    2    0    0 -0.13567116843E-01 -0.10344500700E-01 -0.17354566408E-01  0.24336317087E-01  0.00000000000E+00 0. -1.
     999901    1    3    3    0    0  0.65811172758E-01  0.57856454748E-01 -0.90714834593E-01  0.88899249774E+00  0.88000000000E+00 0.  1.
        -11    1    4    4    0    0 -0.47444522578E-01 -0.42787429520E-01  0.83611297805E-01  0.10522764413E+00  0.51100000000E-03 0. -1.
         11    1    4    4    0    0 -0.47995333369E-02 -0.47245245282E-02  0.24458103196E-01  0.25373541046E-01  0.51100000000E-03 0.  1.
</event>
<event>
 8    1  0.1196210E+005  0.1043930E+01  0.7957747E-01            NaN
         13   -1    0    0    0    0  0.00000000000E+00  0.00000000000E+00  0.74505805969E-08  0.10566000000E+00  0.10566000000E+00 0.  1.
     999900   -1    0    0    0    0 -0.00000000000E+00 -0.00000000000E+00 -0.74505805969E-08  0.93827000000E+00  0.93827000000E+00 0.  1.
     999902    2    1    2    0    0  0.30085627209E-02  0.32926835925E-02  0.19899928278E-01  0.10235363647E+01  0.10233331762E+01 0.  0.
     999903    2    3    3    0    0  0.12987033840E+00 -0.24578435764E-02  0.28267315142E-01  0.13438115224E+00  0.19669956336E-01 0.  0.
         14    1    1    2    0    0 -0.30085627209E-02 -0.32926835925E-02 -0.19899928278E-01  0.20393635290E-01  0.00000000000E+00 0. -1.
     999901    1    3    3    0    0 -0.12686177568E+00  0.57505271689E-02 -0.83673868642E-02  0.88915521247E+00  0.88000000000E+00 0. -1.
        -11    1    4    4    0    0  0.92924528290E-01 -0.97369298917E-02  0.24093096542E-01  0.96491005713E-01  0.51100000000E-03 0. -1.
         11    1    4    4    0    0  0.36945810109E-01  0.72790863153E-02  0.41742185998E-02  0.37890146531E-01  0.51100000000E-03 0.  1.
</event>
<event>
 8    1  0.1196210E+005  0.1043930E+01  0.7957747E-01            NaN
         13   -1    0    0    0    0  0.00000000000E+00  0.00000000000E+00  0.74505805969E-08  0.10566000000E+00  0.10566000000E+00 0.  1.
     999900   -1    0    0    0    0 -0.00000000000E+00 -0.00000000000E+00 -0.74505805969E-08  0.93827000000E+00  0.93827000000E+00 0. -1.
     999902    2    1    2    0    0 -0.46480755056E-02 -0.73512988294E-02 -0.22297887450E-01  0.10199958824E+01  0.10197150377E+01 0.  0.
     999903    2    3    3    0    0 -0.36462284779E-02 -0.10426225052E+00 -0.79800445104E-01  0.13280972359E+00  0.19657054070E-01 0.  0.
         14    1    1    2    0    0  0.46480755056E-02  0.73512988294E-02  0.22297887450E-01  0.23934117596E-01  0.00000000000E+00 0.  1.
     999901    1    3    3    0    0 -0.10018470277E-02  0.96910951694E-01  0.57502557654E-01  0.88718615881E+00  0.88000000000E+00 0. -1.
        -11    1    4    4    0    0 -0.76330356612E-02 -0.34641387974E-01 -0.35523221803E-01  0.50204077548E-01  0.51100000000E-03 0. -1.
         11    1    4    4    0    0  0.39868071833E-02 -0.69620862549E-01 -0.44277223301E-01  0.82605646041E-01  0.51100000000E-03 0.  1.
</event>
<event>
 8    1  0.1196210E+005  0.1043930E+01  0.7957747E-01            NaN
         13   -1    0    0    0    0  0.00000000000E+00  0.00000000000E+00  0.74505805969E-08  0.10566000000E+00  0.10566000000E+00 0. -1.
     999900   -1    0    0    0    0 -0.00000000000E+00 -0.00000000000E+00 -0.74505805969E-08  0.93827000000E+00  0.93827000000E+00 0. -1.
     999902    2    1    2    0    0 -0.29441591519E-01 -0.20106468347E-02  0.16121533412E-01  0.10103033164E+01  0.10097435502E+01 0.  0.
     999903    2    3    3    0    0 -0.20575432009E-01 -0.38696721018E-01  0.11429744007E+00  0.12403981974E+00  0.20029664351E-01 0.  0.
         14    1    1    2    0    0  0.29441591519E-01  0.20106468347E-02 -0.16121533412E-01  0.33626683622E-01  0.00000000000E+00 0. -1.
     999901    1    3    3    0    0 -0.88661595104E-02  0.36686074184E-01 -0.98175906661E-01  0.88626349664E+00  0.88000000000E+00 0. -1.
        -11    1    4    4    0    0 -0.12995580219E-01 -0.54894767844E-02  0.32680147820E-01  0.35598773057E-01  0.51100000000E-03 0. -1.
         11    1    4    4    0    0 -0.75798517894E-02 -0.33207244234E-01  0.81617292253E-01  0.88441046683E-01  0.51100000000E-03 0.  1.
</event>
<event>
 8    1  0.1196210E+005  0.1043930E+01  0.7957747E-01            NaN
         13   -1    0    0    0    0  0.00000000000E+00  0.00000000000E+00  0.74505805969E-08  0.10566000000E+00  0.10566000000E+00 0. -1.
     999900   -1    0    0    0    0 -0.00000000000E+00 -0.00000000000E+00 -0.74505805969E-08  0.93827000000E+00  0.93827000000E+00 0. -1.
     999902    2    1    2    0    0  0.63475408934E-02 -0.20714048719E-01 -0.10077893192E-01  0.10200359208E+01  0.10197560261E+01 0.  0.
     999903    2    3    3    0    0  0.27081024688E-01  0.11761097147E+00 -0.40470283162E-01  0.12847134886E+00  0.17358604538E-01 0.  0.
         14    1    1    2    0    0 -0.63475408934E-02  0.20714048719E-01  0.10077893192E-01  0.23894079202E-01  0.00000000000E+00 0. -1.
     999901    1    3    3    0    0 -0.20733483795E-01 -0.13832502019E+00  0.30392389970E-01  0.89156457193E+00  0.88000000000E+00 0.  1.
        -11    1    4    4    0    0  0.21314607162E-01  0.97789600531E-01 -0.40092898932E-01  0.10781845907E+00  0.51100000000E-03 0.  1.
         11    1    4    4    0    0  0.57664175256E-02  0.19821370939E-01 -0.37738422971E-03  0.20652889794E-01  0.51100000000E-03 0. -1.
</event>
<event>
 8    1  0.1196210E+005  0.1043930E+01  0.7957747E-01            NaN
         13   -1    0    0    0    0  0.00000000000E+00  0.00000000000E+00  0.74505805969E-08  0.10566000000E+00  0.10566000000E+00 0. -1.
     999900   -1    0    0    0    0 -0.00000000000E+00 -0.00000000000E+00 -0.74505805969E-08  0.93827000000E+00  0.93827000000E+00 0. -1.
     999902    2    1    2    0    0  0.34871773956E-02 -0.77971412233E-02 -0.20848083590E-01  0.10214000553E+01  0.10211515434E+01 0.  0.
     999903    2    3    3    0    0 -0.94193643500E-01 -0.51565896585E-01  0.70714732482E-01  0.13019806027E+00  0.20481145993E-01 0.  0.
         14    1    1    2    0    0 -0.34871773956E-02  0.77971412233E-02  0.20848083590E-01  0.22529944669E-01  0.00000000000E+00 0. -1.
     999901    1    3    3    0    0  0.97680820895E-01  0.43768755361E-01 -0.91562816072E-01  0.89120199506E+00  0.88000000000E+00 0. -1.
        -11    1    4    4    0    0 -0.55760325854E-01 -0.37926761331E-01  0.52814258856E-01  0.85657808891E-01  0.51100000000E-03 0.  1.
         11    1    4    4    0    0 -0.38433317646E-01 -0.13639135254E-01  0.17900473626E-01  0.44540251377E-01  0.51100000000E-03 0. -1.
</event>
<event>
 8    1  0.1196210E+005  0.1043930E+01  0.7957747E-01            NaN
         13   -1    0    0    0    0  0.00000000000E+00  0.00000000000E+00  0.74505805969E-08  0.10566000000E+00  0.10566000000E+00 0. -1.
     999900   -1    0    0    0    0 -0.00000000000E+00 -0.00000000000E+00 -0.74505805969E-08  0.93827000000E+00  0.93827000000E+00 0. -1.
     999902    2    1    2    0    0  0.28655837331E-02  0.10406156597E-02 -0.23259570840E-01  0.10204714816E+01  0.10202018147E+01 0.  0.
     999903    2    3    3    0    0  0.89415917853E-01  0.93293964072E-01 -0.11896056331E-01  0.13135350847E+00  0.20328746499E-01 0.  0.
         14    1    1    2    0    0 -0.28655837331E-02 -0.10406156597E-02  0.23259570840E-01  0.23458518426E-01  0.00000000000E+00 0. -1.
     999901    1    3    3    0    0 -0.86550334120E-01 -0.92253348412E-01 -0.11363514509E-01  0.88911797310E+00  0.88000000000E+00 0.  1.
        -11    1    4    4    0    0  0.58764628896E-01  0.68311850682E-01 -0.18998114431E-03  0.90111529599E-01  0.51100000000E-03 0. -1.
         11    1    4    4    0    0  0.30651288958E-01  0.24982113390E-01 -0.11706075187E-01  0.41241978874E-01  0.51100000000E-03 0.  1.
</event>
<event>
 8    1  0.1196210E+005  0.1043930E+01  0.7957747E-01            NaN
         13   -1    0    0    0    0  0.00000000000E+00  0.00000000000E+00  0.74505805969E-08  0.10566000000E+00  0.10566000000E+00 0. -1.
     999900   -1    0    0    0    0 -0.00000000000E+00 -0.00000000000E+00 -0.74505805969E-08  0.93827000000E+00  0.93827000000E+00 0. -1.
     999902    2    1    2    0    0 -0.20229538122E-01  0.66473833693E-02  0.13001409352E-01  0.10189808805E+01  0.10186754028E+01 0.  0.
     999903    2    3    3    0    0 -0.19469130519E-01  0.10645169490E+00  0.71902658548E-01  0.13138252766E+00  0.19502970990E-01 0.  0.
         14    1    1    2    0    0  0.20229538122E-01 -0.66473833693E-02 -0.13001409352E-01  0.24949119492E-01  0.00000000000E+00 0.  1.
     999901    1    3    3    0    0 -0.76040760322E-03 -0.99804311533E-01 -0.58901249196E-01  0.88759835285E+00  0.88000000000E+00 0.  1.
        -11    1    4    4    0    0 -0.14677067231E-01  0.77202290360E-01  0.41306629538E-01  0.88781240722E-01  0.51100000000E-03 0. -1.
         11    1    4    4    0    0 -0.47920632878E-02  0.29249404542E-01  0.30596029010E-01  0.42601286938E-01  0.51100000000E-03 0.  1.
</event>
<event>
 8    1  0.1196210E+005  0.1043930E+01  0.7957747E-01            NaN
         13   -1    0    0    0    0  0.00000000000E+00  0.00000000000E+00  0.74505805969E-08  0.10566000000E+00  0.10566000000E+00 0.  1.
     999900   -1    0    0    0    0 -0.00000000000E+00 -0.00000000000E+00 -0.74505805969E-08  0.93827000000E+00  0.93827000000E+00 0. -1.
     999902    2    1    2    0    0  0.22572795402E-01 -0.35834657157E-02  0.46564627674E-02  0.10206050142E+01  0.10203384438E+01 0.  0.
     999903    2    3    3    0    0  0.12873585064E+00  0.14996905893E-01  0.26326339230E-01  0.13376488874E+00  0.20053500897E-01 0.  0.
         14    1    1    2    0    0 -0.22572795402E-01  0.35834657157E-02 -0.46564627674E-02  0.23324985837E-01  0.00000000000E+00 0. -1.
     999901    1    3    3    0    0 -0.10616305523E+00 -0.18580371608E-01 -0.21669876463E-01  0.88684012542E+00  0.88000000000E+00 0. -1.
        -11    1    4    4    0    0  0.94028271477E-01  0.20581500888E-02  0.17185716832E-01  0.95609423190E-01  0.51100000000E-03 0.  1.
         11    1    4    4    0    0  0.34707579160E-01  0.12938755804E-01  0.91406223980E-02  0.38155465555E-01  0.51100000000E-03 0. -1.
</event>
<event>
 8    1  0.1196210E+005  0.1043930E+01  0.7957747E-01            NaN
         13   -1    0    0    0    0  0.00000000000E+00  0.00000000000E+00  0.74505805969E-08  0.10566000000E+00  0.10566000000E+00 0. -1.
     999900   -1    0    0    0    0 -0.00000000000E+00 -0.00000000000E+00 -0.74505805969E-08  0.93827000000E+00  0.93827000000E+00 0.  1.
     999902    2    1    2    0    0 -0.62519836758E-02 -0.16832618949E-01 -0.14824278975E-01  0.10206451636E+01  0.10203795207E+01 0.  0.
     999903    2    3    3    0    0 -0.10358113333E+00  0.69128770593E-01  0.31200158406E-01  0.12992603124E+00  0.19987135959E-01 0.  0.
         14    1    1    2    0    0  0.62519836758E-02  0.16832618949E-01  0.14824278975E-01  0.23284836432E-01  0.00000000000E+00 0. -1.
     999901    1    3    3    0    0  0.97329149649E-01 -0.85961389542E-01 -0.46024437381E-01  0.89071913233E+00  0.88000000000E+00 0. -1.
        -11    1    4    4    0    0 -0.68828429077E-01  0.51068221177E-01  0.29775815502E-01  0.90731340634E-01  0.51100000000E-03 0.  1.
         11    1    4    4    0    0 -0.34752704249E-01  0.18060549415E-01  0.14243429035E-02  0.39194690603E-01  0.51100000000E-03 0. -1.
</event>
<event>
 8    1  0.1196210E+005  0.1043930E+01  0.7957747E-01            NaN
         13   -1    0    0    0    0  0.00000000000E+00  0.00000000000E+00  0.74505805969E-08  0.10566000000E+00  0.10566000000E+00 0. -1.
     999900   -1    0    0    0    0 -0.00000000000E+00 -0.00000000000E+00 -0.74505805969E-08  0.93827000000E+00  0.93827000000E+00 0.  1.
     999902    2    1    2    0    0 -0.36466900575E-02  0.96286421118E-02 -0.21347145752E-01  0.10202295838E+01  0.10199542607E+01 0.  0.
     999903    2    3    3    0    0 -0.78785102865E-01 -0.31131416621E-01 -0.10000384124E+00  0.13259562813E+00  0.20114044912E-01 0.  0.
         14    1    1    2    0    0  0.36466900575E-02 -0.96286421118E-02  0.21347145752E-01  0.23700416221E-01  0.00000000000E+00 0. -1.
     999901    1    3    3    0    0  0.75138412807E-01  0.40760058733E-01  0.78656695492E-01  0.88763395564E+00  0.88000000000E+00 0. -1.
        -11    1    4    4    0    0 -0.64175544272E-01 -0.16246819086E-01 -0.76521863615E-01  0.10118456575E+00  0.51100000000E-03 0.  1.
         11    1    4    4    0    0 -0.14609558592E-01 -0.14884597535E-01 -0.23481977628E-01  0.31411062389E-01  0.51100000000E-03 0. -1.
</event>
<event>
 8    1  0.1196210E+005  0.1043930E+01  0.7957747E-01            NaN
         13   -1    0    0    0    0  0.00000000000E+00  0.00000000000E+00  0.74505805969E-08  0.10566000000E+00  0.10566000000E+00 0.  1.
     999900   -1    0    0    0    0 -0.00000000000E+00 -0.00000000000E+00 -0.74505805969E-08  0.93827000000E+00  0.93827000000E+00 0. -1.
     999902    2    1    2    0    0 -0.12903439748E-01 -0.19342631511E-01 -0.24420875024E-02  0.10205505230E+01  0.10202826913E+01 0.  0.
     999903    2    3    3    0    0 -0.23009552569E-01 -0.88450454917E-01 -0.94623074465E-01  0.13298342185E+00  0.19445867980E-01 0.  0.
         14    1    1    2    0    0  0.12903439748E-01  0.19342631511E-01  0.24420875024E-02  0.23379476951E-01  0.00000000000E+00 0. -1.
     999901    1    3    3    0    0  0.10106112820E-01  0.69107823406E-01  0.92180986963E-01  0.88756710120E+00  0.88000000000E+00 0.  1.
        -11    1    4    4    0    0 -0.10939664923E-01 -0.33676507737E-01 -0.50194371802E-01  0.61428979509E-01  0.51100000000E-03 0.  1.
         11    1    4    4    0    0 -0.12069887646E-01 -0.54773947180E-01 -0.44428702664E-01  0.71554442342E-01  0.51100000000E-03 0. -1.
</event>
<event>
 8    1  0.1196210E+005  0.1043930E+01  0.7957747E-01            NaN
         13   -1    0    0    0    0  0.00000000000E+00  0.00000000000E+00  0.74505805969E-08  0.10566000000E+00  0.10566000000E+00 0.  1.
     999900   -1    0    0    0    0 -0.00000000000E+00 -0.00000000000E+00 -0.74505805969E-08  0.93827000000E+00  0.93827000000E+00 0.  1.
     999902    2    1    2    0    0 -0.34906759353E-02 -0.25100110538E-01 -0.10003720811E-01  0.10166852795E+01  0.10163201674E+01 0.  0.
     999903    2    3    3    0    0 -0.64874341569E-01  0.53322493894E-01  0.91207804257E-01  0.12530330067E+00  0.18168242971E-01 0.  0.
         14    1    1    2    0    0  0.34906759353E-02  0.25100110538E-01  0.10003720811E-01  0.27244720545E-01  0.00000000000E+00 0. -1.
     999901    1    3    3    0    0  0.61383665634E-01 -0.78422604433E-01 -0.10121152507E+00  0.89138197878E+00  0.88000000000E+00 0.  1.
        -11    1    4    4    0    0 -0.12000305808E-01  0.12968084594E-01  0.30483470005E-01  0.35237503063E-01  0.51100000000E-03 0. -1.
         11    1    4    4    0    0 -0.52874035761E-01  0.40354409300E-01  0.60724334252E-01  0.90065797609E-01  0.51100000000E-03 0.  1.
</event>
<event>
 8    1  0.1196210E+005  0.1043930E+01  0.7957747E-01            NaN
         13   -1    0    0    0    0  0.00000000000E+00  0.00000000000E+00  0.74505805969E-08  0.10566000000E+00  0.10566000000E+00 0. -1.
     999900   -1    0    0    0    0 -0.00000000000E+00 -0.00000000000E+00 -0.74505805969E-08  0.93827000000E+00  0.93827000000E+00 0.  1.
     999902    2    1    2    0    0  0.21621281190E-01  0.89510578030E-02 -0.26442475636E-02  0.10203801957E+01  0.10201084014E+01 0.  0.
     999903    2    3    3    0    0  0.13004622544E-01  0.12998410303E+00  0.54766340378E-03  0.13204836970E+00  0.19273939852E-01 0.  0.
         14    1    1    2    0    0 -0.21621281190E-01 -0.89510578030E-02  0.26442475636E-02  0.23549804273E-01  0.00000000000E+00 0.  1.
     999901    1    3    3    0    0  0.86166586461E-02 -0.12103304522E+00 -0.31919109674E-02  0.88833182603E+00  0.88000000000E+00 0. -1.
        -11    1    4    4    0    0 -0.30348829046E-02  0.45008420285E-01 -0.50180573843E-02  0.45391744092E-01  0.51100000000E-03 0.  1.
         11    1    4    4    0    0  0.16039505449E-01  0.84975682741E-01  0.55657207881E-02  0.86656625605E-01  0.51100000000E-03 0. -1.
</event>
<event>
 8    1  0.1196210E+005  0.1043930E+01  0.7957747E-01            NaN
         13   -1    0    0    0    0  0.00000000000E+00  0.00000000000E+00  0.74505805969E-08  0.10566000000E+00  0.10566000000E+00 0. -1.
     999900   -1    0    0    0    0 -0.00000000000E+00 -0.00000000000E+00 -0.74505805969E-08  0.93827000000E+00  0.93827000000E+00 0. -1.
     999902    2    1    2    0    0  0.52202263213E-02 -0.14757949241E-01  0.17859198538E-01  0.10201813411E+01  0.10199048828E+01 0.  0.
     999903    2    3    3    0    0 -0.27459131183E-02 -0.33715192169E-01  0.12721799968E+00  0.13317390941E+00  0.20164733609E-01 0.  0.
         14    1    1    2    0    0 -0.52202263213E-02  0.14757949241E-01 -0.17859198538E-01  0.23748658932E-01  0.00000000000E+00 0. -1.
     999901    1    3    3    0    0  0.79661394396E-02  0.18957242929E-01 -0.10935880114E+00  0.88700743166E+00  0.88000000000E+00 0. -1.
        -11    1    4    4    0    0 -0.11139535626E-01 -0.14205151076E-01  0.62613509678E-01  0.65165852148E-01  0.51100000000E-03 0.  1.
         11    1    4    4    0    0  0.83936225073E-02 -0.19510041093E-01  0.64604490004E-01  0.68008057258E-01  0.51100000000E-03 0. -1.
</event>
<event>
 8    1  0.1196210E+005  0.1043930E+01  0.7957747E-01            NaN
         13   -1    0    0    0    0  0.00000000000E+00  0.00000000000E+00  0.74505805969E-08  0.10566000000E+00  0.10566000000E+00 0.  1.
     999900   -1    0    0    0    0 -0.00000000000E+00 -0.00000000000E+00 -0.74505805969E-08  0.93827000000E+00  0.93827000000E+00 0.  1.
     999902    2    1    2    0    0  0.21249878433E-01 -0.44517413109E-02  0.10149466917E-01  0.10199636275E+01  0.10196820163E+01 0.  0.
     999903    2    3    3    0    0 -0.93693941004E-01 -0.22229861228E-01 -0.81098523001E-01  0.12763278139E+00  0.20986546698E-01 0.  0.
         14    1    1    2    0    0 -0.21249878433E-01  0.44517413109E-02 -0.10149466917E-01  0.23966372542E-01  0.00000000000E+00 0. -1.
     999901    1    3    3    0    0  0.11494381944E+00  0.17778119917E-01  0.91247989918E-01  0.89233084606E+00  0.88000000000E+00 0.  1.
        -11    1    4    4    0    0 -0.26680862970E-01  0.21062140537E-02 -0.27987634364E-01  0.38728198832E-01  0.51100000000E-03 0.  1.
         11    1    4    4    0    0 -0.67013078033E-01 -0.24336075281E-01 -0.53110888636E-01  0.88904582561E-01  0.51100000000E-03 0. -1.
</event>
<event>
 8    1  0.1196210E+005  0.1043930E+01  0.7957747E-01            NaN
         13   -1    0    0    0    0  0.00000000000E+00  0.00000000000E+00  0.74505805969E-08  0.10566000000E+00  0.10566000000E+00 0. -1.
     999900   -1    0    0    0    0 -0.00000000000E+00 -0.00000000000E+00 -0.74505805969E-08  0.93827000000E+00  0.93827000000E+00 0.  1.
     999902    2    1    2    0    0 -0.21169754342E-01 -0.78571462309E-02 -0.51015903036E-02  0.10207800655E+01  0.10205175268E+01 0.  0.
     999903    2    3    3    0    0  0.43395760414E-01 -0.83056864279E-01  0.88386250767E-01  0.13029498432E+00  0.19570868393E-01 0.  0.
         14    1    1    2    0    0  0.21169754342E-01  0.78571462309E-02  0.51015903036E-02  0.23149934544E-01  0.00000000000E+00 0.  1.
     999901    1    3    3    0    0 -0.64565514755E-01  0.75199718048E-01 -0.93487841071E-01  0.89048508113E+00  0.88000000000E+00 0.  1.
        -11    1    4    4    0    0  0.13690455855E-01 -0.45590244516E-01  0.38843970885E-01  0.61441143964E-01  0.51100000000E-03 0. -1.
         11    1    4    4    0    0  0.29705304559E-01 -0.37466619763E-01  0.49542279882E-01  0.68853840360E-01  0.51100000000E-03 0.  1.
</event>
<event>
 8    1  0.1196210E+005  0.1043930E+01  0.7957747E-01            NaN
         13   -1    0    0    0    0  0.00000000000E+00  0.00000000000E+00  0.74505805969E-08  0.10566000000E+00  0.10566000000E+00 0. -1.
     999900   -1    0    0    0    0 -0.00000000000E+00 -0.00000000000E+00 -0.74505805969E-08  0.93827000000E+00  0.93827000000E+00 0.  1.
     999902    2    1    2    0    0  0.13488291553E-01  0.17759254215E-01  0.93060785364E-02  0.10197653933E+01  0.10194790479E+01 0.  0.
     999903    2    3    3    0    0  0.11525747044E-02 -0.57740503628E-01 -0.11255157723E+00  0.12808065551E+00  0.20037529548E-01 0.  0.
         14    1    1    2    0    0 -0.13488291553E-01 -0.17759254215E-01 -0.93060785364E-02  0.24164606701E-01  0.00000000000E+00 0. -1.
     999901    1    3    3    0    0  0.12335716848E-01  0.75499757842E-01  0.12185765577E+00  0.89168473779E+00  0.88000000000E+00 0. -1.
        -11    1    4    4    0    0 -0.85583594642E-02 -0.17070815804E-01 -0.40366276319E-01  0.44658209254E-01  0.51100000000E-03 0. -1.
         11    1    4    4    0    0  0.97109341685E-02 -0.40669687824E-01 -0.72185300910E-01  0.83422446252E-01  0.51100000000E-03 0.  1.
</event>
<event>
 8    1  0.1196210E+005  0.1043930E+01  0.7957747E-01            NaN
         13   -1    0    0    0    0  0.00000000000E+00  0.00000000000E+00  0.74505805969E-08  0.10566000000E+00  0.10566000000E+00 0. -1.
     999900   -1    0    0    0    0 -0.00000000000E+00 -0.00000000000E+00 -0.74505805969E-08  0.93827000000E+00  0.93827000000E+00 0.  1.
     999902    2    1    2    0    0  0.23132727291E-02 -0.26035579042E-01  0.74520101443E-02  0.10167503189E+01  0.10163869716E+01 0.  0.
     999903    2    3    3    0    0 -0.40614577315E-01  0.50125349578E-01  0.10734978783E+00  0.12679366082E+00  0.19762614129E-01 0.  0.
         14    1    1    2    0    0 -0.23132727291E-02  0.26035579042E-01 -0.74520101443E-02  0.27179681050E-01  0.00000000000E+00 0.  1.
     999901    1    3    3    0    0  0.42927850044E-01 -0.76160928621E-01 -0.99897777684E-01  0.88995665813E+00  0.88000000000E+00 0.  1.
        -11    1    4    4    0    0 -0.22657958140E-01  0.38620229672E-01  0.60066644213E-01  0.74921078976E-01  0.51100000000E-03 0. -1.
         11    1    4    4    0    0 -0.17956619175E-01  0.11505119907E-01  0.47283143616E-01  0.51872581847E-01  0.51100000000E-03 0.  1.
</event>
<event>
 8    1  0.1196210E+005  0.1043930E+01  0.7957747E-01            NaN
         13   -1    0    0    0    0  0.00000000000E+00  0.00000000000E+00  0.74505805969E-08  0.10566000000E+00  0.10566000000E+00 0.  1.
     999900   -1    0    0    0    0 -0.00000000000E+00 -0.00000000000E+00 -0.74505805969E-08  0.93827000000E+00  0.93827000000E+00 0.  1.
     999902    2    1    2    0    0  0.64779791500E-02  0.16819904046E-01 -0.12482840464E-01  0.10220052493E+01  0.10217700499E+01 0.  0.
     999903    2    3    3    0    0 -0.37607749753E-01  0.10081503655E+00  0.75010261728E-01  0.13259320943E+00  0.19401169753E-01 0.  0.
         14    1    1    2    0    0 -0.64779791500E-02 -0.16819904046E-01  0.12482840464E-01  0.21924750673E-01  0.00000000000E+00 0.  1.
     999901    1    3    3    0    0  0.44085728903E-01 -0.83995132501E-01 -0.87493102193E-01  0.88941203989E+00  0.88000000000E+00 0.  1.
        -11    1    4    4    0    0 -0.19245014068E-01  0.74875117987E-01  0.57079135569E-01  0.96098609243E-01  0.51100000000E-03 0.  1.
         11    1    4    4    0    0 -0.18362735685E-01  0.25939918560E-01  0.17931126159E-01  0.36494600191E-01  0.51100000000E-03 0. -1.
</event>
<event>
 8    1  0.1196210E+005  0.1043930E+01  0.7957747E-01            NaN
         13   -1    0    0    0    0  0.00000000000E+00  0.00000000000E+00  0.74505805969E-08  0.10566000000E+00  0.10566000000E+00 0.  1.
     999900   -1    0    0    0    0 -0.00000000000E+00 -0.00000000000E+00 -0.74505805969E-08  0.93827000000E+00  0.93827000000E+00 0.  1.
     999902    2    1    2    0    0  0.28977616196E-02  0.33041531162E-02 -0.23360144257E-01  0.10201600444E+01  0.10198830842E+01 0.  0.
     999903    2    3    3    0    0 -0.94743865290E-01 -0.66010790924E-01  0.53101264102E-01  0.12876518477E+00  0.20661656087E-01 0.  0.
         14    1    1    2    0    0 -0.28977616196E-02 -0.33041531162E-02  0.23360144257E-01  0.23769955614E-01  0.00000000000E+00 0.  1.
     999901    1    3    3    0    0  0.97641626909E-01  0.69314944041E-01 -0.76461408359E-01  0.89139485961E+00  0.88000000000E+00 0.  1.
        -11    1    4    4    0    0 -0.25471486005E-01 -0.13427004970E-01  0.22576312915E-01  0.36592787371E-01  0.51100000000E-03 0. -1.
         11    1    4    4    0    0 -0.69272379285E-01 -0.52583785954E-01  0.30524951187E-01  0.92172397403E-01  0.51100000000E-03 0.  1.
</event>
<event>
 8    1  0.1196210E+005  0.1043930E+01  0.7957747E-01            NaN
         13   -1    0    0    0    0  0.00000000000E+00  0.00000000000E+00  0.74505805969E-08  0.10566000000E+00  0.10566000000E+00 0. -1.
     999900   -1    0    0    0    0 -0.00000000000E+00 -0.00000000000E+00 -0.74505805969E-08  0.93827000000E+00  0.93827000000E+00 0. -1.
     999902    2    1    2    0    0 -0.21329572360E-01  0.97502629555E-03 -0.10045695540E-01  0.10203330228E+01  0.10200601257E+01 0.  0.
     999903    2    3    3    0    0  0.16594342153E-01  0.10392444151E+00  0.73078629688E-01  0.12963304031E+00  0.19712363883E-01 0.  0.
         14    1    1    2    0    0  0.21329572360E-01 -0.97502629555E-03  0.10045695540E-01  0.23596977184E-01  0.00000000000E+00 0. -1.
     999901    1    3    3    0    0 -0.37923914513E-01 -0.10294941521E+00 -0.83124325229E-01  0.89069998250E+00  0.88000000000E+00 0.  1.
        -11    1    4    4    0    0  0.69328386366E-02  0.88433620344E-01  0.62673868301E-01  0.10861327887E+00  0.51100000000E-03 0. -1.
         11    1    4    4    0    0  0.96615035168E-02  0.15490821164E-01  0.10404761387E-01  0.21019761441E-01  0.51100000000E-03 0.  1.
</event>
<event>
 8    1  0.1196210E+005  0.1043930E+01  0.7957747E-01            NaN
         13   -1    0    0    0    0  0.00000000000E+00  0.00000000000E+00  0.74505805969E-08  0.10566000000E+00  0.10566000000E+00 0. -1.
     999900   -1    0    0    0    0 -0.00000000000E+00 -0.00000000000E+00 -0.74505805969E-08  0.93827000000E+00  0.93827000000E+00 0. -1.
     999902    2    1    2    0    0 -0.64448305287E-02  0.85486967849E-02 -0.98138706853E-02  0.10294066355E+01  0.10293041791E+01 0.  0.
     999903    2    3    3    0    0  0.41816393194E-01 -0.12396303642E+00  0.34528932687E-01  0.13707553704E+00  0.21954738074E-01 0.  0.
         14    1    1    2    0    0  0.64448305287E-02 -0.85486967849E-02  0.98138706853E-02  0.14523364455E-01  0.00000000000E+00 0. -1.
     999901    1    3    3    0    0 -0.48261223723E-01  0.13251173320E+00 -0.44342803372E-01  0.89233109851E+00  0.88000000000E+00 0. -1.
        -11    1    4    4    0    0  0.17866382514E-01 -0.67560234081E-01  0.81442493836E-02  0.70357535291E-01  0.51100000000E-03 0. -1.
         11    1    4    4    0    0  0.23950010680E-01 -0.56402802338E-01  0.26384683303E-01  0.66718001747E-01  0.51100000000E-03 0.  1.
</event>
<event>
 8    1  0.1472850E+005  0.1043930E+01  0.7957747E-01            NaN
         13   -1    0    0    0    0  0.00000000000E+00  0.00000000000E+00  0.74505805969E-08  0.10566000000E+00  0.10566000000E+00 0.  1.
     999900   -1    0    0    0    0 -0.00000000000E+00 -0.00000000000E+00 -0.74505805969E-08  0.93827000000E+00  0.93827000000E+00 0. -1.
     999902    2    1    2    0    0 -0.29633143895E-02  0.11769783584E-01 -0.19379715440E-01  0.10210633779E+01  0.10208072978E+01 0.  0.
     999903    2    3    3    0    0  0.10143217517E+00 -0.53963511022E-02 -0.84391007505E-01  0.13234544594E+00  0.87102323383E-02 0.  0.
         14    1    1    2    0    0  0.29633143895E-02 -0.11769783584E-01  0.19379715440E-01  0.22866622145E-01  0.00000000000E+00 0.  1.
     999901    1    3    3    0    0 -0.10439548956E+00  0.17166134686E-01  0.65011292065E-01  0.88871793192E+00  0.88000000000E+00 0.  1.
        -11    1    4    4    0    0  0.79360526160E-01 -0.13868738851E-02 -0.62901035066E-01  0.10127594909E+00  0.51100000000E-03 0. -1.
         11    1    4    4    0    0  0.22071649009E-01 -0.40094772171E-02 -0.21489972439E-01  0.31069496841E-01  0.51100000000E-03 0.  1.
</event>
<event>
 8    1  0.1196210E+005  0.1043930E+01  0.7957747E-01            NaN
         13   -1    0    0    0    0  0.00000000000E+00  0.00000000000E+00  0.74505805969E-08  0.10566000000E+00  0.10566000000E+00 0. -1.
     999900   -1    0    0    0    0 -0.00000000000E+00 -0.00000000000E+00 -0.74505805969E-08  0.93827000000E+00  0.93827000000E+00 0. -1.
     999902    2    1    2    0    0  0.91962132451E-02 -0.19433392300E-01  0.11022519750E-01  0.10197696396E+01  0.10194833960E+01 0.  0.
     999903    2    3    3    0    0 -0.21827865040E-01 -0.43905108152E-01 -0.11804595643E+00  0.12947753590E+00  0.20626930459E-01 0.  0.
         14    1    1    2    0    0 -0.91962132451E-02  0.19433392300E-01 -0.11022519750E-01  0.24160360427E-01  0.00000000000E+00 0.  1.
     999901    1    3    3    0    0  0.31024078285E-01  0.24471715852E-01  0.12906847618E+00  0.89029210367E+00  0.88000000000E+00 0.  1.
        -11    1    4    4    0    0 -0.12482666621E-01 -0.98425324041E-02 -0.22042700115E-01  0.27181503996E-01  0.51100000000E-03 0.  1.
         11    1    4    4    0    0 -0.93451984191E-02 -0.34062575748E-01 -0.96003256316E-01  0.10229603191E+00  0.51100000000E-03 0. -1.
</event>
<event>
 8    1  0.1196210E+005  0.1043930E+01  0.7957747E-01            NaN
         13   -1    0    0    0    0  0.00000000000E+00  0.00000000000E+00  0.74505805969E-08  0.10566000000E+00  0.10566000000E+00 0.  1.
     999900   -1    0    0    0    0 -0.00000000000E+00 -0.00000000000E+00 -0.74505805969E-08  0.93827000000E+00  0.93827000000E+00 0. -1.
     999902    2    1    2    0    0  0.19433682864E-01  0.11817291426E-02 -0.12968052271E-01  0.10205369478E+01  0.10202688013E+01 0.  0.
     999903    2    3    3    0    0 -0.21023747959E-01 -0.69746268110E-01  0.10478916933E+00  0.12894603947E+00  0.18432883475E-01 0.  0.
         14    1    1    2    0    0 -0.19433682864E-01 -0.11817291426E-02  0.12968052271E-01  0.23393052240E-01  0.00000000000E+00 0.  1.
     999901    1    3    3    0    0  0.40457430823E-01  0.70927997252E-01 -0.11775722160E+00  0.89159090829E+00  0.88000000000E+00 0. -1.
        -11    1    4    4    0    0 -0.85060939198E-03 -0.33895107919E-01  0.44183807344E-01  0.55696246100E-01  0.51100000000E-03 0.  1.
         11    1    4    4    0    0 -0.20173138567E-01 -0.35851160190E-01  0.60605361985E-01  0.73249793372E-01  0.51100000000E-03 0. -1.
</event>
<event>
 8    1  0.1196210E+005  0.1043930E+01  0.7957747E-01            NaN
         13   -1    0    0    0    0  0.00000000000E+00  0.00000000000E+00  0.74505805969E-08  0.10566000000E+00  0.10566000000E+00 0.  1.
     999900   -1    0    0    0    0 -0.00000000000E+00 -0.00000000000E+00 -0.74505805969E-08  0.93827000000E+00  0.93827000000E+00 0. -1.
     999902    2    1    2    0    0 -0.40206331680E-03 -0.21652711667E-01 -0.89484079772E-02  0.10204976381E+01  0.10202285792E+01 0.  0.
     999903    2    3    3    0    0  0.73994277279E-01  0.95870167665E-01  0.36959139061E-01  0.12839117277E+00  0.21262012310E-01 0.  0.
         14    1    1    2    0    0  0.40206331680E-03  0.21652711667E-01  0.89484079772E-02  0.23432361869E-01  0.00000000000E+00 0.  1.
     999901    1    3    3    0    0 -0.74396340596E-01 -0.11752287933E+00 -0.45907547038E-01  0.89210646536E+00  0.88000000000E+00 0. -1.
        -11    1    4    4    0    0  0.36103845998E-01  0.54329448304E-01  0.29769849183E-01  0.71705520640E-01  0.51100000000E-03 0.  1.
         11    1    4    4    0    0  0.37890431281E-01  0.41540719361E-01  0.71892898782E-02  0.56685652132E-01  0.51100000000E-03 0. -1.
</event>
<event>
 8    1  0.1196210E+005  0.1043930E+01  0.7957747E-01            NaN
         13   -1    0    0    0    0  0.00000000000E+00  0.00000000000E+00  0.74505805969E-08  0.10566000000E+00  0.10566000000E+00 0. -1.
     999900   -1    0    0    0    0 -0.00000000000E+00 -0.00000000000E+00 -0.74505805969E-08  0.93827000000E+00  0.93827000000E+00 0. -1.
     999902    2    1    2    0    0  0.15662523073E-01  0.15335632237E-01  0.13460183616E-01  0.10182069989E+01  0.10178820264E+01 0.  0.
     999903    2    3    3    0    0  0.94138743331E-01  0.83039642081E-01  0.35008497102E-01  0.13186243836E+00  0.20110261773E-01 0.  0.
         14    1    1    2    0    0 -0.15662523073E-01 -0.15335632237E-01 -0.13460183616E-01  0.25723001149E-01  0.00000000000E+00 0. -1.
     999901    1    3    3    0    0 -0.78476220258E-01 -0.67704009844E-01 -0.21548313486E-01  0.88634456049E+00  0.88000000000E+00 0. -1.
        -11    1    4    4    0    0  0.25433623820E-01  0.26248738409E-01  0.13438480647E-02  0.36577760146E-01  0.51100000000E-03 0. -1.
         11    1    4    4    0    0  0.68705119511E-01  0.56790903672E-01  0.33664649038E-01  0.95284678216E-01  0.51100000000E-03 0.  1.
</event>
<event>
 8    1  0.1196210E+005  0.1043930E+01  0.7957747E-01            NaN
         13   -1    0    0    0    0  0.00000000000E+00  0.00000000000E+00  0.74505805969E-08  0.10566000000E+00  0.10566000000E+00 0.  1.
     999900   -1    0    0    0    0 -0.00000000000E+00 -0.00000000000E+00 -0.74505805969E-08  0.93827000000E+00  0.93827000000E+00 0.  1.
     999902    2    1    2    0    0 -0.83299289849E-02  0.16010131764E-01 -0.15944445343E-01  0.10198481111E+01  0.10195637461E+01 0.  0.
     999903    2    3    3    0    0  0.85259124163E-01  0.80482615243E-01 -0.56440408751E-01  0.13161642114E+00  0.19768484087E-01 0.  0.
         14    1    1    2    0    0  0.83299289849E-02 -0.16010131764E-01  0.15944445343E-01  0.24081888906E-01  0.00000000000E+00 0. -1.
     999901    1    3    3    0    0 -0.93589053148E-01 -0.64472483479E-01  0.40495963408E-01  0.88823168996E+00  0.88000000000E+00 0. -1.
        -11    1    4    4    0    0  0.49644823680E-01  0.38526660996E-01 -0.38649902570E-01  0.73776610219E-01  0.51100000000E-03 0.  1.
         11    1    4    4    0    0  0.35614300483E-01  0.41955954247E-01 -0.17790506181E-01  0.57839810916E-01  0.51100000000E-03 0. -1.
</event>
<event>
 8    1  0.1196210E+005  0.1043930E+01  0.7957747E-01            NaN
         13   -1    0    0    0    0  0.00000000000E+00  0.00000000000E+00  0.74505805969E-08  0.10566000000E+00  0.10566000000E+00 0.  1.
     999900   -1    0    0    0    0 -0.00000000000E+00 -0.00000000000E+00 -0.74505805969E-08  0.93827000000E+00  0.93827000000E+00 0.  1.
     999902    2    1    2    0    0  0.27193901540E-02 -0.22143169481E-01  0.99718073715E-02  0.10194933067E+01  0.10192003976E+01 0.  0.
     999903    2    3    3    0    0 -0.11098561476E+00  0.60128426022E-01  0.90653270850E-02  0.12837139288E+00  0.21536017627E-01 0.  0.
         14    1    1    2    0    0 -0.27193901540E-02  0.22143169481E-01 -0.99718073715E-02  0.24436693306E-01  0.00000000000E+00 0. -1.
     999901    1    3    3    0    0  0.11370500492E+00 -0.82271595504E-01  0.90648028642E-03  0.89112191381E+00  0.88000000000E+00 0. -1.
        -11    1    4    4    0    0 -0.55900584525E-01  0.23603875823E-01 -0.46779143171E-02  0.60861829643E-01  0.51100000000E-03 0.  1.
         11    1    4    4    0    0 -0.55085030237E-01  0.36524550200E-01  0.13743241402E-01  0.67509563239E-01  0.51100000000E-03 0. -1.
</event>
<event>
 8    1  0.1196210E+005  0.1043930E+01  0.7957747E-01            NaN
         13   -1    0    0    0    0  0.00000000000E+00  0.00000000000E+00  0.74505805969E-08  0.10566000000E+00  0.10566000000E+00 0. -1.
     999900   -1    0    0    0    0 -0.00000000000E+00 -0.00000000000E+00 -0.74505805969E-08  0.93827000000E+00  0.93827000000E+00 0.  1.
     999902    2    1    2    0    0 -0.11662281867E-01 -0.47592026464E-02 -0.19745023242E-01  0.10205093943E+01  0.10202406084E+01 0.  0.
     999903    2    3    3    0    0  0.41967597463E-01  0.84018886081E-01 -0.89737479874E-01  0.13165808111E+00  0.21461187556E-01 0.  0.
         14    1    1    2    0    0  0.11662281867E-01  0.47592026464E-02  0.19745023242E-01  0.23420605692E-01  0.00000000000E+00 0. -1.
     999901    1    3    3    0    0 -0.53629879330E-01 -0.88778088728E-01  0.69992456632E-01  0.88885131320E+00  0.88000000000E+00 0. -1.
        -11    1    4    4    0    0  0.71536363303E-03  0.20979327148E-01 -0.19830961910E-01  0.28882037393E-01  0.51100000000E-03 0.  1.
         11    1    4    4    0    0  0.41252233830E-01  0.63039558933E-01 -0.69906517964E-01  0.10277604371E+00  0.51100000000E-03 0. -1.
</event>
<event>
 8    1  0.1196210E+005  0.1043930E+01  0.7957747E-01            NaN
         13   -1    0    0    0    0  0.00000000000E+00  0.00000000000E+00  0.74505805969E-08  0.10566000000E+00  0.10566000000E+00 0.  1.
     999900   -1    0    0    0    0 -0.00000000000E+00 -0.00000000000E+00 -0.74505805969E-08  0.93827000000E+00  0.93827000000E+00 0. -1.
     999902    2    1    2    0    0 -0.12437378270E-01 -0.21189593629E-01 -0.61639034121E-02  0.10185985776E+01  0.10182835466E+01 0.  0.
     999903    2    3    3    0    0  0.97181209868E-01  0.10292742496E-02  0.79902640435E-01  0.12735373865E+00  0.19730581408E-01 0.  0.
         14    1    1    2    0    0  0.12437378270E-01  0.21189593629E-01  0.61639034121E-02  0.25331422418E-01  0.00000000000E+00 0. -1.
     999901    1    3    3    0    0 -0.10961858814E+00 -0.22218867879E-01 -0.86066543847E-01  0.89124483893E+00  0.88000000000E+00 0.  1.
        -11    1    4    4    0    0  0.43865622643E-01  0.96151475812E-02  0.31757898422E-01  0.55004264799E-01  0.51100000000E-03 0.  1.
         11    1    4    4    0    0  0.53315587224E-01 -0.85858733317E-02  0.48144742013E-01  0.72349473851E-01  0.51100000000E-03 0. -1.
</event>
<event>
 8    1  0.1196210E+005  0.1043930E+01  0.7957747E-01            NaN
         13   -1    0    0    0    0  0.00000000000E+00  0.00000000000E+00  0.74505805969E-08  0.10566000000E+00  0.10566000000E+00 0. -1.
     999900   -1    0    0    0    0 -0.00000000000E+00 -0.00000000000E+00 -0.74505805969E-08  0.93827000000E+00  0.93827000000E+00 0. -1.
     999902    2    1    2    0    0  0.82161771268E-02 -0.99377653620E-02  0.19653243379E-01  0.10204243683E+01  0.10201536044E+01 0.  0.
     999903    2    3    3    0    0 -0.66900609205E-01 -0.14238894005E-01  0.11181177947E+00  0.13241860982E+00  0.18824892679E-01 0.  0.
         14    1    1    2    0    0 -0.82161771268E-02  0.99377653620E-02 -0.19653243379E-01  0.23505631714E-01  0.00000000000E+00 0.  1.
     999901    1    3    3    0    0  0.75116786332E-01  0.43011286428E-02 -0.92158536088E-01  0.88800575847E+00  0.88000000000E+00 0.  1.
        -11    1    4    4    0    0 -0.47250647751E-01 -0.91000930123E-02  0.61005230534E-01  0.77700287511E-01  0.51100000000E-03 0.  1.
         11    1    4    4    0    0 -0.19649961454E-01 -0.51388009925E-02  0.50806548933E-01  0.54718322308E-01  0.51100000000E-03 0. -1.
</event>
<event>
 8    1  0.1196210E+005  0.1043930E+01  0.7957747E-01            NaN
         13   -1    0    0    0    0  0.00000000000E+00  0.00000000000E+00  0.74505805969E-08  0.10566000000E+00  0.10566000000E+00 0. -1.
     999900   -1    0    0    0    0 -0.00000000000E+00 -0.00000000000E+00 -0.74505805969E-08  0.93827000000E+00  0.93827000000E+00 0. -1.
     999902    2    1    2    0    0  0.10161354235E-01  0.18981645635E-01  0.10517527774E-01  0.10199680639E+01  0.10196865582E+01 0.  0.
     999903    2    3    3    0    0 -0.58463157873E-01  0.10689461078E+00  0.47329791666E-01  0.13216563325E+00  0.19576689984E-01 0.  0.
         14    1    1    2    0    0 -0.10161354235E-01 -0.18981645635E-01 -0.10517527774E-01  0.23961936094E-01  0.00000000000E+00 0.  1.
     999901    1    3    3    0    0  0.68624512107E-01 -0.87912965149E-01 -0.36812263891E-01  0.88780243065E+00  0.88000000000E+00 0. -1.
        -11    1    4    4    0    0 -0.13951735016E-01  0.14925269451E-01  0.25056698465E-02  0.20590145228E-01  0.51100000000E-03 0.  1.
         11    1    4    4    0    0 -0.44511422857E-01  0.91969341332E-01  0.44824121819E-01  0.11157548802E+00  0.51100000000E-03 0. -1.
</event>
<event>
 8    1  0.1196210E+005  0.1043930E+01  0.7957747E-01            NaN
         13   -1    0    0    0    0  0.00000000000E+00  0.00000000000E+00  0.74505805969E-08  0.10566000000E+00  0.10566000000E+00 0. -1.
     999900   -1    0    0    0    0 -0.00000000000E+00 -0.00000000000E+00 -0.74505805969E-08  0.93827000000E+00  0.93827000000E+00 0. -1.
     999902    2    1    2    0    0 -0.22956234852E-01  0.29955850001E-02 -0.39299982303E-02  0.10204479402E+01  0.10201777254E+01 0.  0.
     999903    2    3    3    0    0  0.11068040897E+00  0.12354653667E-01  0.59816794567E-01  0.12802987763E+00  0.20268454717E-01 0.  0.
         14    1    1    2    0    0  0.22956234852E-01 -0.29955850001E-02  0.39299982303E-02  0.23482059837E-01  0.00000000000E+00 0. -1.
     999901    1    3    3    0    0 -0.13363664383E+00 -0.93590686672E-02 -0.63746792798E-01  0.89241806253E+00  0.88000000000E+00 0.  1.
        -11    1    4    4    0    0  0.67269564341E-01  0.15561064590E-01  0.43117472072E-01  0.81404659183E-01  0.51100000000E-03 0.  1.
         11    1    4    4    0    0  0.43410844632E-01 -0.32064109224E-02  0.16699322495E-01  0.46625218450E-01  0.51100000000E-03 0. -1.
</event>
<event>
 8    1  0.1196210E+005  0.1043930E+01  0.7957747E-01            NaN
         13   -1    0    0    0    0  0.00000000000E+00  0.00000000000E+00  0.74505805969E-08  0.10566000000E+00  0.10566000000E+00 0. -1.
     999900   -1    0    0    0    0 -0.00000000000E+00 -0.00000000000E+00 -0.74505805969E-08  0.93827000000E+00  0.93827000000E+00 0.  1.
     999902    2    1    2    0    0  0.19759621621E-01 -0.91405456167E-02 -0.71053647536E-02  0.10210285060E+01  0.10207716354E+01 0.  0.
     999903    2    3    3    0    0  0.13613831369E-01  0.32093870846E-01  0.12396815595E+00  0.13034432194E+00  0.20154047312E-01 0.  0.
         14    1    1    2    0    0 -0.19759621621E-01  0.91405456167E-02  0.71053647536E-02  0.22901494036E-01  0.00000000000E+00 0. -1.
     999901    1    3    3    0    0  0.61457902522E-02 -0.41234416463E-01 -0.13107352070E+00  0.89068418402E+00  0.88000000000E+00 0.  1.
        -11    1    4    4    0    0  0.11979986620E-01  0.23031179652E-01  0.55687441430E-01  0.61443531552E-01  0.51100000000E-03 0.  1.
         11    1    4    4    0    0  0.16338447488E-02  0.90626911944E-02  0.68280714517E-01  0.68900790390E-01  0.51100000000E-03 0. -1.
</event>
<event>
 8    1  0.1196210E+005  0.1043930E+01  0.7957747E-01            NaN
         13   -1    0    0    0    0  0.00000000000E+00  0.00000000000E+00  0.74505805969E-08  0.10566000000E+00  0.10566000000E+00 0.  1.
     999900   -1    0    0    0    0 -0.00000000000E+00 -0.00000000000E+00 -0.74505805969E-08  0.93827000000E+00  0.93827000000E+00 0. -1.
     999902    2    1    2    0    0  0.12794024621E-02 -0.19053004873E-01  0.14004123542E-01  0.10202494311E+01  0.10199745744E+01 0.  0.
     999903    2    3    3    0    0  0.92211446852E-01 -0.37256965799E-01 -0.82064935753E-01  0.13017680206E+00  0.17897309355E-01 0.  0.
         14    1    1    2    0    0 -0.12794024621E-02  0.19053004873E-01 -0.14004123542E-01  0.23680568860E-01  0.00000000000E+00 0. -1.
     999901    1    3    3    0    0 -0.90932044390E-01  0.18203960925E-01  0.96069059295E-01  0.89007262908E+00  0.88000000000E+00 0.  1.
        -11    1    4    4    0    0  0.59473844335E-01 -0.15858698338E-01 -0.55632046110E-01  0.82968802259E-01  0.51100000000E-03 0. -1.
         11    1    4    4    0    0  0.32737602517E-01 -0.21398267460E-01 -0.26432889643E-01  0.47207999796E-01  0.51100000000E-03 0.  1.
</event>
<event>
 8    1  0.1196210E+005  0.1043930E+01  0.7957747E-01            NaN
         13   -1    0    0    0    0  0.00000000000E+00  0.00000000000E+00  0.74505805969E-08  0.10566000000E+00  0.10566000000E+00 0.  1.
     999900   -1    0    0    0    0 -0.00000000000E+00 -0.00000000000E+00 -0.74505805969E-08  0.93827000000E+00  0.93827000000E+00 0.  1.
     999902    2    1    2    0    0  0.23291477689E-01 -0.12350982658E-01  0.11536593135E-01  0.10151527054E+01  0.10147447376E+01 0.  0.
     999903    2    3    3    0    0 -0.99092670950E-01  0.46536530427E-01 -0.50030230129E-01  0.12260797664E+00  0.23338507014E-01 0.  0.
         14    1    1    2    0    0 -0.23291477689E-01  0.12350982658E-01 -0.11536593135E-01  0.28777294639E-01  0.00000000000E+00 0.  1.
     999901    1    3    3    0    0  0.12238414864E+00 -0.58887513086E-01  0.61566823263E-01  0.89254472872E+00  0.88000000000E+00 0.  1.
        -11    1    4    4    0    0 -0.19293242735E-01 -0.33270475008E-03 -0.68394027771E-02  0.20478731870E-01  0.51100000000E-03 0. -1.
         11    1    4    4    0    0 -0.79799428215E-01  0.46869235177E-01 -0.43190827351E-01  0.10212924477E+00  0.51100000000E-03 0.  1.
</event>
<event>
 8    1  0.1196210E+005  0.1043930E+01  0.7957747E-01            NaN
         13   -1    0    0    0    0  0.00000000000E+00  0.00000000000E+00  0.74505805969E-08  0.10566000000E+00  0.10566000000E+00 0. -1.
     999900   -1    0    0    0    0 -0.00000000000E+00 -0.00000000000E+00 -0.74505805969E-08  0.93827000000E+00  0.93827000000E+00 0. -1.
     999902    2    1    2    0    0 -0.16599635536E-01  0.15655259586E-01  0.76450958012E-02  0.10198658661E+01  0.10195819252E+01 0.  0.
     999903    2    3    3    0    0 -0.29464946339E-01  0.63800253734E-01  0.11052373483E+00  0.13247222677E+00  0.19868051333E-01 0.  0.
         14    1    1    2    0    0  0.16599635536E-01 -0.15655259586E-01 -0.76450958012E-02  0.24064133944E-01  0.00000000000E+00 0.  1.
     999901    1    3    3    0    0  0.12865310803E-01 -0.48144994148E-01 -0.10287863903E+00  0.88739363929E+00  0.88000000000E+00 0. -1.
        -11    1    4    4    0    0 -0.28080534054E-01  0.59713870061E-01  0.90623658316E-01  0.11210339530E+00  0.51100000000E-03 0.  1.
         11    1    4    4    0    0 -0.13844122856E-02  0.40863836730E-02  0.19900076517E-01  0.20368831466E-01  0.51100000000E-03 0. -1.
</event>
<event>
 8    1  0.1196210E+005  0.1043930E+01  0.7957747E-01            NaN
         13   -1    0    0    0    0  0.00000000000E+00  0.00000000000E+00  0.74505805969E-08  0.10566000000E+00  0.10566000000E+00 0. -1.
     999900   -1    0    0    0    0 -0.00000000000E+00 -0.00000000000E+00 -0.74505805969E-08  0.93827000000E+00  0.93827000000E+00 0.  1.
     999902    2    1    2    0    0  0.99958370774E-02 -0.20726534645E-01 -0.34628376287E-02  0.10206599067E+01  0.10203946040E+01 0.  0.
     999903    2    3    3    0    0  0.75803471778E-01  0.28767781633E-02 -0.10605668864E+00  0.13194552097E+00  0.20178134474E-01 0.  0.
         14    1    1    2    0    0 -0.99958370774E-02  0.20726534645E-01  0.34628376287E-02  0.23270093290E-01  0.00000000000E+00 0.  1.
     999901    1    3    3    0    0 -0.65807634700E-01 -0.23603312808E-01  0.10259385102E+00  0.88871438574E+00  0.88000000000E+00 0. -1.
        -11    1    4    4    0    0  0.31716957117E-01 -0.81424380457E-02 -0.50178182360E-01  0.59919744426E-01  0.51100000000E-03 0. -1.
         11    1    4    4    0    0  0.44086514660E-01  0.11019216209E-01 -0.55878506284E-01  0.72025776541E-01  0.51100000000E-03 0.  1.
</event>
<event>
 8    1  0.1196210E+005  0.1043930E+01  0.7957747E-01            NaN
         13   -1    0    0    0    0  0.00000000000E+00  0.00000000000E+00  0.74505805969E-08  0.10566000000E+00  0.10566000000E+00 0.  1.
     999900   -1    0    0    0    0 -0.00000000000E+00 -0.00000000000E+00 -0.74505805969E-08  0.93827000000E+00  0.93827000000E+00 0.  1.
     999902    2    1    2    0    0 -0.99880146291E-02  0.42501843178E-02  0.21178074960E-01  0.10201321984E+01  0.10198545812E+01 0.  0.
     999903    2    3    3    0    0  0.50602370194E-01 -0.98708976574E-01 -0.61414982469E-01  0.12822783317E+00  0.19144586764E-01 0.  0.
         14    1    1    2    0    0  0.99880146291E-02 -0.42501843178E-02 -0.21178074960E-01  0.23797801621E-01  0.00000000000E+00 0. -1.
     999901    1    3    3    0    0 -0.60590384823E-01  0.10295916089E+00  0.82593057429E-01  0.89190436521E+00  0.88000000000E+00 0. -1.
        -11    1    4    4    0    0  0.10797218348E-01 -0.26960813713E-01 -0.25530916798E-01  0.38672396276E-01  0.51100000000E-03 0.  1.
         11    1    4    4    0    0  0.39805151845E-01 -0.71748162860E-01 -0.35884065671E-01  0.89555436894E-01  0.51100000000E-03 0. -1.
</event>
<event>
 7    1  0.1196210E+005  0.1043930E+01  0.7957747E-01            NaN
         13   -1    0    0    0    0  0.00000000000E+00  0.00000000000E+00  0.74505805969E-08  0.10566000000E+00  0.10566000000E+00 0. -1.
     999900   -1    0    0    0    0 -0.00000000000E+00 -0.00000000000E+00 -0.74505805969E-08  0.93827000000E+00  0.93827000000E+00 0. -1.
     999903    2    1    2    0    0  0.82936098179E-01 -0.74174477190E-02 -0.20956276596E-02  0.85757300520E-01  0.20408528248E-01 0.  0.
         14    1    1    2    0    0 -0.53377392992E-01 -0.51070338027E-01 -0.15843934855E-01  0.75553661595E-01  0.00000000000E+00 0. -1.
     999901    1    1    2    0    0 -0.29558705188E-01  0.58487785746E-01  0.17939562515E-01  0.88261903789E+00  0.88000000000E+00 0.  1.
        -11    1    3    3    0    0  0.32999531501E-01 -0.10408173658E-01 -0.75884121719E-02  0.35428015446E-01  0.51100000000E-03 0.  1.
         11    1    3    3    0    0  0.49936566679E-01  0.29907259394E-02  0.54927845123E-02  0.50329285073E-01  0.51100000000E-03 0. -1.
</event>
<event>
 8    1  0.1196210E+005  0.1043930E+01  0.7957747E-01            NaN
         13   -1    0    0    0    0  0.00000000000E+00  0.00000000000E+00  0.74505805969E-08  0.10566000000E+00  0.10566000000E+00 0. -1.
     999900   -1    0    0    0    0 -0.00000000000E+00 -0.00000000000E+00 -0.74505805969E-08  0.93827000000E+00  0.93827000000E+00 0. -1.
     999902    2    1    2    0    0  0.15585281912E-01  0.17713434074E-01  0.73310666684E-03  0.10203248267E+01  0.10200517378E+01 0.  0.
     999903    2    3    3    0    0 -0.77149798149E-01 -0.74286787979E-01  0.67501520469E-01  0.12818029977E+00  0.20077742922E-01 0.  0.
         14    1    1    2    0    0 -0.15585281912E-01 -0.17713434074E-01 -0.73310666684E-03  0.23605173254E-01  0.00000000000E+00 0. -1.
     999901    1    3    3    0    0  0.92735080061E-01  0.92000222052E-01 -0.66768413802E-01  0.89214452698E+00  0.88000000000E+00 0.  1.
        -11    1    4    4    0    0 -0.52237900559E-01 -0.49795876801E-01  0.34012998977E-01  0.79784539991E-01  0.51100000000E-03 0. -1.
         11    1    4    4    0    0 -0.24911897591E-01 -0.24490911177E-01  0.33488521492E-01  0.48395759779E-01  0.51100000000E-03 0.  1.
</event>
<event>
 8    1  0.1196210E+005  0.1043930E+01  0.7957747E-01            NaN
         13   -1    0    0    0    0  0.00000000000E+00  0.00000000000E+00  0.74505805969E-08  0.10566000000E+00  0.10566000000E+00 0. -1.
     999900   -1    0    0    0    0 -0.00000000000E+00 -0.00000000000E+00 -0.74505805969E-08  0.93827000000E+00  0.93827000000E+00 0. -1.
     999902    2    1    2    0    0  0.20324460652E-01  0.51886800391E-02  0.11642268164E-01  0.10199394079E+01  0.10196572205E+01 0.  0.
     999903    2    3    3    0    0  0.11715241488E-01 -0.49660376418E-01  0.11964902851E+00  0.13159938407E+00  0.19977687466E-01 0.  0.
         14    1    1    2    0    0 -0.20324460652E-01 -0.51886800391E-02 -0.11642268164E-01  0.23990592100E-01  0.00000000000E+00 0.  1.
     999901    1    3    3    0    0  0.86092191639E-02  0.54849056457E-01 -0.10800676035E+00  0.88834002382E+00  0.88000000000E+00 0. -1.
        -11    1    4    4    0    0  0.69848555057E-02 -0.33957342712E-02  0.24227165131E-01  0.25446726095E-01  0.51100000000E-03 0.  1.
         11    1    4    4    0    0  0.47303859819E-02 -0.46264642147E-01  0.95421863379E-01  0.10615265798E+00  0.51100000000E-03 0. -1.
</event>
<event>
 8    1  0.1196210E+005  0.1043930E+01  0.7957747E-01            NaN
         13   -1    0    0    0    0  0.00000000000E+00  0.00000000000E+00  0.74505805969E-08  0.10566000000E+00  0.10566000000E+00 0.  1.
     999900   -1    0    0    0    0 -0.00000000000E+00 -0.00000000000E+00 -0.74505805969E-08  0.93827000000E+00  0.93827000000E+00 0. -1.
     999902    2    1    2    0    0 -0.19129907312E-01  0.20179613530E-02  0.14549684877E-01  0.10198111515E+01  0.10195259025E+01 0.  0.
     999903    2    3    3    0    0 -0.89671417221E-01  0.93674720342E-01 -0.11882716687E-01  0.13184958820E+00  0.20668784560E-01 0.  0.
         14    1    1    2    0    0  0.19129907312E-01 -0.20179613530E-02 -0.14549684877E-01  0.24118848475E-01  0.00000000000E+00 0. -1.
     999901    1    3    3    0    0  0.70541509910E-01 -0.91656758989E-01  0.26432401563E-01  0.88796156332E+00  0.88000000000E+00 0.  1.
        -11    1    4    4    0    0 -0.62772751269E-01  0.51070761030E-01 -0.74576394874E-02  0.81268188376E-01  0.51100000000E-03 0.  1.
         11    1    4    4    0    0 -0.26898665952E-01  0.42603959312E-01 -0.44250771992E-02  0.50581399825E-01  0.51100000000E-03 0. -1.
</event>
<event>
 8    1  0.1196210E+005  0.1043930E+01  0.7957747E-01            NaN
         13   -1    0    0    0    0  0.00000000000E+00  0.00000000000E+00  0.74505805969E-08  0.10566000000E+00  0.10566000000E+00 0. -1.
     999900   -1    0    0    0    0 -0.00000000000E+00 -0.00000000000E+00 -0.74505805969E-08  0.93827000000E+00  0.93827000000E+00 0. -1.
     999902    2    1    2    0    0 -0.93532290126E-02 -0.21009721886E-01  0.69033185506E-02  0.10199186045E+01  0.10196359216E+01 0.  0.
     999903    2    3    3    0    0 -0.94796993836E-01  0.34004973381E-01  0.81299479571E-01  0.13095176462E+00  0.19898518104E-01 0.  0.
         14    1    1    2    0    0  0.93532290126E-02  0.21009721886E-01 -0.69033185506E-02  0.24011395497E-01  0.00000000000E+00 0.  1.
     999901    1    3    3    0    0  0.85443764823E-01 -0.55014695268E-01 -0.74396161021E-01  0.88896683989E+00  0.88000000000E+00 0. -1.
        -11    1    4    4    0    0 -0.34385706979E-01  0.14687638875E-01  0.18598044294E-01  0.41764242514E-01  0.51100000000E-03 0. -1.
         11    1    4    4    0    0 -0.60411286857E-01  0.19317334506E-01  0.62701435277E-01  0.89187522103E-01  0.51100000000E-03 0.  1.
</event>
<event>
 8    1  0.1196210E+005  0.1043930E+01  0.7957747E-01            NaN
         13   -1    0    0    0    0  0.00000000000E+00  0.00000000000E+00  0.74505805969E-08  0.10566000000E+00  0.10566000000E+00 0.  1.
     999900   -1    0    0    0    0 -0.00000000000E+00 -0.00000000000E+00 -0.74505805969E-08  0.93827000000E+00  0.93827000000E+00 0.  1.
     999902    2    1    2    0    0 -0.12566742286E-02 -0.59407455104E-02  0.21932171881E-01  0.10211727627E+01  0.10209191542E+01 0.  0.
     999903    2    3    3    0    0 -0.12544658192E+00 -0.36070072797E-01  0.43410067077E-02  0.13176826604E+00  0.17496757721E-01 0.  0.
         14    1    1    2    0    0  0.12566742286E-02  0.59407455104E-02 -0.21932171881E-01  0.22757237327E-01  0.00000000000E+00 0. -1.
     999901    1    3    3    0    0  0.12418990769E+00  0.30129327287E-01  0.17591165174E-01  0.88940449663E+00  0.88000000000E+00 0. -1.
        -11    1    4    4    0    0 -0.79555870679E-01 -0.29634769142E-01 -0.24370791679E-02  0.84932659074E-01  0.51100000000E-03 0.  1.
         11    1    4    4    0    0 -0.45890711237E-01 -0.64353036553E-02  0.67780858755E-02  0.46835606968E-01  0.51100000000E-03 0. -1.
</event>
<event>
 8    1  0.1196210E+005  0.1043930E+01  0.7957747E-01            NaN
         13   -1    0    0    0    0  0.00000000000E+00  0.00000000000E+00  0.74505805969E-08  0.10566000000E+00  0.10566000000E+00 0. -1.
     999900   -1    0    0    0    0 -0.00000000000E+00 -0.00000000000E+00 -0.74505805969E-08  0.93827000000E+00  0.93827000000E+00 0.  1.
     999902    2    1    2    0    0 -0.43700448831E-02 -0.21839551914E-01  0.71721126332E-02  0.10205312282E+01  0.10202629491E+01 0.  0.
     999903    2    3    3    0    0 -0.31609590531E-01 -0.92649120211E-01 -0.86630873873E-01  0.13229984618E+00  0.20379286079E-01 0.  0.
         14    1    1    2    0    0  0.43700448831E-02  0.21839551914E-01 -0.71721126332E-02  0.23398771757E-01  0.00000000000E+00 0.  1.
     999901    1    3    3    0    0  0.27239545648E-01  0.70809568296E-01  0.93802986506E-01  0.88823138207E+00  0.88000000000E+00 0. -1.
        -11    1    4    4    0    0 -0.25160327349E-01 -0.73048456679E-01 -0.56243497057E-01  0.95565219498E-01  0.51100000000E-03 0. -1.
         11    1    4    4    0    0 -0.64492631825E-02 -0.19600663531E-01 -0.30387376817E-01  0.36734626679E-01  0.51100000000E-03 0.  1.
</event>
<event>
 8    1  0.1196210E+005  0.1043930E+01  0.7957747E-01            NaN
         13   -1    0    0    0    0  0.00000000000E+00  0.00000000000E+00  0.74505805969E-08  0.10566000000E+00  0.10566000000E+00 0. -1.
     999900   -1    0    0    0    0 -0.00000000000E+00 -0.00000000000E+00 -0.74505805969E-08  0.93827000000E+00  0.93827000000E+00 0.  1.
     999902    2    1    2    0    0 -0.11894893847E-01  0.18133125977E-01 -0.22070015192E-02  0.10221316144E+01  0.10218991475E+01 0.  0.
     999903    2    3    3    0    0 -0.78885517854E-01  0.22405112308E-01 -0.10373684649E+00  0.13375427176E+00  0.20098704189E-01 0.  0.
         14    1    1    2    0    0  0.11894893847E-01 -0.18133125977E-01  0.22070015192E-02  0.21798385560E-01  0.00000000000E+00 0. -1.
     999901    1    3    3    0    0  0.66990624007E-01 -0.42719863309E-02  0.10152984497E+00  0.88837734268E+00  0.88000000000E+00 0. -1.
        -11    1    4    4    0    0 -0.31613380969E-01  0.19319181409E-01 -0.46212638159E-01  0.59232640269E-01  0.51100000000E-03 0.  1.
         11    1    4    4    0    0 -0.47272136885E-01  0.30859308991E-02 -0.57524208326E-01  0.74521631489E-01  0.51100000000E-03 0. -1.
</event>
<event>
 8    1  0.1196210E+005  0.1043930E+01  0.7957747E-01            NaN
         13   -1    0    0    0    0  0.00000000000E+00  0.00000000000E+00  0.74505805969E-08  0.10566000000E+00  0.10566000000E+00 0. -1.
     999900   -1    0    0    0    0 -0.00000000000E+00 -0.00000000000E+00 -0.74505805969E-08  0.93827000000E+00  0.93827000000E+00 0. -1.
     999902    2    1    2    0    0 -0.12663987461E-01  0.29501849590E-03  0.19838222524E-01  0.10203923984E+01  0.10201208890E+01 0.  0.
     999903    2    3    3    0    0  0.40042258896E-01  0.73087821264E-01  0.10089431432E+00  0.13210931825E+00  0.18110692731E-01 0.  0.
         14    1    1    2    0    0  0.12663987461E-01 -0.29501849590E-03 -0.19838222524E-01  0.23537601561E-01  0.00000000000E+00 0.  1.
     999901    1    3    3    0    0 -0.52706246358E-01 -0.72792802769E-01 -0.81056091793E-01  0.88828308019E+00  0.88000000000E+00 0.  1.
        -11    1    4    4    0    0  0.28968888870E-01  0.35820504452E-01  0.60475326769E-01  0.76025201942E-01  0.51100000000E-03 0. -1.
         11    1    4    4    0    0  0.11073370026E-01  0.37267316813E-01  0.40418987548E-01  0.56084116304E-01  0.51100000000E-03 0.  1.
</event>
<event>
 8    1  0.1196210E+005  0.1043930E+01  0.7957747E-01            NaN
         13   -1    0    0    0    0  0.00000000000E+00  0.00000000000E+00  0.74505805969E-08  0.10566000000E+00  0.10566000000E+00 0.  1.
     999900   -1    0    0    0    0 -0.00000000000E+00 -0.00000000000E+00 -0.74505805969E-08  0.93827000000E+00  0.93827000000E+00 0. -1.
     999902    2    1    2    0    0  0.37271506923E-02 -0.20903934133E-01  0.10734559960E-01  0.10201372092E+01  0.10198597103E+01 0.  0.
     999903    2    3    3    0    0  0.23412840776E-01  0.10880221608E+00 -0.58856515896E-01  0.12769442136E+00  0.21346954016E-01 0.  0.
         14    1    1    2    0    0 -0.37271506923E-02  0.20903934133E-01 -0.10734559960E-01  0.23792790758E-01  0.00000000000E+00 0. -1.
     999901    1    3    3    0    0 -0.19685690083E-01 -0.12970615022E+00  0.69591075857E-01  0.89244278788E+00  0.88000000000E+00 0.  1.
        -11    1    4    4    0    0  0.10291023322E-02  0.55420221318E-01 -0.28392182231E-01  0.62280310817E-01  0.51100000000E-03 0. -1.
         11    1    4    4    0    0  0.22383738443E-01  0.53381994766E-01 -0.30464333665E-01  0.65414110546E-01  0.51100000000E-03 0.  1.
</event>
<event>
 8    1  0.1196210E+005  0.1043930E+01  0.7957747E-01            NaN
         13   -1    0    0    0    0  0.00000000000E+00  0.00000000000E+00  0.74505805969E-08  0.10566000000E+00  0.10566000000E+00 0. -1.
     999900   -1    0    0    0    0 -0.00000000000E+00 -0.00000000000E+00 -0.74505805969E-08  0.93827000000E+00  0.93827000000E+00 0. -1.
     999902    2    1    2    0    0  0.21219647402E-01  0.78092091524E-02 -0.58677105448E-02  0.10205700511E+01  0.10203026718E+01 0.  0.
     999903    2    3    3    0    0  0.10345685005E+00  0.21071859259E-01 -0.79380803897E-01  0.13358469034E+00  0.19905134812E-01 0.  0.
         14    1    1    2    0    0 -0.21219647402E-01 -0.78092091524E-02  0.58677105448E-02  0.23359948854E-01  0.00000000000E+00 0.  1.
     999901    1    3    3    0    0 -0.82237202646E-01 -0.13262650106E-01  0.73513093352E-01  0.88698536080E+00  0.88000000000E+00 0.  1.
        -11    1    4    4    0    0  0.17372427312E-01 -0.32640246162E-02 -0.16945023331E-01  0.24491835866E-01  0.51100000000E-03 0.  1.
         11    1    4    4    0    0  0.86084422735E-01  0.24335883875E-01 -0.62435780566E-01  0.10909285448E+00  0.51100000000E-03 0. -1.
</event>
<event>
 8    1  0.1196210E+005  0.1043930E+01  0.7957747E-01            NaN
         13   -1    0    0    0    0  0.00000000000E+00  0.00000000000E+00  0.74505805969E-08  0.10566000000E+00  0.10566000000E+00 0. -1.
     999900   -1    0    0    0    0 -0.00000000000E+00 -0.00000000000E+00 -0.74505805969E-08  0.93827000000E+00  0.93827000000E+00 0.  1.
     999902    2    1    2    0    0  0.85616962158E-02  0.21056355701E-02  0.13732619030E-01  0.10276106505E+01  0.10274810596E+01 0.  0.
     999903    2    3    3    0    0  0.14821569398E-01 -0.29373600835E-01  0.13352313085E+00  0.13891503608E+00  0.19658927511E-01 0.  0.
         14    1    1    2    0    0 -0.85616962158E-02 -0.21056355701E-02 -0.13732619030E-01  0.16319349517E-01  0.00000000000E+00 0.  1.
     999901    1    3    3    0    0 -0.62598731824E-02  0.31479236406E-01 -0.11979051182E+00  0.88869561440E+00  0.88000000000E+00 0.  1.
        -11    1    4    4    0    0  0.18099745126E-01 -0.14974014197E-01  0.78349221160E-01  0.81796598048E-01  0.51100000000E-03 0. -1.
         11    1    4    4    0    0 -0.32781757276E-02 -0.14399586638E-01  0.55173909692E-01  0.57118438032E-01  0.51100000000E-03 0.  1.
</event>
<event>
 8    1  0.1196210E+005  0.1043930E+01  0.7957747E-01            NaN
         13   -1    0    0    0    0  0.00000000000E+00  0.00000000000E+00  0.74505805969E-08  0.10566000000E+00  0.10566000000E+00 0.  1.
     999900   -1    0    0    0    0 -0.00000000000E+00 -0.00000000000E+00 -0.74505805969E-08  0.93827000000E+00  0.93827000000E+00 0. -1.
     999902    2    1    2    0    0 -0.10063965931E-01  0.19268603156E-01  0.10896930253E-01  0.10196132246E+01  0.10193232177E+01 0.  0.
     999903    2    3    3    0    0 -0.55491100150E-01  0.16114289210E-02 -0.11509016141E+00  0.12930532975E+00  0.19805659575E-01 0.  0.
         14    1    1    2    0    0  0.10063965931E-01 -0.19268603156E-01 -0.10896930253E-01  0.24316775419E-01  0.00000000000E+00 0.  1.
     999901    1    3    3    0    0  0.45427134219E-01  0.17657174235E-01  0.12598709166E+00  0.89030789483E+00  0.88000000000E+00 0.  1.
        -11    1    4    4    0    0 -0.11675795602E-01 -0.53604599350E-03 -0.45991581002E-01  0.47456276638E-01  0.51100000000E-03 0. -1.
         11    1    4    4    0    0 -0.43815304548E-01  0.21474749145E-02 -0.69098580405E-01  0.81849053117E-01  0.51100000000E-03 0.  1.
</event>
<event>
 8    1  0.1196210E+005  0.1043930E+01  0.7957747E-01            NaN
         13   -1    0    0    0    0  0.00000000000E+00  0.00000000000E+00  0.74505805969E-08  0.10566000000E+00  0.10566000000E+00 0. -1.
     999900   -1    0    0    0    0 -0.00000000000E+00 -0.00000000000E+00 -0.74505805969E-08  0.93827000000E+00  0.93827000000E+00 0. -1.
     999902    2    1    2    0    0 -0.54471661674E-02  0.23273576063E-01  0.29796025731E-02  0.10198424722E+01  0.10195579725E+01 0.  0.
     999903    2    3    3    0    0  0.23076401070E-01 -0.75705009101E-01 -0.98677012429E-01  0.12802162612E+00  0.19713327530E-01 0.  0.
         14    1    1    2    0    0  0.54471661674E-02 -0.23273576063E-01 -0.29796025731E-02  0.24087527758E-01  0.00000000000E+00 0.  1.
     999901    1    3    3    0    0 -0.28523567237E-01  0.98978585164E-01  0.10165661500E+00  0.89182084612E+00  0.88000000000E+00 0. -1.
        -11    1    4    4    0    0  0.11447877309E-01 -0.25412953628E-01 -0.49026512513E-01  0.56397980081E-01  0.51100000000E-03 0.  1.
         11    1    4    4    0    0  0.11628523760E-01 -0.50292055474E-01 -0.49650499916E-01  0.71623646036E-01  0.51100000000E-03 0. -1.
</event>
<event>
 8    1  0.1196210E+005  0.1043930E+01  0.7957747E-01            NaN
         13   -1    0    0    0    0  0.00000000000E+00  0.00000000000E+00  0.74505805969E-08  0.10566000000E+00  0.10566000000E+00 0.  1.
     999900   -1    0    0    0    0 -0.00000000000E+00 -0.00000000000E+00 -0.74505805969E-08  0.93827000000E+00  0.93827000000E+00 0.  1.
     999902    2    1    2    0    0  0.93113989739E-03  0.15959029973E-02  0.22856561490E-01  0.10209988785E+01  0.10207413353E+01 0.  0.
     999903    2    3    3    0    0 -0.76085581170E-01 -0.35670152659E-01 -0.95710588514E-01  0.12893469740E+00  0.20056519812E-01 0.  0.
         14    1    1    2    0    0 -0.93113989739E-03 -0.15959029973E-02 -0.22856561490E-01  0.22931121452E-01  0.00000000000E+00 0. -1.
     999901    1    3    3    0    0  0.77016721068E-01  0.37266055657E-01  0.11856715000E+00  0.89206418115E+00  0.88000000000E+00 0. -1.
        -11    1    4    4    0    0 -0.53811014390E-02 -0.11808836655E-02 -0.16047133461E-01  0.16974167203E-01  0.51100000000E-03 0.  1.
         11    1    4    4    0    0 -0.70704479731E-01 -0.34489268994E-01 -0.79663455054E-01  0.11196053020E+00  0.51100000000E-03 0. -1.
</event>
<event>
 8    1  0.1196210E+005  0.1043930E+01  0.7957747E-01            NaN
         13   -1    0    0    0    0  0.00000000000E+00  0.00000000000E+00  0.74505805969E-08  0.10566000000E+00  0.10566000000E+00 0.  1.
     999900   -1    0    0    0    0 -0.00000000000E+00 -0.00000000000E+00 -0.74505805969E-08  0.93827000000E+00  0.93827000000E+00 0.  1.
     999902    2    1    2    0    0 -0.18986268124E-01 -0.12248206146E-01  0.80987140532E-02  0.10199282063E+01  0.10196457522E+01 0.  0.
     999903    2    3    3    0    0  0.45854283262E-01 -0.11520513239E+00  0.37765971132E-01  0.13106119044E+00  0.19388894790E-01 0.  0.
         14    1    1    2    0    0  0.18986268124E-01  0.12248206146E-01 -0.80987140532E-02  0.24001793691E-01  0.00000000000E+00 0. -1.
     999901    1    3    3    0    0 -0.64840551386E-01  0.10295692624E+00 -0.29667257079E-01  0.88886701587E+00  0.88000000000E+00 0.  1.
        -11    1    4    4    0    0  0.32591446213E-01 -0.98109751479E-01  0.35463494157E-01  0.10929614010E+00  0.51100000000E-03 0. -1.
         11    1    4    4    0    0  0.13262837049E-01 -0.17095380907E-01  0.23024769746E-02  0.21765050337E-01  0.51100000000E-03 0.  1.
</event>
<event>
 8    1  0.1196210E+005  0.1043930E+01  0.7957747E-01            NaN
         13   -1    0    0    0    0  0.00000000000E+00  0.00000000000E+00  0.74505805969E-08  0.10566000000E+00  0.10566000000E+00 0. -1.
     999900   -1    0    0    0    0 -0.00000000000E+00 -0.00000000000E+00 -0.74505805969E-08  0.93827000000E+00  0.93827000000E+00 0. -1.
     999902    2    1    2    0    0 -0.15342076619E-01  0.53294171509E-02  0.17984802641E-01  0.10196970652E+01  0.10194090787E+01 0.  0.
     999903    2    3    3    0    0  0.22301954785E-01 -0.30959511831E-01 -0.12001034488E+00  0.12740976832E+00  0.19362273271E-01 0.  0.
         14    1    1    2    0    0  0.15342076619E-01 -0.53294171509E-02 -0.17984802641E-01  0.24232934783E-01  0.00000000000E+00 0.  1.
     999901    1    3    3    0    0 -0.37644031404E-01  0.36288928981E-01  0.13799514752E+00  0.89228729690E+00  0.88000000000E+00 0.  1.
        -11    1    4    4    0    0 -0.16771736520E-02 -0.60760382497E-02 -0.80523264668E-02  0.10238761390E-01  0.51100000000E-03 0.  1.
         11    1    4    4    0    0  0.23979128437E-01 -0.24883473581E-01 -0.11195801841E+00  0.11717100693E+00  0.51100000000E-03 0. -1.
</event>
<event>
 8    1  0.1196210E+005  0.1043930E+01  0.7957747E-01            NaN
         13   -1    0    0    0    0  0.00000000000E+00  0.00000000000E+00  0.74505805969E-08  0.10566000000E+00  0.10566000000E+00 0. -1.
     999900   -1    0    0    0    0 -0.00000000000E+00 -0.00000000000E+00 -0.74505805969E-08  0.93827000000E+00  0.93827000000E+00 0.  1.
     999902    2    1    2    0    0  0.20319311630E-01 -0.10404886479E-01  0.63751365215E-02  0.10202281340E+01  0.10199527768E+01 0.  0.
     999903    2    3    3    0    0 -0.18830246698E-01  0.10816881139E+00  0.65784714790E-01  0.12942966757E+00  0.19218225693E-01 0.  0.
         14    1    1    2    0    0 -0.20319311630E-01  0.10404886479E-01 -0.63751365215E-02  0.23701866032E-01  0.00000000000E+00 0.  1.
     999901    1    3    3    0    0  0.39149558328E-01 -0.11857369787E+00 -0.59409578268E-01  0.89079846640E+00  0.88000000000E+00 0. -1.
        -11    1    4    4    0    0 -0.20194619646E-02  0.55211089041E-01  0.25820395706E-01  0.60986035575E-01  0.51100000000E-03 0.  1.
         11    1    4    4    0    0 -0.16810784733E-01  0.52957722352E-01  0.39964319083E-01  0.68443631996E-01  0.51100000000E-03 0. -1.
</event>
<event>
 8    1  0.1196210E+005  0.1043930E+01  0.7957747E-01            NaN
         13   -1    0    0    0    0  0.00000000000E+00  0.00000000000E+00  0.74505805969E-08  0.10566000000E+00  0.10566000000E+00 0.  1.
     999900   -1    0    0    0    0 -0.00000000000E+00 -0.00000000000E+00 -0.74505805969E-08  0.93827000000E+00  0.93827000000E+00 0. -1.
     999902    2    1    2    0    0  0.57057324018E-02  0.48511615798E-02  0.22404480327E-01  0.10203069204E+01  0.10200334122E+01 0.  0.
     999903    2    3    3    0    0 -0.41395249151E-01  0.76362626975E-01 -0.92209265919E-01  0.12875282615E+00  0.23020079723E-01 0.  0.
         14    1    1    2    0    0 -0.57057324018E-02 -0.48511615798E-02 -0.22404480327E-01  0.23623079596E-01  0.00000000000E+00 0. -1.
     999901    1    3    3    0    0  0.47100981553E-01 -0.71511465395E-01  0.11461374625E+00  0.89155409425E+00  0.88000000000E+00 0.  1.
        -11    1    4    4    0    0 -0.28828452937E-01  0.41253263262E-01 -0.66743961905E-01  0.83593833506E-01  0.51100000000E-03 0.  1.
         11    1    4    4    0    0 -0.12566796214E-01  0.35109363712E-01 -0.25465304014E-01  0.45158992647E-01  0.51100000000E-03 0. -1.
</event>
<event>
 8    1  0.1196210E+005  0.1043930E+01  0.7957747E-01            NaN
         13   -1    0    0    0    0  0.00000000000E+00  0.00000000000E+00  0.74505805969E-08  0.10566000000E+00  0.10566000000E+00 0.  1.
     999900   -1    0    0    0    0 -0.00000000000E+00 -0.00000000000E+00 -0.74505805969E-08  0.93827000000E+00  0.93827000000E+00 0.  1.
     999902    2    1    2    0    0  0.19941819437E-01  0.51576934941E-02  0.11668236383E-01  0.10202566879E+01  0.10199820016E+01 0.  0.
     999903    2    3    3    0    0 -0.85519293576E-01  0.34888912055E-02 -0.92766602222E-01  0.12782659723E+00  0.20205804490E-01 0.  0.
         14    1    1    2    0    0 -0.19941819437E-01 -0.51576934941E-02 -0.11668236383E-01  0.23673312082E-01  0.00000000000E+00 0. -1.
     999901    1    3    3    0    0  0.10546111301E+00  0.16688022886E-02  0.10443483860E+00  0.89243009069E+00  0.88000000000E+00 0.  1.
        -11    1    4    4    0    0 -0.59455228760E-01  0.53162616554E-02 -0.50779070764E-01  0.78370670620E-01  0.51100000000E-03 0.  1.
         11    1    4    4    0    0 -0.26064064816E-01 -0.18273704499E-02 -0.41987531458E-01  0.49455926606E-01  0.51100000000E-03 0. -1.
</event>
<event>
 8    1  0.1196210E+005  0.1043930E+01  0.7957747E-01            NaN
         13   -1    0    0    0    0  0.00000000000E+00  0.00000000000E+00  0.74505805969E-08  0.10566000000E+00  0.10566000000E+00 0.  1.
     999900   -1    0    0    0    0 -0.00000000000E+00 -0.00000000000E+00 -0.74505805969E-08  0.93827000000E+00  0.93827000000E+00 0. -1.
     999902    2    1    2    0    0  0.57289281561E-02 -0.20909071171E-01 -0.86318503066E-02  0.10205950752E+01  0.10203282750E+01 0.  0.
     999903    2    3    3    0    0 -0.39739543296E-01  0.84204402585E-01 -0.88079466619E-01  0.12962473452E+00  0.19364055438E-01 0.  0.
         14    1    1    2    0    0 -0.57289281561E-02  0.20909071171E-01  0.86318503066E-02  0.23334924786E-01  0.00000000000E+00 0. -1.
     999901    1    3    3    0    0  0.45468471453E-01 -0.10511347376E+00  0.79447616312E-01  0.89097034070E+00  0.88000000000E+00 0.  1.
        -11    1    4    4    0    0 -0.16269459861E-01  0.37822162799E-01 -0.26190033733E-01  0.48799490888E-01  0.51100000000E-03 0.  1.
         11    1    4    4    0    0 -0.23470083435E-01  0.46382239786E-01 -0.61889432886E-01  0.80825243631E-01  0.51100000000E-03 0. -1.
</event>
<event>
 8    1  0.1196210E+005  0.1043930E+01  0.7957747E-01            NaN
         13   -1    0    0    0    0  0.00000000000E+00  0.00000000000E+00  0.74505805969E-08  0.10566000000E+00  0.10566000000E+00 0. -1.
     999900   -1    0    0    0    0 -0.00000000000E+00 -0.00000000000E+00 -0.74505805969E-08  0.93827000000E+00  0.93827000000E+00 0. -1.
     999902    2    1    2    0    0 -0.15254894549E-01 -0.83056937053E-02  0.16065632675E-01  0.10202698878E+01  0.10199955113E+01 0.  0.
     999903    2    3    3    0    0  0.48698345894E-01  0.60331303353E-01  0.10404426062E+00  0.13092108486E+00  0.17427771982E-01 0.  0.
         14    1    1    2    0    0  0.15254894549E-01  0.83056937053E-02 -0.16065632675E-01  0.23660112190E-01  0.00000000000E+00 0.  1.
     999901    1    3    3    0    0 -0.63953240443E-01 -0.68636997058E-01 -0.87978627947E-01  0.88934880295E+00  0.88000000000E+00 0. -1.
        -11    1    4    4    0    0  0.26115761678E-01  0.19402835891E-01  0.38395719387E-01  0.50328872796E-01  0.51100000000E-03 0.  1.
         11    1    4    4    0    0  0.22582584217E-01  0.40928467462E-01  0.65648541234E-01  0.80592212067E-01  0.51100000000E-03 0. -1.
</event>
<event>
 8    1  0.1196210E+005  0.1043930E+01  0.7957747E-01            NaN
         13   -1    0    0    0    0  0.00000000000E+00  0.00000000000E+00  0.74505805969E-08  0.10566000000E+00  0.10566000000E+00 0.  1.
     999900   -1    0    0    0    0 -0.00000000000E+00 -0.00000000000E+00 -0.74505805969E-08  0.93827000000E+00  0.93827000000E+00 0.  1.
     999902    2    1    2    0    0 -0.27117489497E-02 -0.30672451944E-02 -0.23326048384E-01  0.10202473881E+01  0.10199724833E+01 0.  0.
     999903    2    3    3    0    0  0.59080601227E-01 -0.74152638094E-01  0.84697939048E-01  0.12865296822E+00  0.19715835617E-01 0.  0.
         14    1    1    2    0    0  0.27117489497E-02  0.30672451944E-02  0.23326048384E-01  0.23682611947E-01  0.00000000000E+00 0.  1.
     999901    1    3    3    0    0 -0.61792350176E-01  0.71085392900E-01 -0.10802398743E+00  0.89159441984E+00  0.88000000000E+00 0.  1.
        -11    1    4    4    0    0  0.16453122944E-01 -0.16931908127E-01  0.10931218366E-01  0.26022056479E-01  0.51100000000E-03 0.  1.
         11    1    4    4    0    0  0.42627478282E-01 -0.57220729967E-01  0.73766720682E-01  0.10263091174E+00  0.51100000000E-03 0. -1.
</event>
<event>
 8    1  0.1196210E+005  0.1043930E+01  0.7957747E-01            NaN
         13   -1    0    0    0    0  0.00000000000E+00  0.00000000000E+00  0.74505805969E-08  0.10566000000E+00  0.10566000000E+00 0.  1.
     999900   -1    0    0    0    0 -0.00000000000E+00 -0.00000000000E+00 -0.74505805969E-08  0.93827000000E+00  0.93827000000E+00 0. -1.
     999902    2    1    2    0    0  0.48223634892E-02  0.98328850671E-02 -0.20953834132E-01  0.10202867349E+01  0.10200127536E+01 0.  0.
     999903    2    3    3    0    0 -0.76645133594E-01  0.52751031528E-01  0.87065962363E-01  0.12891296551E+00  0.19517249890E-01 0.  0.
         14    1    1    2    0    0 -0.48223634892E-02 -0.98328850671E-02  0.20953834132E-01  0.23643265070E-01  0.00000000000E+00 0.  1.
     999901    1    3    3    0    0  0.81467497084E-01 -0.42918146461E-01 -0.10801979649E+00  0.89137376942E+00  0.88000000000E+00 0. -1.
        -11    1    4    4    0    0 -0.68278837268E-01  0.38891475887E-01  0.68203116690E-01  0.10405033764E+00  0.51100000000E-03 0. -1.
         11    1    4    4    0    0 -0.83662963262E-02  0.13859555641E-01  0.18862845673E-01  0.24862627871E-01  0.51100000000E-03 0.  1.
</event>
<event>
 7    1  0.1196210E+005  0.1043930E+01  0.7957747E-01            NaN
         13   -1    0    0    0    0  0.00000000000E+00  0.00000000000E+00  0.74505805969E-08  0.10566000000E+00  0.10566000000E+00 0. -1.
     999900   -1    0    0    0    0 -0.00000000000E+00 -0.00000000000E+00 -0.74505805969E-08  0.93827000000E+00  0.93827000000E+00 0. -1.
     999903    2    1    2    0    0 -0.96719196870E-01 -0.31186157468E-01  0.27076405269E-01  0.10670958606E+00  0.18072757816E-01 0.  0.
         14    1    1    2    0    0 -0.34224127282E-01 -0.29067572647E-01  0.28393108766E-02  0.44991958771E-01  0.00000000000E+00 0.  1.
     999901    1    1    2    0    0  0.13094332415E+00  0.60253730114E-01 -0.29915716145E-01  0.89222845516E+00  0.88000000000E+00 0.  1.
        -11    1    3    3    0    0 -0.63290772993E-01 -0.16074644351E-01  0.93684766451E-02  0.65970793634E-01  0.51100000000E-03 0.  1.
         11    1    3    3    0    0 -0.33428423878E-01 -0.15111513117E-01  0.17707928623E-01  0.40738792431E-01  0.51100000000E-03 0. -1.
</event>
<event>
 8    1  0.1196210E+005  0.1043930E+01  0.7957747E-01            NaN
         13   -1    0    0    0    0  0.00000000000E+00  0.00000000000E+00  0.74505805969E-08  0.10566000000E+00  0.10566000000E+00 0. -1.
     999900   -1    0    0    0    0 -0.00000000000E+00 -0.00000000000E+00 -0.74505805969E-08  0.93827000000E+00  0.93827000000E+00 0.  1.
     999902    2    1    2    0    0  0.20362552603E-01 -0.12552033098E-01 -0.13043008191E-02  0.10199740345E+01  0.10196926707E+01 0.  0.
     999903    2    3    3    0    0 -0.74846635425E-01 -0.10254506768E+00  0.19651952976E-01  0.13002869889E+00  0.20093619405E-01 0.  0.
         14    1    1    2    0    0 -0.20362552603E-01  0.12552033098E-01  0.13043008191E-02  0.23955965521E-01  0.00000000000E+00 0. -1.
     999901    1    3    3    0    0  0.95209188028E-01  0.89993034580E-01 -0.20956253795E-01  0.88994533559E+00  0.88000000000E+00 0. -1.
        -11    1    4    4    0    0 -0.57536687612E-01 -0.90729304045E-01  0.18628813649E-01  0.10903930875E+00  0.51100000000E-03 0. -1.
         11    1    4    4    0    0 -0.17309947812E-01 -0.11815763633E-01  0.10231393274E-02  0.20989390143E-01  0.51100000000E-03 0.  1.
</event>
<event>
 8    1  0.1196210E+005  0.1043930E+01  0.7957747E-01            NaN
         13   -1    0    0    0    0  0.00000000000E+00  0.00000000000E+00  0.74505805969E-08  0.10566000000E+00  0.10566000000E+00 0.  1.
     999900   -1    0    0    0    0 -0.00000000000E+00 -0.00000000000E+00 -0.74505805969E-08  0.93827000000E+00  0.93827000000E+00 0. -1.
     999902    2    1    2    0    0 -0.93524219608E-02 -0.23023615234E-01  0.43829310636E-02  0.10186958022E+01  0.10183832150E+01 0.  0.
     999903    2    3    3    0    0  0.86588782006E-01 -0.33818907744E-01 -0.86719192141E-01  0.12874026969E+00  0.20310171424E-01 0.  0.
         14    1    1    2    0    0  0.93524219608E-02  0.23023615234E-01 -0.43829310636E-02  0.25234197821E-01  0.00000000000E+00 0. -1.
     999901    1    3    3    0    0 -0.95941203967E-01  0.10795292510E-01  0.91102123205E-01  0.88995553249E+00  0.88000000000E+00 0.  1.
        -11    1    4    4    0    0  0.22616353169E-01 -0.12034271369E-01 -0.36255258935E-01  0.44396261549E-01  0.51100000000E-03 0.  1.
         11    1    4    4    0    0  0.63972428836E-01 -0.21784636375E-01 -0.50463933206E-01  0.84344008139E-01  0.51100000000E-03 0. -1.
</event>
<event>
 8    1  0.1396351E+005  0.1043930E+01  0.7957747E-01            NaN
         13   -1    0    0    0    0  0.00000000000E+00  0.00000000000E+00  0.74505805969E-08  0.10566000000E+00  0.10566000000E+00 0. -1.
     999900   -1    0    0    0    0 -0.00000000000E+00 -0.00000000000E+00 -0.74505805969E-08  0.93827000000E+00  0.93827000000E+00 0.  1.
     999902    2    1    2    0    0  0.18994870266E-01 -0.98432374536E-02  0.97671981105E-02  0.10204120796E+01  0.10201410293E+01 0.  0.
     999903    2    3    3    0    0  0.15765864300E-01 -0.10920992419E-01 -0.12688296856E+00  0.12985896156E+00  0.19905567896E-01 0.  0.
         14    1    1    2    0    0 -0.18994870266E-01  0.98432374536E-02 -0.97671981105E-02  0.23517920379E-01  0.00000000000E+00 0.  1.
     999901    1    3    3    0    0  0.32290059665E-02  0.10777549653E-02  0.13665016668E+00  0.89055311806E+00  0.88000000000E+00 0. -1.
        -11    1    4    4    0    0  0.12312413142E-01 -0.16148687371E-01 -0.79205622008E-01  0.81768987397E-01  0.51100000000E-03 0.  1.
         11    1    4    4    0    0  0.34534511581E-02  0.52276949521E-02 -0.47677346556E-01  0.48089974164E-01  0.51100000000E-03 0. -1.
</event>
<event>
 8    1  0.1196210E+005  0.1043930E+01  0.7957747E-01            NaN
         13   -1    0    0    0    0  0.00000000000E+00  0.00000000000E+00  0.74505805969E-08  0.10566000000E+00  0.10566000000E+00 0.  1.
     999900   -1    0    0    0    0 -0.00000000000E+00 -0.00000000000E+00 -0.74505805969E-08  0.93827000000E+00  0.93827000000E+00 0.  1.
     999902    2    1    2    0    0  0.30785099958E-02 -0.14979347108E-01 -0.17880635376E-01  0.10204018215E+01  0.10201305319E+01 0.  0.
     999903    2    3    3    0    0 -0.10449386885E-01  0.88617960973E-01 -0.93831041014E-01  0.13097286402E+00  0.19679790594E-01 0.  0.
         14    1    1    2    0    0 -0.30785099958E-02  0.14979347108E-01  0.17880635376E-01  0.23528178532E-01  0.00000000000E+00 0. -1.
     999901    1    3    3    0    0  0.13527896880E-01 -0.10359730808E+00  0.75950405638E-01  0.88942895745E+00  0.88000000000E+00 0. -1.
        -11    1    4    4    0    0 -0.16239478060E-01  0.65992106578E-01 -0.67856929796E-01  0.96039069241E-01  0.51100000000E-03 0. -1.
         11    1    4    4    0    0  0.57900911758E-02  0.22625854394E-01 -0.25974111218E-01  0.34933794776E-01  0.51100000000E-03 0.  1.
</event>
<event>
 8    1  0.1196210E+005  0.1043930E+01  0.7957747E-01            NaN
         13   -1    0    0    0    0  0.00000000000E+00  0.00000000000E+00  0.74505805969E-08  0.10566000000E+00  0.10566000000E+00 0.  1.
     999900   -1    0    0    0    0 -0.00000000000E+00 -0.00000000000E+00 -0.74505805969E-08  0.93827000000E+00  0.93827000000E+00 0.  1.
     999902    2    1    2    0    0  0.18711157165E-01 -0.14756987150E-01  0.35158064639E-02  0.10198418916E+01  0.10195573779E+01 0.  0.
     999903    2    3    3    0    0  0.11387169954E+00  0.23992848324E-01  0.59239152931E-01  0.13211323376E+00  0.20055138185E-01 0.  0.
         14    1    1    2    0    0 -0.18711157165E-01  0.14756987150E-01 -0.35158064639E-02  0.24088108421E-01  0.00000000000E+00 0. -1.
     999901    1    3    3    0    0 -0.95160542374E-01 -0.38749835474E-01 -0.55723346467E-01  0.88772865782E+00  0.88000000000E+00 0.  1.
        -11    1    4    4    0    0  0.78482282258E-01  0.20731001888E-01  0.31684292182E-01  0.87140108789E-01  0.51100000000E-03 0. -1.
         11    1    4    4    0    0  0.35389417282E-01  0.32618464360E-02  0.27554860748E-01  0.44973124970E-01  0.51100000000E-03 0.  1.
</event>
<event>
 8    1  0.1196210E+005  0.1043930E+01  0.7957747E-01            NaN
         13   -1    0    0    0    0  0.00000000000E+00  0.00000000000E+00  0.74505805969E-08  0.10566000000E+00  0.10566000000E+00 0.  1.
     999900   -1    0    0    0    0 -0.00000000000E+00 -0.00000000000E+00 -0.74505805969E-08  0.93827000000E+00  0.93827000000E+00 0. -1.
     999902    2    1    2    0    0 -0.24358262472E-02  0.11694396495E-01  0.20584533995E-01  0.10201305210E+01  0.10198528643E+01 0.  0.
     999903    2    3    3    0    0  0.46621465666E-01 -0.72579875282E-01 -0.91920929493E-01  0.12762491877E+00  0.19931463953E-01 0.  0.
         14    1    1    2    0    0  0.24358262472E-02 -0.11694396495E-01 -0.20584533995E-01  0.23799478958E-01  0.00000000000E+00 0. -1.
     999901    1    3    3    0    0 -0.49057291913E-01  0.84274271777E-01  0.11250546349E+00  0.89250560227E+00  0.88000000000E+00 0.  1.
        -11    1    4    4    0    0  0.26679979471E-01 -0.57942871682E-01 -0.65853852569E-01  0.91685269823E-01  0.51100000000E-03 0. -1.
         11    1    4    4    0    0  0.19941486195E-01 -0.14637003600E-01 -0.26067076924E-01  0.35939648947E-01  0.51100000000E-03 0.  1.
</event>
<event>
 8    1  0.1196210E+005  0.1043930E+01  0.7957747E-01            NaN
         13   -1    0    0    0    0  0.00000000000E+00  0.00000000000E+00  0.74505805969E-08  0.10566000000E+00  0.10566000000E+00 0. -1.
     999900   -1    0    0    0    0 -0.00000000000E+00 -0.00000000000E+00 -0.74505805969E-08  0.93827000000E+00  0.93827000000E+00 0.  1.
     999902    2    1    2    0    0 -0.65167717262E-02 -0.19885999585E-01 -0.40578529236E-03  0.10229994970E+01  0.10227853562E+01 0.  0.
     999903    2    3    3    0    0 -0.20016295388E-01 -0.13051930550E+00  0.24947395879E-01  0.13560739129E+00  0.18194802083E-01 0.  0.
         14    1    1    2    0    0  0.65167717262E-02  0.19885999585E-01  0.40578529236E-03  0.20930502979E-01  0.00000000000E+00 0.  1.
     999901    1    3    3    0    0  0.13499523662E-01  0.11063330591E+00 -0.25353181172E-01  0.88739210573E+00  0.88000000000E+00 0.  1.
        -11    1    4    4    0    0 -0.11557904051E-01 -0.86836402298E-01  0.79103069314E-02  0.87960104518E-01  0.51100000000E-03 0. -1.
         11    1    4    4    0    0 -0.84583913372E-02 -0.43682903201E-01  0.17037088948E-01  0.47647286773E-01  0.51100000000E-03 0.  1.
</event>
<event>
 8    1  0.1196210E+005  0.1043930E+01  0.7957747E-01            NaN
         13   -1    0    0    0    0  0.00000000000E+00  0.00000000000E+00  0.74505805969E-08  0.10566000000E+00  0.10566000000E+00 0.  1.
     999900   -1    0    0    0    0 -0.00000000000E+00 -0.00000000000E+00 -0.74505805969E-08  0.93827000000E+00  0.93827000000E+00 0. -1.
     999902    2    1    2    0    0  0.43288772282E-02  0.28910936795E-02 -0.21956854494E-01  0.10213645162E+01  0.10211152109E+01 0.  0.
     999903    2    3    3    0    0  0.46483343366E-01 -0.11279259195E+00  0.41982527064E-01  0.13049530095E+00  0.19586244691E-01 0.  0.
         14    1    1    2    0    0 -0.43288772282E-02 -0.28910936795E-02  0.21956854494E-01  0.22565483819E-01  0.00000000000E+00 0.  1.
     999901    1    3    3    0    0 -0.42154466138E-01  0.11568368563E+00 -0.63939381558E-01  0.89086921523E+00  0.88000000000E+00 0. -1.
        -11    1    4    4    0    0  0.28643859092E-01 -0.77403086750E-01  0.37343726365E-01  0.90589864344E-01  0.51100000000E-03 0.  1.
         11    1    4    4    0    0  0.17839484274E-01 -0.35389505202E-01  0.46388006991E-02  0.39905436603E-01  0.51100000000E-03 0. -1.
</event>
<event>
 8    1  0.1196210E+005  0.1043930E+01  0.7957747E-01            NaN
         13   -1    0    0    0    0  0.00000000000E+00  0.00000000000E+00  0.74505805969E-08  0.10566000000E+00  0.10566000000E+00 0.  1.
     999900   -1    0    0    0    0 -0.00000000000E+00 -0.00000000000E+00 -0.74505805969E-08  0.93827000000E+00  0.93827000000E+00 0. -1.
     999902    2    1    2    0    0 -0.22273941005E-01 -0.72498338172E-03 -0.69225607825E-02  0.10205938500E+01  0.10203270215E+01 0.  0.
     999903    2    3    3    0    0 -0.35996679900E-01  0.10546178312E+00  0.66176292011E-01  0.13109546034E+00  0.19717236968E-01 0.  0.
         14    1    1    2    0    0  0.22273941005E-01  0.72498338172E-03  0.69225607825E-02  0.23336149995E-01  0.00000000000E+00 0.  1.
     999901    1    3    3    0    0  0.13722738895E-01 -0.10618676650E+00 -0.73098852793E-01  0.88949838967E+00  0.88000000000E+00 0. -1.
        -11    1    4    4    0    0 -0.52903035873E-02  0.44470326958E-01  0.23622946963E-01  0.50634988260E-01  0.51100000000E-03 0. -1.
         11    1    4    4    0    0 -0.30706376313E-01  0.60991456163E-01  0.42553345048E-01  0.80460472077E-01  0.51100000000E-03 0.  1.
</event>
<event>
 8    1  0.1196210E+005  0.1043930E+01  0.7957747E-01            NaN
         13   -1    0    0    0    0  0.00000000000E+00  0.00000000000E+00  0.74505805969E-08  0.10566000000E+00  0.10566000000E+00 0. -1.
     999900   -1    0    0    0    0 -0.00000000000E+00 -0.00000000000E+00 -0.74505805969E-08  0.93827000000E+00  0.93827000000E+00 0.  1.
     999902    2    1    2    0    0 -0.21111432833E-01 -0.68852562475E-02 -0.78849340077E-02  0.10203657997E+01  0.10200936691E+01 0.  0.
     999903    2    3    3    0    0  0.10365259892E-01  0.75488949045E-01  0.10234817861E+00  0.12911520030E+00  0.19737407183E-01 0.  0.
         14    1    1    2    0    0  0.21111432833E-01  0.68852562475E-02  0.78849340077E-02  0.23564200265E-01  0.00000000000E+00 0.  1.
     999901    1    3    3    0    0 -0.31476692725E-01 -0.82374205292E-01 -0.11023311262E+00  0.89125059944E+00  0.88000000000E+00 0.  1.
        -11    1    4    4    0    0  0.90725733520E-02  0.51607833725E-01  0.54414065424E-01  0.75543575015E-01  0.51100000000E-03 0.  1.
         11    1    4    4    0    0  0.12926865404E-02  0.23881115319E-01  0.47934113186E-01  0.53571625281E-01  0.51100000000E-03 0. -1.
</event>
<event>
 8    1  0.1196210E+005  0.1043930E+01  0.7957747E-01            NaN
         13   -1    0    0    0    0  0.00000000000E+00  0.00000000000E+00  0.74505805969E-08  0.10566000000E+00  0.10566000000E+00 0. -1.
     999900   -1    0    0    0    0 -0.00000000000E+00 -0.00000000000E+00 -0.74505805969E-08  0.93827000000E+00  0.93827000000E+00 0. -1.
     999902    2    1    2    0    0  0.53275908035E-02  0.40058181681E-02 -0.22275733542E-01  0.10206783741E+01  0.10204134972E+01 0.  0.
     999903    2    3    3    0    0 -0.50398066129E-02 -0.14145162835E-01 -0.13142883135E+00  0.13368832915E+00  0.19327347442E-01 0.  0.
         14    1    1    2    0    0 -0.53275908035E-02 -0.40058181681E-02  0.22275733542E-01  0.23251625918E-01  0.00000000000E+00 0. -1.
     999901    1    3    3    0    0  0.10367397416E-01  0.18150981003E-01  0.10915309781E+00  0.88699004493E+00  0.88000000000E+00 0.  1.
        -11    1    4    4    0    0 -0.16314571774E-02 -0.15918382305E-01 -0.58342444614E-01  0.60499243898E-01  0.51100000000E-03 0.  1.
         11    1    4    4    0    0 -0.34083494355E-02  0.17732194702E-02 -0.73086386738E-01  0.73189085256E-01  0.51100000000E-03 0. -1.
</event>
<event>
 8    1  0.1196210E+005  0.1043930E+01  0.7957747E-01            NaN
         13   -1    0    0    0    0  0.00000000000E+00  0.00000000000E+00  0.74505805969E-08  0.10566000000E+00  0.10566000000E+00 0. -1.
     999900   -1    0    0    0    0 -0.00000000000E+00 -0.00000000000E+00 -0.74505805969E-08  0.93827000000E+00  0.93827000000E+00 0.  1.
     999902    2    1    2    0    0 -0.16484138443E-01  0.16273913033E-01  0.78928487685E-02  0.10194582995E+01  0.10191645403E+01 0.  0.
     999903    2    3    3    0    0 -0.10078207337E+00 -0.54282305219E-01 -0.58807077015E-01  0.13011404560E+00  0.19178049525E-01 0.  0.
         14    1    1    2    0    0  0.16484138443E-01 -0.16273913033E-01 -0.78928487685E-02  0.24471700540E-01  0.00000000000E+00 0.  1.
     999901    1    3    3    0    0  0.84297934928E-01  0.70556218252E-01  0.66699925784E-01  0.88934425386E+00  0.88000000000E+00 0. -1.
        -11    1    4    4    0    0 -0.27480757691E-01 -0.69017336219E-02 -0.19430467989E-01  0.34360299439E-01  0.51100000000E-03 0. -1.
         11    1    4    4    0    0 -0.73301315680E-01 -0.47380571597E-01 -0.39376609026E-01  0.95753746165E-01  0.51100000000E-03 0.  1.
</event>
<event>
 8    1  0.1196210E+005  0.1043930E+01  0.7957747E-01            NaN
         13   -1    0    0    0    0  0.00000000000E+00  0.00000000000E+00  0.74505805969E-08  0.10566000000E+00  0.10566000000E+00 0. -1.
     999900   -1    0    0    0    0 -0.00000000000E+00 -0.00000000000E+00 -0.74505805969E-08  0.93827000000E+00  0.93827000000E+00 0.  1.
     999902    2    1    2    0    0 -0.23201308698E-02  0.11153017772E-02  0.22568113316E-01  0.10212155411E+01  0.10209628958E+01 0.  0.
     999903    2    3    3    0    0 -0.10756333481E+00 -0.39577068669E-01 -0.59966323282E-01  0.13018022516E+00  0.14653181779E-01 0.  0.
         14    1    1    2    0    0  0.23201308698E-02 -0.11153017772E-02 -0.22568113316E-01  0.22714458919E-01  0.00000000000E+00 0.  1.
     999901    1    3    3    0    0  0.10524320394E+00  0.40692370446E-01  0.82534436598E-01  0.89103531592E+00  0.88000000000E+00 0. -1.
        -11    1    4    4    0    0 -0.45790536370E-01 -0.24329306010E-01 -0.24804081498E-01  0.57482100970E-01  0.51100000000E-03 0. -1.
         11    1    4    4    0    0 -0.61772798438E-01 -0.15247762658E-01 -0.35162241784E-01  0.72698124193E-01  0.51100000000E-03 0.  1.
</event>
<event>
 8    1  0.1196210E+005  0.1043930E+01  0.7957747E-01            NaN
         13   -1    0    0    0    0  0.00000000000E+00  0.00000000000E+00  0.74505805969E-08  0.10566000000E+00  0.10566000000E+00 0. -1.
     999900   -1    0    0    0    0 -0.00000000000E+00 -0.00000000000E+00 -0.74505805969E-08  0.93827000000E+00  0.93827000000E+00 0. -1.
     999902    2    1    2    0    0 -0.31446645073E-02  0.52885375693E-03  0.23989457350E-01  0.10197295317E+01  0.10194423256E+01 0.  0.
     999903    2    3    3    0    0 -0.95942514721E-01  0.76548411333E-01 -0.36699981007E-01  0.12951965643E+00  0.19074259784E-01 0.  0.
         14    1    1    2    0    0  0.31446645073E-02 -0.52885375693E-03 -0.23989457350E-01  0.24200468282E-01  0.00000000000E+00 0.  1.
     999901    1    3    3    0    0  0.92797850213E-01 -0.76019557576E-01  0.60689438357E-01  0.89020987529E+00  0.88000000000E+00 0.  1.
        -11    1    4    4    0    0 -0.94526905675E-02  0.46625844920E-02  0.16821724303E-02  0.10685685668E-01  0.51100000000E-03 0.  1.
         11    1    4    4    0    0 -0.86489824153E-01  0.71885826841E-01 -0.38382153437E-01  0.11883397076E+00  0.51100000000E-03 0. -1.
</event>
<event>
 8    1  0.1196210E+005  0.1043930E+01  0.7957747E-01            NaN
         13   -1    0    0    0    0  0.00000000000E+00  0.00000000000E+00  0.74505805969E-08  0.10566000000E+00  0.10566000000E+00 0. -1.
     999900   -1    0    0    0    0 -0.00000000000E+00 -0.00000000000E+00 -0.74505805969E-08  0.93827000000E+00  0.93827000000E+00 0. -1.
     999902    2    1    2    0    0  0.10868820986E-01  0.19541500589E-01 -0.92803165215E-02  0.10197199651E+01  0.10194325291E+01 0.  0.
     999903    2    3    3    0    0 -0.93457734576E-01 -0.32146006170E-01  0.78558490420E-01  0.12771588184E+00  0.19292386920E-01 0.  0.
         14    1    1    2    0    0 -0.10868820986E-01 -0.19541500589E-01  0.92803165215E-02  0.24210034895E-01  0.00000000000E+00 0. -1.
     999901    1    3    3    0    0  0.10432655556E+00  0.51687506759E-01 -0.87838806942E-01  0.89200408326E+00  0.88000000000E+00 0. -1.
        -11    1    4    4    0    0 -0.14619084361E-01  0.65150520563E-03  0.17076450779E-01  0.22494629999E-01  0.51100000000E-03 0. -1.
         11    1    4    4    0    0 -0.78838650215E-01 -0.32797511375E-01  0.61482039641E-01  0.10522125184E+00  0.51100000000E-03 0.  1.
</event>
<event>
 8    1  0.1196210E+005  0.1043930E+01  0.7957747E-01            NaN
         13   -1    0    0    0    0  0.00000000000E+00  0.00000000000E+00  0.74505805969E-08  0.10566000000E+00  0.10566000000E+00 0. -1.
     999900   -1    0    0    0    0 -0.00000000000E+00 -0.00000000000E+00 -0.74505805969E-08  0.93827000000E+00  0.93827000000E+00 0. -1.
     999902    2    1    2    0    0 -0.50042455619E-03 -0.17970005697E-01  0.15254395821E-01  0.10203531444E+01  0.10200807179E+01 0.  0.
     999903    2    3    3    0    0  0.18966262816E-01  0.12070771867E+00  0.36813474256E-01  0.12901972919E+00  0.18994371862E-01 0.  0.
         14    1    1    2    0    0  0.50042455619E-03  0.17970005697E-01 -0.15254395821E-01  0.23576855629E-01  0.00000000000E+00 0.  1.
     999901    1    3    3    0    0 -0.19466687372E-01 -0.13867772437E+00 -0.21559078435E-01  0.89133341518E+00  0.88000000000E+00 0. -1.
        -11    1    4    4    0    0  0.34998633737E-02  0.35790246029E-01  0.19759245072E-01  0.41035102550E-01  0.51100000000E-03 0.  1.
         11    1    4    4    0    0  0.15466399442E-01  0.84917472640E-01  0.17054229184E-01  0.87984626642E-01  0.51100000000E-03 0. -1.
</event>
<event>
 8    1  0.1196210E+005  0.1043930E+01  0.7957747E-01            NaN
         13   -1    0    0    0    0  0.00000000000E+00  0.00000000000E+00  0.74505805969E-08  0.10566000000E+00  0.10566000000E+00 0.  1.
     999900   -1    0    0    0    0 -0.00000000000E+00 -0.00000000000E+00 -0.74505805969E-08  0.93827000000E+00  0.93827000000E+00 0. -1.
     999902    2    1    2    0    0 -0.17706377488E-02 -0.23066517375E-02 -0.21959981053E-01  0.10217783281E+01  0.10215381810E+01 0.  0.
     999903    2    3    3    0    0  0.93095993576E-01 -0.33552478602E-01  0.81992500512E-01  0.13004849353E+00  0.19930069956E-01 0.  0.
         14    1    1    2    0    0  0.17706377488E-02  0.23066517375E-02  0.21959981053E-01  0.22151671904E-01  0.00000000000E+00 0.  1.
     999901    1    3    3    0    0 -0.94866631325E-01  0.31245826864E-01 -0.10395248157E+00  0.89172983457E+00  0.88000000000E+00 0. -1.
        -11    1    4    4    0    0  0.54762211864E-01 -0.19299495483E-01  0.35207881095E-01  0.67906011415E-01  0.51100000000E-03 0. -1.
         11    1    4    4    0    0  0.38333781712E-01 -0.14252983119E-01  0.46784619417E-01  0.62142482113E-01  0.51100000000E-03 0.  1.
</event>
<event>
 8    1  0.1196210E+005  0.1043930E+01  0.7957747E-01            NaN
         13   -1    0    0    0    0  0.00000000000E+00  0.00000000000E+00  0.74505805969E-08  0.10566000000E+00  0.10566000000E+00 0. -1.
     999900   -1    0    0    0    0 -0.00000000000E+00 -0.00000000000E+00 -0.74505805969E-08  0.93827000000E+00  0.93827000000E+00 0. -1.
     999902    2    1    2    0    0 -0.93353913895E-02 -0.73451618425E-02 -0.20754247596E-01  0.10200168294E+01  0.10197364819E+01 0.  0.
     999903    2    3    3    0    0 -0.35502168531E-01  0.94657162430E-01  0.76607991427E-01  0.12840672404E+00  0.19977989380E-01 0.  0.
         14    1    1    2    0    0  0.93353913895E-02  0.73451618425E-02  0.20754247596E-01  0.23913170600E-01  0.00000000000E+00 0. -1.
     999901    1    3    3    0    0  0.26166777141E-01 -0.10200232427E+00 -0.97362239023E-01  0.89161010535E+00  0.88000000000E+00 0. -1.
        -11    1    4    4    0    0 -0.21445670972E-01  0.30489419727E-01  0.30181318758E-01  0.47965556827E-01  0.51100000000E-03 0. -1.
         11    1    4    4    0    0 -0.14056497558E-01  0.64167742703E-01  0.46426672669E-01  0.80441167218E-01  0.51100000000E-03 0.  1.
</event>
<event>
 8    1  0.1196210E+005  0.1043930E+01  0.7957747E-01            NaN
         13   -1    0    0    0    0  0.00000000000E+00  0.00000000000E+00  0.74505805969E-08  0.10566000000E+00  0.10566000000E+00 0.  1.
     999900   -1    0    0    0    0 -0.00000000000E+00 -0.00000000000E+00 -0.74505805969E-08  0.93827000000E+00  0.93827000000E+00 0.  1.
     999902    2    1    2    0    0  0.15111608904E-01 -0.20949556880E-01  0.17137187337E-01  0.10129311638E+01  0.10124567224E+01 0.  0.
     999903    2    3    3    0    0 -0.25557209540E-01  0.11487969587E+00  0.21124263929E-01  0.12157296671E+00  0.21982634664E-01 0.  0.
         14    1    1    2    0    0 -0.15111608904E-01  0.20949556880E-01 -0.17137187337E-01  0.30998836220E-01  0.00000000000E+00 0.  1.
     999901    1    3    3    0    0  0.40668818444E-01 -0.13582925275E+00 -0.39870765919E-02  0.89135819707E+00  0.88000000000E+00 0.  1.
        -11    1    4    4    0    0 -0.18410656441E-01  0.59267514324E-01  0.12267744940E-02  0.62075410763E-01  0.51100000000E-03 0. -1.
         11    1    4    4    0    0 -0.71465530987E-02  0.55612181546E-01  0.19897489435E-01  0.59497555952E-01  0.51100000000E-03 0.  1.
</event>
<event>
 8    1  0.1196210E+005  0.1043930E+01  0.7957747E-01            NaN
         13   -1    0    0    0    0  0.00000000000E+00  0.00000000000E+00  0.74505805969E-08  0.10566000000E+00  0.10566000000E+00 0.  1.
     999900   -1    0    0    0    0 -0.00000000000E+00 -0.00000000000E+00 -0.74505805969E-08  0.93827000000E+00  0.93827000000E+00 0.  1.
     999902    2    1    2    0    0  0.22751801313E-01  0.59081032237E-02 -0.82636862174E-03  0.10204090937E+01  0.10201379738E+01 0.  0.
     999903    2    3    3    0    0  0.26878572186E-01  0.89396136586E-01 -0.91155295053E-01  0.13184474777E+00  0.18963723796E-01 0.  0.
         14    1    1    2    0    0 -0.22751801313E-01 -0.59081032237E-02  0.82636862174E-03  0.23520906270E-01  0.00000000000E+00 0. -1.
     999901    1    3    3    0    0 -0.41267708735E-02 -0.83488033363E-01  0.90328926431E-01  0.88856434596E+00  0.88000000000E+00 0. -1.
        -11    1    4    4    0    0  0.83291931124E-02  0.25312139615E-01 -0.38634586733E-01  0.46935831545E-01  0.51100000000E-03 0. -1.
         11    1    4    4    0    0  0.18549379074E-01  0.64083996972E-01 -0.52520708321E-01  0.84908916230E-01  0.51100000000E-03 0.  1.
</event>
<event>
 8    1  0.1196210E+005  0.1043930E+01  0.7957747E-01            NaN
         13   -1    0    0    0    0  0.00000000000E+00  0.00000000000E+00  0.74505805969E-08  0.10566000000E+00  0.10566000000E+00 0.  1.
     999900   -1    0    0    0    0 -0.00000000000E+00 -0.00000000000E+00 -0.74505805969E-08  0.93827000000E+00  0.93827000000E+00 0.  1.
     999902    2    1    2    0    0  0.15168798034E-03  0.64392971159E-02  0.23219801850E-01  0.10198333871E+01  0.10195486701E+01 0.  0.
     999903    2    3    3    0    0 -0.38156255027E-01  0.10656678162E+00 -0.59784950579E-01  0.12944987387E+00  0.19252293044E-01 0.  0.
         14    1    1    2    0    0 -0.15168798034E-03 -0.64392971159E-02 -0.23219801850E-01  0.24096612926E-01  0.00000000000E+00 0. -1.
     999901    1    3    3    0    0  0.38307943007E-01 -0.10012748451E+00  0.83004752429E-01  0.89038351320E+00  0.88000000000E+00 0. -1.
        -11    1    4    4    0    0 -0.24408015314E-01  0.70174428645E-01 -0.49257812565E-01  0.89144797195E-01  0.51100000000E-03 0. -1.
         11    1    4    4    0    0 -0.13748239713E-01  0.36392352977E-01 -0.10527138014E-01  0.40305076679E-01  0.51100000000E-03 0.  1.
</event>
<event>
 8    1  0.1196210E+005  0.1043930E+01  0.7957747E-01            NaN
         13   -1    0    0    0    0  0.00000000000E+00  0.00000000000E+00  0.74505805969E-08  0.10566000000E+00  0.10566000000E+00 0.  1.
     999900   -1    0    0    0    0 -0.00000000000E+00 -0.00000000000E+00 -0.74505805969E-08  0.93827000000E+00  0.93827000000E+00 0. -1.
     999902    2    1    2    0    0  0.18452365175E-02  0.15956539845E-01 -0.17844553733E-01  0.10199207485E+01  0.10196381167E+01 0.  0.
     999903    2    3    3    0    0 -0.60529814731E-01  0.26355744795E-01 -0.11317264449E+00  0.13251653652E+00  0.19851983157E-01 0.  0.
         14    1    1    2    0    0 -0.18452365175E-02 -0.15956539845E-01  0.17844553733E-01  0.24009251541E-01  0.00000000000E+00 0.  1.
     999901    1    3    3    0    0  0.62375051249E-01 -0.10399204950E-01  0.95328090757E-01  0.88740421194E+00  0.88000000000E+00 0.  1.
        -11    1    4    4    0    0 -0.18253641180E-01  0.13180362071E-01 -0.54795662634E-01  0.59243085041E-01  0.51100000000E-03 0.  1.
         11    1    4    4    0    0 -0.42276173551E-01  0.13175382724E-01 -0.58376981856E-01  0.73273451479E-01  0.51100000000E-03 0. -1.
</event>
<event>
 8    1  0.1196210E+005  0.1043930E+01  0.7957747E-01            NaN
         13   -1    0    0    0    0  0.00000000000E+00  0.00000000000E+00  0.74505805969E-08  0.10566000000E+00  0.10566000000E+00 0.  1.
     999900   -1    0    0    0    0 -0.00000000000E+00 -0.00000000000E+00 -0.74505805969E-08  0.93827000000E+00  0.93827000000E+00 0.  1.
     999902    2    1    2    0    0  0.67855973894E-02  0.21738199107E-01  0.73801113764E-02  0.10199913351E+01  0.10197103824E+01 0.  0.
     999903    2    3    3    0    0  0.95554752702E-01 -0.80732271563E-01 -0.24941626546E-01  0.12902284239E+00  0.19400997087E-01 0.  0.
         14    1    1    2    0    0 -0.67855973894E-02 -0.21738199107E-01 -0.73801113764E-02  0.23938664881E-01  0.00000000000E+00 0.  1.
     999901    1    3    3    0    0 -0.88769155313E-01  0.10247047067E+00  0.32321737922E-01  0.89096849273E+00  0.88000000000E+00 0.  1.
        -11    1    4    4    0    0  0.76982125816E-01 -0.54160343247E-01 -0.17148730412E-01  0.95676175465E-01  0.51100000000E-03 0. -1.
         11    1    4    4    0    0  0.18572626886E-01 -0.26571928316E-01 -0.77928961335E-02  0.33346666925E-01  0.51100000000E-03 0.  1.
</event>
<event>
 8    1  0.1196210E+005  0.1043930E+01  0.7957747E-01            NaN
         13   -1    0    0    0    0  0.00000000000E+00  0.00000000000E+00  0.74505805969E-08  0.10566000000E+00  0.10566000000E+00 0. -1.
     999900   -1    0    0    0    0 -0.00000000000E+00 -0.00000000000E+00 -0.74505805969E-08  0.93827000000E+00  0.93827000000E+00 0. -1.
     999902    2    1    2    0    0  0.17449522476E-01  0.12576430142E-01  0.91656402812E-02  0.10205492089E+01  0.10202813467E+01 0.  0.
     999903    2    3    3    0    0 -0.19060888981E-01  0.41441512163E-01 -0.11984246565E+00  0.12992622780E+00  0.20925861435E-01 0.  0.
         14    1    1    2    0    0 -0.17449522476E-01 -0.12576430142E-01 -0.91656402812E-02  0.23380791080E-01  0.00000000000E+00 0.  1.
     999901    1    3    3    0    0  0.36510411457E-01 -0.28865082021E-01  0.12900810594E+00  0.89062298112E+00  0.88000000000E+00 0.  1.
        -11    1    4    4    0    0  0.10743991121E-02  0.12948671656E-01 -0.17522408580E-01  0.21820136447E-01  0.51100000000E-03 0.  1.
         11    1    4    4    0    0 -0.20135288093E-01  0.28492840507E-01 -0.10232005707E+00  0.10810609135E+00  0.51100000000E-03 0. -1.
</event>
<event>
 8    1  0.1196210E+005  0.1043930E+01  0.7957747E-01            NaN
         13   -1    0    0    0    0  0.00000000000E+00  0.00000000000E+00  0.74505805969E-08  0.10566000000E+00  0.10566000000E+00 0.  1.
     999900   -1    0    0    0    0 -0.00000000000E+00 -0.00000000000E+00 -0.74505805969E-08  0.93827000000E+00  0.93827000000E+00 0. -1.
     999902    2    1    2    0    0 -0.15305485822E-03 -0.12907011230E-01 -0.19822140992E-01  0.10202755789E+01  0.10200013359E+01 0.  0.
     999903    2    3    3    0    0  0.74697917159E-01 -0.81221689538E-01 -0.71506252482E-01  0.13295330898E+00  0.19664601357E-01 0.  0.
         14    1    1    2    0    0  0.15305485822E-03  0.12907011230E-01  0.19822140992E-01  0.23654421113E-01  0.00000000000E+00 0.  1.
     999901    1    3    3    0    0 -0.74850972017E-01  0.68314678309E-01  0.51684111489E-01  0.88732226990E+00  0.88000000000E+00 0.  1.
        -11    1    4    4    0    0  0.43950131631E-01 -0.48187403670E-01 -0.30608785218E-01  0.72047198394E-01  0.51100000000E-03 0. -1.
         11    1    4    4    0    0  0.30747785528E-01 -0.33034285869E-01 -0.40897467263E-01  0.60906110591E-01  0.51100000000E-03 0.  1.
</event>
<event>
 8    1  0.1196210E+005  0.1043930E+01  0.7957747E-01            NaN
         13   -1    0    0    0    0  0.00000000000E+00  0.00000000000E+00  0.74505805969E-08  0.10566000000E+00  0.10566000000E+00 0. -1.
     999900   -1    0    0    0    0 -0.00000000000E+00 -0.00000000000E+00 -0.74505805969E-08  0.93827000000E+00  0.93827000000E+00 0.  1.
     999902    2    1    2    0    0  0.89041507298E-02 -0.21021871422E-01 -0.74828566365E-02  0.10199050937E+01  0.10196220889E+01 0.  0.
     999903    2    3    3    0    0  0.12913704417E-01  0.84213177064E-01  0.93184317657E-01  0.12792730704E+00  0.20578043554E-01 0.  0.
         14    1    1    2    0    0 -0.89041507298E-02  0.21021871422E-01  0.74828566365E-02  0.24024906279E-01  0.00000000000E+00 0. -1.
     999901    1    3    3    0    0 -0.40095536872E-02 -0.10523504849E+00 -0.10066717429E+00  0.89197778668E+00  0.88000000000E+00 0.  1.
        -11    1    4    4    0    0 -0.53320457361E-03  0.37368538006E-01  0.52465721871E-01  0.64417428016E-01  0.51100000000E-03 0. -1.
         11    1    4    4    0    0  0.13446908991E-01  0.46844639058E-01  0.40718595786E-01  0.63509879024E-01  0.51100000000E-03 0.  1.
</event>
<event>
 8    1  0.1196210E+005  0.1043930E+01  0.7957747E-01            NaN
         13   -1    0    0    0    0  0.00000000000E+00  0.00000000000E+00  0.74505805969E-08  0.10566000000E+00  0.10566000000E+00 0. -1.
     999900   -1    0    0    0    0 -0.00000000000E+00 -0.00000000000E+00 -0.74505805969E-08  0.93827000000E+00  0.93827000000E+00 0.  1.
     999902    2    1    2    0    0 -0.13101807183E-01  0.19296690535E-01  0.11388013645E-02  0.10205779875E+01  0.10203107920E+01 0.  0.
     999903    2    3    3    0    0  0.41900656312E-01  0.10201507264E+00 -0.70055440412E-01  0.13213202870E+00  0.19707060438E-01 0.  0.
         14    1    1    2    0    0  0.13101807183E-01 -0.19296690535E-01 -0.11388013645E-02  0.23352012453E-01  0.00000000000E+00 0. -1.
     999901    1    3    3    0    0 -0.55002463495E-01 -0.82718382110E-01  0.71194241776E-01  0.88844595885E+00  0.88000000000E+00 0. -1.
        -11    1    4    4    0    0  0.15382162044E-01  0.26982015473E-01 -0.10707597532E-01  0.32856564550E-01  0.51100000000E-03 0. -1.
         11    1    4    4    0    0  0.26518494268E-01  0.75033057171E-01 -0.59347842879E-01  0.99275464150E-01  0.51100000000E-03 0.  1.
</event>
<event>
 8    1  0.1196210E+005  0.1043930E+01  0.7957747E-01            NaN
         13   -1    0    0    0    0  0.00000000000E+00  0.00000000000E+00  0.74505805969E-08  0.10566000000E+00  0.10566000000E+00 0. -1.
     999900   -1    0    0    0    0 -0.00000000000E+00 -0.00000000000E+00 -0.74505805969E-08  0.93827000000E+00  0.93827000000E+00 0.  1.
     999902    2    1    2    0    0  0.13020357644E-02  0.20859113169E-01  0.13117010744E-01  0.10192550356E+01  0.10189563159E+01 0.  0.
     999903    2    3    3    0    0 -0.50821356040E-01  0.45605938718E-01 -0.10774559372E+00  0.12912188681E+00  0.20015913905E-01 0.  0.
         14    1    1    2    0    0 -0.13020357644E-02 -0.20859113169E-01 -0.13117010744E-01  0.24674964442E-01  0.00000000000E+00 0.  1.
     999901    1    3    3    0    0  0.52123391805E-01 -0.24746825548E-01  0.12086260447E+00  0.89013314875E+00  0.88000000000E+00 0. -1.
        -11    1    4    4    0    0 -0.46216533977E-01  0.31243308155E-01 -0.89234114693E-01  0.10523830416E+00  0.51100000000E-03 0. -1.
         11    1    4    4    0    0 -0.46048220628E-02  0.14362630562E-01 -0.18511479032E-01  0.23883582642E-01  0.51100000000E-03 0.  1.
</event>
<event>
 8    1  0.1196210E+005  0.1043930E+01  0.7957747E-01            NaN
         13   -1    0    0    0    0  0.00000000000E+00  0.00000000000E+00  0.74505805969E-08  0.10566000000E+00  0.10566000000E+00 0. -1.
     999900   -1    0    0    0    0 -0.00000000000E+00 -0.00000000000E+00 -0.74505805969E-08  0.93827000000E+00  0.93827000000E+00 0.  1.
     999902    2    1    2    0    0  0.29607337268E-02  0.21445949963E-01  0.11134666386E-01  0.10195850722E+01  0.10192943853E+01 0.  0.
     999903    2    3    3    0    0 -0.10861073755E+00  0.57888450694E-01  0.40020307891E-01  0.13132236931E+00  0.22283953924E-01 0.  0.
         14    1    1    2    0    0 -0.29607337268E-02 -0.21445949963E-01 -0.11134666386E-01  0.24344927800E-01  0.00000000000E+00 0. -1.
     999901    1    3    3    0    0  0.11157147128E+00 -0.36442500731E-01 -0.28885641504E-01  0.88826270289E+00  0.88000000000E+00 0.  1.
        -11    1    4    4    0    0 -0.34722987754E-01  0.12297757109E-01  0.30817407148E-02  0.36968621226E-01  0.51100000000E-03 0.  1.
         11    1    4    4    0    0 -0.73887749795E-01  0.45590693585E-01  0.36938567176E-01  0.94353748084E-01  0.51100000000E-03 0. -1.
</event>
<event>
 8    1  0.1196210E+005  0.1043930E+01  0.7957747E-01            NaN
         13   -1    0    0    0    0  0.00000000000E+00  0.00000000000E+00  0.74505805969E-08  0.10566000000E+00  0.10566000000E+00 0. -1.
     999900   -1    0    0    0    0 -0.00000000000E+00 -0.00000000000E+00 -0.74505805969E-08  0.93827000000E+00  0.93827000000E+00 0. -1.
     999902    2    1    2    0    0  0.95887001135E-02 -0.15672589973E-02 -0.21768484667E-01  0.10200916612E+01  0.10198130863E+01 0.  0.
     999903    2    3    3    0    0 -0.81306518072E-01 -0.80075119332E-01  0.55880119501E-01  0.12854540301E+00  0.19456573735E-01 0.  0.
         14    1    1    2    0    0 -0.95887001135E-02  0.15672589973E-02  0.21768484667E-01  0.23838338770E-01  0.00000000000E+00 0. -1.
     999901    1    3    3    0    0  0.90895218185E-01  0.78507860334E-01 -0.77648604169E-01  0.89154625822E+00  0.88000000000E+00 0. -1.
        -11    1    4    4    0    0 -0.27394925137E-02 -0.44255246306E-02  0.77030172511E-02  0.93106220662E-02  0.51100000000E-03 0.  1.
         11    1    4    4    0    0 -0.78567025558E-01 -0.75649594701E-01  0.48177102250E-01  0.11923478094E+00  0.51100000000E-03 0. -1.
</event>
<event>
 8    1  0.1196210E+005  0.1043930E+01  0.7957747E-01            NaN
         13   -1    0    0    0    0  0.00000000000E+00  0.00000000000E+00  0.74505805969E-08  0.10566000000E+00  0.10566000000E+00 0. -1.
     999900   -1    0    0    0    0 -0.00000000000E+00 -0.00000000000E+00 -0.74505805969E-08  0.93827000000E+00  0.93827000000E+00 0.  1.
     999902    2    1    2    0    0  0.96001203408E-02  0.10516148924E-01  0.23360713545E-01  0.10165717355E+01  0.10162035322E+01 0.  0.
     999903    2    3    3    0    0 -0.65145414140E-01 -0.85280475206E-01  0.63691402182E-01  0.12730774064E+00  0.25178992835E-01 0.  0.
         14    1    1    2    0    0 -0.96001203408E-02 -0.10516148924E-01 -0.23360713545E-01  0.27358264493E-01  0.00000000000E+00 0.  1.
     999901    1    3    3    0    0  0.74745534481E-01  0.95796624130E-01 -0.40330688637E-01  0.88926399487E+00  0.88000000000E+00 0.  1.
        -11    1    4    4    0    0 -0.29834078424E-01 -0.52680703492E-01  0.46216889554E-01  0.76168174174E-01  0.51100000000E-03 0. -1.
         11    1    4    4    0    0 -0.35311335716E-01 -0.32599771714E-01  0.17474512628E-01  0.51139566467E-01  0.51100000000E-03 0.  1.
</event>
<event>
 8    1  0.1196210E+005  0.1043930E+01  0.7957747E-01            NaN
         13   -1    0    0    0    0  0.00000000000E+00  0.00000000000E+00  0.74505805969E-08  0.10566000000E+00  0.10566000000E+00 0.  1.
     999900   -1    0    0    0    0 -0.00000000000E+00 -0.00000000000E+00 -0.74505805969E-08  0.93827000000E+00  0.93827000000E+00 0. -1.
     999902    2    1    2    0    0  0.10472366670E-01 -0.14982850616E-01  0.15512682427E-01  0.10199550215E+01  0.10196732057E+01 0.  0.
     999903    2    3    3    0    0  0.11713881040E+00 -0.25446419931E-01 -0.51491108544E-01  0.13092368097E+00  0.10984297413E-01 0.  0.
         14    1    1    2    0    0 -0.10472366670E-01  0.14982850616E-01 -0.15512682427E-01  0.23974978464E-01  0.00000000000E+00 0.  1.
     999901    1    3    3    0    0 -0.10666644373E+00  0.10463569315E-01  0.67003790971E-01  0.88903134056E+00  0.88000000000E+00 0.  1.
        -11    1    4    4    0    0  0.25192674836E-01 -0.91886631313E-02 -0.14500097719E-01  0.30489610532E-01  0.51100000000E-03 0.  1.
         11    1    4    4    0    0  0.91946135568E-01 -0.16257756800E-01 -0.36991010825E-01  0.10043407044E+00  0.51100000000E-03 0. -1.
</event>
<event>
 8    1  0.1196210E+005  0.1043930E+01  0.7957747E-01            NaN
         13   -1    0    0    0    0  0.00000000000E+00  0.00000000000E+00  0.74505805969E-08  0.10566000000E+00  0.10566000000E+00 0. -1.
     999900   -1    0    0    0    0 -0.00000000000E+00 -0.00000000000E+00 -0.74505805969E-08  0.93827000000E+00  0.93827000000E+00 0. -1.
     999902    2    1    2    0    0 -0.10802818503E-01  0.32441310343E-02  0.20814567528E-01  0.10202557208E+01  0.10199810118E+01 0.  0.
     999903    2    3    3    0    0 -0.87759318413E-01 -0.75925526049E-01  0.60865045921E-01  0.13245271434E+00  0.19307621462E-01 0.  0.
         14    1    1    2    0    0  0.10802818503E-01 -0.32441310343E-02 -0.20814567528E-01  0.23674279189E-01  0.00000000000E+00 0.  1.
     999901    1    3    3    0    0  0.76956499910E-01  0.79169657083E-01 -0.40050478394E-01  0.88780300647E+00  0.88000000000E+00 0. -1.
        -11    1    4    4    0    0 -0.87559891578E-01 -0.74808416463E-01  0.57213711235E-01  0.12859511523E+00  0.51100000000E-03 0. -1.
         11    1    4    4    0    0 -0.19942683531E-03 -0.11171095864E-02  0.36513346863E-02  0.38575991085E-02  0.51100000000E-03 0.  1.
</event>
<event>
 8    1  0.1196210E+005  0.1043930E+01  0.7957747E-01            NaN
         13   -1    0    0    0    0  0.00000000000E+00  0.00000000000E+00  0.74505805969E-08  0.10566000000E+00  0.10566000000E+00 0. -1.
     999900   -1    0    0    0    0 -0.00000000000E+00 -0.00000000000E+00 -0.74505805969E-08  0.93827000000E+00  0.93827000000E+00 0.  1.
     999902    2    1    2    0    0  0.13042409436E-01 -0.50357246048E-02  0.16708473400E-01  0.10221438565E+01  0.10219116534E+01 0.  0.
     999903    2    3    3    0    0  0.79489696709E-01  0.10420769123E+00 -0.67983376256E-02  0.13259232000E+00  0.18885209411E-01 0.  0.
         14    1    1    2    0    0 -0.13042409436E-01  0.50357246048E-02 -0.16708473400E-01  0.21786143522E-01  0.00000000000E+00 0.  1.
     999901    1    3    3    0    0 -0.66447287273E-01 -0.10924341583E+00  0.23506811026E-01  0.88955153648E+00  0.88000000000E+00 0.  1.
        -11    1    4    4    0    0  0.62518895700E-01  0.82651158417E-01 -0.13039514920E-01  0.10445150251E+00  0.51100000000E-03 0. -1.
         11    1    4    4    0    0  0.16970801010E-01  0.21556532809E-01  0.62411772941E-02  0.28140817484E-01  0.51100000000E-03 0.  1.
</event>
<event>
 8    1  0.1196210E+005  0.1043930E+01  0.7957747E-01            NaN
         13   -1    0    0    0    0  0.00000000000E+00  0.00000000000E+00  0.74505805969E-08  0.10566000000E+00  0.10566000000E+00 0.  1.
     999900   -1    0    0    0    0 -0.00000000000E+00 -0.00000000000E+00 -0.74505805969E-08  0.93827000000E+00  0.93827000000E+00 0. -1.
     999902    2    1    2    0    0  0.20998012531E-01 -0.13837358155E-01 -0.14415979430E-01  0.10149436330E+01  0.10145296292E+01 0.  0.
     999903    2    3    3    0    0 -0.65756011091E-01 -0.10412990954E+00 -0.18346197634E-01  0.12607105938E+00  0.19759503838E-01 0.  0.
         14    1    1    2    0    0 -0.20998012531E-01  0.13837358155E-01  0.14415979430E-01  0.28986367035E-01  0.00000000000E+00 0. -1.
     999901    1    3    3    0    0  0.86754023623E-01  0.90292551381E-01  0.39302182036E-02  0.88887257358E+00  0.88000000000E+00 0. -1.
        -11    1    4    4    0    0 -0.20138740079E-01 -0.38372253840E-01 -0.15367234159E-01  0.45982732883E-01  0.51100000000E-03 0. -1.
         11    1    4    4    0    0 -0.45617271013E-01 -0.65757655696E-01 -0.29789634752E-02  0.80088326500E-01  0.51100000000E-03 0.  1.
</event>
<event>
 8    1  0.1196210E+005  0.1043930E+01  0.7957747E-01            NaN
         13   -1    0    0    0    0  0.00000000000E+00  0.00000000000E+00  0.74505805969E-08  0.10566000000E+00  0.10566000000E+00 0.  1.
     999900   -1    0    0    0    0 -0.00000000000E+00 -0.00000000000E+00 -0.74505805969E-08  0.93827000000E+00  0.93827000000E+00 0.  1.
     999902    2    1    2    0    0  0.25029550633E-02  0.18768721248E-01  0.15273385351E-01  0.10196029373E+01  0.10193126820E+01 0.  0.
     999903    2    3    3    0    0  0.82568965074E-01  0.86306302042E-01 -0.49927004371E-01  0.13099561026E+00  0.20018301055E-01 0.  0.
         14    1    1    2    0    0 -0.25029550633E-02 -0.18768721248E-01 -0.15273385351E-01  0.24327062737E-01  0.00000000000E+00 0. -1.
     999901    1    3    3    0    0 -0.80066010011E-01 -0.67537580795E-01  0.65200389722E-01  0.88860732700E+00  0.88000000000E+00 0. -1.
        -11    1    4    4    0    0  0.70043101898E-01  0.69783493021E-01 -0.48706005469E-01  0.11021936360E+00  0.51100000000E-03 0.  1.
         11    1    4    4    0    0  0.12525863176E-01  0.16522809022E-01 -0.12209989019E-02  0.20776246667E-01  0.51100000000E-03 0. -1.
</event>
<event>
 8    1  0.1196210E+005  0.1043930E+01  0.7957747E-01            NaN
         13   -1    0    0    0    0  0.00000000000E+00  0.00000000000E+00  0.74505805969E-08  0.10566000000E+00  0.10566000000E+00 0.  1.
     999900   -1    0    0    0    0 -0.00000000000E+00 -0.00000000000E+00 -0.74505805969E-08  0.93827000000E+00  0.93827000000E+00 0.  1.
     999902    2    1    2    0    0  0.56322403706E-02 -0.14041798963E-01  0.19223005208E-01  0.10194674127E+01  0.10191738749E+01 0.  0.
     999903    2    3    3    0    0 -0.11005238742E+00 -0.10760050640E-01  0.66583737856E-01  0.13062730220E+00  0.20069660379E-01 0.  0.
         14    1    1    2    0    0 -0.56322403706E-02  0.14041798963E-01 -0.19223005208E-01  0.24462587332E-01  0.00000000000E+00 0. -1.
     999901    1    3    3    0    0  0.11568462779E+00 -0.32817483233E-02 -0.47360732648E-01  0.88884011047E+00  0.88000000000E+00 0.  1.
        -11    1    4    4    0    0 -0.59259982610E-01  0.99465712131E-03  0.43957651194E-01  0.73792080206E-01  0.51100000000E-03 0.  1.
         11    1    4    4    0    0 -0.50792404806E-01 -0.11754707761E-01  0.22626086662E-01  0.56835221995E-01  0.51100000000E-03 0. -1.
</event>
<event>
 8    1  0.1196210E+005  0.1043930E+01  0.7957747E-01            NaN
         13   -1    0    0    0    0  0.00000000000E+00  0.00000000000E+00  0.74505805969E-08  0.10566000000E+00  0.10566000000E+00 0. -1.
     999900   -1    0    0    0    0 -0.00000000000E+00 -0.00000000000E+00 -0.74505805969E-08  0.93827000000E+00  0.93827000000E+00 0. -1.
     999902    2    1    2    0    0  0.39647081984E-02 -0.29684101525E-02 -0.22630365058E-01  0.10207639949E+01  0.10205010874E+01 0.  0.
     999903    2    3    3    0    0 -0.10002527563E+00 -0.47256304304E-01  0.64203540556E-01  0.12929584545E+00  0.18897274161E-01 0.  0.
         14    1    1    2    0    0 -0.39647081984E-02  0.29684101525E-02  0.22630365058E-01  0.23166005107E-01  0.00000000000E+00 0. -1.
     999901    1    3    3    0    0  0.10398998382E+00  0.44287894152E-01 -0.86833905614E-01  0.89146814944E+00  0.88000000000E+00 0. -1.
        -11    1    4    4    0    0 -0.39965467757E-01 -0.88503545262E-02  0.23627671111E-01  0.47266217867E-01  0.51100000000E-03 0.  1.
         11    1    4    4    0    0 -0.60059807869E-01 -0.38405949778E-01  0.40575869444E-01  0.82029627585E-01  0.51100000000E-03 0. -1.
</event>
<event>
 8    1  0.1196210E+005  0.1043930E+01  0.7957747E-01            NaN
         13   -1    0    0    0    0  0.00000000000E+00  0.00000000000E+00  0.74505805969E-08  0.10566000000E+00  0.10566000000E+00 0. -1.
     999900   -1    0    0    0    0 -0.00000000000E+00 -0.00000000000E+00 -0.74505805969E-08  0.93827000000E+00  0.93827000000E+00 0.  1.
     999902    2    1    2    0    0 -0.15758137158E-01  0.29469471124E-02  0.16361149704E-01  0.10210238741E+01  0.10207668984E+01 0.  0.
     999903    2    3    3    0    0 -0.29841410973E-01  0.10168082769E+00 -0.74785049721E-01  0.13071249742E+00  0.16231228949E-01 0.  0.
         14    1    1    2    0    0  0.15758137158E-01 -0.29469471124E-02 -0.16361149704E-01  0.22906125897E-01  0.00000000000E+00 0.  1.
     999901    1    3    3    0    0  0.14083273815E-01 -0.98733880574E-01  0.91146199425E-01  0.89031137668E+00  0.88000000000E+00 0. -1.
        -11    1    4    4    0    0 -0.20626666950E-01  0.89899325141E-01 -0.64025020488E-01  0.11228006243E+00  0.51100000000E-03 0.  1.
         11    1    4    4    0    0 -0.92147440230E-02  0.11781502546E-01 -0.10760029233E-01  0.18432434992E-01  0.51100000000E-03 0. -1.
</event>
<event>
 8    1  0.1196210E+005  0.1043930E+01  0.7957747E-01            NaN
         13   -1    0    0    0    0  0.00000000000E+00  0.00000000000E+00  0.74505805969E-08  0.10566000000E+00  0.10566000000E+00 0. -1.
     999900   -1    0    0    0    0 -0.00000000000E+00 -0.00000000000E+00 -0.74505805969E-08  0.93827000000E+00  0.93827000000E+00 0. -1.
     999902    2    1    2    0    0  0.10961629586E-01 -0.70005103555E-02  0.25165826751E-01  0.10156018637E+01  0.10152067092E+01 0.  0.
     999903    2    3    3    0    0 -0.74641982531E-01  0.44708030272E-01 -0.84826041963E-01  0.12313339775E+00  0.19903334399E-01 0.  0.
         14    1    1    2    0    0 -0.10961629586E-01  0.70005103555E-02 -0.25165826751E-01  0.28328136269E-01  0.00000000000E+00 0.  1.
     999901    1    3    3    0    0  0.85603612117E-01 -0.51708540628E-01  0.10999186871E+00  0.89246846598E+00  0.88000000000E+00 0. -1.
        -11    1    4    4    0    0 -0.76692713110E-02  0.82912125413E-02 -0.39135640808E-02  0.11964072578E-01  0.51100000000E-03 0. -1.
         11    1    4    4    0    0 -0.66972711220E-01  0.36416817731E-01 -0.80912477882E-01  0.11116932517E+00  0.51100000000E-03 0.  1.
</event>
<event>
 8    1  0.1196210E+005  0.1043930E+01  0.7957747E-01            NaN
         13   -1    0    0    0    0  0.00000000000E+00  0.00000000000E+00  0.74505805969E-08  0.10566000000E+00  0.10566000000E+00 0. -1.
     999900   -1    0    0    0    0 -0.00000000000E+00 -0.00000000000E+00 -0.74505805969E-08  0.93827000000E+00  0.93827000000E+00 0.  1.
     999902    2    1    2    0    0  0.17062823551E-01  0.18357881755E-02  0.16899579077E-01  0.10198446136E+01  0.10195601650E+01 0.  0.
     999903    2    3    3    0    0 -0.36474585564E-01 -0.95684643760E-01  0.76585603221E-01  0.13083454036E+00  0.27683494841E-01 0.  0.
         14    1    1    2    0    0 -0.17062823551E-01 -0.18357881755E-02 -0.16899579077E-01  0.24085386415E-01  0.00000000000E+00 0. -1.
     999901    1    3    3    0    0  0.53537409115E-01  0.97520431936E-01 -0.59686024144E-01  0.88901007323E+00  0.88000000000E+00 0.  1.
        -11    1    4    4    0    0 -0.20975970376E-01 -0.75001828811E-01  0.68580725706E-01  0.10377303464E+00  0.51100000000E-03 0. -1.
         11    1    4    4    0    0 -0.15498615188E-01 -0.20682814950E-01  0.80048775154E-02  0.27061505723E-01  0.51100000000E-03 0.  1.
</event>
<event>
 8    1  0.1196210E+005  0.1043930E+01  0.7957747E-01            NaN
         13   -1    0    0    0    0  0.00000000000E+00  0.00000000000E+00  0.74505805969E-08  0.10566000000E+00  0.10566000000E+00 0. -1.
     999900   -1    0    0    0    0 -0.00000000000E+00 -0.00000000000E+00 -0.74505805969E-08  0.93827000000E+00  0.93827000000E+00 0. -1.
     999902    2    1    2    0    0  0.10984203887E-01  0.15374014510E-01 -0.14067941606E-01  0.10203732592E+01  0.10201013028E+01 0.  0.
     999903    2    3    3    0    0 -0.50920514230E-01 -0.71913129353E-01 -0.94091670930E-01  0.13028616408E+00  0.18890343260E-01 0.  0.
         14    1    1    2    0    0 -0.10984203887E-01 -0.15374014510E-01  0.14067941606E-01  0.23556740824E-01  0.00000000000E+00 0. -1.
     999901    1    3    3    0    0  0.61904718116E-01  0.87287143863E-01  0.80023729324E-01  0.89008709510E+00  0.88000000000E+00 0.  1.
        -11    1    4    4    0    0 -0.16201476801E-01 -0.13024802755E-01 -0.14419686451E-01  0.25304580922E-01  0.51100000000E-03 0. -1.
         11    1    4    4    0    0 -0.34719037429E-01 -0.58888326599E-01 -0.79671984480E-01  0.10498158315E+00  0.51100000000E-03 0.  1.
</event>
<event>
 8    1  0.1196210E+005  0.1043930E+01  0.7957747E-01            NaN
         13   -1    0    0    0    0  0.00000000000E+00  0.00000000000E+00  0.74505805969E-08  0.10566000000E+00  0.10566000000E+00 0. -1.
     999900   -1    0    0    0    0 -0.00000000000E+00 -0.00000000000E+00 -0.74505805969E-08  0.93827000000E+00  0.93827000000E+00 0.  1.
     999902    2    1    2    0    0 -0.11337945807E-01 -0.13639961116E-01 -0.15707477775E-01  0.10202377563E+01  0.10199626253E+01 0.  0.
     999903    2    3    3    0    0  0.79439872393E-01  0.59370471340E-03 -0.10219787656E+00  0.13123618227E+00  0.21621372560E-01 0.  0.
         14    1    1    2    0    0  0.11337945807E-01  0.13639961116E-01  0.15707477775E-01  0.23692243719E-01  0.00000000000E+00 0. -1.
     999901    1    3    3    0    0 -0.90777818200E-01 -0.14233665829E-01  0.86490398784E-01  0.88900157402E+00  0.88000000000E+00 0. -1.
        -11    1    4    4    0    0  0.36320332271E-01  0.16015022698E-02 -0.30016160526E-01  0.47148301767E-01  0.51100000000E-03 0. -1.
         11    1    4    4    0    0  0.43119540122E-01 -0.10077975564E-02 -0.72181716033E-01  0.84087880498E-01  0.51100000000E-03 0.  1.
</event>
<event>
 8    1  0.1196210E+005  0.1043930E+01  0.7957747E-01            NaN
         13   -1    0    0    0    0  0.00000000000E+00  0.00000000000E+00  0.74505805969E-08  0.10566000000E+00  0.10566000000E+00 0. -1.
     999900   -1    0    0    0    0 -0.00000000000E+00 -0.00000000000E+00 -0.74505805969E-08  0.93827000000E+00  0.93827000000E+00 0. -1.
     999902    2    1    2    0    0 -0.86797768056E-02 -0.16812824063E-01 -0.14248330740E-01  0.10202440441E+01  0.10199690608E+01 0.  0.
     999903    2    3    3    0    0  0.81369265019E-02  0.70340062254E-01 -0.10812686015E+00  0.13081073834E+00  0.20151859647E-01 0.  0.
         14    1    1    2    0    0  0.86797768056E-02  0.16812824063E-01  0.14248330740E-01  0.23685955907E-01  0.00000000000E+00 0. -1.
     999901    1    3    3    0    0 -0.16816703308E-01 -0.87152886316E-01  0.93878529412E-01  0.88943330576E+00  0.88000000000E+00 0.  1.
        -11    1    4    4    0    0 -0.24054961432E-02  0.39856748249E-01 -0.72345271627E-01  0.82634413173E-01  0.51100000000E-03 0.  1.
         11    1    4    4    0    0  0.10542422645E-01  0.30483314005E-01 -0.35781588525E-01  0.48176325164E-01  0.51100000000E-03 0. -1.
</event>
<event>
 8    1  0.1196210E+005  0.1043930E+01  0.7957747E-01            NaN
         13   -1    0    0    0    0  0.00000000000E+00  0.00000000000E+00  0.74505805969E-08  0.10566000000E+00  0.10566000000E+00 0. -1.
     999900   -1    0    0    0    0 -0.00000000000E+00 -0.00000000000E+00 -0.74505805969E-08  0.93827000000E+00  0.93827000000E+00 0. -1.
     999902    2    1    2    0    0 -0.19100952362E-01  0.72370082520E-02  0.12040645666E-01  0.10202192890E+01  0.10199437238E+01 0.  0.
     999903    2    3    3    0    0 -0.38615133319E-01  0.78271515969E-01  0.98330942737E-01  0.13293538857E+00  0.19628665271E-01 0.  0.
         14    1    1    2    0    0  0.19100952362E-01 -0.72370082520E-02 -0.12040645666E-01  0.23710711032E-01  0.00000000000E+00 0. -1.
     999901    1    3    3    0    0  0.19514180957E-01 -0.71034507717E-01 -0.86290297070E-01  0.88728390040E+00  0.88000000000E+00 0. -1.
        -11    1    4    4    0    0 -0.11244132911E-01  0.37130486491E-01  0.54373987966E-01  0.66797419414E-01  0.51100000000E-03 0. -1.
         11    1    4    4    0    0 -0.27371000408E-01  0.41141029478E-01  0.43956954770E-01  0.66137969152E-01  0.51100000000E-03 0.  1.
</event>
<event>
 8    1  0.1196210E+005  0.1043930E+01  0.7957747E-01            NaN
         13   -1    0    0    0    0  0.00000000000E+00  0.00000000000E+00  0.74505805969E-08  0.10566000000E+00  0.10566000000E+00 0. -1.
     999900   -1    0    0    0    0 -0.00000000000E+00 -0.00000000000E+00 -0.74505805969E-08  0.93827000000E+00  0.93827000000E+00 0. -1.
     999902    2    1    2    0    0  0.36192355921E-02  0.88699097815E-02 -0.21597831923E-01  0.10203028861E+01  0.10200292834E+01 0.  0.
     999903    2    3    3    0    0 -0.97873685366E-01 -0.37169015359E-01 -0.76971673481E-01  0.13154720657E+00  0.20475230104E-01 0.  0.
         14    1    1    2    0    0 -0.36192355921E-02 -0.88699097815E-02  0.21597831923E-01  0.23627113865E-01  0.00000000000E+00 0. -1.
     999901    1    3    3    0    0  0.10149292096E+00  0.46038925140E-01  0.55373841559E-01  0.88875567957E+00  0.88000000000E+00 0.  1.
        -11    1    4    4    0    0 -0.14782607364E-01 -0.13551874542E-01 -0.18010389490E-01  0.26959488768E-01  0.51100000000E-03 0.  1.
         11    1    4    4    0    0 -0.83091078002E-01 -0.23617140817E-01 -0.58961283992E-01  0.10458771780E+00  0.51100000000E-03 0. -1.
</event>
<event>
 8    1  0.1196210E+005  0.1043930E+01  0.7957747E-01            NaN
         13   -1    0    0    0    0  0.00000000000E+00  0.00000000000E+00  0.74505805969E-08  0.10566000000E+00  0.10566000000E+00 0. -1.
     999900   -1    0    0    0    0 -0.00000000000E+00 -0.00000000000E+00 -0.74505805969E-08  0.93827000000E+00  0.93827000000E+00 0.  1.
     999902    2    1    2    0    0  0.19874699718E-01 -0.10856327623E-01 -0.70029826214E-02  0.10202254582E+01  0.10199500381E+01 0.  0.
     999903    2    3    3    0    0  0.96956650371E-01 -0.78565861131E-01  0.41249287764E-01  0.13295183089E+00  0.20037440209E-01 0.  0.
         14    1    1    2    0    0 -0.19874699718E-01  0.10856327623E-01  0.70029826214E-02  0.23704541842E-01  0.00000000000E+00 0.  1.
     999901    1    3    3    0    0 -0.77081950653E-01  0.67709533508E-01 -0.48252270386E-01  0.88727362727E+00  0.88000000000E+00 0.  1.
        -11    1    4    4    0    0  0.76430856542E-01 -0.71276823243E-01  0.32180612522E-01  0.10935224875E+00  0.51100000000E-03 0. -1.
         11    1    4    4    0    0  0.20525793829E-01 -0.72890378875E-02  0.90686752418E-02  0.23599582142E-01  0.51100000000E-03 0.  1.
</event>
<event>
 8    1  0.1196210E+005  0.1043930E+01  0.7957747E-01            NaN
         13   -1    0    0    0    0  0.00000000000E+00  0.00000000000E+00  0.74505805969E-08  0.10566000000E+00  0.10566000000E+00 0. -1.
     999900   -1    0    0    0    0 -0.00000000000E+00 -0.00000000000E+00 -0.74505805969E-08  0.93827000000E+00  0.93827000000E+00 0.  1.
     999902    2    1    2    0    0 -0.25738608801E-02 -0.21247689055E-01  0.14536629105E-01  0.10180571835E+01  0.10177283656E+01 0.  0.
     999903    2    3    3    0    0 -0.74472256310E-01 -0.10621183669E+00  0.78751388469E-02  0.13102129856E+00  0.16658080645E-01 0.  0.
         14    1    1    2    0    0  0.25738608801E-02  0.21247689055E-01 -0.14536629105E-01  0.25872816540E-01  0.00000000000E+00 0.  1.
     999901    1    3    3    0    0  0.71898395430E-01  0.84964147637E-01  0.66614902581E-02  0.88703588490E+00  0.88000000000E+00 0.  1.
        -11    1    4    4    0    0 -0.42059955555E-01 -0.53181810239E-01  0.11449630180E-01  0.68765543362E-01  0.51100000000E-03 0. -1.
         11    1    4    4    0    0 -0.32412300755E-01 -0.53030026453E-01 -0.35744913334E-02  0.62255755197E-01  0.51100000000E-03 0.  1.
</event>
<event>
 8    1  0.1196210E+005  0.1043930E+01  0.7957747E-01            NaN
         13   -1    0    0    0    0  0.00000000000E+00  0.00000000000E+00  0.74505805969E-08  0.10566000000E+00  0.10566000000E+00 0.  1.
     999900   -1    0    0    0    0 -0.00000000000E+00 -0.00000000000E+00 -0.74505805969E-08  0.93827000000E+00  0.93827000000E+00 0.  1.
     999902    2    1    2    0    0 -0.25688654671E-03  0.88636892611E-02  0.22376170933E-01  0.10198608495E+01  0.10195767889E+01 0.  0.
     999903    2    3    3    0    0  0.59773156901E-02  0.12818115288E+00 -0.16075008344E-01  0.13095477150E+00  0.20606067765E-01 0.  0.
         14    1    1    2    0    0  0.25688654671E-03 -0.88636892611E-02 -0.22376170933E-01  0.24069150455E-01  0.00000000000E+00 0. -1.
     999901    1    3    3    0    0 -0.62342022368E-02 -0.11931746362E+00  0.38451179276E-01  0.88890607805E+00  0.88000000000E+00 0. -1.
        -11    1    4    4    0    0  0.11249808482E-01  0.86732191551E-01 -0.44114463438E-02  0.87571417837E-01  0.51100000000E-03 0. -1.
         11    1    4    4    0    0 -0.52724927918E-02  0.41448961327E-01 -0.11663562000E-01  0.43383353660E-01  0.51100000000E-03 0.  1.
</event>
<event>
 8    1  0.1196210E+005  0.1043930E+01  0.7957747E-01            NaN
         13   -1    0    0    0    0  0.00000000000E+00  0.00000000000E+00  0.74505805969E-08  0.10566000000E+00  0.10566000000E+00 0. -1.
     999900   -1    0    0    0    0 -0.00000000000E+00 -0.00000000000E+00 -0.74505805969E-08  0.93827000000E+00  0.93827000000E+00 0. -1.
     999902    2    1    2    0    0 -0.12103177950E-01 -0.12557230820E-01  0.28632574183E-02  0.10262560303E+01  0.10261038303E+01 0.  0.
     999903    2    3    3    0    0  0.57532661962E-01  0.10159724929E+00 -0.62425841735E-01  0.13376341855E+00  0.19069823553E-01 0.  0.
         14    1    1    2    0    0  0.12103177950E-01  0.12557230820E-01 -0.28632574183E-02  0.17673969712E-01  0.00000000000E+00 0.  1.
     999901    1    3    3    0    0 -0.69635839912E-01 -0.11415448011E+00  0.65289099153E-01  0.89249261173E+00  0.88000000000E+00 0.  1.
        -11    1    4    4    0    0  0.36262813557E-01  0.64699057865E-01 -0.29068663214E-01  0.79663090812E-01  0.51100000000E-03 0.  1.
         11    1    4    4    0    0  0.21269848405E-01  0.36898191430E-01 -0.33357178521E-01  0.54100327742E-01  0.51100000000E-03 0. -1.
</event>
<event>
 8    1  0.1196210E+005  0.1043930E+01  0.7957747E-01            NaN
         13   -1    0    0    0    0  0.00000000000E+00  0.00000000000E+00  0.74505805969E-08  0.10566000000E+00  0.10566000000E+00 0.  1.
     999900   -1    0    0    0    0 -0.00000000000E+00 -0.00000000000E+00 -0.74505805969E-08  0.93827000000E+00  0.93827000000E+00 0. -1.
     999902    2    1    2    0    0 -0.12021424908E-01  0.15596464890E-01 -0.14218991503E-01  0.10196412352E+01  0.10193519042E+01 0.  0.
     999903    2    3    3    0    0 -0.12096164022E+00  0.23563622138E-02  0.45398318675E-01  0.13082320297E+00  0.20406671691E-01 0.  0.
         14    1    1    2    0    0  0.12021424908E-01 -0.15596464890E-01  0.14218991503E-01  0.24288764754E-01  0.00000000000E+00 0.  1.
     999901    1    3    3    0    0  0.10894021531E+00  0.13240102676E-01 -0.59617310179E-01  0.88881803228E+00  0.88000000000E+00 0. -1.
        -11    1    4    4    0    0 -0.23860573953E-01  0.47487134156E-02  0.16795989923E-01  0.29567611790E-01  0.51100000000E-03 0. -1.
         11    1    4    4    0    0 -0.97101066263E-01 -0.23923512018E-02  0.28602328753E-01  0.10125559118E+00  0.51100000000E-03 0.  1.
</event>
<event>
 8    1  0.1196210E+005  0.1043930E+01  0.7957747E-01            NaN
         13   -1    0    0    0    0  0.00000000000E+00  0.00000000000E+00  0.74505805969E-08  0.10566000000E+00  0.10566000000E+00 0.  1.
     999900   -1    0    0    0    0 -0.00000000000E+00 -0.00000000000E+00 -0.74505805969E-08  0.93827000000E+00  0.93827000000E+00 0.  1.
     999902    2    1    2    0    0  0.18928331033E-01  0.63144497690E-02 -0.91930966428E-02  0.10219603159E+01  0.10217241410E+01 0.  0.
     999903    2    3    3    0    0 -0.40084008713E-01 -0.90511442272E-01  0.81896796385E-01  0.13002137284E+00  0.19985574820E-01 0.  0.
         14    1    1    2    0    0 -0.18928331033E-01 -0.63144497690E-02  0.91930966428E-02  0.21969684055E-01  0.00000000000E+00 0.  1.
     999901    1    3    3    0    0  0.59012339747E-01  0.96825892041E-01 -0.91089893028E-01  0.89193894310E+00  0.88000000000E+00 0. -1.
        -11    1    4    4    0    0 -0.26619741690E-01 -0.37771868211E-01  0.32301657805E-01  0.56382469738E-01  0.51100000000E-03 0.  1.
         11    1    4    4    0    0 -0.13464267024E-01 -0.52739574061E-01  0.49595138580E-01  0.73638903104E-01  0.51100000000E-03 0. -1.
</event>
<event>
 8    1  0.1196210E+005  0.1043930E+01  0.7957747E-01            NaN
         13   -1    0    0    0    0  0.00000000000E+00  0.00000000000E+00  0.74505805969E-08  0.10566000000E+00  0.10566000000E+00 0. -1.
     999900   -1    0    0    0    0 -0.00000000000E+00 -0.00000000000E+00 -0.74505805969E-08  0.93827000000E+00  0.93827000000E+00 0. -1.
     999902    2    1    2    0    0 -0.14269001260E-01 -0.19242680786E-01 -0.83364601807E-02  0.10185650295E+01  0.10182491530E+01 0.  0.
     999903    2    3    3    0    0 -0.19380101668E-01 -0.12769044490E+00  0.15536888191E-01  0.13157180649E+00  0.19730871959E-01 0.  0.
         14    1    1    2    0    0  0.14269001260E-01  0.19242680786E-01  0.83364601807E-02  0.25364970513E-01  0.00000000000E+00 0.  1.
     999901    1    3    3    0    0  0.51111004076E-02  0.10844776411E+00 -0.23873348372E-01  0.88699322300E+00  0.88000000000E+00 0.  1.
        -11    1    4    4    0    0 -0.16000379586E-01 -0.51531951474E-01  0.10444125729E-02  0.53971345066E-01  0.51100000000E-03 0.  1.
         11    1    4    4    0    0 -0.33797220820E-02 -0.76158493424E-01  0.14492475619E-01  0.77600461419E-01  0.51100000000E-03 0. -1.
</event>
<event>
 8    1  0.1196210E+005  0.1043930E+01  0.7957747E-01            NaN
         13   -1    0    0    0    0  0.00000000000E+00  0.00000000000E+00  0.74505805969E-08  0.10566000000E+00  0.10566000000E+00 0.  1.
     999900   -1    0    0    0    0 -0.00000000000E+00 -0.00000000000E+00 -0.74505805969E-08  0.93827000000E+00  0.93827000000E+00 0.  1.
     999902    2    1    2    0    0 -0.45282166548E-02  0.10301881950E-01 -0.19769370302E-01  0.10211822195E+01  0.10209288241E+01 0.  0.
     999903    2    3    3    0    0  0.11113796444E+00 -0.53337399220E-01 -0.40067085401E-01  0.13110322251E+00  0.19650911522E-01 0.  0.
         14    1    1    2    0    0  0.45282166548E-02 -0.10301881950E-01  0.19769370302E-01  0.22747780549E-01  0.00000000000E+00 0.  1.
     999901    1    3    3    0    0 -0.11566618110E+00  0.63639281170E-01  0.20297715099E-01  0.89007899694E+00  0.88000000000E+00 0. -1.
        -11    1    4    4    0    0  0.45827329621E-01 -0.12777255183E-01 -0.20250249487E-01  0.51708182287E-01  0.51100000000E-03 0.  1.
         11    1    4    4    0    0  0.65310634823E-01 -0.40560144037E-01 -0.19816835915E-01  0.79395040222E-01  0.51100000000E-03 0. -1.
</event>
<event>
 8    1  0.1196210E+005  0.1043930E+01  0.7957747E-01            NaN
         13   -1    0    0    0    0  0.00000000000E+00  0.00000000000E+00  0.74505805969E-08  0.10566000000E+00  0.10566000000E+00 0.  1.
     999900   -1    0    0    0    0 -0.00000000000E+00 -0.00000000000E+00 -0.74505805969E-08  0.93827000000E+00  0.93827000000E+00 0.  1.
     999902    2    1    2    0    0  0.10220047234E-01 -0.20782405521E-01  0.71142770070E-02  0.10197025222E+01  0.10194146669E+01 0.  0.
     999903    2    3    3    0    0  0.60152427506E-01 -0.11601192999E+00  0.14650611271E-01  0.13312556484E+00  0.20753148412E-01 0.  0.
         14    1    1    2    0    0 -0.10220047234E-01  0.20782405521E-01 -0.71142770070E-02  0.24227477831E-01  0.00000000000E+00 0.  1.
     999901    1    3    3    0    0 -0.49932380272E-01  0.95229524469E-01 -0.75363342637E-02  0.88657695733E+00  0.88000000000E+00 0.  1.
        -11    1    4    4    0    0  0.10717164990E-01 -0.34258003021E-01  0.10880901877E-01  0.37511645433E-01  0.51100000000E-03 0. -1.
         11    1    4    4    0    0  0.49435262516E-01 -0.81753926969E-01  0.37697093935E-02  0.95613919409E-01  0.51100000000E-03 0.  1.
</event>
<event>
 8    1  0.1196210E+005  0.1043930E+01  0.7957747E-01            NaN
         13   -1    0    0    0    0  0.00000000000E+00  0.00000000000E+00  0.74505805969E-08  0.10566000000E+00  0.10566000000E+00 0.  1.
     999900   -1    0    0    0    0 -0.00000000000E+00 -0.00000000000E+00 -0.74505805969E-08  0.93827000000E+00  0.93827000000E+00 0. -1.
     999902    2    1    2    0    0 -0.22262002106E-02 -0.23725342244E-01  0.19544765835E-02  0.10200204243E+01  0.10197401621E+01 0.  0.
     999903    2    3    3    0    0 -0.92497335028E-01  0.30174624386E-01 -0.83302640837E-01  0.12967057156E+00  0.20220341592E-01 0.  0.
         14    1    1    2    0    0  0.22262002106E-02  0.23725342244E-01 -0.19544765835E-02  0.23909575711E-01  0.00000000000E+00 0. -1.
     999901    1    3    3    0    0  0.90271134817E-01 -0.53899966630E-01  0.85257117421E-01  0.89034985273E+00  0.88000000000E+00 0.  1.
        -11    1    4    4    0    0 -0.36747079237E-01  0.84615380178E-02 -0.44625608268E-01  0.58426462261E-01  0.51100000000E-03 0.  1.
         11    1    4    4    0    0 -0.55750255791E-01  0.21713086368E-01 -0.38677032570E-01  0.71244109299E-01  0.51100000000E-03 0. -1.
</event>
<event>
 8    1  0.1196210E+005  0.1043930E+01  0.7957747E-01            NaN
         13   -1    0    0    0    0  0.00000000000E+00  0.00000000000E+00  0.74505805969E-08  0.10566000000E+00  0.10566000000E+00 0. -1.
     999900   -1    0    0    0    0 -0.00000000000E+00 -0.00000000000E+00 -0.74505805969E-08  0.93827000000E+00  0.93827000000E+00 0.  1.
     999902    2    1    2    0    0 -0.19014242337E-01  0.73298725349E-02 -0.12717538234E-01  0.10199090878E+01  0.10196261782E+01 0.  0.
     999903    2    3    3    0    0  0.90874255817E-01  0.56927576165E-01 -0.70239567231E-01  0.12982808137E+00  0.20563428921E-01 0.  0.
         14    1    1    2    0    0  0.19014242337E-01 -0.73298725349E-02  0.12717538234E-01  0.24020912176E-01  0.00000000000E+00 0. -1.
     999901    1    3    3    0    0 -0.10988849815E+00 -0.49597703630E-01  0.57522028997E-01  0.89008100645E+00  0.88000000000E+00 0. -1.
        -11    1    4    4    0    0  0.62090679952E-01  0.41248397179E-01 -0.37298311969E-01  0.83355311790E-01  0.51100000000E-03 0. -1.
         11    1    4    4    0    0  0.28783575865E-01  0.15679178986E-01 -0.32941255261E-01  0.46472769580E-01  0.51100000000E-03 0.  1.
</event>
<event>
 8    1  0.1196210E+005  0.1043930E+01  0.7957747E-01            NaN
         13   -1    0    0    0    0  0.00000000000E+00  0.00000000000E+00  0.74505805969E-08  0.10566000000E+00  0.10566000000E+00 0.  1.
     999900   -1    0    0    0    0 -0.00000000000E+00 -0.00000000000E+00 -0.74505805969E-08  0.93827000000E+00  0.93827000000E+00 0.  1.
     999902    2    1    2    0    0  0.11593895348E-01 -0.11358501609E-01  0.16864786476E-01  0.10205236976E+01  0.10202552438E+01 0.  0.
     999903    2    3    3    0    0  0.54274080154E-02 -0.70718376264E-01 -0.10692657062E+00  0.12985769941E+00  0.19979616887E-01 0.  0.
         14    1    1    2    0    0 -0.11593895348E-01  0.11358501609E-01 -0.16864786476E-01  0.23406302378E-01  0.00000000000E+00 0. -1.
     999901    1    3    3    0    0  0.61664873323E-02  0.59359874655E-01  0.12379135710E+00  0.89066599822E+00  0.88000000000E+00 0. -1.
        -11    1    4    4    0    0  0.81183888800E-02 -0.33726773227E-01 -0.37126166610E-01  0.50813549753E-01  0.51100000000E-03 0.  1.
         11    1    4    4    0    0 -0.26909808646E-02 -0.36991603037E-01 -0.69800404011E-01  0.79044149654E-01  0.51100000000E-03 0. -1.
</event>
<event>
 8    1  0.1196210E+005  0.1043930E+01  0.7957747E-01            NaN
         13   -1    0    0    0    0  0.00000000000E+00  0.00000000000E+00  0.74505805969E-08  0.10566000000E+00  0.10566000000E+00 0.  1.
     999900   -1    0    0    0    0 -0.00000000000E+00 -0.00000000000E+00 -0.74505805969E-08  0.93827000000E+00  0.93827000000E+00 0.  1.
     999902    2    1    2    0    0 -0.11151866062E-01 -0.21196084019E-02  0.22134214616E-01  0.10190547048E+01  0.10187510545E+01 0.  0.
     999903    2    3    3    0    0 -0.12841810635E+00  0.86849987430E-03 -0.13593208080E-01  0.13055217318E+00  0.19160644163E-01 0.  0.
         14    1    1    2    0    0  0.11151866062E-01  0.21196084019E-02 -0.22134214616E-01  0.24875295237E-01  0.00000000000E+00 0. -1.
     999901    1    3    3    0    0  0.11726624029E+00 -0.29881082762E-02  0.35727422696E-01  0.88850253159E+00  0.88000000000E+00 0.  1.
        -11    1    4    4    0    0 -0.96603738102E-01  0.72849593742E-02 -0.15145393458E-01  0.98056090644E-01  0.51100000000E-03 0.  1.
         11    1    4    4    0    0 -0.31814368248E-01 -0.64164594999E-02  0.15521853785E-02  0.32496082533E-01  0.51100000000E-03 0. -1.
</event>
<event>
 8    1  0.1196210E+005  0.1043930E+01  0.7957747E-01            NaN
         13   -1    0    0    0    0  0.00000000000E+00  0.00000000000E+00  0.74505805969E-08  0.10566000000E+00  0.10566000000E+00 0.  1.
     999900   -1    0    0    0    0 -0.00000000000E+00 -0.00000000000E+00 -0.74505805969E-08  0.93827000000E+00  0.93827000000E+00 0. -1.
     999902    2    1    2    0    0 -0.36592750888E-02 -0.12102648103E-01  0.20464889398E-01  0.10198743129E+01  0.10195905737E+01 0.  0.
     999903    2    3    3    0    0  0.12509303617E+00  0.13161754208E-01  0.26115494932E-01  0.13012863178E+00  0.20735049057E-01 0.  0.
         14    1    1    2    0    0  0.36592750888E-02  0.12102648103E-01 -0.20464889398E-01  0.24055687131E-01  0.00000000000E+00 0. -1.
     999901    1    3    3    0    0 -0.12875231126E+00 -0.25264402311E-01 -0.56506055342E-02  0.88974568109E+00  0.88000000000E+00 0. -1.
        -11    1    4    4    0    0  0.44228982621E-01 -0.20100422620E-02  0.17178642635E-02  0.44310894284E-01  0.51100000000E-03 0. -1.
         11    1    4    4    0    0  0.80864053553E-01  0.15171796470E-01  0.24397630669E-01  0.85817737493E-01  0.51100000000E-03 0.  1.
</event>
<event>
 8    1  0.1196210E+005  0.1043930E+01  0.7957747E-01            NaN
         13   -1    0    0    0    0  0.00000000000E+00  0.00000000000E+00  0.74505805969E-08  0.10566000000E+00  0.10566000000E+00 0.  1.
     999900   -1    0    0    0    0 -0.00000000000E+00 -0.00000000000E+00 -0.74505805969E-08  0.93827000000E+00  0.93827000000E+00 0.  1.
     999902    2    1    2    0    0  0.20950303155E-01 -0.24381548959E-02 -0.10806984680E-01  0.10202308287E+01  0.10199555349E+01 0.  0.
     999903    2    3    3    0    0 -0.12094511662E+00 -0.25469281419E-01 -0.28614195153E-01  0.12838900435E+00  0.19711893503E-01 0.  0.
         14    1    1    2    0    0 -0.20950303155E-01  0.24381548959E-02  0.10806984680E-01  0.23699171282E-01  0.00000000000E+00 0. -1.
     999901    1    3    3    0    0  0.14189541977E+00  0.23031126523E-01  0.17807210473E-01  0.89184182436E+00  0.88000000000E+00 0. -1.
        -11    1    4    4    0    0 -0.11009576364E+00 -0.25118346380E-01 -0.20369548010E-01  0.11474836863E+00  0.51100000000E-03 0.  1.
         11    1    4    4    0    0 -0.10849352974E-01 -0.35093503963E-03 -0.82446471435E-02  0.13640635721E-01  0.51100000000E-03 0. -1.
</event>
<event>
 8    1  0.1196210E+005  0.1043930E+01  0.7957747E-01            NaN
         13   -1    0    0    0    0  0.00000000000E+00  0.00000000000E+00  0.74505805969E-08  0.10566000000E+00  0.10566000000E+00 0. -1.
     999900   -1    0    0    0    0 -0.00000000000E+00 -0.00000000000E+00 -0.74505805969E-08  0.93827000000E+00  0.93827000000E+00 0.  1.
     999902    2    1    2    0    0  0.14343532268E-01 -0.17579337609E-01  0.11578691737E-01  0.10184577380E+01  0.10181391496E+01 0.  0.
     999903    2    3    3    0    0  0.76634952967E-02  0.12139422357E+00  0.31353273610E-01  0.12730718525E+00  0.20707606642E-01 0.  0.
         14    1    1    2    0    0 -0.14343532268E-01  0.17579337609E-01 -0.11578691737E-01  0.25472261993E-01  0.00000000000E+00 0.  1.
     999901    1    3    3    0    0  0.66800369709E-02 -0.13897356118E+00 -0.19774581873E-01  0.89115055276E+00  0.88000000000E+00 0. -1.
        -11    1    4    4    0    0  0.70534272356E-03  0.48019926864E-01  0.23012741903E-02  0.48082926994E-01  0.51100000000E-03 0.  1.
         11    1    4    4    0    0  0.69581525732E-02  0.73374296705E-01  0.29051999420E-01  0.79224258251E-01  0.51100000000E-03 0. -1.
</event>
<event>
 8    1  0.1196210E+005  0.1043930E+01  0.7957747E-01            NaN
         13   -1    0    0    0    0  0.00000000000E+00  0.00000000000E+00  0.74505805969E-08  0.10566000000E+00  0.10566000000E+00 0. -1.
     999900   -1    0    0    0    0 -0.00000000000E+00 -0.00000000000E+00 -0.74505805969E-08  0.93827000000E+00  0.93827000000E+00 0.  1.
     999902    2    1    2    0    0 -0.30665001466E-02 -0.10962350044E-01  0.21374033399E-01  0.10197137690E+01  0.10194261841E+01 0.  0.
     999903    2    3    3    0    0 -0.26430340919E-01 -0.11504112790E+00 -0.51787347218E-01  0.13025840265E+00  0.18769605745E-01 0.  0.
         14    1    1    2    0    0  0.30665001466E-02  0.10962350044E-01 -0.21374033399E-01  0.24216231031E-01  0.00000000000E+00 0.  1.
     999901    1    3    3    0    0  0.23363840773E-01  0.10407877786E+00  0.73161380617E-01  0.88945536632E+00  0.88000000000E+00 0. -1.
        -11    1    4    4    0    0 -0.11835532090E-01 -0.22696408065E-01 -0.15763851514E-01  0.30066042215E-01  0.51100000000E-03 0. -1.
         11    1    4    4    0    0 -0.14594808830E-01 -0.92344719835E-01 -0.36023495704E-01  0.10019236044E+00  0.51100000000E-03 0.  1.
</event>
<event>
 8    1  0.1196210E+005  0.1043930E+01  0.7957747E-01            NaN
         13   -1    0    0    0    0  0.00000000000E+00  0.00000000000E+00  0.74505805969E-08  0.10566000000E+00  0.10566000000E+00 0. -1.
     999900   -1    0    0    0    0 -0.00000000000E+00 -0.00000000000E+00 -0.74505805969E-08  0.93827000000E+00  0.93827000000E+00 0.  1.
     999902    2    1    2    0    0  0.94906736622E-02 -0.35658229788E-02  0.20695459950E-01  0.10208846091E+01  0.10206244633E+01 0.  0.
     999903    2    3    3    0    0  0.63728733909E-01  0.60104358122E-02  0.11604176977E+00  0.13402250553E+00  0.19971549584E-01 0.  0.
         14    1    1    2    0    0 -0.94906736622E-02  0.35658229788E-02 -0.20695459950E-01  0.23045390919E-01  0.00000000000E+00 0.  1.
     999901    1    3    3    0    0 -0.54238060247E-01 -0.95762587910E-02 -0.95346309825E-01  0.88686210355E+00  0.88000000000E+00 0.  1.
        -11    1    4    4    0    0  0.16448382730E-01  0.28935697919E-02  0.15139273856E-01  0.22547300824E-01  0.51100000000E-03 0.  1.
         11    1    4    4    0    0  0.47280351179E-01  0.31168660203E-02  0.10090249592E+00  0.11147520471E+00  0.51100000000E-03 0. -1.
</event>
<event>
 8    1  0.1196210E+005  0.1043930E+01  0.7957747E-01            NaN
         13   -1    0    0    0    0  0.00000000000E+00  0.00000000000E+00  0.74505805969E-08  0.10566000000E+00  0.10566000000E+00 0.  1.
     999900   -1    0    0    0    0 -0.00000000000E+00 -0.00000000000E+00 -0.74505805969E-08  0.93827000000E+00  0.93827000000E+00 0. -1.
     999902    2    1    2    0    0  0.12145388883E-01  0.10868402412E-01 -0.17540625855E-01  0.10199861867E+01  0.10197051117E+01 0.  0.
     999903    2    3    3    0    0 -0.56646748010E-01 -0.11353120676E+00 -0.20314410516E-02  0.12844361579E+00  0.19885842083E-01 0.  0.
         14    1    1    2    0    0 -0.12145388883E-01 -0.10868402412E-01  0.17540625855E-01  0.23943813345E-01  0.00000000000E+00 0.  1.
     999901    1    3    3    0    0  0.68792136893E-01  0.12439960917E+00 -0.15509184804E-01  0.89154257087E+00  0.88000000000E+00 0.  1.
        -11    1    4    4    0    0 -0.48614780603E-01 -0.97997946563E-01 -0.86560957375E-02  0.10973688322E+00  0.51100000000E-03 0.  1.
         11    1    4    4    0    0 -0.80319674074E-02 -0.15533260194E-01  0.66246546859E-02  0.18706732569E-01  0.51100000000E-03 0. -1.
</event>
<event>
 8    1  0.1196210E+005  0.1043930E+01  0.7957747E-01            NaN
         13   -1    0    0    0    0  0.00000000000E+00  0.00000000000E+00  0.74505805969E-08  0.10566000000E+00  0.10566000000E+00 0. -1.
     999900   -1    0    0    0    0 -0.00000000000E+00 -0.00000000000E+00 -0.74505805969E-08  0.93827000000E+00  0.93827000000E+00 0. -1.
     999902    2    1    2    0    0 -0.13797021828E-01 -0.95256104428E-02  0.16921820550E-01  0.10201089363E+01  0.10198307697E+01 0.  0.
     999903    2    3    3    0    0  0.27851366686E-01 -0.10960860950E+00 -0.61009919054E-01  0.13003896656E+00  0.19954365389E-01 0.  0.
         14    1    1    2    0    0  0.13797021828E-01  0.95256104428E-02 -0.16921820550E-01  0.23821063712E-01  0.00000000000E+00 0.  1.
     999901    1    3    3    0    0 -0.41648388515E-01  0.10008299906E+00  0.77931739605E-01  0.89006996972E+00  0.88000000000E+00 0.  1.
        -11    1    4    4    0    0  0.57378946018E-02 -0.62357980889E-01 -0.31499025170E-01  0.70099150656E-01  0.51100000000E-03 0.  1.
         11    1    4    4    0    0  0.22113472085E-01 -0.47250628616E-01 -0.29510893884E-01  0.59939815908E-01  0.51100000000E-03 0. -1.
</event>
<event>
 8    1  0.1196210E+005  0.1043930E+01  0.7957747E-01            NaN
         13   -1    0    0    0    0  0.00000000000E+00  0.00000000000E+00  0.74505805969E-08  0.10566000000E+00  0.10566000000E+00 0. -1.
     999900   -1    0    0    0    0 -0.00000000000E+00 -0.00000000000E+00 -0.74505805969E-08  0.93827000000E+00  0.93827000000E+00 0.  1.
     999902    2    1    2    0    0  0.34189544113E-02 -0.22006341226E-01  0.75855317386E-02  0.10204032366E+01  0.10201319800E+01 0.  0.
     999903    2    3    3    0    0  0.48548799420E-01  0.36089393004E-01  0.11427679568E+00  0.13091189712E+00  0.20477025242E-01 0.  0.
         14    1    1    2    0    0 -0.34189544113E-02  0.22006341226E-01 -0.75855317386E-02  0.23526763381E-01  0.00000000000E+00 0. -1.
     999901    1    3    3    0    0 -0.45129845009E-01 -0.58095734230E-01 -0.10669126394E+00  0.88949133950E+00  0.88000000000E+00 0.  1.
        -11    1    4    4    0    0  0.11963617397E-01  0.20841402131E-01  0.48108894626E-01  0.53779355213E-01  0.51100000000E-03 0.  1.
         11    1    4    4    0    0  0.36585182023E-01  0.15247990873E-01  0.66167901058E-01  0.77132541905E-01  0.51100000000E-03 0. -1.
</event>
<event>
 8    1  0.1196210E+005  0.1043930E+01  0.7957747E-01            NaN
         13   -1    0    0    0    0  0.00000000000E+00  0.00000000000E+00  0.74505805969E-08  0.10566000000E+00  0.10566000000E+00 0.  1.
     999900   -1    0    0    0    0 -0.00000000000E+00 -0.00000000000E+00 -0.74505805969E-08  0.93827000000E+00  0.93827000000E+00 0.  1.
     999902    2    1    2    0    0 -0.23610167750E-01  0.10753657334E-02  0.46778567620E-02  0.10198368728E+01  0.10195522392E+01 0.  0.
     999903    2    3    3    0    0 -0.84691810653E-01 -0.86380124869E-01 -0.48446372970E-01  0.13180443327E+00  0.19776976817E-01 0.  0.
         14    1    1    2    0    0  0.23610167750E-01 -0.10753657334E-02 -0.46778567620E-02  0.24093127163E-01  0.00000000000E+00 0. -1.
     999901    1    3    3    0    0  0.61081642903E-01  0.87455490602E-01  0.53124229732E-01  0.88803243957E+00  0.88000000000E+00 0. -1.
        -11    1    4    4    0    0 -0.42609508004E-01 -0.33098400598E-01 -0.28586701562E-01  0.61061730419E-01  0.51100000000E-03 0. -1.
         11    1    4    4    0    0 -0.42082302648E-01 -0.53281724270E-01 -0.19859671408E-01  0.70742702852E-01  0.51100000000E-03 0.  1.
</event>
<event>
 8    1  0.1196210E+005  0.1043930E+01  0.7957747E-01            NaN
         13   -1    0    0    0    0  0.00000000000E+00  0.00000000000E+00  0.74505805969E-08  0.10566000000E+00  0.10566000000E+00 0.  1.
     999900   -1    0    0    0    0 -0.00000000000E+00 -0.00000000000E+00 -0.74505805969E-08  0.93827000000E+00  0.93827000000E+00 0.  1.
     999902    2    1    2    0    0  0.20633908139E-01 -0.10623772572E-03  0.79043856566E-02  0.10218336482E+01  0.10215947121E+01 0.  0.
     999903    2    3    3    0    0  0.73200617465E-01 -0.10782757638E+00  0.19665144162E-01  0.13363014605E+00  0.22026833958E-01 0.  0.
         14    1    1    2    0    0 -0.20633908139E-01  0.10623772572E-03 -0.79043856566E-02  0.22096351829E-01  0.00000000000E+00 0. -1.
     999901    1    3    3    0    0 -0.52566709326E-01  0.10772133865E+00 -0.11760758505E-01  0.88820350212E+00  0.88000000000E+00 0.  1.
        -11    1    4    4    0    0  0.26018531229E-01 -0.55168640547E-01  0.34949442902E-02  0.61098433889E-01  0.51100000000E-03 0. -1.
         11    1    4    4    0    0  0.47182086236E-01 -0.52658935833E-01  0.16170199872E-01  0.72531712165E-01  0.51100000000E-03 0.  1.
</event>
<event>
 8    1  0.1196210E+005  0.1043930E+01  0.7957747E-01            NaN
         13   -1    0    0    0    0  0.00000000000E+00  0.00000000000E+00  0.74505805969E-08  0.10566000000E+00  0.10566000000E+00 0. -1.
     999900   -1    0    0    0    0 -0.00000000000E+00 -0.00000000000E+00 -0.74505805969E-08  0.93827000000E+00  0.93827000000E+00 0.  1.
     999902    2    1    2    0    0 -0.72283693357E-02 -0.23562530700E-01 -0.23957860627E-02  0.10191674887E+01  0.10188666193E+01 0.  0.
     999903    2    3    3    0    0 -0.82727052493E-01  0.94989105375E-01 -0.13442091003E-01  0.12794553965E+00  0.17963183212E-01 0.  0.
         14    1    1    2    0    0  0.72283693357E-02  0.23562530700E-01  0.23957860627E-02  0.24762511325E-01  0.00000000000E+00 0.  1.
     999901    1    3    3    0    0  0.75498683158E-01 -0.11855163608E+00  0.11046304940E-01  0.89122194903E+00  0.88000000000E+00 0.  1.
        -11    1    4    4    0    0 -0.24698118779E-01  0.35572030010E-01  0.24776154715E-02  0.43379327907E-01  0.51100000000E-03 0.  1.
         11    1    4    4    0    0 -0.58028933715E-01  0.59417075365E-01 -0.15919706474E-01  0.84566211741E-01  0.51100000000E-03 0. -1.
</event>
<event>
 8    1  0.1196210E+005  0.1043930E+01  0.7957747E-01            NaN
         13   -1    0    0    0    0  0.00000000000E+00  0.00000000000E+00  0.74505805969E-08  0.10566000000E+00  0.10566000000E+00 0.  1.
     999900   -1    0    0    0    0 -0.00000000000E+00 -0.00000000000E+00 -0.74505805969E-08  0.93827000000E+00  0.93827000000E+00 0. -1.
     999902    2    1    2    0    0  0.12767201791E-01 -0.42999343430E-03 -0.19937974449E-01  0.10202507018E+01  0.10199758749E+01 0.  0.
     999903    2    3    3    0    0 -0.15765778097E-01 -0.13580803598E-01  0.12463931764E+00  0.12790005992E+00  0.19760259127E-01 0.  0.
         14    1    1    2    0    0 -0.12767201791E-01  0.42999343430E-03  0.19937974449E-01  0.23679298154E-01  0.00000000000E+00 0.  1.
     999901    1    3    3    0    0  0.28532979888E-01  0.13150810164E-01 -0.14457729209E+00  0.89235064192E+00  0.88000000000E+00 0. -1.
        -11    1    4    4    0    0 -0.17921034164E-01 -0.40076118150E-02  0.91891256043E-01  0.93709596500E-01  0.51100000000E-03 0. -1.
         11    1    4    4    0    0  0.21552560675E-02 -0.95731917829E-02  0.32748061600E-01  0.34190463425E-01  0.51100000000E-03 0.  1.
</event>
<event>
 8    1  0.1196210E+005  0.1043930E+01  0.7957747E-01            NaN
         13   -1    0    0    0    0  0.00000000000E+00  0.00000000000E+00  0.74505805969E-08  0.10566000000E+00  0.10566000000E+00 0. -1.
     999900   -1    0    0    0    0 -0.00000000000E+00 -0.00000000000E+00 -0.74505805969E-08  0.93827000000E+00  0.93827000000E+00 0. -1.
     999902    2    1    2    0    0 -0.13046565275E-02 -0.15301043009E-01  0.17769155339E-01  0.10204445380E+01  0.10201742440E+01 0.  0.
     999903    2    3    3    0    0  0.64873395548E-01  0.86096492111E-01 -0.66034751671E-01  0.12820909284E+00  0.21349933345E-01 0.  0.
         14    1    1    2    0    0  0.13046565275E-02  0.15301043009E-01 -0.17769155339E-01  0.23485462041E-01  0.00000000000E+00 0.  1.
     999901    1    3    3    0    0 -0.66178052075E-01 -0.10139753512E+00  0.83803907009E-01  0.89223544512E+00  0.88000000000E+00 0.  1.
        -11    1    4    4    0    0  0.21230871709E-01  0.45568214100E-01 -0.32351260446E-01  0.59783586570E-01  0.51100000000E-03 0. -1.
         11    1    4    4    0    0  0.43642523839E-01  0.40528278011E-01 -0.33683491224E-01  0.68425506265E-01  0.51100000000E-03 0.  1.
</event>
<event>
 8    1  0.1196210E+005  0.1043930E+01  0.7957747E-01            NaN
         13   -1    0    0    0    0  0.00000000000E+00  0.00000000000E+00  0.74505805969E-08  0.10566000000E+00  0.10566000000E+00 0.  1.
     999900   -1    0    0    0    0 -0.00000000000E+00 -0.00000000000E+00 -0.74505805969E-08  0.93827000000E+00  0.93827000000E+00 0.  1.
     999902    2    1    2    0    0 -0.13179191657E-01 -0.11705929163E-01 -0.15481024296E-01  0.10204697787E+01  0.10202000722E+01 0.  0.
     999903    2    3    3    0    0 -0.71793523054E-01 -0.58374144154E-01  0.90481030881E-01  0.13095220199E+00  0.19995289400E-01 0.  0.
         14    1    1    2    0    0  0.13179191657E-01  0.11705929163E-01  0.15481024296E-01  0.23460221303E-01  0.00000000000E+00 0.  1.
     999901    1    3    3    0    0  0.58614331397E-01  0.46668214991E-01 -0.10596205518E+00  0.88951757671E+00  0.88000000000E+00 0.  1.
        -11    1    4    4    0    0 -0.35237057149E-01 -0.37030383927E-01  0.38983344708E-01  0.64287337913E-01  0.51100000000E-03 0.  1.
         11    1    4    4    0    0 -0.36556465905E-01 -0.21343760227E-01  0.51497686173E-01  0.66664864076E-01  0.51100000000E-03 0. -1.
</event>
<event>
 8    1  0.1196210E+005  0.1043930E+01  0.7957747E-01            NaN
         13   -1    0    0    0    0  0.00000000000E+00  0.00000000000E+00  0.74505805969E-08  0.10566000000E+00  0.10566000000E+00 0.  1.
     999900   -1    0    0    0    0 -0.00000000000E+00 -0.00000000000E+00 -0.74505805969E-08  0.93827000000E+00  0.93827000000E+00 0.  1.
     999902    2    1    2    0    0  0.61403019819E-02  0.21339754248E-01  0.74367332441E-02  0.10205121986E+01  0.10202434779E+01 0.  0.
     999903    2    3    3    0    0  0.55546013810E-01  0.56266936747E-02  0.11858380785E+00  0.13200699502E+00  0.15706938544E-01 0.  0.
         14    1    1    2    0    0 -0.61403019819E-02 -0.21339754248E-01 -0.74367332441E-02  0.23417801373E-01  0.00000000000E+00 0.  1.
     999901    1    3    3    0    0 -0.49405711828E-01  0.15713060574E-01 -0.11114707461E+00  0.88850520360E+00  0.88000000000E+00 0.  1.
        -11    1    4    4    0    0  0.20476429510E-01  0.97444280640E-02  0.46024464244E-01  0.51310334960E-01  0.51100000000E-03 0.  1.
         11    1    4    4    0    0  0.35069584300E-01 -0.41177343892E-02  0.72559343610E-01  0.80696660065E-01  0.51100000000E-03 0. -1.
</event>
<event>
 8    1  0.1196210E+005  0.1043930E+01  0.7957747E-01            NaN
         13   -1    0    0    0    0  0.00000000000E+00  0.00000000000E+00  0.74505805969E-08  0.10566000000E+00  0.10566000000E+00 0.  1.
     999900   -1    0    0    0    0 -0.00000000000E+00 -0.00000000000E+00 -0.74505805969E-08  0.93827000000E+00  0.93827000000E+00 0.  1.
     999902    2    1    2    0    0  0.17689137102E-01 -0.11023971604E-01 -0.53653827125E-03  0.10230800265E+01  0.10228675473E+01 0.  0.
     999903    2    3    3    0    0 -0.55144549050E-01 -0.36849904103E-01  0.11300495204E+00  0.13242667382E+00  0.19179886138E-01 0.  0.
         14    1    1    2    0    0 -0.17689137102E-01  0.11023971604E-01  0.53653827125E-03  0.20849973493E-01  0.00000000000E+00 0.  1.
     999901    1    3    3    0    0  0.72833686152E-01  0.25825932499E-01 -0.11354149031E+00  0.89065335269E+00  0.88000000000E+00 0.  1.
        -11    1    4    4    0    0 -0.39052408746E-01 -0.17031381963E-01  0.80615458934E-01  0.91182629599E-01  0.51100000000E-03 0. -1.
         11    1    4    4    0    0 -0.16092140304E-01 -0.19818522140E-01  0.32389493103E-01  0.41244044223E-01  0.51100000000E-03 0.  1.
</event>
<event>
 8    1  0.1196210E+005  0.1043930E+01  0.7957747E-01            NaN
         13   -1    0    0    0    0  0.00000000000E+00  0.00000000000E+00  0.74505805969E-08  0.10566000000E+00  0.10566000000E+00 0. -1.
     999900   -1    0    0    0    0 -0.00000000000E+00 -0.00000000000E+00 -0.74505805969E-08  0.93827000000E+00  0.93827000000E+00 0. -1.
     999902    2    1    2    0    0 -0.65814963113E-02  0.11887456811E-01 -0.18946805817E-01  0.10206145722E+01  0.10203482228E+01 0.  0.
     999903    2    3    3    0    0 -0.12624724345E+00 -0.33918004312E-01 -0.96508485829E-02  0.13128648531E+00  0.73623942838E-02 0.  0.
         14    1    1    2    0    0  0.65814963113E-02 -0.11887456811E-01  0.18946805817E-01  0.23315427806E-01  0.00000000000E+00 0. -1.
     999901    1    3    3    0    0  0.11966574714E+00  0.45805461123E-01 -0.92959572340E-02  0.88932808689E+00  0.88000000000E+00 0.  1.
        -11    1    4    4    0    0 -0.79792150462E-01 -0.24817274699E-01 -0.74262672312E-02  0.83893354712E-01  0.51100000000E-03 0.  1.
         11    1    4    4    0    0 -0.46455092991E-01 -0.91007296126E-02 -0.22245813516E-02  0.47393130593E-01  0.51100000000E-03 0. -1.
</event>
<event>
 8    1  0.1196210E+005  0.1043930E+01  0.7957747E-01            NaN
         13   -1    0    0    0    0  0.00000000000E+00  0.00000000000E+00  0.74505805969E-08  0.10566000000E+00  0.10566000000E+00 0.  1.
     999900   -1    0    0    0    0 -0.00000000000E+00 -0.00000000000E+00 -0.74505805969E-08  0.93827000000E+00  0.93827000000E+00 0. -1.
     999902    2    1    2    0    0  0.32276238156E-02  0.96811768538E-02 -0.21477712609E-01  0.10201511253E+01  0.10198739548E+01 0.  0.
     999903    2    3    3    0    0  0.18611883607E-01  0.35095545264E-01  0.12040479052E+00  0.12829171363E+00  0.19579343661E-01 0.  0.
         14    1    1    2    0    0 -0.32276238156E-02 -0.96811768538E-02  0.21477712609E-01  0.23778874651E-01  0.00000000000E+00 0.  1.
     999901    1    3    3    0    0 -0.15384259791E-01 -0.25414368410E-01 -0.14188250313E+00  0.89185941172E+00  0.88000000000E+00 0. -1.
        -11    1    4    4    0    0  0.90012265196E-02  0.86694536280E-02  0.64609999106E-01  0.65809532824E-01  0.51100000000E-03 0.  1.
         11    1    4    4    0    0  0.96106570870E-02  0.26426091636E-01  0.55794791413E-01  0.62482180809E-01  0.51100000000E-03 0. -1.
</event>
<event>
 8    1  0.1196210E+005  0.1043930E+01  0.7957747E-01            NaN
         13   -1    0    0    0    0  0.00000000000E+00  0.00000000000E+00  0.74505805969E-08  0.10566000000E+00  0.10566000000E+00 0.  1.
     999900   -1    0    0    0    0 -0.00000000000E+00 -0.00000000000E+00 -0.74505805969E-08  0.93827000000E+00  0.93827000000E+00 0. -1.
     999902    2    1    2    0    0  0.93696125827E-02  0.10280886473E-01  0.18676386080E-01  0.10206428004E+01  0.10203771030E+01 0.  0.
     999903    2    3    3    0    0  0.90117155485E-01  0.62172472132E-01 -0.69318137904E-01  0.13106091067E+00  0.19632627415E-01 0.  0.
         14    1    1    2    0    0 -0.93696125827E-02 -0.10280886473E-01 -0.18676386080E-01  0.23287199566E-01  0.00000000000E+00 0. -1.
     999901    1    3    3    0    0 -0.80747542903E-01 -0.51891585659E-01  0.87994523984E-01  0.88958188977E+00  0.88000000000E+00 0.  1.
        -11    1    4    4    0    0  0.48671694152E-01  0.27985253380E-01 -0.25208787655E-01  0.61545530418E-01  0.51100000000E-03 0.  1.
         11    1    4    4    0    0  0.41445461333E-01  0.34187218751E-01 -0.44109350249E-01  0.69515380251E-01  0.51100000000E-03 0. -1.
</event>
<event>
 8    1  0.1196210E+005  0.1043930E+01  0.7957747E-01            NaN
         13   -1    0    0    0    0  0.00000000000E+00  0.00000000000E+00  0.74505805969E-08  0.10566000000E+00  0.10566000000E+00 0. -1.
     999900   -1    0    0    0    0 -0.00000000000E+00 -0.00000000000E+00 -0.74505805969E-08  0.93827000000E+00  0.93827000000E+00 0. -1.
     999902    2    1    2    0    0 -0.18612363840E-01  0.12069983205E-01  0.51087288213E-02  0.10211659122E+01  0.10209121493E+01 0.  0.
     999903    2    3    3    0    0  0.11834970563E+00 -0.18040225951E-01  0.44292877851E-01  0.12920143383E+00  0.19976208355E-01 0.  0.
         14    1    1    2    0    0  0.18612363840E-01 -0.12069983205E-01 -0.51087288213E-02  0.22764087780E-01  0.00000000000E+00 0. -1.
     999901    1    3    3    0    0 -0.13696206947E+00  0.30110209156E-01 -0.39184149030E-01  0.89196447839E+00  0.88000000000E+00 0. -1.
        -11    1    4    4    0    0  0.11224355878E-01  0.21249235973E-02  0.92230228760E-02  0.14691042752E-01  0.51100000000E-03 0. -1.
         11    1    4    4    0    0  0.10712534975E+00 -0.20165149548E-01  0.35069854975E-01  0.11451039108E+00  0.51100000000E-03 0.  1.
</event>
<event>
 8    1  0.1196210E+005  0.1043930E+01  0.7957747E-01            NaN
         13   -1    0    0    0    0  0.00000000000E+00  0.00000000000E+00  0.74505805969E-08  0.10566000000E+00  0.10566000000E+00 0.  1.
     999900   -1    0    0    0    0 -0.00000000000E+00 -0.00000000000E+00 -0.74505805969E-08  0.93827000000E+00  0.93827000000E+00 0.  1.
     999902    2    1    2    0    0 -0.11256708633E-01 -0.18677743033E-01  0.96185626360E-02  0.10200953966E+01  0.10198169099E+01 0.  0.
     999903    2    3    3    0    0  0.10837215079E+00  0.48177835520E-01 -0.43450091996E-01  0.12790874877E+00  0.20176982271E-01 0.  0.
         14    1    1    2    0    0  0.11256708633E-01  0.18677743033E-01 -0.96185626360E-02  0.23834603442E-01  0.00000000000E+00 0. -1.
     999901    1    3    3    0    0 -0.11962885943E+00 -0.66855578553E-01  0.53068654632E-01  0.89218664779E+00  0.88000000000E+00 0. -1.
        -11    1    4    4    0    0  0.32181241450E-01  0.19313996853E-01 -0.22571779559E-01  0.43799647592E-01  0.51100000000E-03 0. -1.
         11    1    4    4    0    0  0.76190909345E-01  0.28863838667E-01 -0.20878312437E-01  0.84109101175E-01  0.51100000000E-03 0.  1.
</event>
<event>
 8    1  0.1196210E+005  0.1043930E+01  0.7957747E-01            NaN
         13   -1    0    0    0    0  0.00000000000E+00  0.00000000000E+00  0.74505805969E-08  0.10566000000E+00  0.10566000000E+00 0. -1.
     999900   -1    0    0    0    0 -0.00000000000E+00 -0.00000000000E+00 -0.74505805969E-08  0.93827000000E+00  0.93827000000E+00 0.  1.
     999902    2    1    2    0    0  0.15514260832E-01  0.42142619241E-02  0.17683676857E-01  0.10200309473E+01  0.10197509347E+01 0.  0.
     999903    2    3    3    0    0  0.13002426539E+00  0.86646039878E-02  0.13770994199E-01  0.13259212926E+00  0.20239750649E-01 0.  0.
         14    1    1    2    0    0 -0.15514260832E-01 -0.42142619241E-02 -0.17683676857E-01  0.23899052699E-01  0.00000000000E+00 0.  1.
     999901    1    3    3    0    0 -0.11451000456E+00 -0.44503420636E-02  0.39126826577E-02  0.88743881805E+00  0.88000000000E+00 0. -1.
        -11    1    4    4    0    0  0.61437631424E-01  0.96292267869E-02  0.15049921393E-01  0.63984887422E-01  0.51100000000E-03 0. -1.
         11    1    4    4    0    0  0.68586633968E-01 -0.96462279917E-03 -0.12789271944E-02  0.68607241833E-01  0.51100000000E-03 0.  1.
</event>
<event>
 8    1  0.1196210E+005  0.1043930E+01  0.7957747E-01            NaN
         13   -1    0    0    0    0  0.00000000000E+00  0.00000000000E+00  0.74505805969E-08  0.10566000000E+00  0.10566000000E+00 0.  1.
     999900   -1    0    0    0    0 -0.00000000000E+00 -0.00000000000E+00 -0.74505805969E-08  0.93827000000E+00  0.93827000000E+00 0. -1.
     999902    2    1    2    0    0 -0.98274704526E-02 -0.21181154227E-01 -0.31674351717E-02  0.10203661906E+01  0.10200940691E+01 0.  0.
     999903    2    3    3    0    0 -0.11550497622E+00  0.25274632201E-01 -0.53698333952E-01  0.13138967397E+00  0.19988216323E-01 0.  0.
         14    1    1    2    0    0  0.98274704526E-02  0.21181154227E-01  0.31674351717E-02  0.23563809443E-01  0.00000000000E+00 0. -1.
     999901    1    3    3    0    0  0.10567750577E+00 -0.46455786429E-01  0.50530898780E-01  0.88897651659E+00  0.88000000000E+00 0.  1.
        -11    1    4    4    0    0 -0.60868452943E-01  0.19278262128E-01 -0.37665831730E-01  0.74132286861E-01  0.51100000000E-03 0. -1.
         11    1    4    4    0    0 -0.54636523275E-01  0.59963700738E-02 -0.16032502222E-01  0.57257387106E-01  0.51100000000E-03 0.  1.
</event>
<event>
 8    1  0.1196210E+005  0.1043930E+01  0.7957747E-01            NaN
         13   -1    0    0    0    0  0.00000000000E+00  0.00000000000E+00  0.74505805969E-08  0.10566000000E+00  0.10566000000E+00 0. -1.
     999900   -1    0    0    0    0 -0.00000000000E+00 -0.00000000000E+00 -0.74505805969E-08  0.93827000000E+00  0.93827000000E+00 0.  1.
     999902    2    1    2    0    0 -0.12387472234E-02 -0.78960565148E-02 -0.22048864702E-01  0.10204771827E+01  0.10202076484E+01 0.  0.
     999903    2    3    3    0    0 -0.47779573691E-01  0.11519357045E+00 -0.33362472942E-01  0.13062039508E+00  0.19904438590E-01 0.  0.
         14    1    1    2    0    0  0.12387472234E-02  0.78960565148E-02  0.22048864702E-01  0.23452817268E-01  0.00000000000E+00 0. -1.
     999901    1    3    3    0    0  0.46540826468E-01 -0.12308962696E+00  0.11313608240E-01  0.88985678765E+00  0.88000000000E+00 0. -1.
        -11    1    4    4    0    0 -0.38463222776E-01  0.69100649302E-01 -0.17593035893E-01  0.81019104372E-01  0.51100000000E-03 0. -1.
         11    1    4    4    0    0 -0.93163509153E-02  0.46092921147E-01 -0.15769437049E-01  0.49601290710E-01  0.51100000000E-03 0.  1.
</event>
<event>
 8    1  0.1196210E+005  0.1043930E+01  0.7957747E-01            NaN
         13   -1    0    0    0    0  0.00000000000E+00  0.00000000000E+00  0.74505805969E-08  0.10566000000E+00  0.10566000000E+00 0.  1.
     999900   -1    0    0    0    0 -0.00000000000E+00 -0.00000000000E+00 -0.74505805969E-08  0.93827000000E+00  0.93827000000E+00 0. -1.
     999902    2    1    2    0    0  0.35568727553E-02  0.88001455033E-02 -0.21090427843E-01  0.10208020937E+01  0.10205400602E+01 0.  0.
     999903    2    3    3    0    0  0.93519493829E-01 -0.82668778461E-01  0.34601512147E-01  0.12975696046E+00  0.77189044466E-02 0.  0.
         14    1    1    2    0    0 -0.35568727553E-02 -0.88001455033E-02  0.21090427843E-01  0.23127906331E-01  0.00000000000E+00 0.  1.
     999901    1    3    3    0    0 -0.89962621074E-01  0.91468923964E-01 -0.55691939990E-01  0.89104513321E+00  0.88000000000E+00 0. -1.
        -11    1    4    4    0    0  0.15519186630E-01 -0.10149273994E-01  0.48272657340E-02  0.19168112367E-01  0.51100000000E-03 0. -1.
         11    1    4    4    0    0  0.78000307199E-01 -0.72519504467E-01  0.29774246413E-01  0.11058884809E+00  0.51100000000E-03 0.  1.
</event>
<event>
 8    1  0.1196210E+005  0.1043930E+01  0.7957747E-01            NaN
         13   -1    0    0    0    0  0.00000000000E+00  0.00000000000E+00  0.74505805969E-08  0.10566000000E+00  0.10566000000E+00 0. -1.
     999900   -1    0    0    0    0 -0.00000000000E+00 -0.00000000000E+00 -0.74505805969E-08  0.93827000000E+00  0.93827000000E+00 0.  1.
     999902    2    1    2    0    0  0.55267036439E-02 -0.20281101342E-01 -0.10621741304E-01  0.10203781654E+01  0.10201063236E+01 0.  0.
     999903    2    3    3    0    0 -0.56509622029E-01 -0.52471220587E-01 -0.10621300683E+00  0.13244663677E+00  0.17729703886E-01 0.  0.
         14    1    1    2    0    0 -0.55267036439E-02  0.20281101342E-01  0.10621741304E-01  0.23551834603E-01  0.00000000000E+00 0. -1.
     999901    1    3    3    0    0  0.62036325673E-01  0.32190119245E-01  0.95591265529E-01  0.88793152862E+00  0.88000000000E+00 0.  1.
        -11    1    4    4    0    0 -0.55761144796E-01 -0.50969083345E-01 -0.96389713707E-01  0.12246791725E+00  0.51100000000E-03 0. -1.
         11    1    4    4    0    0 -0.74847723344E-03 -0.15021372422E-02 -0.98232931263E-02  0.99787195225E-02  0.51100000000E-03 0.  1.
</event>
<event>
 8    1  0.1196210E+005  0.1043930E+01  0.7957747E-01            NaN
         13   -1    0    0    0    0  0.00000000000E+00  0.00000000000E+00  0.74505805969E-08  0.10566000000E+00  0.10566000000E+00 0.  1.
     999900   -1    0    0    0    0 -0.00000000000E+00 -0.00000000000E+00 -0.74505805969E-08  0.93827000000E+00  0.93827000000E+00 0. -1.
     999902    2    1    2    0    0  0.43707447215E-02  0.11046446491E-01 -0.18706495709E-01  0.10217701180E+01  0.10215297909E+01 0.  0.
     999903    2    3    3    0    0 -0.51183049037E-01  0.10593550326E+00 -0.62997632166E-01  0.13382199907E+00  0.98787862392E-02 0.  0.
         14    1    1    2    0    0 -0.43707447215E-02 -0.11046446491E-01  0.18706495709E-01  0.22159882021E-01  0.00000000000E+00 0.  1.
     999901    1    3    3    0    0  0.55553793758E-01 -0.94889056772E-01  0.44291136458E-01  0.88794811890E+00  0.88000000000E+00 0.  1.
        -11    1    4    4    0    0 -0.11745537933E-01  0.34009263759E-01 -0.21046791230E-01  0.41687123010E-01  0.51100000000E-03 0.  1.
         11    1    4    4    0    0 -0.39437511104E-01  0.71926239504E-01 -0.41950840936E-01  0.92134876065E-01  0.51100000000E-03 0. -1.
</event>
<event>
 8    1  0.1196210E+005  0.1043930E+01  0.7957747E-01            NaN
         13   -1    0    0    0    0  0.00000000000E+00  0.00000000000E+00  0.74505805969E-08  0.10566000000E+00  0.10566000000E+00 0.  1.
     999900   -1    0    0    0    0 -0.00000000000E+00 -0.00000000000E+00 -0.74505805969E-08  0.93827000000E+00  0.93827000000E+00 0.  1.
     999902    2    1    2    0    0 -0.31412543468E-02 -0.21808250450E-01 -0.65455641038E-02  0.10209449684E+01  0.10206861990E+01 0.  0.
     999903    2    3    3    0    0  0.56774409611E-01  0.10222254562E+00  0.50248739793E-01  0.12842095301E+00  0.17152926897E-01 0.  0.
         14    1    1    2    0    0  0.31412543468E-02  0.21808250450E-01  0.65455641038E-02  0.22985031564E-01  0.00000000000E+00 0.  1.
     999901    1    3    3    0    0 -0.59915663958E-01 -0.12403079607E+00 -0.56794303897E-01  0.89252401543E+00  0.88000000000E+00 0. -1.
        -11    1    4    4    0    0  0.23264099273E-01  0.58037651303E-01  0.30315598228E-01  0.69490171252E-01  0.51100000000E-03 0. -1.
         11    1    4    4    0    0  0.33510310338E-01  0.44184894316E-01  0.19933141565E-01  0.58930781755E-01  0.51100000000E-03 0.  1.
</event>
<event>
 8    1  0.1196210E+005  0.1043930E+01  0.7957747E-01            NaN
         13   -1    0    0    0    0  0.00000000000E+00  0.00000000000E+00  0.74505805969E-08  0.10566000000E+00  0.10566000000E+00 0. -1.
     999900   -1    0    0    0    0 -0.00000000000E+00 -0.00000000000E+00 -0.74505805969E-08  0.93827000000E+00  0.93827000000E+00 0. -1.
     999902    2    1    2    0    0  0.28610264652E-02  0.94770494543E-02  0.22135970367E-01  0.10196812655E+01  0.10193928988E+01 0.  0.
     999903    2    3    3    0    0 -0.59666551435E-01 -0.11039602911E+00  0.24835078059E-01  0.12935181071E+00  0.19176267325E-01 0.  0.
         14    1    1    2    0    0 -0.28610264652E-02 -0.94770494543E-02 -0.22135970367E-01  0.24248734459E-01  0.00000000000E+00 0.  1.
     999901    1    3    3    0    0  0.62527577900E-01  0.11987307856E+00 -0.26991076926E-02  0.89032945483E+00  0.88000000000E+00 0.  1.
        -11    1    4    4    0    0 -0.37276081456E-01 -0.58383440162E-01  0.54021578640E-02  0.69480765428E-01  0.51100000000E-03 0.  1.
         11    1    4    4    0    0 -0.22390469979E-01 -0.52012588944E-01  0.19432920195E-01  0.59871045279E-01  0.51100000000E-03 0. -1.
</event>
<event>
 8    1  0.1196210E+005  0.1043930E+01  0.7957747E-01            NaN
         13   -1    0    0    0    0  0.00000000000E+00  0.00000000000E+00  0.74505805969E-08  0.10566000000E+00  0.10566000000E+00 0. -1.
     999900   -1    0    0    0    0 -0.00000000000E+00 -0.00000000000E+00 -0.74505805969E-08  0.93827000000E+00  0.93827000000E+00 0.  1.
     999902    2    1    2    0    0 -0.40231294916E-02  0.13391390120E-01  0.23066113478E-01  0.10169566707E+01  0.10165988932E+01 0.  0.
     999903    2    3    3    0    0  0.89665290112E-01  0.83821389775E-01 -0.28653402328E-01  0.12768010345E+00  0.20378952807E-01 0.  0.
         14    1    1    2    0    0  0.40231294916E-02 -0.13391390120E-01 -0.23066113478E-01  0.26973329258E-01  0.00000000000E+00 0.  1.
     999901    1    3    3    0    0 -0.93688419604E-01 -0.70429999655E-01  0.51719515807E-01  0.88927656729E+00  0.88000000000E+00 0. -1.
        -11    1    4    4    0    0  0.41833153380E-01  0.26458332989E-01 -0.76148047510E-02  0.50082955970E-01  0.51100000000E-03 0. -1.
         11    1    4    4    0    0  0.47832136732E-01  0.57363056785E-01 -0.21038597577E-01  0.77597147481E-01  0.51100000000E-03 0.  1.
</event>
<event>
 8    1  0.1196210E+005  0.1043930E+01  0.7957747E-01            NaN
         13   -1    0    0    0    0  0.00000000000E+00  0.00000000000E+00  0.74505805969E-08  0.10566000000E+00  0.10566000000E+00 0.  1.
     999900   -1    0    0    0    0 -0.00000000000E+00 -0.00000000000E+00 -0.74505805969E-08  0.93827000000E+00  0.93827000000E+00 0. -1.
     999902    2    1    2    0    0 -0.13806995467E-02 -0.18083972817E-01  0.12152444179E-01  0.10220984104E+01  0.10218652271E+01 0.  0.
     999903    2    3    3    0    0  0.65877698040E-01 -0.10182064866E+00 -0.51938415913E-01  0.13325468891E+00  0.18758930527E-01 0.  0.
         14    1    1    2    0    0  0.13806995467E-02  0.18083972817E-01 -0.12152444179E-01  0.21831589580E-01  0.00000000000E+00 0. -1.
     999901    1    3    3    0    0 -0.67258397587E-01  0.83736675846E-01  0.64090860092E-01  0.88884372151E+00  0.88000000000E+00 0.  1.
        -11    1    4    4    0    0  0.61380809236E-01 -0.83587257514E-01 -0.46814543716E-01  0.11378179110E+00  0.51100000000E-03 0.  1.
         11    1    4    4    0    0  0.44968888037E-02 -0.18233391150E-01 -0.51238721971E-02  0.19472897808E-01  0.51100000000E-03 0. -1.
</event>
<event>
 8    1  0.1196210E+005  0.1043930E+01  0.7957747E-01            NaN
         13   -1    0    0    0    0  0.00000000000E+00  0.00000000000E+00  0.74505805969E-08  0.10566000000E+00  0.10566000000E+00 0.  1.
     999900   -1    0    0    0    0 -0.00000000000E+00 -0.00000000000E+00 -0.74505805969E-08  0.93827000000E+00  0.93827000000E+00 0.  1.
     999902    2    1    2    0    0 -0.80363916326E-02 -0.20534443682E-01 -0.46053451087E-02  0.10214032121E+01  0.10211547706E+01 0.  0.
     999903    2    3    3    0    0 -0.39899630177E-01 -0.29510328952E-01 -0.12180160563E+00  0.13301658686E+00  0.19873128658E-01 0.  0.
         14    1    1    2    0    0  0.80363916326E-02  0.20534443682E-01  0.46053451087E-02  0.22526787861E-01  0.00000000000E+00 0. -1.
     999901    1    3    3    0    0  0.31863238544E-01  0.89758852704E-02  0.11719626053E+00  0.88838662528E+00  0.88000000000E+00 0. -1.
        -11    1    4    4    0    0 -0.12599242437E-01 -0.47794408454E-02 -0.56033890351E-01  0.57633687664E-01  0.51100000000E-03 0.  1.
         11    1    4    4    0    0 -0.27300387740E-01 -0.24730888107E-01 -0.65767715282E-01  0.75382899200E-01  0.51100000000E-03 0. -1.
</event>
<event>
 8    1  0.1196210E+005  0.1043930E+01  0.7957747E-01            NaN
         13   -1    0    0    0    0  0.00000000000E+00  0.00000000000E+00  0.74505805969E-08  0.10566000000E+00  0.10566000000E+00 0. -1.
     999900   -1    0    0    0    0 -0.00000000000E+00 -0.00000000000E+00 -0.74505805969E-08  0.93827000000E+00  0.93827000000E+00 0.  1.
     999902    2    1    2    0    0 -0.62066486313E-02  0.18559239294E-01 -0.12149251611E-01  0.10208958479E+01  0.10206359586E+01 0.  0.
     999903    2    3    3    0    0 -0.22182034296E-01  0.93413695131E-02 -0.12927627862E+00  0.13294375313E+00  0.19554576216E-01 0.  0.
         14    1    1    2    0    0  0.62066486313E-02 -0.18559239294E-01  0.12149251611E-01  0.23034152147E-01  0.00000000000E+00 0. -1.
     999901    1    3    3    0    0  0.15975385665E-01  0.92178697813E-02  0.11712702701E+00  0.88795209473E+00  0.88000000000E+00 0. -1.
        -11    1    4    4    0    0 -0.23710350992E-01  0.92132322478E-02 -0.87187138699E-01  0.90823579912E-01  0.51100000000E-03 0.  1.
         11    1    4    4    0    0  0.15283166955E-02  0.12813726527E-03 -0.42089139925E-01  0.42120173216E-01  0.51100000000E-03 0. -1.
</event>
<event>
 8    1  0.1196210E+005  0.1043930E+01  0.7957747E-01            NaN
         13   -1    0    0    0    0  0.00000000000E+00  0.00000000000E+00  0.74505805969E-08  0.10566000000E+00  0.10566000000E+00 0.  1.
     999900   -1    0    0    0    0 -0.00000000000E+00 -0.00000000000E+00 -0.74505805969E-08  0.93827000000E+00  0.93827000000E+00 0.  1.
     999902    2    1    2    0    0  0.30630836129E-02  0.94103630976E-02 -0.20357757230E-01  0.10212942828E+01  0.10210434057E+01 0.  0.
     999903    2    3    3    0    0 -0.72782691619E-01  0.83708128933E-01 -0.71665928524E-01  0.13342871408E+00  0.19048500771E-01 0.  0.
         14    1    1    2    0    0 -0.30630836129E-02 -0.94103630976E-02  0.20357757230E-01  0.22635717225E-01  0.00000000000E+00 0.  1.
     999901    1    3    3    0    0  0.75845775232E-01 -0.74297765836E-01  0.51308171293E-01  0.88786556869E+00  0.88000000000E+00 0. -1.
        -11    1    4    4    0    0 -0.43377923924E-01  0.45638209251E-01 -0.29826771321E-01  0.69673437090E-01  0.51100000000E-03 0.  1.
         11    1    4    4    0    0 -0.29404767695E-01  0.38069919683E-01 -0.41839157203E-01  0.63755276992E-01  0.51100000000E-03 0. -1.
</event>
<event>
 8    1  0.1196210E+005  0.1043930E+01  0.7957747E-01            NaN
         13   -1    0    0    0    0  0.00000000000E+00  0.00000000000E+00  0.74505805969E-08  0.10566000000E+00  0.10566000000E+00 0.  1.
     999900   -1    0    0    0    0 -0.00000000000E+00 -0.00000000000E+00 -0.74505805969E-08  0.93827000000E+00  0.93827000000E+00 0.  1.
     999902    2    1    2    0    0 -0.17836391091E-01  0.97695105972E-02  0.13396836484E-01  0.10195772709E+01  0.10192863955E+01 0.  0.
     999903    2    3    3    0    0 -0.37278603962E-01 -0.11648452750E-01  0.12402650270E+00  0.13217902222E+00  0.23734779929E-01 0.  0.
         14    1    1    2    0    0  0.17836391091E-01 -0.97695105972E-02 -0.13396836484E-01  0.24352729051E-01  0.00000000000E+00 0. -1.
     999901    1    3    3    0    0  0.19442212871E-01  0.21417963348E-01 -0.11062966622E+00  0.88739824873E+00  0.88000000000E+00 0.  1.
        -11    1    4    4    0    0 -0.17740037954E-01 -0.16572231784E-01  0.82834044176E-01  0.86319683783E-01  0.51100000000E-03 0. -1.
         11    1    4    4    0    0 -0.19538566008E-01  0.49237790337E-02  0.41192458527E-01  0.45859338439E-01  0.51100000000E-03 0.  1.
</event>
<event>
 8    1  0.1196210E+005  0.1043930E+01  0.7957747E-01            NaN
         13   -1    0    0    0    0  0.00000000000E+00  0.00000000000E+00  0.74505805969E-08  0.10566000000E+00  0.10566000000E+00 0.  1.
     999900   -1    0    0    0    0 -0.00000000000E+00 -0.00000000000E+00 -0.74505805969E-08  0.93827000000E+00  0.93827000000E+00 0. -1.
     999902    2    1    2    0    0  0.64668461764E-02 -0.22783089595E-01  0.13243738303E-02  0.10202098980E+01  0.10199341120E+01 0.  0.
     999903    2    3    3    0    0  0.22759690330E-01 -0.97605464899E-01 -0.84629329455E-01  0.13271235792E+00  0.20139917024E-01 0.  0.
         14    1    1    2    0    0 -0.64668461764E-02  0.22783089595E-01 -0.13243738303E-02  0.23720101960E-01  0.00000000000E+00 0.  1.
     999901    1    3    3    0    0 -0.16292844154E-01  0.74822375304E-01  0.85953703285E-01  0.88749754012E+00  0.88000000000E+00 0.  1.
        -11    1    4    4    0    0  0.10967884992E-01 -0.20764752299E-01 -0.27910694267E-01  0.36479273769E-01  0.51100000000E-03 0. -1.
         11    1    4    4    0    0  0.11791805338E-01 -0.76840712600E-01 -0.56718635188E-01  0.96233084147E-01  0.51100000000E-03 0.  1.
</event>
<event>
 8    1  0.1196210E+005  0.1043930E+01  0.7957747E-01            NaN
         13   -1    0    0    0    0  0.00000000000E+00  0.00000000000E+00  0.74505805969E-08  0.10566000000E+00  0.10566000000E+00 0.  1.
     999900   -1    0    0    0    0 -0.00000000000E+00 -0.00000000000E+00 -0.74505805969E-08  0.93827000000E+00  0.93827000000E+00 0. -1.
     999902    2    1    2    0    0  0.14968531199E-01 -0.14249295890E-01 -0.11664459429E-01  0.10201990292E+01  0.10199229874E+01 0.  0.
     999903    2    3    3    0    0 -0.81619410946E-01 -0.93540695822E-01  0.35170237638E-01  0.13013732041E+00  0.16946578704E-01 0.  0.
         14    1    1    2    0    0 -0.14968531199E-01  0.14249295890E-01  0.11664459429E-01  0.23730970763E-01  0.00000000000E+00 0.  1.
     999901    1    3    3    0    0  0.96587942145E-01  0.79291399932E-01 -0.46834697067E-01  0.89006170883E+00  0.88000000000E+00 0. -1.
        -11    1    4    4    0    0 -0.42724153167E-01 -0.37155267562E-01  0.19301751471E-01  0.59822118838E-01  0.51100000000E-03 0. -1.
         11    1    4    4    0    0 -0.38895257779E-01 -0.56385428260E-01  0.15868486167E-01  0.70315201571E-01  0.51100000000E-03 0.  1.
</event>
<event>
 8    1  0.1196210E+005  0.1043930E+01  0.7957747E-01            NaN
         13   -1    0    0    0    0  0.00000000000E+00  0.00000000000E+00  0.74505805969E-08  0.10566000000E+00  0.10566000000E+00 0. -1.
     999900   -1    0    0    0    0 -0.00000000000E+00 -0.00000000000E+00 -0.74505805969E-08  0.93827000000E+00  0.93827000000E+00 0. -1.
     999902    2    1    2    0    0 -0.13072268057E-01  0.79509559835E-02  0.18332955015E-01  0.10200511572E+01  0.10197716236E+01 0.  0.
     999903    2    3    3    0    0 -0.20566926595E-01 -0.12823994667E-02 -0.12504647442E+00  0.12836786952E+00  0.20421707657E-01 0.  0.
         14    1    1    2    0    0  0.13072268057E-01 -0.79509559835E-02 -0.18332955015E-01  0.23878842786E-01  0.00000000000E+00 0.  1.
     999901    1    3    3    0    0  0.74946585376E-02  0.92333554502E-02  0.14337942943E+00  0.89168328769E+00  0.88000000000E+00 0.  1.
        -11    1    4    4    0    0 -0.10748873713E-01 -0.90665391221E-02 -0.91080030552E-01  0.92160585416E-01  0.51100000000E-03 0.  1.
         11    1    4    4    0    0 -0.98180528825E-02  0.77841396554E-02 -0.33966443867E-01  0.36207284109E-01  0.51100000000E-03 0. -1.
</event>
<event>
 8    1  0.1196210E+005  0.1043930E+01  0.7957747E-01            NaN
         13   -1    0    0    0    0  0.00000000000E+00  0.00000000000E+00  0.74505805969E-08  0.10566000000E+00  0.10566000000E+00 0. -1.
     999900   -1    0    0    0    0 -0.00000000000E+00 -0.00000000000E+00 -0.74505805969E-08  0.93827000000E+00  0.93827000000E+00 0. -1.
     999902    2    1    2    0    0 -0.15511342019E-01  0.20316303402E-01 -0.13219120822E-01  0.10151532894E+01  0.10147453385E+01 0.  0.
     999903    2    3    3    0    0  0.72561158938E-01  0.74166122993E-01  0.67517427991E-01  0.12544830530E+00  0.20320891566E-01 0.  0.
         14    1    1    2    0    0  0.15511342019E-01 -0.20316303402E-01  0.13219120822E-01  0.28776710556E-01  0.00000000000E+00 0.  1.
     999901    1    3    3    0    0 -0.88072500957E-01 -0.53849819591E-01 -0.80736548813E-01  0.88970498414E+00  0.88000000000E+00 0. -1.
        -11    1    4    4    0    0  0.36698629640E-01  0.27916701787E-01  0.38755455466E-01  0.60236020000E-01  0.51100000000E-03 0.  1.
         11    1    4    4    0    0  0.35862529298E-01  0.46249421206E-01  0.28761972525E-01  0.65212285300E-01  0.51100000000E-03 0. -1.
</event>
<event>
 8    1  0.1196210E+005  0.1043930E+01  0.7957747E-01            NaN
         13   -1    0    0    0    0  0.00000000000E+00  0.00000000000E+00  0.74505805969E-08  0.10566000000E+00  0.10566000000E+00 0.  1.
     999900   -1    0    0    0    0 -0.00000000000E+00 -0.00000000000E+00 -0.74505805969E-08  0.93827000000E+00  0.93827000000E+00 0.  1.
     999902    2    1    2    0    0  0.17675425207E-02  0.19341565453E-01  0.13968157410E-01  0.10200065851E+01  0.10197259945E+01 0.  0.
     999903    2    3    3    0    0  0.58576983444E-01 -0.24861665446E-01  0.11337572591E+00  0.13148922290E+00  0.19646758352E-01 0.  0.
         14    1    1    2    0    0 -0.17675425207E-02 -0.19341565453E-01 -0.13968157410E-01  0.23923414935E-01  0.00000000000E+00 0. -1.
     999901    1    3    3    0    0 -0.56809440924E-01  0.44203230898E-01 -0.99407568502E-01  0.88851736217E+00  0.88000000000E+00 0.  1.
        -11    1    4    4    0    0  0.38561759356E-01 -0.25554212625E-01  0.73169003457E-01  0.86567841924E-01  0.51100000000E-03 0. -1.
         11    1    4    4    0    0  0.20015224088E-01  0.69254717957E-03  0.40206722454E-01  0.44921380972E-01  0.51100000000E-03 0.  1.
</event>
<event>
 7    1  0.1196210E+005  0.1043930E+01  0.7957747E-01            NaN
         13   -1    0    0    0    0  0.00000000000E+00  0.00000000000E+00  0.74505805969E-08  0.10566000000E+00  0.10566000000E+00 0. -1.
     999900   -1    0    0    0    0 -0.00000000000E+00 -0.00000000000E+00 -0.74505805969E-08  0.93827000000E+00  0.93827000000E+00 0. -1.
     999903    2    1    2    0    0 -0.94169320859E-01 -0.44497927978E-01  0.35666581895E-01  0.11225256443E+00  0.21922740973E-01 0.  0.
         14    1    1    2    0    0 -0.17992665116E-01  0.34575940293E-01 -0.21232886860E-01  0.44385438260E-01  0.00000000000E+00 0. -1.
     999901    1    1    2    0    0  0.11216198598E+00  0.99219876845E-02 -0.14433695035E-01  0.88729199731E+00  0.88000000000E+00 0.  1.
        -11    1    3    3    0    0 -0.31430765083E-01 -0.41771769856E-02  0.13336550637E-01  0.34401548006E-01  0.51100000000E-03 0.  1.
         11    1    3    3    0    0 -0.62738555776E-01 -0.40320750992E-01  0.22330031258E-01  0.77851016425E-01  0.51100000000E-03 0. -1.
</event>
<event>
 8    1  0.1196210E+005  0.1043930E+01  0.7957747E-01            NaN
         13   -1    0    0    0    0  0.00000000000E+00  0.00000000000E+00  0.74505805969E-08  0.10566000000E+00  0.10566000000E+00 0. -1.
     999900   -1    0    0    0    0 -0.00000000000E+00 -0.00000000000E+00 -0.74505805969E-08  0.93827000000E+00  0.93827000000E+00 0. -1.
     999902    2    1    2    0    0  0.22418117116E-01  0.16348750716E-02 -0.68098910054E-02  0.10204434207E+01  0.10201731007E+01 0.  0.
     999903    2    3    3    0    0  0.98422658149E-01 -0.81202607250E-01 -0.33190878289E-01  0.13289922731E+00  0.16723849943E-01 0.  0.
         14    1    1    2    0    0 -0.22418117116E-01 -0.16348750716E-02  0.68098910054E-02  0.23486579296E-01  0.00000000000E+00 0.  1.
     999901    1    3    3    0    0 -0.76004541033E-01  0.82837482322E-01  0.26380987283E-01  0.88754419339E+00  0.88000000000E+00 0.  1.
        -11    1    4    4    0    0  0.77252028610E-01 -0.69732468441E-01 -0.22133421293E-01  0.10639850816E+00  0.51100000000E-03 0. -1.
         11    1    4    4    0    0  0.21170629539E-01 -0.11470138809E-01 -0.11057456996E-01  0.26500719153E-01  0.51100000000E-03 0.  1.
</event>
<event>
 8    1  0.1196210E+005  0.1043930E+01  0.7957747E-01            NaN
         13   -1    0    0    0    0  0.00000000000E+00  0.00000000000E+00  0.74505805969E-08  0.10566000000E+00  0.10566000000E+00 0. -1.
     999900   -1    0    0    0    0 -0.00000000000E+00 -0.00000000000E+00 -0.74505805969E-08  0.93827000000E+00  0.93827000000E+00 0.  1.
     999902    2    1    2    0    0 -0.16125315906E-01 -0.55559311987E-02 -0.17094964254E-01  0.10197818740E+01  0.10194959238E+01 0.  0.
     999903    2    3    3    0    0 -0.10950564128E+00  0.39988621394E-01  0.55597851075E-01  0.13069333130E+00  0.19976248077E-01 0.  0.
         14    1    1    2    0    0  0.16125315906E-01  0.55559311987E-02  0.17094964254E-01  0.24148125960E-01  0.00000000000E+00 0. -1.
     999901    1    3    3    0    0  0.93380325377E-01 -0.45544552593E-01 -0.72692815329E-01  0.88908854274E+00  0.88000000000E+00 0. -1.
        -11    1    4    4    0    0 -0.72316099351E-01  0.16159197177E-01  0.34282461565E-01  0.81647328007E-01  0.51100000000E-03 0. -1.
         11    1    4    4    0    0 -0.37189541932E-01  0.23829424217E-01  0.21315389509E-01  0.49046003288E-01  0.51100000000E-03 0.  1.
</event>
<event>
 8    1  0.1196210E+005  0.1043930E+01  0.7957747E-01            NaN
         13   -1    0    0    0    0  0.00000000000E+00  0.00000000000E+00  0.74505805969E-08  0.10566000000E+00  0.10566000000E+00 0.  1.
     999900   -1    0    0    0    0 -0.00000000000E+00 -0.00000000000E+00 -0.74505805969E-08  0.93827000000E+00  0.93827000000E+00 0.  1.
     999902    2    1    2    0    0  0.14081968328E-02 -0.22813854090E-01  0.93172219727E-02  0.10192466943E+01  0.10189477701E+01 0.  0.
     999903    2    3    3    0    0 -0.89429583117E-01  0.43951133676E-01 -0.77483980159E-01  0.12781889879E+00  0.20113458630E-01 0.  0.
         14    1    1    2    0    0 -0.14081968328E-02  0.22813854090E-01 -0.93172219727E-02  0.24683305736E-01  0.00000000000E+00 0. -1.
     999901    1    3    3    0    0  0.90837779950E-01 -0.66764987766E-01  0.86801202131E-01  0.89142779548E+00  0.88000000000E+00 0. -1.
        -11    1    4    4    0    0 -0.36823628762E-01  0.73437919335E-02 -0.27686374348E-01  0.46655196503E-01  0.51100000000E-03 0.  1.
         11    1    4    4    0    0 -0.52605954355E-01  0.36607341743E-01 -0.49797605811E-01  0.81163702284E-01  0.51100000000E-03 0. -1.
</event>
<event>
 8    1  0.1196210E+005  0.1043930E+01  0.7957747E-01            NaN
         13   -1    0    0    0    0  0.00000000000E+00  0.00000000000E+00  0.74505805969E-08  0.10566000000E+00  0.10566000000E+00 0.  1.
     999900   -1    0    0    0    0 -0.00000000000E+00 -0.00000000000E+00 -0.74505805969E-08  0.93827000000E+00  0.93827000000E+00 0. -1.
     999902    2    1    2    0    0  0.79006967446E-02  0.20130877500E-01  0.93386285873E-02  0.10203740406E+01  0.10201021025E+01 0.  0.
     999903    2    3    3    0    0 -0.11977268596E+00  0.43118709004E-01 -0.19808128641E-01  0.13038613818E+00  0.20086405878E-01 0.  0.
         14    1    1    2    0    0 -0.79006967446E-02 -0.20130877500E-01 -0.93386285873E-02  0.23555959370E-01  0.00000000000E+00 0. -1.
     999901    1    3    3    0    0  0.12767338271E+00 -0.22987831504E-01  0.29146757228E-01  0.88998790245E+00  0.88000000000E+00 0. -1.
        -11    1    4    4    0    0 -0.25753537763E-01  0.50525118656E-02  0.29968552559E-02  0.26419970589E-01  0.51100000000E-03 0.  1.
         11    1    4    4    0    0 -0.94019148197E-01  0.38066197138E-01 -0.22804983896E-01  0.10396616759E+00  0.51100000000E-03 0. -1.
</event>
<event>
 8    1  0.1196210E+005  0.1043930E+01  0.7957747E-01            NaN
         13   -1    0    0    0    0  0.00000000000E+00  0.00000000000E+00  0.74505805969E-08  0.10566000000E+00  0.10566000000E+00 0.  1.
     999900   -1    0    0    0    0 -0.00000000000E+00 -0.00000000000E+00 -0.74505805969E-08  0.93827000000E+00  0.93827000000E+00 0.  1.
     999902    2    1    2    0    0 -0.85874826717E-02  0.21046115453E-01  0.59139473085E-02  0.10204425862E+01  0.10201722468E+01 0.  0.
     999903    2    3    3    0    0 -0.58480518978E-01 -0.10655329996E+00  0.38953760880E-01  0.12922849566E+00  0.20224533935E-01 0.  0.
         14    1    1    2    0    0  0.85874826717E-02 -0.21046115453E-01 -0.59139473085E-02  0.23487413801E-01  0.00000000000E+00 0.  1.
     999901    1    3    3    0    0  0.49893036306E-01  0.12759941541E+00 -0.33039813572E-01  0.89121409053E+00  0.88000000000E+00 0. -1.
        -11    1    4    4    0    0 -0.56586028901E-01 -0.89068308853E-01  0.35174809617E-01  0.11123250721E+00  0.51100000000E-03 0.  1.
         11    1    4    4    0    0 -0.18944900770E-02 -0.17484991106E-01  0.37789512633E-02  0.17995988450E-01  0.51100000000E-03 0. -1.
</event>
<event>
 8    1  0.1196210E+005  0.1043930E+01  0.7957747E-01            NaN
         13   -1    0    0    0    0  0.00000000000E+00  0.00000000000E+00  0.74505805969E-08  0.10566000000E+00  0.10566000000E+00 0.  1.
     999900   -1    0    0    0    0 -0.00000000000E+00 -0.00000000000E+00 -0.74505805969E-08  0.93827000000E+00  0.93827000000E+00 0. -1.
     999902    2    1    2    0    0  0.10299683973E-01  0.37346549561E-02  0.20841333514E-01  0.10203844628E+01  0.10201127681E+01 0.  0.
     999903    2    3    3    0    0  0.82636746124E-01  0.77368513361E-01  0.67013581388E-01  0.13314916590E+00  0.20570892522E-01 0.  0.
         14    1    1    2    0    0 -0.10299683973E-01 -0.37346549561E-02 -0.20841333514E-01  0.23545537162E-01  0.00000000000E+00 0. -1.
     999901    1    3    3    0    0 -0.72337062150E-01 -0.73633858405E-01 -0.46172247874E-01  0.88723529694E+00  0.88000000000E+00 0. -1.
        -11    1    4    4    0    0  0.49917276928E-01  0.51987781971E-01  0.52874941496E-01  0.89389510399E-01  0.51100000000E-03 0. -1.
         11    1    4    4    0    0  0.32719469196E-01  0.25380731390E-01  0.14138639892E-01  0.43759655498E-01  0.51100000000E-03 0.  1.
</event>
<event>
 8    1  0.1196210E+005  0.1043930E+01  0.7957747E-01            NaN
         13   -1    0    0    0    0  0.00000000000E+00  0.00000000000E+00  0.74505805969E-08  0.10566000000E+00  0.10566000000E+00 0. -1.
     999900   -1    0    0    0    0 -0.00000000000E+00 -0.00000000000E+00 -0.74505805969E-08  0.93827000000E+00  0.93827000000E+00 0.  1.
     999902    2    1    2    0    0  0.16340082351E-01  0.10181934865E-01  0.87782588942E-02  0.10227704178E+01  0.10225515144E+01 0.  0.
     999903    2    3    3    0    0 -0.28051543451E-01 -0.11134216858E+00  0.61370998355E-01  0.13175710681E+00  0.20237790417E-01 0.  0.
         14    1    1    2    0    0 -0.16340082351E-01 -0.10181934865E-01 -0.87782588942E-02  0.21159582180E-01  0.00000000000E+00 0.  1.
     999901    1    3    3    0    0  0.44391625802E-01  0.12152410344E+00 -0.52592739461E-01  0.89101331101E+00  0.88000000000E+00 0.  1.
        -11    1    4    4    0    0 -0.18960983759E-01 -0.51652608138E-01  0.19927248295E-01  0.58522364769E-01  0.51100000000E-03 0.  1.
         11    1    4    4    0    0 -0.90905596921E-02 -0.59689560441E-01  0.41443750061E-01  0.73234742037E-01  0.51100000000E-03 0. -1.
</event>
<event>
 8    1  0.1196210E+005  0.1043930E+01  0.7957747E-01            NaN
         13   -1    0    0    0    0  0.00000000000E+00  0.00000000000E+00  0.74505805969E-08  0.10566000000E+00  0.10566000000E+00 0.  1.
     999900   -1    0    0    0    0 -0.00000000000E+00 -0.00000000000E+00 -0.74505805969E-08  0.93827000000E+00  0.93827000000E+00 0. -1.
     999902    2    1    2    0    0  0.16657111420E-01  0.88913192786E-02 -0.41863103061E-02  0.10245898833E+01  0.10244073354E+01 0.  0.
     999903    2    3    3    0    0  0.26701885313E-01  0.13156256559E+00  0.31542776237E-02  0.13599379038E+00  0.21509584159E-01 0.  0.
         14    1    1    2    0    0 -0.16657111420E-01 -0.88913192786E-02  0.41863103061E-02  0.19340116684E-01  0.00000000000E+00 0.  1.
     999901    1    3    3    0    0 -0.10044773893E-01 -0.12267124631E+00 -0.73405879298E-02  0.88859609294E+00  0.88000000000E+00 0. -1.
        -11    1    4    4    0    0 -0.29313578414E-02  0.28914015198E-01 -0.82109441111E-03  0.29078315816E-01  0.51100000000E-03 0.  1.
         11    1    4    4    0    0  0.29633243154E-01  0.10264855039E+00  0.39753720348E-02  0.10691547456E+00  0.51100000000E-03 0. -1.
</event>
<event>
 8    1  0.1196210E+005  0.1043930E+01  0.7957747E-01            NaN
         13   -1    0    0    0    0  0.00000000000E+00  0.00000000000E+00  0.74505805969E-08  0.10566000000E+00  0.10566000000E+00 0.  1.
     999900   -1    0    0    0    0 -0.00000000000E+00 -0.00000000000E+00 -0.74505805969E-08  0.93827000000E+00  0.93827000000E+00 0.  1.
     999902    2    1    2    0    0 -0.16019436959E-01  0.11424922858E-01 -0.15223860855E-01  0.10190519542E+01  0.10187482359E+01 0.  0.
     999903    2    3    3    0    0  0.11528116059E+00  0.49568467866E-01 -0.19951446638E-01  0.12848071787E+00  0.19038267990E-01 0.  0.
         14    1    1    2    0    0  0.16019436959E-01 -0.11424922858E-01  0.15223860855E-01  0.24878045786E-01  0.00000000000E+00 0.  1.
     999901    1    3    3    0    0 -0.13130059754E+00 -0.38143545008E-01  0.47275857829E-02  0.89057123635E+00  0.88000000000E+00 0. -1.
        -11    1    4    4    0    0  0.23396521737E-01  0.17144604507E-01  0.48723355730E-04  0.29010311754E-01  0.51100000000E-03 0. -1.
         11    1    4    4    0    0  0.91884638850E-01  0.32423863359E-01 -0.20000169993E-01  0.99470406114E-01  0.51100000000E-03 0.  1.
</event>
<event>
 8    1  0.1196210E+005  0.1043930E+01  0.7957747E-01            NaN
         13   -1    0    0    0    0  0.00000000000E+00  0.00000000000E+00  0.74505805969E-08  0.10566000000E+00  0.10566000000E+00 0.  1.
     999900   -1    0    0    0    0 -0.00000000000E+00 -0.00000000000E+00 -0.74505805969E-08  0.93827000000E+00  0.93827000000E+00 0.  1.
     999902    2    1    2    0    0  0.21002538264E-01  0.77101913366E-02  0.72854393056E-02  0.10204006292E+01  0.10201293118E+01 0.  0.
     999903    2    3    3    0    0 -0.49543920700E-01  0.52567813716E-01 -0.10531060828E+00  0.12929632606E+00  0.20229695988E-01 0.  0.
         14    1    1    2    0    0 -0.21002538264E-01 -0.77101913366E-02 -0.72854393056E-02  0.23529370792E-01  0.00000000000E+00 0. -1.
     999901    1    3    3    0    0  0.70546458965E-01 -0.44857622379E-01  0.11259604758E+00  0.89110430315E+00  0.88000000000E+00 0. -1.
        -11    1    4    4    0    0 -0.33028152305E-01  0.34532990159E-01 -0.51890745850E-01  0.70542872637E-01  0.51100000000E-03 0. -1.
         11    1    4    4    0    0 -0.16515768395E-01  0.18034823556E-01 -0.53419862427E-01  0.58753453423E-01  0.51100000000E-03 0.  1.
</event>
<event>
 8    1  0.1196210E+005  0.1043930E+01  0.7957747E-01            NaN
         13   -1    0    0    0    0  0.00000000000E+00  0.00000000000E+00  0.74505805969E-08  0.10566000000E+00  0.10566000000E+00 0.  1.
     999900   -1    0    0    0    0 -0.00000000000E+00 -0.00000000000E+00 -0.74505805969E-08  0.93827000000E+00  0.93827000000E+00 0.  1.
     999902    2    1    2    0    0  0.17173939671E-01 -0.67133349477E-02  0.46847068704E-02  0.10249047655E+01  0.10247281682E+01 0.  0.
     999903    2    3    3    0    0 -0.72650873721E-02  0.56297523718E-01 -0.11933169880E+00  0.13364290541E+00  0.19954426994E-01 0.  0.
         14    1    1    2    0    0 -0.17173939671E-01  0.67133349477E-02 -0.46847068704E-02  0.19025234516E-01  0.00000000000E+00 0. -1.
     999901    1    3    3    0    0  0.24439027043E-01 -0.63010858666E-01  0.12401640567E+00  0.89126186008E+00  0.88000000000E+00 0. -1.
        -11    1    4    4    0    0 -0.37881187304E-02  0.50039995603E-01 -0.86218804096E-01  0.99761186361E-01  0.51100000000E-03 0.  1.
         11    1    4    4    0    0 -0.34769686417E-02  0.62575281154E-02 -0.33112894701E-01  0.33881719046E-01  0.51100000000E-03 0. -1.
</event>
<event>
 8    1  0.1196210E+005  0.1043930E+01  0.7957747E-01            NaN
         13   -1    0    0    0    0  0.00000000000E+00  0.00000000000E+00  0.74505805969E-08  0.10566000000E+00  0.10566000000E+00 0. -1.
     999900   -1    0    0    0    0 -0.00000000000E+00 -0.00000000000E+00 -0.74505805969E-08  0.93827000000E+00  0.93827000000E+00 0. -1.
     999902    2    1    2    0    0  0.11578508332E-01 -0.73345568515E-02 -0.18461284344E-01  0.10209370315E+01  0.10206780814E+01 0.  0.
     999903    2    3    3    0    0 -0.10020139341E+00 -0.77789577506E-01  0.21488155353E-01  0.13017633746E+00  0.19814146563E-01 0.  0.
         14    1    1    2    0    0 -0.11578508332E-01  0.73345568515E-02  0.18461284344E-01  0.22992968470E-01  0.00000000000E+00 0. -1.
     999901    1    3    3    0    0  0.11177990174E+00  0.70455020655E-01 -0.39949439698E-01  0.89076069407E+00  0.88000000000E+00 0.  1.
        -11    1    4    4    0    0 -0.68646915230E-01 -0.63508978238E-01  0.19130134697E-01  0.95456861785E-01  0.51100000000E-03 0.  1.
         11    1    4    4    0    0 -0.31554478180E-01 -0.14280599269E-01  0.23580206563E-02  0.34719475674E-01  0.51100000000E-03 0. -1.
</event>
<event>
 8    1  0.1196210E+005  0.1043930E+01  0.7957747E-01            NaN
         13   -1    0    0    0    0  0.00000000000E+00  0.00000000000E+00  0.74505805969E-08  0.10566000000E+00  0.10566000000E+00 0.  1.
     999900   -1    0    0    0    0 -0.00000000000E+00 -0.00000000000E+00 -0.74505805969E-08  0.93827000000E+00  0.93827000000E+00 0.  1.
     999902    2    1    2    0    0  0.24724715803E-01  0.25594199843E-02  0.43184719267E-02  0.10187008224E+01  0.10183883612E+01 0.  0.
     999903    2    3    3    0    0 -0.55856489166E-01  0.26713062274E-01 -0.10932864660E+00  0.12741388961E+00  0.21166275538E-01 0.  0.
         14    1    1    2    0    0 -0.24724715803E-01 -0.25594199843E-02 -0.43184719267E-02  0.25229177592E-01  0.00000000000E+00 0. -1.
     999901    1    3    3    0    0  0.80581204970E-01 -0.24153642290E-01  0.11364711852E+00  0.89128693280E+00  0.88000000000E+00 0. -1.
        -11    1    4    4    0    0 -0.16717486912E-01  0.18585131958E-01 -0.34953426207E-01  0.42975395555E-01  0.51100000000E-03 0. -1.
         11    1    4    4    0    0 -0.39139002255E-01  0.81279303159E-02 -0.74375220391E-01  0.84438494053E-01  0.51100000000E-03 0.  1.
</event>
<event>
 8    1  0.1196210E+005  0.1043930E+01  0.7957747E-01            NaN
         13   -1    0    0    0    0  0.00000000000E+00  0.00000000000E+00  0.74505805969E-08  0.10566000000E+00  0.10566000000E+00 0. -1.
     999900   -1    0    0    0    0 -0.00000000000E+00 -0.00000000000E+00 -0.74505805969E-08  0.93827000000E+00  0.93827000000E+00 0.  1.
     999902    2    1    2    0    0  0.21203552148E-01 -0.10856040888E-01 -0.32492918094E-02  0.10198883248E+01  0.10196049201E+01 0.  0.
     999903    2    3    3    0    0  0.40352452386E-01 -0.23849462377E-01  0.12063636123E+00  0.13090960495E+00  0.19674240726E-01 0.  0.
         14    1    1    2    0    0 -0.21203552148E-01  0.10856040888E-01  0.32492918094E-02  0.24041675165E-01  0.00000000000E+00 0. -1.
     999901    1    3    3    0    0 -0.19148900238E-01  0.12993421489E-01 -0.12388565304E+00  0.88897871989E+00  0.88000000000E+00 0.  1.
        -11    1    4    4    0    0  0.41086196969E-01 -0.20940688113E-01  0.10089837877E+00  0.11093841517E+00  0.51100000000E-03 0. -1.
         11    1    4    4    0    0 -0.73374458282E-03 -0.29087742641E-02  0.19737982458E-01  0.19971189783E-01  0.51100000000E-03 0.  1.
</event>
<event>
 8    1  0.1196210E+005  0.1043930E+01  0.7957747E-01            NaN
         13   -1    0    0    0    0  0.00000000000E+00  0.00000000000E+00  0.74505805969E-08  0.10566000000E+00  0.10566000000E+00 0.  1.
     999900   -1    0    0    0    0 -0.00000000000E+00 -0.00000000000E+00 -0.74505805969E-08  0.93827000000E+00  0.93827000000E+00 0. -1.
     999902    2    1    2    0    0  0.16837847774E-01  0.16521991608E-01  0.12587901538E-01  0.10171915522E+01  0.10168400608E+01 0.  0.
     999903    2    3    3    0    0 -0.10301078072E+00 -0.51905463677E-01  0.46469586502E-01  0.12579154159E+00  0.18939148913E-01 0.  0.
         14    1    1    2    0    0 -0.16837847774E-01 -0.16521991608E-01 -0.12587901538E-01  0.26738447776E-01  0.00000000000E+00 0. -1.
     999901    1    3    3    0    0  0.11984862849E+00  0.68427455285E-01 -0.33881684963E-01  0.89140001064E+00  0.88000000000E+00 0. -1.
        -11    1    4    4    0    0 -0.67723359423E-01 -0.33451026458E-01  0.20574101089E-01  0.78287798151E-01  0.51100000000E-03 0. -1.
         11    1    4    4    0    0 -0.35287421294E-01 -0.18454437219E-01  0.25895485413E-01  0.47503743436E-01  0.51100000000E-03 0.  1.
</event>
<event>
 8    1  0.1196210E+005  0.1043930E+01  0.7957747E-01            NaN
         13   -1    0    0    0    0  0.00000000000E+00  0.00000000000E+00  0.74505805969E-08  0.10566000000E+00  0.10566000000E+00 0.  1.
     999900   -1    0    0    0    0 -0.00000000000E+00 -0.00000000000E+00 -0.74505805969E-08  0.93827000000E+00  0.93827000000E+00 0.  1.
     999902    2    1    2    0    0 -0.16065487953E-01 -0.35212180905E-02 -0.17798113296E-01  0.10196963103E+01  0.10194083056E+01 0.  0.
     999903    2    3    3    0    0  0.60348095148E-02  0.61615613808E-02  0.12582822903E+00  0.12772618435E+00  0.20170552345E-01 0.  0.
         14    1    1    2    0    0  0.16065487953E-01  0.35212180905E-02  0.17798113296E-01  0.24233689709E-01  0.00000000000E+00 0.  1.
     999901    1    3    3    0    0 -0.22100297468E-01 -0.96827794713E-02 -0.14362634233E+00  0.89197012594E+00  0.88000000000E+00 0.  1.
        -11    1    4    4    0    0  0.12392473278E-01  0.34265518551E-02  0.10469180930E+00  0.10547962224E+00  0.51100000000E-03 0.  1.
         11    1    4    4    0    0 -0.63576637637E-02  0.27350095257E-02  0.21136419727E-01  0.22246562106E-01  0.51100000000E-03 0. -1.
</event>
<event>
 8    1  0.1196210E+005  0.1043930E+01  0.7957747E-01            NaN
         13   -1    0    0    0    0  0.00000000000E+00  0.00000000000E+00  0.74505805969E-08  0.10566000000E+00  0.10566000000E+00 0.  1.
     999900   -1    0    0    0    0 -0.00000000000E+00 -0.00000000000E+00 -0.74505805969E-08  0.93827000000E+00  0.93827000000E+00 0. -1.
     999902    2    1    2    0    0  0.17586556058E-02 -0.19888212060E-01  0.12343193477E-01  0.10204568606E+01  0.10201868535E+01 0.  0.
     999903    2    3    3    0    0 -0.76376463975E-01 -0.15196622079E-01  0.10487723336E+00  0.13214967472E+00  0.20000022013E-01 0.  0.
         14    1    1    2    0    0 -0.17586556058E-02  0.19888212060E-01 -0.12343193477E-01  0.23473139409E-01  0.00000000000E+00 0. -1.
     999901    1    3    3    0    0  0.78135119581E-01 -0.46915899810E-02 -0.92534039882E-01  0.88830718587E+00  0.88000000000E+00 0. -1.
        -11    1    4    4    0    0 -0.52054781147E-02 -0.66761046892E-02  0.81955285861E-02  0.11793862219E-01  0.51100000000E-03 0. -1.
         11    1    4    4    0    0 -0.71170985860E-01 -0.85205173900E-02  0.96681704773E-01  0.12035581250E+00  0.51100000000E-03 0.  1.
</event>
<event>
 8    1  0.1196210E+005  0.1043930E+01  0.7957747E-01            NaN
         13   -1    0    0    0    0  0.00000000000E+00  0.00000000000E+00  0.74505805969E-08  0.10566000000E+00  0.10566000000E+00 0. -1.
     999900   -1    0    0    0    0 -0.00000000000E+00 -0.00000000000E+00 -0.74505805969E-08  0.93827000000E+00  0.93827000000E+00 0.  1.
     999902    2    1    2    0    0  0.88472609278E-02  0.32719322604E-03  0.22172655043E-01  0.10200551657E+01  0.10197757270E+01 0.  0.
     999903    2    3    3    0    0  0.37230845553E-01  0.11993816956E+00 -0.28512938489E-01  0.13006559108E+00  0.18241983004E-01 0.  0.
         14    1    1    2    0    0 -0.88472609278E-02 -0.32719322604E-03 -0.22172655043E-01  0.23874834303E-01  0.00000000000E+00 0.  1.
     999901    1    3    3    0    0 -0.28383584625E-01 -0.11961097633E+00  0.50685593532E-01  0.88998957462E+00  0.88000000000E+00 0.  1.
        -11    1    4    4    0    0  0.19866346126E-01  0.78311904242E-01 -0.10407433469E-01  0.81461658753E-01  0.51100000000E-03 0.  1.
         11    1    4    4    0    0  0.17364499426E-01  0.41626265317E-01 -0.18105505020E-01  0.48603932327E-01  0.51100000000E-03 0. -1.
</event>
<event>
 8    1  0.1196210E+005  0.1043930E+01  0.7957747E-01            NaN
         13   -1    0    0    0    0  0.00000000000E+00  0.00000000000E+00  0.74505805969E-08  0.10566000000E+00  0.10566000000E+00 0. -1.
     999900   -1    0    0    0    0 -0.00000000000E+00 -0.00000000000E+00 -0.74505805969E-08  0.93827000000E+00  0.93827000000E+00 0. -1.
     999902    2    1    2    0    0 -0.10729067684E-01  0.14121022805E-01 -0.11819718233E-01  0.10226175173E+01  0.10223954053E+01 0.  0.
     999903    2    3    3    0    0 -0.43495661747E-01  0.41950824167E-01  0.11588590610E+00  0.13236088354E+00  0.20931221142E-01 0.  0.
         14    1    1    2    0    0  0.10729067684E-01 -0.14121022805E-01  0.11819718233E-01  0.21312482670E-01  0.00000000000E+00 0. -1.
     999901    1    3    3    0    0  0.32766594063E-01 -0.27829801362E-01 -0.12770562433E+00  0.89025663380E+00  0.88000000000E+00 0. -1.
        -11    1    4    4    0    0 -0.12528183949E-01  0.26380268925E-01  0.49745650700E-01  0.57686782422E-01  0.51100000000E-03 0. -1.
         11    1    4    4    0    0 -0.30967477798E-01  0.15570555242E-01  0.66140255400E-01  0.74674101113E-01  0.51100000000E-03 0.  1.
</event>
<event>
 8    1  0.1196210E+005  0.1043930E+01  0.7957747E-01            NaN
         13   -1    0    0    0    0  0.00000000000E+00  0.00000000000E+00  0.74505805969E-08  0.10566000000E+00  0.10566000000E+00 0. -1.
     999900   -1    0    0    0    0 -0.00000000000E+00 -0.00000000000E+00 -0.74505805969E-08  0.93827000000E+00  0.93827000000E+00 0. -1.
     999902    2    1    2    0    0  0.28322029858E-01  0.13933997751E-02 -0.31484683461E-02  0.10153994586E+01  0.10149985561E+01 0.  0.
     999903    2    3    3    0    0  0.12515280161E+00 -0.57454482766E-02 -0.27040812386E-01  0.12973699153E+00  0.20105907387E-01 0.  0.
         14    1    1    2    0    0 -0.28322029858E-01 -0.13933997751E-02  0.31484683461E-02  0.28530541375E-01  0.00000000000E+00 0. -1.
     999901    1    3    3    0    0 -0.96830771749E-01  0.71388480518E-02  0.23892344040E-01  0.88566246709E+00  0.88000000000E+00 0.  1.
        -11    1    4    4    0    0  0.10135892205E+00  0.33101693762E-02 -0.20978406719E-01  0.10356130055E+00  0.51100000000E-03 0.  1.
         11    1    4    4    0    0  0.23793879553E-01 -0.90556176528E-02 -0.60624056667E-02  0.26175690989E-01  0.51100000000E-03 0. -1.
</event>
<event>
 8    1  0.1196210E+005  0.1043930E+01  0.7957747E-01            NaN
         13   -1    0    0    0    0  0.00000000000E+00  0.00000000000E+00  0.74505805969E-08  0.10566000000E+00  0.10566000000E+00 0. -1.
     999900   -1    0    0    0    0 -0.00000000000E+00 -0.00000000000E+00 -0.74505805969E-08  0.93827000000E+00  0.93827000000E+00 0.  1.
     999902    2    1    2    0    0 -0.35082303484E-02 -0.16289387537E-01  0.16294248291E-01  0.10206243279E+01  0.10203582039E+01 0.  0.
     999903    2    3    3    0    0  0.12116669819E+00  0.37130539745E-01 -0.17567839987E-01  0.12958888106E+00  0.20605905921E-01 0.  0.
         14    1    1    2    0    0  0.35082303484E-02  0.16289387537E-01 -0.16294248291E-01  0.23305672140E-01  0.00000000000E+00 0.  1.
     999901    1    3    3    0    0 -0.12467492854E+00 -0.53419927282E-01  0.33862088278E-01  0.89103544680E+00  0.88000000000E+00 0. -1.
        -11    1    4    4    0    0  0.54399177309E-01  0.85747278109E-02 -0.14282547054E-01  0.56895067627E-01  0.51100000000E-03 0. -1.
         11    1    4    4    0    0  0.66767520884E-01  0.28555811934E-01 -0.32852929326E-02  0.72693813429E-01  0.51100000000E-03 0.  1.
</event>
<event>
 8    1  0.1196210E+005  0.1043930E+01  0.7957747E-01            NaN
         13   -1    0    0    0    0  0.00000000000E+00  0.00000000000E+00  0.74505805969E-08  0.10566000000E+00  0.10566000000E+00 0.  1.
     999900   -1    0    0    0    0 -0.00000000000E+00 -0.00000000000E+00 -0.74505805969E-08  0.93827000000E+00  0.93827000000E+00 0.  1.
     999902    2    1    2    0    0 -0.20903280244E-01  0.54162481499E-02  0.10087222529E-01  0.10200965167E+01  0.10198180565E+01 0.  0.
     999903    2    3    3    0    0  0.38813593823E-01 -0.10088981599E+00  0.68807009805E-01  0.12975102321E+00  0.20388069788E-01 0.  0.
         14    1    1    2    0    0  0.20903280244E-01 -0.54162481499E-02 -0.10087222529E-01  0.23833483323E-01  0.00000000000E+00 0. -1.
     999901    1    3    3    0    0 -0.59716874067E-01  0.10630606414E+00 -0.58719787276E-01  0.89034549347E+00  0.88000000000E+00 0.  1.
        -11    1    4    4    0    0  0.28630727617E-01 -0.91653605930E-01  0.62828445510E-01  0.11475093346E+00  0.51100000000E-03 0. -1.
         11    1    4    4    0    0  0.10182866206E-01 -0.92362100591E-02  0.59785642945E-02  0.15000089748E-01  0.51100000000E-03 0.  1.
</event>
<event>
 8    1  0.1196210E+005  0.1043930E+01  0.7957747E-01            NaN
         13   -1    0    0    0    0  0.00000000000E+00  0.00000000000E+00  0.74505805969E-08  0.10566000000E+00  0.10566000000E+00 0. -1.
     999900   -1    0    0    0    0 -0.00000000000E+00 -0.00000000000E+00 -0.74505805969E-08  0.93827000000E+00  0.93827000000E+00 0.  1.
     999902    2    1    2    0    0 -0.22420932229E-01 -0.61405265554E-02  0.48631856315E-02  0.10201801612E+01  0.10199036751E+01 0.  0.
     999903    2    3    3    0    0  0.66545457457E-01 -0.99100072251E-01 -0.45827045110E-01  0.12937940058E+00  0.19743074816E-01 0.  0.
         14    1    1    2    0    0  0.22420932229E-01  0.61405265554E-02 -0.48631856315E-02  0.23749838797E-01  0.00000000000E+00 0.  1.
     999901    1    3    3    0    0 -0.88966389686E-01  0.92959545696E-01  0.50690230741E-01  0.89080076062E+00  0.88000000000E+00 0. -1.
        -11    1    4    4    0    0  0.23146516848E-01 -0.23886898345E-01 -0.19857690486E-01  0.38741891373E-01  0.51100000000E-03 0.  1.
         11    1    4    4    0    0  0.43398940609E-01 -0.75213173907E-01 -0.25969354624E-01  0.90637509210E-01  0.51100000000E-03 0. -1.
</event>
<event>
 8    1  0.1196210E+005  0.1043930E+01  0.7957747E-01            NaN
         13   -1    0    0    0    0  0.00000000000E+00  0.00000000000E+00  0.74505805969E-08  0.10566000000E+00  0.10566000000E+00 0. -1.
     999900   -1    0    0    0    0 -0.00000000000E+00 -0.00000000000E+00 -0.74505805969E-08  0.93827000000E+00  0.93827000000E+00 0. -1.
     999902    2    1    2    0    0  0.67130614152E-02  0.21975667415E-01  0.22022866973E-02  0.10208465596E+01  0.10205855442E+01 0.  0.
     999903    2    3    3    0    0  0.86675065218E-01  0.83088332615E-01  0.54594051984E-01  0.13356217628E+00  0.21026328085E-01 0.  0.
         14    1    1    2    0    0 -0.67130614152E-02 -0.21975667415E-01 -0.22022866973E-02  0.23083440354E-01  0.00000000000E+00 0.  1.
     999901    1    3    3    0    0 -0.79962003802E-01 -0.61112665200E-01 -0.52391765287E-01  0.88728438337E+00  0.88000000000E+00 0. -1.
        -11    1    4    4    0    0  0.30841650914E-01  0.35465977176E-01  0.11246596797E-01  0.48330011677E-01  0.51100000000E-03 0. -1.
         11    1    4    4    0    0  0.55833414303E-01  0.47622355439E-01  0.43347455187E-01  0.85232164600E-01  0.51100000000E-03 0.  1.
</event>
<event>
 8    1  0.1196210E+005  0.1043930E+01  0.7957747E-01            NaN
         13   -1    0    0    0    0  0.00000000000E+00  0.00000000000E+00  0.74505805969E-08  0.10566000000E+00  0.10566000000E+00 0. -1.
     999900   -1    0    0    0    0 -0.00000000000E+00 -0.00000000000E+00 -0.74505805969E-08  0.93827000000E+00  0.93827000000E+00 0. -1.
     999902    2    1    2    0    0 -0.22694441477E-01 -0.10203328571E-02  0.57662755353E-02  0.10204922380E+01  0.10202230536E+01 0.  0.
     999903    2    3    3    0    0 -0.35887155201E-01  0.12361755438E+00  0.16777883325E-01  0.13154347339E+00  0.21283805201E-01 0.  0.
         14    1    1    2    0    0  0.22694441477E-01  0.10203328571E-02 -0.57662755353E-02  0.23437761980E-01  0.00000000000E+00 0. -1.
     999901    1    3    3    0    0  0.13192713724E-01 -0.12463788724E+00 -0.11011607789E-01  0.88894876463E+00  0.88000000000E+00 0.  1.
        -11    1    4    4    0    0 -0.52275196265E-02  0.40610240652E-01  0.13039450627E-01  0.42974492445E-01  0.51100000000E-03 0. -1.
         11    1    4    4    0    0 -0.30659635574E-01  0.83007313727E-01  0.37384326974E-02  0.88568980946E-01  0.51100000000E-03 0.  1.
</event>
<event>
 8    1  0.1196210E+005  0.1043930E+01  0.7957747E-01            NaN
         13   -1    0    0    0    0  0.00000000000E+00  0.00000000000E+00  0.74505805969E-08  0.10566000000E+00  0.10566000000E+00 0. -1.
     999900   -1    0    0    0    0 -0.00000000000E+00 -0.00000000000E+00 -0.74505805969E-08  0.93827000000E+00  0.93827000000E+00 0.  1.
     999902    2    1    2    0    0 -0.22662805825E-01  0.54026880491E-02 -0.14101260633E-02  0.10205894717E+01  0.10203225419E+01 0.  0.
     999903    2    3    3    0    0 -0.36437761785E-01  0.11640054495E+00 -0.47283226087E-01  0.13232452532E+00  0.19931863533E-01 0.  0.
         14    1    1    2    0    0  0.22662805825E-01 -0.54026880491E-02  0.14101260633E-02  0.23340528304E-01  0.00000000000E+00 0.  1.
     999901    1    3    3    0    0  0.13774955960E-01 -0.11099785690E+00  0.45873100023E-01  0.88826494637E+00  0.88000000000E+00 0. -1.
        -11    1    4    4    0    0 -0.17284858982E-01  0.41402288997E-01 -0.82042223714E-02  0.45612347780E-01  0.51100000000E-03 0. -1.
         11    1    4    4    0    0 -0.19152902802E-01  0.74998255954E-01 -0.39079003715E-01  0.86712177544E-01  0.51100000000E-03 0.  1.
</event>
<event>
 8    1  0.1196210E+005  0.1043930E+01  0.7957747E-01            NaN
         13   -1    0    0    0    0  0.00000000000E+00  0.00000000000E+00  0.74505805969E-08  0.10566000000E+00  0.10566000000E+00 0.  1.
     999900   -1    0    0    0    0 -0.00000000000E+00 -0.00000000000E+00 -0.74505805969E-08  0.93827000000E+00  0.93827000000E+00 0. -1.
     999902    2    1    2    0    0 -0.16332021725E-01  0.77596641093E-03 -0.17098220800E-01  0.10202723118E+01  0.10199979921E+01 0.  0.
     999903    2    3    3    0    0  0.97731483514E-01  0.71719417665E-01  0.37234412660E-01  0.12842283369E+00  0.20270791477E-01 0.  0.
         14    1    1    2    0    0  0.16332021725E-01 -0.77596641093E-03  0.17098220800E-01  0.23657688223E-01  0.00000000000E+00 0.  1.
     999901    1    3    3    0    0 -0.11406350524E+00 -0.70943451254E-01 -0.54332633460E-01  0.89184947809E+00  0.88000000000E+00 0.  1.
        -11    1    4    4    0    0  0.83482031636E-01  0.58346937990E-01  0.38374284495E-01  0.10884145171E+00  0.51100000000E-03 0.  1.
         11    1    4    4    0    0  0.14249451878E-01  0.13372479675E-01 -0.11398718356E-02  0.19581381981E-01  0.51100000000E-03 0. -1.
</event>
<event>
 8    1  0.1196210E+005  0.1043930E+01  0.7957747E-01            NaN
         13   -1    0    0    0    0  0.00000000000E+00  0.00000000000E+00  0.74505805969E-08  0.10566000000E+00  0.10566000000E+00 0.  1.
     999900   -1    0    0    0    0 -0.00000000000E+00 -0.00000000000E+00 -0.74505805969E-08  0.93827000000E+00  0.93827000000E+00 0. -1.
     999902    2    1    2    0    0 -0.22378405036E-02  0.29794186027E-01 -0.10717187701E-01  0.10121879212E+01  0.10116900851E+01 0.  0.
     999903    2    3    3    0    0  0.50401425199E-01  0.11240213146E+00 -0.17219576410E-01  0.12672914412E+00  0.24273840600E-01 0.  0.
         14    1    1    2    0    0  0.22378405036E-02 -0.29794186027E-01  0.10717187701E-01  0.31742078750E-01  0.00000000000E+00 0.  1.
     999901    1    3    3    0    0 -0.52639265703E-01 -0.82607945435E-01  0.65023887093E-02  0.88545877713E+00  0.88000000000E+00 0. -1.
        -11    1    4    4    0    0  0.31195585901E-01  0.84066008418E-01 -0.31755807233E-02  0.89725156924E-01  0.51100000000E-03 0.  1.
         11    1    4    4    0    0  0.19205839299E-01  0.28336123044E-01 -0.14043995687E-01  0.37003987193E-01  0.51100000000E-03 0. -1.
</event>
<event>
 8    1  0.1196210E+005  0.1043930E+01  0.7957747E-01            NaN
         13   -1    0    0    0    0  0.00000000000E+00  0.00000000000E+00  0.74505805969E-08  0.10566000000E+00  0.10566000000E+00 0. -1.
     999900   -1    0    0    0    0 -0.00000000000E+00 -0.00000000000E+00 -0.74505805969E-08  0.93827000000E+00  0.93827000000E+00 0. -1.
     999902    2    1    2    0    0  0.19078019817E-01  0.48639230470E-02 -0.12542796307E-01  0.10205858288E+01  0.10203188147E+01 0.  0.
     999903    2    3    3    0    0 -0.66173014002E-01 -0.90314936526E-01  0.59755710449E-01  0.12842338391E+00  0.19651082983E-01 0.  0.
         14    1    1    2    0    0 -0.19078019817E-01 -0.48639230470E-02  0.12542796307E-01  0.23344171151E-01  0.00000000000E+00 0. -1.
     999901    1    3    3    0    0  0.85251033819E-01  0.95178859572E-01 -0.72298506756E-01  0.89216244494E+00  0.88000000000E+00 0. -1.
        -11    1    4    4    0    0 -0.13023846725E-01 -0.27866190567E-01  0.23733876405E-01  0.38854898924E-01  0.51100000000E-03 0. -1.
         11    1    4    4    0    0 -0.53149167277E-01 -0.62448745959E-01  0.36021834044E-01  0.89568484988E-01  0.51100000000E-03 0.  1.
</event>
<event>
 7    1  0.1196210E+005  0.1043930E+01  0.7957747E-01            NaN
         13   -1    0    0    0    0  0.00000000000E+00  0.00000000000E+00  0.74505805969E-08  0.10566000000E+00  0.10566000000E+00 0.  1.
     999900   -1    0    0    0    0 -0.00000000000E+00 -0.00000000000E+00 -0.74505805969E-08  0.93827000000E+00  0.93827000000E+00 0.  1.
     999903    2    1    2    0    0 -0.97864363419E-01  0.27021922584E-01 -0.31683651211E-01  0.10809552261E+00  0.19317616998E-01 0.  0.
         14    1    1    2    0    0 -0.42632305532E-02 -0.25008790593E-01 -0.39635871861E-01  0.47059718230E-01  0.00000000000E+00 0.  1.
     999901    1    1    2    0    0  0.10212759397E+00 -0.20131319911E-02  0.71319523072E-01  0.88877475916E+00  0.88000000000E+00 0. -1.
        -11    1    3    3    0    0 -0.70542095151E-01  0.28230780315E-01 -0.23993203220E-01  0.79681234097E-01  0.51100000000E-03 0.  1.
         11    1    3    3    0    0 -0.27322268268E-01 -0.12088577312E-02 -0.76904479913E-02  0.28414288512E-01  0.51100000000E-03 0. -1.
</event>
<event>
 8    1  0.1196210E+005  0.1043930E+01  0.7957747E-01            NaN
         13   -1    0    0    0    0  0.00000000000E+00  0.00000000000E+00  0.74505805969E-08  0.10566000000E+00  0.10566000000E+00 0. -1.
     999900   -1    0    0    0    0 -0.00000000000E+00 -0.00000000000E+00 -0.74505805969E-08  0.93827000000E+00  0.93827000000E+00 0.  1.
     999902    2    1    2    0    0 -0.18196149792E-01 -0.14292440246E-01 -0.60242274404E-03  0.10207840148E+01  0.10205215668E+01 0.  0.
     999903    2    3    3    0    0  0.55050764730E-01 -0.92828795925E-01  0.71904144323E-01  0.13129524487E+00  0.20505201895E-01 0.  0.
         14    1    1    2    0    0  0.18196149792E-01  0.14292440246E-01  0.60242274404E-03  0.23145985150E-01  0.00000000000E+00 0.  1.
     999901    1    3    3    0    0 -0.73246914521E-01  0.78536355679E-01 -0.72506567067E-01  0.88948876998E+00  0.88000000000E+00 0.  1.
        -11    1    4    4    0    0  0.90562710086E-02 -0.24303039313E-01  0.87649105717E-02  0.27381353925E-01  0.51100000000E-03 0.  1.
         11    1    4    4    0    0  0.45994493721E-01 -0.68525756612E-01  0.63139233751E-01  0.10391389095E+00  0.51100000000E-03 0. -1.
</event>
<event>
 7    1  0.1196210E+005  0.1043930E+01  0.7957747E-01            NaN
         13   -1    0    0    0    0  0.00000000000E+00  0.00000000000E+00  0.74505805969E-08  0.10566000000E+00  0.10566000000E+00 0.  1.
     999900   -1    0    0    0    0 -0.00000000000E+00 -0.00000000000E+00 -0.74505805969E-08  0.93827000000E+00  0.93827000000E+00 0.  1.
     999903    2    1    2    0    0 -0.41934763962E-01  0.55010898119E-01  0.64616447949E-01  0.96713732467E-01  0.19837776127E-01 0.  0.
         14    1    1    2    0    0 -0.18734492371E-01 -0.10183352816E-02  0.52498222272E-01  0.55750170877E-01  0.00000000000E+00 0.  1.
     999901    1    1    2    0    0  0.60669256333E-01 -0.53992562837E-01 -0.11711467022E+00  0.89146609666E+00  0.88000000000E+00 0.  1.
        -11    1    3    3    0    0 -0.11038667469E-01  0.31984691365E-02  0.83012766103E-02  0.14186426564E-01  0.51100000000E-03 0.  1.
         11    1    3    3    0    0 -0.30896096493E-01  0.51812428982E-01  0.56315171339E-01  0.82527305902E-01  0.51100000000E-03 0. -1.
</event>
<event>
 8    1  0.1196210E+005  0.1043930E+01  0.7957747E-01            NaN
         13   -1    0    0    0    0  0.00000000000E+00  0.00000000000E+00  0.74505805969E-08  0.10566000000E+00  0.10566000000E+00 0. -1.
     999900   -1    0    0    0    0 -0.00000000000E+00 -0.00000000000E+00 -0.74505805969E-08  0.93827000000E+00  0.93827000000E+00 0.  1.
     999902    2    1    2    0    0 -0.21446918370E-01 -0.12328783185E-01 -0.54625918717E-02  0.10185960482E+01  0.10182809535E+01 0.  0.
     999903    2    3    3    0    0  0.68437935509E-01  0.74231870709E-01  0.73069975217E-01  0.12632960940E+00  0.20635583064E-01 0.  0.
         14    1    1    2    0    0  0.21446918370E-01  0.12328783185E-01  0.54625918717E-02  0.25333951771E-01  0.00000000000E+00 0.  1.
     999901    1    3    3    0    0 -0.89884853878E-01 -0.86560653894E-01 -0.78532567089E-01  0.89226643882E+00  0.88000000000E+00 0.  1.
        -11    1    4    4    0    0  0.15385928951E-01  0.11661292516E-01  0.23744577696E-01  0.30606839820E-01  0.51100000000E-03 0. -1.
         11    1    4    4    0    0  0.53052006558E-01  0.62570578193E-01  0.49325397521E-01  0.95722769584E-01  0.51100000000E-03 0.  1.
</event>
<event>
 8    1  0.1196210E+005  0.1043930E+01  0.7957747E-01            NaN
         13   -1    0    0    0    0  0.00000000000E+00  0.00000000000E+00  0.74505805969E-08  0.10566000000E+00  0.10566000000E+00 0. -1.
     999900   -1    0    0    0    0 -0.00000000000E+00 -0.00000000000E+00 -0.74505805969E-08  0.93827000000E+00  0.93827000000E+00 0.  1.
     999902    2    1    2    0    0  0.22320967038E-01 -0.69862149411E-02 -0.98051889635E-02  0.10185691148E+01  0.10182533413E+01 0.  0.
     999903    2    3    3    0    0 -0.45632491908E-01 -0.11868491177E+00  0.85547807235E-03  0.12884560644E+00  0.20785231738E-01 0.  0.
         14    1    1    2    0    0 -0.22320967038E-01  0.69862149411E-02  0.98051889635E-02  0.25360885224E-01  0.00000000000E+00 0.  1.
     999901    1    3    3    0    0  0.67953458947E-01  0.11169869683E+00 -0.10660667036E-01  0.88972350833E+00  0.88000000000E+00 0.  1.
        -11    1    4    4    0    0 -0.41193107603E-01 -0.11243305480E+00  0.54953568714E-02  0.11986877823E+00  0.51100000000E-03 0. -1.
         11    1    4    4    0    0 -0.44393843053E-02 -0.62518569632E-02 -0.46398787990E-02  0.89768282131E-02  0.51100000000E-03 0.  1.
</event>
<event>
 8    1  0.1196210E+005  0.1043930E+01  0.7957747E-01            NaN
         13   -1    0    0    0    0  0.00000000000E+00  0.00000000000E+00  0.74505805969E-08  0.10566000000E+00  0.10566000000E+00 0. -1.
     999900   -1    0    0    0    0 -0.00000000000E+00 -0.00000000000E+00 -0.74505805969E-08  0.93827000000E+00  0.93827000000E+00 0. -1.
     999902    2    1    2    0    0 -0.16912893727E-01  0.15031749541E-02 -0.18284729474E-01  0.10189773079E+01  0.10186717417E+01 0.  0.
     999903    2    3    3    0    0 -0.79991890313E-01 -0.81740882399E-01 -0.62433631726E-01  0.13170189497E+00  0.19161325530E-01 0.  0.
         14    1    1    2    0    0  0.16912893727E-01 -0.15031749541E-02  0.18284729474E-01  0.24952692061E-01  0.00000000000E+00 0. -1.
     999901    1    3    3    0    0  0.63078996586E-01  0.83244057353E-01  0.44148902252E-01  0.88727541297E+00  0.88000000000E+00 0.  1.
        -11    1    4    4    0    0 -0.59406635087E-02 -0.35665952039E-02 -0.93476563619E-02  0.11646968907E-01  0.51100000000E-03 0. -1.
         11    1    4    4    0    0 -0.74051226805E-01 -0.78174287195E-01 -0.53085975364E-01  0.12005492606E+00  0.51100000000E-03 0.  1.
</event>
<event>
 8    1  0.1196210E+005  0.1043930E+01  0.7957747E-01            NaN
         13   -1    0    0    0    0  0.00000000000E+00  0.00000000000E+00  0.74505805969E-08  0.10566000000E+00  0.10566000000E+00 0. -1.
     999900   -1    0    0    0    0 -0.00000000000E+00 -0.00000000000E+00 -0.74505805969E-08  0.93827000000E+00  0.93827000000E+00 0.  1.
     999902    2    1    2    0    0 -0.89064651201E-02 -0.14034412501E-01 -0.18264566229E-01  0.10192341656E+01  0.10189349342E+01 0.  0.
     999903    2    3    3    0    0  0.23965783495E-01  0.85201042888E-01 -0.92782986175E-01  0.12991911728E+00  0.20897799470E-01 0.  0.
         14    1    1    2    0    0  0.89064651201E-02  0.14034412501E-01  0.18264566229E-01  0.24695834360E-01  0.00000000000E+00 0. -1.
     999901    1    3    3    0    0 -0.32872248615E-01 -0.99235455389E-01  0.74518419946E-01  0.88931504836E+00  0.88000000000E+00 0. -1.
        -11    1    4    4    0    0  0.11375529452E-01  0.32770701377E-01 -0.51097663265E-01  0.61762074538E-01  0.51100000000E-03 0.  1.
         11    1    4    4    0    0  0.12590254043E-01  0.52430341510E-01 -0.41685322909E-01  0.68157042738E-01  0.51100000000E-03 0. -1.
</event>
<event>
 8    1  0.1196210E+005  0.1043930E+01  0.7957747E-01            NaN
         13   -1    0    0    0    0  0.00000000000E+00  0.00000000000E+00  0.74505805969E-08  0.10566000000E+00  0.10566000000E+00 0. -1.
     999900   -1    0    0    0    0 -0.00000000000E+00 -0.00000000000E+00 -0.74505805969E-08  0.93827000000E+00  0.93827000000E+00 0. -1.
     999902    2    1    2    0    0  0.21362052266E-01  0.15915698000E-02 -0.92825803373E-02  0.10205839796E+01  0.10203169227E+01 0.  0.
     999903    2    3    3    0    0 -0.78506843409E-01  0.37687138059E-01 -0.94911234832E-01  0.13007347833E+00  0.18092054361E-01 0.  0.
         14    1    1    2    0    0 -0.21362052266E-01 -0.15915698000E-02  0.92825803373E-02  0.23346020414E-01  0.00000000000E+00 0. -1.
     999901    1    3    3    0    0  0.99868895676E-01 -0.36095568259E-01  0.85628654495E-01  0.89051050125E+00  0.88000000000E+00 0.  1.
        -11    1    4    4    0    0 -0.80342739172E-02  0.10755748118E-01 -0.12629274700E-01  0.18438963512E-01  0.51100000000E-03 0.  1.
         11    1    4    4    0    0 -0.70472569492E-01  0.26931389940E-01 -0.82281960133E-01  0.11163451482E+00  0.51100000000E-03 0. -1.
</event>
<event>
 8    1  0.1196210E+005  0.1043930E+01  0.7957747E-01            NaN
         13   -1    0    0    0    0  0.00000000000E+00  0.00000000000E+00  0.74505805969E-08  0.10566000000E+00  0.10566000000E+00 0. -1.
     999900   -1    0    0    0    0 -0.00000000000E+00 -0.00000000000E+00 -0.74505805969E-08  0.93827000000E+00  0.93827000000E+00 0. -1.
     999902    2    1    2    0    0  0.12933587288E-01 -0.10869037286E-01  0.15867238924E-01  0.10207527930E+01  0.10204896283E+01 0.  0.
     999903    2    3    3    0    0 -0.59085087409E-01 -0.52565315402E-01  0.10435008830E+00  0.13240911869E+00  0.19724954924E-01 0.  0.
         14    1    1    2    0    0 -0.12933587288E-01  0.10869037286E-01 -0.15867238924E-01  0.23177206965E-01  0.00000000000E+00 0.  1.
     999901    1    3    3    0    0  0.72018674697E-01  0.41696278116E-01 -0.88482849376E-01  0.88834367434E+00  0.88000000000E+00 0. -1.
        -11    1    4    4    0    0 -0.26795014691E-01 -0.36850975017E-01  0.60008267977E-01  0.75347332525E-01  0.51100000000E-03 0. -1.
         11    1    4    4    0    0 -0.32290072718E-01 -0.15714340385E-01  0.44341820323E-01  0.57061786166E-01  0.51100000000E-03 0.  1.
</event>
<event>
 8    1  0.1196210E+005  0.1043930E+01  0.7957747E-01            NaN
         13   -1    0    0    0    0  0.00000000000E+00  0.00000000000E+00  0.74505805969E-08  0.10566000000E+00  0.10566000000E+00 0.  1.
     999900   -1    0    0    0    0 -0.00000000000E+00 -0.00000000000E+00 -0.74505805969E-08  0.93827000000E+00  0.93827000000E+00 0. -1.
     999902    2    1    2    0    0 -0.10383248477E-02 -0.43699886688E-02 -0.24184966173E-01  0.10193314735E+01  0.10190346242E+01 0.  0.
     999903    2    3    3    0    0  0.23252129898E-01 -0.12411780112E+00 -0.27662685873E-01  0.13088245448E+00  0.20471995533E-01 0.  0.
         14    1    1    2    0    0  0.10383248477E-02  0.43699886688E-02  0.24184966173E-01  0.24598526547E-01  0.00000000000E+00 0.  1.
     999901    1    3    3    0    0 -0.24290454745E-01  0.11974781245E+00  0.34777197000E-02  0.88844901897E+00  0.88000000000E+00 0. -1.
        -11    1    4    4    0    0  0.18224695203E-01 -0.91094349857E-01 -0.29364503874E-01  0.97431285016E-01  0.51100000000E-03 0. -1.
         11    1    4    4    0    0  0.50274346942E-02 -0.33023451265E-01  0.17018180009E-02  0.33451169465E-01  0.51100000000E-03 0.  1.
</event>
