<event>
 8    1  0.1104109E+005  0.1043930E+01  0.7957747E-01            NaN
         13   -1    0    0    0    0  0.00000000000E+00  0.00000000000E+00  0.74505805969E-08  0.10566000000E+00  0.10566000000E+00 0.  1.
     999900   -1    0    0    0    0 -0.00000000000E+00 -0.00000000000E+00 -0.74505805969E-08  0.93827000000E+00  0.93827000000E+00 0. -1.
     999902    2    1    2    0    0 -0.20959636754E-02 -0.19110513252E-01 -0.12795949367E-01  0.10208358211E+01  0.10205745600E+01 0.  0.
     999903    2    3    3    0    0 -0.10531239421E+00  0.23139037101E-01 -0.73083664953E-01  0.13175018701E+00  0.19768011593E-01 0.  0.
         14    1    1    2    0    0  0.20959636754E-02  0.19110513252E-01  0.12795949367E-01  0.23094178935E-01  0.00000000000E+00 0.  1.
     999901    1    3    3    0    0  0.10321643053E+00 -0.42249550353E-01  0.60287715586E-01  0.88908563406E+00  0.88000000000E+00 0.  1.
        -11    1    4    4    0    0 -0.34786437492E-01  0.16737455697E-01 -0.22052009732E-01  0.44461116841E-01  0.51100000000E-03 0.  1.
         11    1    4    4    0    0 -0.70525956714E-01  0.64015814038E-02 -0.51031655221E-01  0.87289070166E-01  0.51100000000E-03 0. -1.
</event>
<event>
 8    1  0.1104109E+005  0.1043930E+01  0.7957747E-01            NaN
         13   -1    0    0    0    0  0.00000000000E+00  0.00000000000E+00  0.74505805969E-08  0.10566000000E+00  0.10566000000E+00 0. -1.
     999900   -1    0    0    0    0 -0.00000000000E+00 -0.00000000000E+00 -0.74505805969E-08  0.93827000000E+00  0.93827000000E+00 0.  1.
     999902    2    1    2    0    0  0.23538007755E-01 -0.51158962622E-02 -0.19665963947E-02  0.10197623004E+01  0.10194758808E+01 0.  0.
     999903    2    3    3    0    0  0.42865549524E-01 -0.67956643671E-01 -0.10043194425E+00  0.13183328400E+00  0.28946132523E-01 0.  0.
         14    1    1    2    0    0 -0.23538007755E-01  0.51158962622E-02  0.19665963947E-02  0.24167699622E-01  0.00000000000E+00 0. -1.
     999901    1    3    3    0    0 -0.19327541769E-01  0.62840747409E-01  0.98465347857E-01  0.88792901638E+00  0.88000000000E+00 0. -1.
        -11    1    4    4    0    0  0.14953628540E-02 -0.75037052855E-02 -0.27164847240E-01  0.28226437070E-01  0.51100000000E-03 0. -1.
         11    1    4    4    0    0  0.41370186670E-01 -0.60452938385E-01 -0.73267097011E-01  0.10360684693E+00  0.51100000000E-03 0.  1.
</event>
<event>
 8    1  0.1104109E+005  0.1043930E+01  0.7957747E-01            NaN
         13   -1    0    0    0    0  0.00000000000E+00  0.00000000000E+00  0.74505805969E-08  0.10566000000E+00  0.10566000000E+00 0.  1.
     999900   -1    0    0    0    0 -0.00000000000E+00 -0.00000000000E+00 -0.74505805969E-08  0.93827000000E+00  0.93827000000E+00 0.  1.
     999902    2    1    2    0    0 -0.22408190069E-01  0.50272190749E-02 -0.40246910956E-02  0.10206148107E+01  0.10203484668E+01 0.  0.
     999903    2    3    3    0    0  0.66650994150E-01  0.79332259597E-01  0.74985852826E-01  0.12949448022E+00  0.20247959135E-01 0.  0.
         14    1    1    2    0    0  0.22408190069E-01 -0.50272190749E-02  0.40246910956E-02  0.23315189303E-01  0.00000000000E+00 0. -1.
     999901    1    3    3    0    0 -0.89059184219E-01 -0.74305040522E-01 -0.79010543922E-01  0.89112033048E+00  0.88000000000E+00 0.  1.
        -11    1    4    4    0    0  0.17795083050E-01  0.13955222228E-01  0.25325611091E-01  0.33956750527E-01  0.51100000000E-03 0. -1.
         11    1    4    4    0    0  0.48855911100E-01  0.65377037369E-01  0.49660241735E-01  0.95537729692E-01  0.51100000000E-03 0.  1.
</event>
<event>
 8    1  0.1104109E+005  0.1043930E+01  0.7957747E-01            NaN
         13   -1    0    0    0    0  0.00000000000E+00  0.00000000000E+00  0.74505805969E-08  0.10566000000E+00  0.10566000000E+00 0.  1.
     999900   -1    0    0    0    0 -0.00000000000E+00 -0.00000000000E+00 -0.74505805969E-08  0.93827000000E+00  0.93827000000E+00 0.  1.
     999902    2    1    2    0    0 -0.17957736693E-01  0.11374836809E-01  0.13923537949E-01  0.10185187401E+01  0.10182016951E+01 0.  0.
     999903    2    3    3    0    0 -0.11407630890E-01  0.10253143993E-01 -0.12504610355E+00  0.12758848284E+00  0.20175032536E-01 0.  0.
         14    1    1    2    0    0  0.17957736693E-01 -0.11374836809E-01 -0.13923537949E-01  0.25411259878E-01  0.00000000000E+00 0. -1.
     999901    1    3    3    0    0 -0.65501058027E-02  0.11216928167E-02  0.13896964149E+00  0.89093025728E+00  0.88000000000E+00 0. -1.
        -11    1    4    4    0    0 -0.72176427538E-02  0.15864032175E-01 -0.10256139201E+00  0.10403298581E+00  0.51100000000E-03 0. -1.
         11    1    4    4    0    0 -0.41899881363E-02 -0.56108881819E-02 -0.22484711534E-01  0.23555497034E-01  0.51100000000E-03 0.  1.
</event>
<event>
 8    1  0.1104109E+005  0.1043930E+01  0.7957747E-01            NaN
         13   -1    0    0    0    0  0.00000000000E+00  0.00000000000E+00  0.74505805969E-08  0.10566000000E+00  0.10566000000E+00 0.  1.
     999900   -1    0    0    0    0 -0.00000000000E+00 -0.00000000000E+00 -0.74505805969E-08  0.93827000000E+00  0.93827000000E+00 0. -1.
     999902    2    1    2    0    0 -0.14031948531E-01  0.22237985279E-01 -0.39464705761E-02  0.10173405623E+01  0.10169930292E+01 0.  0.
     999903    2    3    3    0    0 -0.76998218143E-01 -0.85702870292E-01  0.49277889292E-01  0.12691998081E+00  0.20165901446E-01 0.  0.
         14    1    1    2    0    0  0.14031948531E-01 -0.22237985279E-01  0.39464705761E-02  0.26589437731E-01  0.00000000000E+00 0. -1.
     999901    1    3    3    0    0  0.62966269612E-01  0.10794085557E+00 -0.53224359868E-01  0.89042058146E+00  0.88000000000E+00 0.  1.
        -11    1    4    4    0    0 -0.49973001660E-01 -0.43225469307E-01  0.33967161636E-01  0.74295163250E-01  0.51100000000E-03 0.  1.
         11    1    4    4    0    0 -0.27025216482E-01 -0.42477400986E-01  0.15310727656E-01  0.52624817555E-01  0.51100000000E-03 0. -1.
</event>
<event>
 8    1  0.1104109E+005  0.1043930E+01  0.7957747E-01            NaN
         13   -1    0    0    0    0  0.00000000000E+00  0.00000000000E+00  0.74505805969E-08  0.10566000000E+00  0.10566000000E+00 0.  1.
     999900   -1    0    0    0    0 -0.00000000000E+00 -0.00000000000E+00 -0.74505805969E-08  0.93827000000E+00  0.93827000000E+00 0.  1.
     999902    2    1    2    0    0 -0.16765425576E-01  0.12831668302E-01 -0.11491232994E-01  0.10198929527E+01  0.10196096583E+01 0.  0.
     999903    2    3    3    0    0 -0.72978360603E-01 -0.96322814294E-02 -0.10848120583E+00  0.13249699942E+00  0.19200543647E-01 0.  0.
         14    1    1    2    0    0  0.16765425576E-01 -0.12831668302E-01  0.11491232994E-01  0.24037047278E-01  0.00000000000E+00 0.  1.
     999901    1    3    3    0    0  0.56212935027E-01  0.22463949731E-01  0.96989972834E-01  0.88739595330E+00  0.88000000000E+00 0. -1.
        -11    1    4    4    0    0 -0.54014531501E-01  0.15637598215E-02 -0.76279094010E-01  0.93481422015E-01  0.51100000000E-03 0.  1.
         11    1    4    4    0    0 -0.18963829102E-01 -0.11196041251E-01 -0.32202111818E-01  0.39015577407E-01  0.51100000000E-03 0. -1.
</event>
<event>
 8    1  0.1104109E+005  0.1043930E+01  0.7957747E-01            NaN
         13   -1    0    0    0    0  0.00000000000E+00  0.00000000000E+00  0.74505805969E-08  0.10566000000E+00  0.10566000000E+00 0. -1.
     999900   -1    0    0    0    0 -0.00000000000E+00 -0.00000000000E+00 -0.74505805969E-08  0.93827000000E+00  0.93827000000E+00 0. -1.
     999902    2    1    2    0    0  0.17836421942E-01 -0.13601208590E-01  0.59346593515E-02  0.10207276078E+01  0.10204638643E+01 0.  0.
     999903    2    3    3    0    0  0.19920630421E-01 -0.10648595094E+00  0.74915952513E-01  0.13315206841E+00  0.19518814456E-01 0.  0.
         14    1    1    2    0    0 -0.17836421942E-01  0.13601208590E-01 -0.59346593515E-02  0.23202392213E-01  0.00000000000E+00 0.  1.
     999901    1    3    3    0    0 -0.20842084796E-02  0.92884742350E-01 -0.68981293162E-01  0.88757553937E+00  0.88000000000E+00 0. -1.
        -11    1    4    4    0    0 -0.11584393649E-03 -0.43588221428E-01  0.35891594137E-01  0.56466043936E-01  0.51100000000E-03 0. -1.
         11    1    4    4    0    0  0.20036474358E-01 -0.62897729513E-01  0.39024358376E-01  0.76686024478E-01  0.51100000000E-03 0.  1.
</event>
<event>
 7    1  0.1104109E+005  0.1043930E+01  0.7957747E-01            NaN
         13   -1    0    0    0    0  0.00000000000E+00  0.00000000000E+00  0.74505805969E-08  0.10566000000E+00  0.10566000000E+00 0.  1.
     999900   -1    0    0    0    0 -0.00000000000E+00 -0.00000000000E+00 -0.74505805969E-08  0.93827000000E+00  0.93827000000E+00 0. -1.
     999902    2    1    2    0    0  0.59454217450E-02  0.20405690778E-01 -0.12528605104E-01  0.10192580280E+01  0.10189593817E+01 0.  0.
         14    1    1    2    0    0 -0.59454217450E-02 -0.20405690778E-01  0.12528605104E-01  0.24671971986E-01  0.00000000000E+00 0.  1.
     999901    1    3    3    0    0  0.32587654298E-01 -0.21543330156E-01 -0.12468572343E+00  0.88964745822E+00  0.88000000000E+00 0. -1.
        -11    1    3    3    0    0 -0.18738751846E-01  0.66496072723E-02  0.75624695459E-01  0.78196635361E-01  0.51100000000E-03 0. -1.
         11    1    3    3    0    0 -0.79034807067E-02  0.35299413661E-01  0.36532422872E-01  0.51413934434E-01  0.51100000000E-03 0.  1.
</event>
<event>
 8    1  0.1104109E+005  0.1043930E+01  0.7957747E-01            NaN
         13   -1    0    0    0    0  0.00000000000E+00  0.00000000000E+00  0.74505805969E-08  0.10566000000E+00  0.10566000000E+00 0.  1.
     999900   -1    0    0    0    0 -0.00000000000E+00 -0.00000000000E+00 -0.74505805969E-08  0.93827000000E+00  0.93827000000E+00 0.  1.
     999902    2    1    2    0    0  0.15113560079E-01 -0.13157430232E-01 -0.12101985108E-01  0.10205206918E+01  0.10202521681E+01 0.  0.
     999903    2    3    3    0    0 -0.11184349015E+00  0.85488236862E-02 -0.62341332788E-01  0.12972708709E+00  0.18990173140E-01 0.  0.
         14    1    1    2    0    0 -0.15113560079E-01  0.13157430232E-01  0.12101985108E-01  0.23409308237E-01  0.00000000000E+00 0.  1.
     999901    1    3    3    0    0  0.12695705023E+00 -0.21706253918E-01  0.50239347680E-01  0.89079360467E+00  0.88000000000E+00 0. -1.
        -11    1    4    4    0    0 -0.12779240026E-01  0.67482557969E-02 -0.10746068143E-01  0.18016299106E-01  0.51100000000E-03 0. -1.
         11    1    4    4    0    0 -0.99064250128E-01  0.18005678893E-02 -0.51595264645E-01  0.11171078799E+00  0.51100000000E-03 0.  1.
</event>
<event>
 8    1  0.1104109E+005  0.1043930E+01  0.7957747E-01            NaN
         13   -1    0    0    0    0  0.00000000000E+00  0.00000000000E+00  0.74505805969E-08  0.10566000000E+00  0.10566000000E+00 0. -1.
     999900   -1    0    0    0    0 -0.00000000000E+00 -0.00000000000E+00 -0.74505805969E-08  0.93827000000E+00  0.93827000000E+00 0. -1.
     999902    2    1    2    0    0  0.18619026444E-01  0.13004749475E-01  0.14147085398E-01  0.10171731003E+01  0.10168211172E+01 0.  0.
     999903    2    3    3    0    0  0.79913232892E-01  0.72114705359E-01 -0.68886986994E-01  0.12917218603E+00  0.18798434650E-01 0.  0.
         14    1    1    2    0    0 -0.18619026444E-01 -0.13004749475E-01 -0.14147085398E-01  0.26756899669E-01  0.00000000000E+00 0.  1.
     999901    1    3    3    0    0 -0.61294206448E-01 -0.59109955884E-01  0.83034072392E-01  0.88800091431E+00  0.88000000000E+00 0.  1.
        -11    1    4    4    0    0  0.21067688862E-01  0.20920597729E-01 -0.29241814002E-01  0.41675697121E-01  0.51100000000E-03 0. -1.
         11    1    4    4    0    0  0.58845544030E-01  0.51194107629E-01 -0.39645172991E-01  0.87496488905E-01  0.51100000000E-03 0.  1.
</event>
<event>
 8    1  0.1104109E+005  0.1043930E+01  0.7957747E-01            NaN
         13   -1    0    0    0    0  0.00000000000E+00  0.00000000000E+00  0.74505805969E-08  0.10566000000E+00  0.10566000000E+00 0.  1.
     999900   -1    0    0    0    0 -0.00000000000E+00 -0.00000000000E+00 -0.74505805969E-08  0.93827000000E+00  0.93827000000E+00 0.  1.
     999902    2    1    2    0    0 -0.22680501277E-02  0.49788111079E-02  0.22756835294E-01  0.10205247407E+01  0.10202563110E+01 0.  0.
     999903    2    3    3    0    0  0.25594141327E-01 -0.77397216190E-01  0.10276110390E+00  0.13262677662E+00  0.19611941683E-01 0.  0.
         14    1    1    2    0    0  0.22680501277E-02 -0.49788111079E-02 -0.22756835294E-01  0.23405259324E-01  0.00000000000E+00 0. -1.
     999901    1    3    3    0    0 -0.27862191455E-01  0.82376027298E-01 -0.80004268606E-01  0.88789796406E+00  0.88000000000E+00 0.  1.
        -11    1    4    4    0    0  0.30515673731E-02 -0.40304356830E-01  0.50746009528E-01  0.64878130729E-01  0.51100000000E-03 0.  1.
         11    1    4    4    0    0  0.22542573954E-01 -0.37092859361E-01  0.52015094372E-01  0.67748645887E-01  0.51100000000E-03 0. -1.
</event>
<event>
 7    1  0.1104109E+005  0.1043930E+01  0.7957747E-01            NaN
         13   -1    0    0    0    0  0.00000000000E+00  0.00000000000E+00  0.74505805969E-08  0.10566000000E+00  0.10566000000E+00 0.  1.
     999900   -1    0    0    0    0 -0.00000000000E+00 -0.00000000000E+00 -0.74505805969E-08  0.93827000000E+00  0.93827000000E+00 0.  1.
     999903    2    1    2    0    0 -0.10068948721E+00 -0.32261665065E-01 -0.23324144341E-01  0.11017181147E+00  0.20362329548E-01 0.  0.
         14    1    1    2    0    0  0.19548220571E-01  0.31362436291E-01  0.33626482756E-01  0.49964744372E-01  0.00000000000E+00 0.  1.
     999901    1    1    2    0    0  0.81141266643E-01  0.89922877364E-03 -0.10302338415E-01  0.88379344416E+00  0.88000000000E+00 0.  1.
        -11    1    3    3    0    0 -0.36958816498E-01 -0.14373680410E-01 -0.18611680831E-01  0.43808818631E-01  0.51100000000E-03 0.  1.
         11    1    3    3    0    0 -0.63730670716E-01 -0.17887984655E-01 -0.47124635101E-02  0.66362992836E-01  0.51100000000E-03 0. -1.
</event>
<event>
 8    1  0.1104109E+005  0.1043930E+01  0.7957747E-01            NaN
         13   -1    0    0    0    0  0.00000000000E+00  0.00000000000E+00  0.74505805969E-08  0.10566000000E+00  0.10566000000E+00 0. -1.
     999900   -1    0    0    0    0 -0.00000000000E+00 -0.00000000000E+00 -0.74505805969E-08  0.93827000000E+00  0.93827000000E+00 0. -1.
     999902    2    1    2    0    0  0.10974665910E-01  0.25821811767E-03 -0.20691408807E-01  0.10205068412E+01  0.10202379961E+01 0.  0.
     999903    2    3    3    0    0 -0.79969428058E-01  0.47669603416E-03  0.97617376286E-01  0.12794432544E+00  0.21101222624E-01 0.  0.
         14    1    1    2    0    0 -0.10974665910E-01 -0.25821811767E-03  0.20691408807E-01  0.23423158772E-01  0.00000000000E+00 0. -1.
     999901    1    3    3    0    0  0.90944093968E-01 -0.21847791649E-03 -0.11830878509E+00  0.89256251579E+00  0.88000000000E+00 0. -1.
        -11    1    4    4    0    0 -0.34535989769E-01 -0.64820341036E-02  0.30133996681E-01  0.46293306562E-01  0.51100000000E-03 0. -1.
         11    1    4    4    0    0 -0.45433438289E-01  0.69587301378E-02  0.67483379605E-01  0.81651018878E-01  0.51100000000E-03 0.  1.
</event>
<event>
 8    1  0.1104109E+005  0.1043930E+01  0.7957747E-01            NaN
         13   -1    0    0    0    0  0.00000000000E+00  0.00000000000E+00  0.74505805969E-08  0.10566000000E+00  0.10566000000E+00 0. -1.
     999900   -1    0    0    0    0 -0.00000000000E+00 -0.00000000000E+00 -0.74505805969E-08  0.93827000000E+00  0.93827000000E+00 0.  1.
     999902    2    1    2    0    0  0.19628949555E-01 -0.39185674190E-02 -0.11280564411E-01  0.10209538827E+01  0.10206953163E+01 0.  0.
     999903    2    3    3    0    0  0.58357832772E-01  0.97688130364E-01  0.62435597321E-01  0.13120227699E+00  0.19163147278E-01 0.  0.
         14    1    1    2    0    0 -0.19628949555E-01  0.39185674190E-02  0.11280564411E-01  0.22976117267E-01  0.00000000000E+00 0. -1.
     999901    1    3    3    0    0 -0.38728883218E-01 -0.10160669778E+00 -0.73716161732E-01  0.88975160575E+00  0.88000000000E+00 0. -1.
        -11    1    4    4    0    0  0.48535738031E-01  0.86393550826E-01  0.46934260592E-01  0.10964784279E+00  0.51100000000E-03 0.  1.
         11    1    4    4    0    0  0.98220947417E-02  0.11294579537E-01  0.15501336729E-01  0.21554434194E-01  0.51100000000E-03 0. -1.
</event>
<event>
 8    1  0.1104109E+005  0.1043930E+01  0.7957747E-01            NaN
         13   -1    0    0    0    0  0.00000000000E+00  0.00000000000E+00  0.74505805969E-08  0.10566000000E+00  0.10566000000E+00 0.  1.
     999900   -1    0    0    0    0 -0.00000000000E+00 -0.00000000000E+00 -0.74505805969E-08  0.93827000000E+00  0.93827000000E+00 0.  1.
     999902    2    1    2    0    0 -0.59524688373E-02  0.23313456579E-01  0.11205571874E-02  0.10198425595E+01  0.10195580618E+01 0.  0.
     999903    2    3    3    0    0 -0.58130551197E-01  0.11077518410E+00  0.40410953188E-01  0.13309804086E+00  0.20778376958E-01 0.  0.
         14    1    1    2    0    0  0.59524688373E-02 -0.23313456579E-01 -0.11205571874E-02  0.24087440531E-01  0.00000000000E+00 0. -1.
     999901    1    3    3    0    0  0.52178082360E-01 -0.87461727522E-01 -0.39290396000E-01  0.88674451861E+00  0.88000000000E+00 0. -1.
        -11    1    4    4    0    0 -0.79477001355E-02  0.33524697349E-01  0.74159291759E-02  0.35246679224E-01  0.51100000000E-03 0. -1.
         11    1    4    4    0    0 -0.50182851062E-01  0.77250486752E-01  0.32995024012E-01  0.97851361639E-01  0.51100000000E-03 0.  1.
</event>
<event>
 8    1  0.1104109E+005  0.1043930E+01  0.7957747E-01            NaN
         13   -1    0    0    0    0  0.00000000000E+00  0.00000000000E+00  0.74505805969E-08  0.10566000000E+00  0.10566000000E+00 0.  1.
     999900   -1    0    0    0    0 -0.00000000000E+00 -0.00000000000E+00 -0.74505805969E-08  0.93827000000E+00  0.93827000000E+00 0.  1.
     999902    2    1    2    0    0  0.12909639634E-02 -0.43379138509E-02  0.25738506875E-01  0.10177965957E+01  0.10174610338E+01 0.  0.
     999903    2    3    3    0    0 -0.86885819373E-01 -0.84834262445E-01  0.40861723719E-01  0.12960544569E+00  0.19542092880E-01 0.  0.
         14    1    1    2    0    0 -0.12909639634E-02  0.43379138509E-02 -0.25738506875E-01  0.26133404307E-01  0.00000000000E+00 0. -1.
     999901    1    3    3    0    0  0.88176783337E-01  0.80496348595E-01 -0.15123216844E-01  0.88819115000E+00  0.88000000000E+00 0. -1.
        -11    1    4    4    0    0 -0.25541361609E-01 -0.24213095474E-01  0.21394092472E-01  0.41189846552E-01  0.51100000000E-03 0. -1.
         11    1    4    4    0    0 -0.61344457765E-01 -0.60621166972E-01  0.19467631247E-01  0.88415599137E-01  0.51100000000E-03 0.  1.
</event>
<event>
 8    1  0.1104109E+005  0.1043930E+01  0.7957747E-01            NaN
         13   -1    0    0    0    0  0.00000000000E+00  0.00000000000E+00  0.74505805969E-08  0.10566000000E+00  0.10566000000E+00 0. -1.
     999900   -1    0    0    0    0 -0.00000000000E+00 -0.00000000000E+00 -0.74505805969E-08  0.93827000000E+00  0.93827000000E+00 0.  1.
     999902    2    1    2    0    0 -0.48874542162E-02  0.17587616139E-01  0.34575397518E-02  0.10253513555E+01  0.10251830257E+01 0.  0.
     999903    2    3    3    0    0 -0.63617569959E-01  0.11887572171E+00  0.16965574512E-01  0.13749383663E+00  0.20930646707E-01 0.  0.
         14    1    1    2    0    0  0.48874542162E-02 -0.17587616139E-01 -0.34575397518E-02  0.18578644496E-01  0.00000000000E+00 0. -1.
     999901    1    3    3    0    0  0.58730115743E-01 -0.10128810557E+00 -0.13508034761E-01  0.88785751888E+00  0.88000000000E+00 0. -1.
        -11    1    4    4    0    0 -0.58897683351E-01  0.92632568398E-01  0.13389042207E-01  0.11058597291E+00  0.51100000000E-03 0. -1.
         11    1    4    4    0    0 -0.47198866078E-02  0.26243153314E-01  0.35765323051E-02  0.26907863716E-01  0.51100000000E-03 0.  1.
</event>
<event>
 8    1  0.1104109E+005  0.1043930E+01  0.7957747E-01            NaN
         13   -1    0    0    0    0  0.00000000000E+00  0.00000000000E+00  0.74505805969E-08  0.10566000000E+00  0.10566000000E+00 0.  1.
     999900   -1    0    0    0    0 -0.00000000000E+00 -0.00000000000E+00 -0.74505805969E-08  0.93827000000E+00  0.93827000000E+00 0. -1.
     999902    2    1    2    0    0  0.44489065020E-03 -0.10650560712E-01 -0.21636023307E-01  0.10198105084E+01  0.10195252440E+01 0.  0.
     999903    2    3    3    0    0  0.33474021768E-01 -0.36398565893E-01  0.11633656437E+00  0.12807606461E+00  0.20589229766E-01 0.  0.
         14    1    1    2    0    0 -0.44489065020E-03  0.10650560712E-01  0.21636023307E-01  0.24119491614E-01  0.00000000000E+00 0.  1.
     999901    1    3    3    0    0 -0.33029131118E-01  0.25748005181E-01 -0.13797258768E+00  0.89173444378E+00  0.88000000000E+00 0. -1.
        -11    1    4    4    0    0  0.17773878688E-01 -0.15418080226E-01  0.79195131309E-01  0.82618145135E-01  0.51100000000E-03 0. -1.
         11    1    4    4    0    0  0.15700143080E-01 -0.20980485667E-01  0.37141433064E-01  0.45457919471E-01  0.51100000000E-03 0.  1.
</event>
<event>
 8    1  0.1104109E+005  0.1043930E+01  0.7957747E-01            NaN
         13   -1    0    0    0    0  0.00000000000E+00  0.00000000000E+00  0.74505805969E-08  0.10566000000E+00  0.10566000000E+00 0. -1.
     999900   -1    0    0    0    0 -0.00000000000E+00 -0.00000000000E+00 -0.74505805969E-08  0.93827000000E+00  0.93827000000E+00 0.  1.
     999902    2    1    2    0    0 -0.22456367129E-01 -0.14390248041E-01  0.22829938906E-01  0.10088219700E+01  0.10082108873E+01 0.  0.
     999903    2    3    3    0    0 -0.58277554015E-01  0.83705936687E-01  0.63336360333E-01  0.12172175630E+00  0.20043310053E-01 0.  0.
         14    1    1    2    0    0  0.22456367129E-01  0.14390248041E-01 -0.22829938906E-01  0.35108030046E-01  0.00000000000E+00 0.  1.
     999901    1    3    3    0    0  0.35821186887E-01 -0.98096184728E-01 -0.40506421427E-01  0.88710021365E+00  0.88000000000E+00 0.  1.
        -11    1    4    4    0    0 -0.33707672051E-01  0.32837756373E-01  0.23555791273E-01  0.52627576633E-01  0.51100000000E-03 0. -1.
         11    1    4    4    0    0 -0.24569881964E-01  0.50868180313E-01  0.39780569060E-01  0.69094179667E-01  0.51100000000E-03 0.  1.
</event>
<event>
 8    1  0.1104109E+005  0.1043930E+01  0.7957747E-01            NaN
         13   -1    0    0    0    0  0.00000000000E+00  0.00000000000E+00  0.74505805969E-08  0.10566000000E+00  0.10566000000E+00 0.  1.
     999900   -1    0    0    0    0 -0.00000000000E+00 -0.00000000000E+00 -0.74505805969E-08  0.93827000000E+00  0.93827000000E+00 0.  1.
     999902    2    1    2    0    0 -0.78571159071E-02 -0.17861363333E-01  0.14480728482E-01  0.10196307394E+01  0.10193411551E+01 0.  0.
     999903    2    3    3    0    0  0.19479083876E-01 -0.11761970446E+00  0.54592278500E-01  0.13266516455E+00  0.20146945851E-01 0.  0.
         14    1    1    2    0    0  0.78571159071E-02  0.17861363333E-01 -0.14480728482E-01  0.24299260644E-01  0.00000000000E+00 0. -1.
     999901    1    3    3    0    0 -0.27336199783E-01  0.99758341129E-01 -0.40111550018E-01  0.88696557480E+00  0.88000000000E+00 0. -1.
        -11    1    4    4    0    0  0.16079430436E-01 -0.10048911575E+00  0.53942343465E-01  0.11518093595E+00  0.51100000000E-03 0.  1.
         11    1    4    4    0    0  0.33996534398E-02 -0.17130588712E-01  0.64993503469E-03  0.17484228599E-01  0.51100000000E-03 0. -1.
</event>
<event>
 8    1  0.1104109E+005  0.1043930E+01  0.7957747E-01            NaN
         13   -1    0    0    0    0  0.00000000000E+00  0.00000000000E+00  0.74505805969E-08  0.10566000000E+00  0.10566000000E+00 0. -1.
     999900   -1    0    0    0    0 -0.00000000000E+00 -0.00000000000E+00 -0.74505805969E-08  0.93827000000E+00  0.93827000000E+00 0.  1.
     999902    2    1    2    0    0 -0.42625408367E-02 -0.57392854646E-02  0.22398579849E-01  0.10204181938E+01  0.10201472860E+01 0.  0.
     999903    2    3    3    0    0  0.32887959887E-01 -0.37719158537E-01 -0.11631523676E+00  0.12820499343E+00  0.20073196307E-01 0.  0.
         14    1    1    2    0    0  0.42625408367E-02  0.57392854646E-02 -0.22398579849E-01  0.23511806211E-01  0.00000000000E+00 0.  1.
     999901    1    3    3    0    0 -0.37150500723E-01  0.31979873073E-01  0.13871381661E+00  0.89221320036E+00  0.88000000000E+00 0. -1.
        -11    1    4    4    0    0  0.28705826631E-01 -0.18314489695E-01 -0.74533969625E-01  0.81945218069E-01  0.51100000000E-03 0.  1.
         11    1    4    4    0    0  0.41821332555E-02 -0.19404668842E-01 -0.41781267136E-01  0.46259775356E-01  0.51100000000E-03 0. -1.
</event>
<event>
 8    1  0.1104109E+005  0.1043930E+01  0.7957747E-01            NaN
         13   -1    0    0    0    0  0.00000000000E+00  0.00000000000E+00  0.74505805969E-08  0.10566000000E+00  0.10566000000E+00 0. -1.
     999900   -1    0    0    0    0 -0.00000000000E+00 -0.00000000000E+00 -0.74505805969E-08  0.93827000000E+00  0.93827000000E+00 0.  1.
     999902    2    1    2    0    0  0.23911551852E-02  0.59291512167E-02 -0.22490135383E-01  0.10205488399E+01  0.10202809692E+01 0.  0.
     999903    2    3    3    0    0 -0.85497204343E-01 -0.72490826961E-01 -0.66086076548E-01  0.13163114811E+00  0.19867000176E-01 0.  0.
         14    1    1    2    0    0 -0.23911551852E-02 -0.59291512167E-02  0.22490135383E-01  0.23381160082E-01  0.00000000000E+00 0. -1.
     999901    1    3    3    0    0  0.87888359528E-01  0.78419978178E-01  0.43595941165E-01  0.88891769181E+00  0.88000000000E+00 0.  1.
        -11    1    4    4    0    0 -0.57413360732E-01 -0.50526875650E-01 -0.34135824879E-01  0.83754252517E-01  0.51100000000E-03 0. -1.
         11    1    4    4    0    0 -0.28083843611E-01 -0.21963951311E-01 -0.31950251670E-01  0.47876895596E-01  0.51100000000E-03 0.  1.
</event>
<event>
 8    1  0.1104109E+005  0.1043930E+01  0.7957747E-01            NaN
         13   -1    0    0    0    0  0.00000000000E+00  0.00000000000E+00  0.74505805969E-08  0.10566000000E+00  0.10566000000E+00 0. -1.
     999900   -1    0    0    0    0 -0.00000000000E+00 -0.00000000000E+00 -0.74505805969E-08  0.93827000000E+00  0.93827000000E+00 0. -1.
     999902    2    1    2    0    0 -0.41837909610E-02  0.59782933448E-02  0.22733888173E-01  0.10200537823E+01  0.10197743109E+01 0.  0.
     999903    2    3    3    0    0  0.52642852983E-01  0.10811466722E+00 -0.44642553138E-01  0.12977253960E+00  0.19695259481E-01 0.  0.
         14    1    1    2    0    0  0.41837909610E-02 -0.59782933448E-02 -0.22733888173E-01  0.23876217657E-01  0.00000000000E+00 0.  1.
     999901    1    3    3    0    0 -0.56826643944E-01 -0.10213637388E+00  0.67376441311E-01  0.89028124274E+00  0.88000000000E+00 0. -1.
        -11    1    4    4    0    0  0.23573467331E-01  0.41216362160E-01 -0.80364649515E-02  0.48159555247E-01  0.51100000000E-03 0. -1.
         11    1    4    4    0    0  0.29069385652E-01  0.66898305061E-01 -0.36606088187E-01  0.81612984356E-01  0.51100000000E-03 0.  1.
</event>
<event>
 8    1  0.1104109E+005  0.1043930E+01  0.7957747E-01            NaN
         13   -1    0    0    0    0  0.00000000000E+00  0.00000000000E+00  0.74505805969E-08  0.10566000000E+00  0.10566000000E+00 0.  1.
     999900   -1    0    0    0    0 -0.00000000000E+00 -0.00000000000E+00 -0.74505805969E-08  0.93827000000E+00  0.93827000000E+00 0. -1.
     999902    2    1    2    0    0 -0.53762941729E-02  0.47484792421E-02 -0.21852957697E-01  0.10209299053E+01  0.10206707928E+01 0.  0.
     999903    2    3    3    0    0 -0.49732664013E-01 -0.76701651480E-01 -0.95594570824E-01  0.13298878294E+00  0.13827986416E-01 0.  0.
         14    1    1    2    0    0  0.53762941729E-02 -0.47484792421E-02  0.21852957697E-01  0.23000094658E-01  0.00000000000E+00 0.  1.
     999901    1    3    3    0    0  0.44356369840E-01  0.81450130722E-01  0.73741613127E-01  0.88794112240E+00  0.88000000000E+00 0.  1.
        -11    1    4    4    0    0 -0.38180676259E-01 -0.61806674228E-01 -0.83042587705E-01  0.11033658284E+00  0.51100000000E-03 0.  1.
         11    1    4    4    0    0 -0.11551987754E-01 -0.14894977252E-01 -0.12551983119E-01  0.22652200106E-01  0.51100000000E-03 0. -1.
</event>
<event>
 8    1  0.1104109E+005  0.1043930E+01  0.7957747E-01            NaN
         13   -1    0    0    0    0  0.00000000000E+00  0.00000000000E+00  0.74505805969E-08  0.10566000000E+00  0.10566000000E+00 0. -1.
     999900   -1    0    0    0    0 -0.00000000000E+00 -0.00000000000E+00 -0.74505805969E-08  0.93827000000E+00  0.93827000000E+00 0.  1.
     999902    2    1    2    0    0  0.22166783741E-01 -0.48171448344E-02 -0.93458077317E-02  0.10193960377E+01  0.10191007636E+01 0.  0.
     999903    2    3    3    0    0 -0.62692113020E-01  0.95402346790E-01 -0.54493019289E-01  0.12850701563E+00  0.22641888348E-01 0.  0.
         14    1    1    2    0    0 -0.22166783741E-01  0.48171448344E-02  0.93458077317E-02  0.24533962337E-01  0.00000000000E+00 0.  1.
     999901    1    3    3    0    0  0.84858896761E-01 -0.10021949162E+00  0.45147211558E-01  0.89088902203E+00  0.88000000000E+00 0.  1.
        -11    1    4    4    0    0 -0.43941311699E-01  0.81680623178E-01 -0.47674491653E-01  0.10428653485E+00  0.51100000000E-03 0. -1.
         11    1    4    4    0    0 -0.18750801321E-01  0.13721723611E-01 -0.68185276362E-02  0.24220480779E-01  0.51100000000E-03 0.  1.
</event>
<event>
 8    1  0.1104109E+005  0.1043930E+01  0.7957747E-01            NaN
         13   -1    0    0    0    0  0.00000000000E+00  0.00000000000E+00  0.74505805969E-08  0.10566000000E+00  0.10566000000E+00 0.  1.
     999900   -1    0    0    0    0 -0.00000000000E+00 -0.00000000000E+00 -0.74505805969E-08  0.93827000000E+00  0.93827000000E+00 0. -1.
     999902    2    1    2    0    0 -0.54850738175E-02  0.19894491366E-01  0.12207088020E-01  0.10199531399E+01  0.10196712793E+01 0.  0.
     999903    2    3    3    0    0 -0.15283509758E-01  0.10440065131E+00 -0.75738887490E-01  0.13148716138E+00  0.20479571897E-01 0.  0.
         14    1    1    2    0    0  0.54850738175E-02 -0.19894491366E-01 -0.12207088020E-01  0.23976860083E-01  0.00000000000E+00 0.  1.
     999901    1    3    3    0    0  0.97984359408E-02 -0.84506159940E-01  0.87945975510E-01  0.88846597854E+00  0.88000000000E+00 0.  1.
        -11    1    4    4    0    0 -0.16039841855E-01  0.52653967670E-01 -0.46415375329E-01  0.72002534859E-01  0.51100000000E-03 0.  1.
         11    1    4    4    0    0  0.75633209673E-03  0.51746683636E-01 -0.29323512161E-01  0.59484626518E-01  0.51100000000E-03 0. -1.
</event>
<event>
 8    1  0.1104109E+005  0.1043930E+01  0.7957747E-01            NaN
         13   -1    0    0    0    0  0.00000000000E+00  0.00000000000E+00  0.74505805969E-08  0.10566000000E+00  0.10566000000E+00 0.  1.
     999900   -1    0    0    0    0 -0.00000000000E+00 -0.00000000000E+00 -0.74505805969E-08  0.93827000000E+00  0.93827000000E+00 0. -1.
     999902    2    1    2    0    0 -0.11385188500E-01  0.12885655803E-01  0.15376486986E-01  0.10208627289E+01  0.10206020832E+01 0.  0.
     999903    2    3    3    0    0 -0.86862604676E-01  0.45823152026E-02  0.99259203097E-01  0.13361862730E+00  0.20867162184E-01 0.  0.
         14    1    1    2    0    0  0.11385188500E-01 -0.12885655803E-01 -0.15376486986E-01  0.23067271071E-01  0.00000000000E+00 0.  1.
     999901    1    3    3    0    0  0.75477416175E-01  0.83033406002E-02 -0.83882716111E-01  0.88724410163E+00  0.88000000000E+00 0. -1.
        -11    1    4    4    0    0 -0.12159769158E-01 -0.65967469170E-02  0.13492582168E-01  0.19331010073E-01  0.51100000000E-03 0. -1.
         11    1    4    4    0    0 -0.74702835517E-01  0.11179062120E-01  0.85766620930E-01  0.11428761722E+00  0.51100000000E-03 0.  1.
</event>
<event>
 8    1  0.1104109E+005  0.1043930E+01  0.7957747E-01            NaN
         13   -1    0    0    0    0  0.00000000000E+00  0.00000000000E+00  0.74505805969E-08  0.10566000000E+00  0.10566000000E+00 0.  1.
     999900   -1    0    0    0    0 -0.00000000000E+00 -0.00000000000E+00 -0.74505805969E-08  0.93827000000E+00  0.93827000000E+00 0.  1.
     999902    2    1    2    0    0 -0.22952600748E-03 -0.21480150487E-01  0.45949101168E-02  0.10219626891E+01  0.10217265658E+01 0.  0.
     999903    2    3    3    0    0 -0.98336197655E-01 -0.63829869329E-01  0.61219814352E-01  0.13369201109E+00  0.19530186212E-01 0.  0.
         14    1    1    2    0    0  0.22952600748E-03  0.21480150487E-01 -0.45949101168E-02  0.21967310853E-01  0.00000000000E+00 0.  1.
     999901    1    3    3    0    0  0.98106671647E-01  0.42349718842E-01 -0.56624904235E-01  0.88827067805E+00  0.88000000000E+00 0.  1.
        -11    1    4    4    0    0 -0.47585880065E-01 -0.24611286706E-01  0.18733976206E-01  0.56756976667E-01  0.51100000000E-03 0. -1.
         11    1    4    4    0    0 -0.50750317589E-01 -0.39218582623E-01  0.42485838146E-01  0.76935034427E-01  0.51100000000E-03 0.  1.
</event>
<event>
 8    1  0.1104109E+005  0.1043930E+01  0.7957747E-01            NaN
         13   -1    0    0    0    0  0.00000000000E+00  0.00000000000E+00  0.74505805969E-08  0.10566000000E+00  0.10566000000E+00 0. -1.
     999900   -1    0    0    0    0 -0.00000000000E+00 -0.00000000000E+00 -0.74505805969E-08  0.93827000000E+00  0.93827000000E+00 0. -1.
     999902    2    1    2    0    0 -0.18756498235E-01 -0.89644148564E-02  0.18614268089E-01  0.10160255571E+01  0.10156422966E+01 0.  0.
     999903    2    3    3    0    0  0.18284100410E-01 -0.11897922925E+00  0.38656666805E-01  0.12817592841E+00  0.21079976623E-01 0.  0.
         14    1    1    2    0    0  0.18756498235E-01  0.89644148564E-02 -0.18614268089E-01  0.27904442948E-01  0.00000000000E+00 0.  1.
     999901    1    3    3    0    0 -0.37040598645E-01  0.11001481439E+00 -0.20042398715E-01  0.88784962864E+00  0.88000000000E+00 0. -1.
        -11    1    4    4    0    0 -0.47107930551E-02 -0.18663039310E-01  0.71909482407E-02  0.20554110662E-01  0.51100000000E-03 0.  1.
         11    1    4    4    0    0  0.22994893465E-01 -0.10031618994E+00  0.31465718564E-01  0.10762181775E+00  0.51100000000E-03 0. -1.
</event>
<event>
 8    1  0.1104109E+005  0.1043930E+01  0.7957747E-01            NaN
         13   -1    0    0    0    0  0.00000000000E+00  0.00000000000E+00  0.74505805969E-08  0.10566000000E+00  0.10566000000E+00 0. -1.
     999900   -1    0    0    0    0 -0.00000000000E+00 -0.00000000000E+00 -0.74505805969E-08  0.93827000000E+00  0.93827000000E+00 0.  1.
     999902    2    1    2    0    0  0.10193443792E-01  0.23694586445E-01  0.73926592721E-03  0.10181252284E+01  0.10177981600E+01 0.  0.
     999903    2    3    3    0    0 -0.15802102055E-01 -0.38422198335E-01 -0.12020012188E+00  0.12730504516E+00  0.57038117007E-02 0.  0.
         14    1    1    2    0    0 -0.10193443792E-01 -0.23694586445E-01 -0.73926592721E-03  0.25804771598E-01  0.00000000000E+00 0. -1.
     999901    1    3    3    0    0  0.25995545847E-01  0.62116784780E-01  0.12093938781E+00  0.89082018325E+00  0.88000000000E+00 0. -1.
        -11    1    4    4    0    0 -0.10268648262E-01 -0.26421646089E-01 -0.89338091620E-01  0.93728886979E-01  0.51100000000E-03 0.  1.
         11    1    4    4    0    0 -0.55334537933E-02 -0.12000552246E-01 -0.30862030260E-01  0.33576158176E-01  0.51100000000E-03 0. -1.
</event>
<event>
 8    1  0.1104109E+005  0.1043930E+01  0.7957747E-01            NaN
         13   -1    0    0    0    0  0.00000000000E+00  0.00000000000E+00  0.74505805969E-08  0.10566000000E+00  0.10566000000E+00 0.  1.
     999900   -1    0    0    0    0 -0.00000000000E+00 -0.00000000000E+00 -0.74505805969E-08  0.93827000000E+00  0.93827000000E+00 0.  1.
     999902    2    1    2    0    0  0.31793445354E-02 -0.21947731991E-01  0.92020417499E-02  0.10199198200E+01  0.10196371661E+01 0.  0.
     999903    2    3    3    0    0  0.40238935993E-01  0.61623972517E-01  0.10447757694E+00  0.13006866912E+00  0.24199352198E-01 0.  0.
         14    1    1    2    0    0 -0.31793445354E-02  0.21947731991E-01 -0.92020417499E-02  0.24010179999E-01  0.00000000000E+00 0. -1.
     999901    1    3    3    0    0 -0.37059591457E-01 -0.83571704507E-01 -0.95275535185E-01  0.88985115088E+00  0.88000000000E+00 0.  1.
        -11    1    4    4    0    0  0.40873914857E-02  0.22277103123E-01  0.43085460310E-01  0.48678476803E-01  0.51100000000E-03 0. -1.
         11    1    4    4    0    0  0.36151544507E-01  0.39346869393E-01  0.61392116625E-01  0.81390192321E-01  0.51100000000E-03 0.  1.
</event>
<event>
 8    1  0.1104109E+005  0.1043930E+01  0.7957747E-01            NaN
         13   -1    0    0    0    0  0.00000000000E+00  0.00000000000E+00  0.74505805969E-08  0.10566000000E+00  0.10566000000E+00 0.  1.
     999900   -1    0    0    0    0 -0.00000000000E+00 -0.00000000000E+00 -0.74505805969E-08  0.93827000000E+00  0.93827000000E+00 0.  1.
     999902    2    1    2    0    0 -0.10781842386E-01 -0.20389977816E-01  0.61301178581E-02  0.10200641737E+01  0.10197849483E+01 0.  0.
     999903    2    3    3    0    0  0.74840412124E-01 -0.10549608515E+00  0.15283769307E-01  0.13177480118E+00  0.20012330060E-01 0.  0.
         14    1    1    2    0    0  0.10781842386E-01  0.20389977816E-01 -0.61301178581E-02  0.23865826311E-01  0.00000000000E+00 0. -1.
     999901    1    3    3    0    0 -0.85622254510E-01  0.85106107330E-01 -0.91536514485E-02  0.88828937251E+00  0.88000000000E+00 0.  1.
        -11    1    4    4    0    0  0.55551960910E-01 -0.80019547236E-01  0.27685319496E-02  0.97452933208E-01  0.51100000000E-03 0.  1.
         11    1    4    4    0    0  0.19288451215E-01 -0.25476537911E-01  0.12515237357E-01  0.34321867975E-01  0.51100000000E-03 0. -1.
</event>
<event>
 8    1  0.1104109E+005  0.1043930E+01  0.7957747E-01            NaN
         13   -1    0    0    0    0  0.00000000000E+00  0.00000000000E+00  0.74505805969E-08  0.10566000000E+00  0.10566000000E+00 0.  1.
     999900   -1    0    0    0    0 -0.00000000000E+00 -0.00000000000E+00 -0.74505805969E-08  0.93827000000E+00  0.93827000000E+00 0. -1.
     999902    2    1    2    0    0 -0.25246846831E-03  0.17456235558E-01  0.16278492567E-01  0.10200600771E+01  0.10197807547E+01 0.  0.
     999903    2    3    3    0    0 -0.31455781180E-02 -0.95468625033E-01  0.86006088560E-01  0.13010371193E+00  0.20143871536E-01 0.  0.
         14    1    1    2    0    0  0.25246846831E-03 -0.17456235558E-01 -0.16278492567E-01  0.23869922925E-01  0.00000000000E+00 0.  1.
     999901    1    3    3    0    0  0.28931096497E-02  0.11292486059E+00 -0.69727595993E-01  0.88995636515E+00  0.88000000000E+00 0. -1.
        -11    1    4    4    0    0  0.41900696482E-02 -0.78136898998E-01  0.63596088624E-01  0.10083479200E+00  0.51100000000E-03 0.  1.
         11    1    4    4    0    0 -0.73356477663E-02 -0.17331726036E-01  0.22409999936E-01  0.29268919926E-01  0.51100000000E-03 0. -1.
</event>
<event>
 8    1  0.1104109E+005  0.1043930E+01  0.7957747E-01            NaN
         13   -1    0    0    0    0  0.00000000000E+00  0.00000000000E+00  0.74505805969E-08  0.10566000000E+00  0.10566000000E+00 0.  1.
     999900   -1    0    0    0    0 -0.00000000000E+00 -0.00000000000E+00 -0.74505805969E-08  0.93827000000E+00  0.93827000000E+00 0.  1.
     999902    2    1    2    0    0 -0.15296667325E-01 -0.43368527099E-03  0.22613540283E-01  0.10166252693E+01  0.10162585251E+01 0.  0.
     999903    2    3    3    0    0 -0.11961234661E+00  0.16050167997E-01  0.44136033397E-01  0.13004944284E+00  0.20003669248E-01 0.  0.
         14    1    1    2    0    0  0.15296667325E-01  0.43368527099E-03 -0.22613540283E-01  0.27304730695E-01  0.00000000000E+00 0. -1.
     999901    1    3    3    0    0  0.10431567929E+00 -0.16483853268E-01 -0.21522493113E-01  0.88657582647E+00  0.88000000000E+00 0.  1.
        -11    1    4    4    0    0 -0.73666270495E-01  0.15969497745E-01  0.35398819485E-01  0.83277138572E-01  0.51100000000E-03 0.  1.
         11    1    4    4    0    0 -0.45946076120E-01  0.80670252278E-04  0.87372139112E-02  0.46772304267E-01  0.51100000000E-03 0. -1.
</event>
<event>
 8    1  0.1104109E+005  0.1043930E+01  0.7957747E-01            NaN
         13   -1    0    0    0    0  0.00000000000E+00  0.00000000000E+00  0.74505805969E-08  0.10566000000E+00  0.10566000000E+00 0.  1.
     999900   -1    0    0    0    0 -0.00000000000E+00 -0.00000000000E+00 -0.74505805969E-08  0.93827000000E+00  0.93827000000E+00 0.  1.
     999902    2    1    2    0    0  0.19795756864E-01  0.16974851086E-01 -0.87834641746E-02  0.10164133359E+01  0.10160407977E+01 0.  0.
     999903    2    3    3    0    0 -0.10561722374E+00  0.92410704963E-02  0.62453065871E-01  0.12463821276E+00  0.19846997507E-01 0.  0.
         14    1    1    2    0    0 -0.19795756864E-01 -0.16974851086E-01  0.87834641746E-02  0.27516664081E-01  0.00000000000E+00 0. -1.
     999901    1    3    3    0    0  0.12541298060E+00  0.77337805898E-02 -0.71236530046E-01  0.89177512316E+00  0.88000000000E+00 0. -1.
        -11    1    4    4    0    0 -0.41401670654E-01 -0.59469511872E-02  0.25959543485E-01  0.49230311600E-01  0.51100000000E-03 0. -1.
         11    1    4    4    0    0 -0.64215553086E-01  0.15188021683E-01  0.36493522386E-01  0.75407901163E-01  0.51100000000E-03 0.  1.
</event>
<event>
 8    1  0.1104109E+005  0.1043930E+01  0.7957747E-01            NaN
         13   -1    0    0    0    0  0.00000000000E+00  0.00000000000E+00  0.74505805969E-08  0.10566000000E+00  0.10566000000E+00 0.  1.
     999900   -1    0    0    0    0 -0.00000000000E+00 -0.00000000000E+00 -0.74505805969E-08  0.93827000000E+00  0.93827000000E+00 0.  1.
     999902    2    1    2    0    0 -0.16214237788E-01 -0.16606271001E-01 -0.47075702580E-02  0.10202481301E+01  0.10199732428E+01 0.  0.
     999903    2    3    3    0    0 -0.73695571635E-01  0.32227735885E-01 -0.10228256074E+00  0.13164825236E+00  0.19996896772E-01 0.  0.
         14    1    1    2    0    0  0.16214237788E-01  0.16606271001E-01  0.47075702580E-02  0.23681869887E-01  0.00000000000E+00 0.  1.
     999901    1    3    3    0    0  0.57481333847E-01 -0.48834006887E-01  0.97574990478E-01  0.88859987775E+00  0.88000000000E+00 0. -1.
        -11    1    4    4    0    0 -0.46516727629E-01  0.18792955293E-01 -0.78267321269E-01  0.92967821409E-01  0.51100000000E-03 0.  1.
         11    1    4    4    0    0 -0.27178844006E-01  0.13434780593E-01 -0.24015239467E-01  0.38680430954E-01  0.51100000000E-03 0. -1.
</event>
<event>
 8    1  0.1104109E+005  0.1043930E+01  0.7957747E-01            NaN
         13   -1    0    0    0    0  0.00000000000E+00  0.00000000000E+00  0.74505805969E-08  0.10566000000E+00  0.10566000000E+00 0.  1.
     999900   -1    0    0    0    0 -0.00000000000E+00 -0.00000000000E+00 -0.74505805969E-08  0.93827000000E+00  0.93827000000E+00 0.  1.
     999902    2    1    2    0    0  0.89827922620E-02  0.20486618785E-01 -0.54049345945E-02  0.10209168424E+01  0.10206574321E+01 0.  0.
     999903    2    3    3    0    0 -0.96191048741E-01 -0.13760071645E-01  0.83546966306E-01  0.12954328807E+00  0.18955486678E-01 0.  0.
         14    1    1    2    0    0 -0.89827922620E-02 -0.20486618785E-01  0.54049345945E-02  0.23013157628E-01  0.00000000000E+00 0.  1.
     999901    1    3    3    0    0  0.10517384100E+00  0.34246690430E-01 -0.88951900901E-01  0.89137355430E+00  0.88000000000E+00 0.  1.
        -11    1    4    4    0    0 -0.76167767669E-01 -0.63372050947E-02  0.73110662609E-01  0.10576917844E+00  0.51100000000E-03 0. -1.
         11    1    4    4    0    0 -0.20023281072E-01 -0.74228665503E-02  0.10436303697E-01  0.23774109627E-01  0.51100000000E-03 0.  1.
</event>
<event>
 8    1  0.1104109E+005  0.1043930E+01  0.7957747E-01            NaN
         13   -1    0    0    0    0  0.00000000000E+00  0.00000000000E+00  0.74505805969E-08  0.10566000000E+00  0.10566000000E+00 0. -1.
     999900   -1    0    0    0    0 -0.00000000000E+00 -0.00000000000E+00 -0.74505805969E-08  0.93827000000E+00  0.93827000000E+00 0. -1.
     999902    2    1    2    0    0  0.14507204174E-01 -0.42423603753E-02 -0.15754375482E-01  0.10220975255E+01  0.10218643231E+01 0.  0.
     999903    2    3    3    0    0  0.12782934788E+00  0.15843246460E-01  0.27025686164E-01  0.13357320199E+00  0.22804866578E-01 0.  0.
         14    1    1    2    0    0 -0.14507204174E-01  0.42423603753E-02  0.15754375482E-01  0.21832474467E-01  0.00000000000E+00 0. -1.
     999901    1    3    3    0    0 -0.11332214370E+00 -0.20085606836E-01 -0.42780061646E-01  0.88852432354E+00  0.88000000000E+00 0. -1.
        -11    1    4    4    0    0  0.41640641282E-01 -0.50786660694E-02  0.55576068972E-02  0.42318837069E-01  0.51100000000E-03 0.  1.
         11    1    4    4    0    0  0.86188706596E-01  0.20921912530E-01  0.21468079267E-01  0.91254364920E-01  0.51100000000E-03 0. -1.
</event>
<event>
 8    1  0.1104109E+005  0.1043930E+01  0.7957747E-01            NaN
         13   -1    0    0    0    0  0.00000000000E+00  0.00000000000E+00  0.74505805969E-08  0.10566000000E+00  0.10566000000E+00 0.  1.
     999900   -1    0    0    0    0 -0.00000000000E+00 -0.00000000000E+00 -0.74505805969E-08  0.93827000000E+00  0.93827000000E+00 0. -1.
     999902    2    1    2    0    0 -0.44967288619E-02  0.67643430759E-02 -0.22534711074E-01  0.10199760836E+01  0.10196947685E+01 0.  0.
     999903    2    3    3    0    0 -0.48074406849E-01  0.73689546154E-02 -0.12237378057E+00  0.13325898138E+00  0.20424589637E-01 0.  0.
         14    1    1    2    0    0  0.44967288619E-02 -0.67643430759E-02  0.22534711074E-01  0.23953916400E-01  0.00000000000E+00 0.  1.
     999901    1    3    3    0    0  0.43577677987E-01 -0.60461153958E-03  0.99839069494E-01  0.88671710222E+00  0.88000000000E+00 0.  1.
        -11    1    4    4    0    0 -0.23044136471E-01  0.12996381634E-01 -0.51847031352E-01  0.58209225577E-01  0.51100000000E-03 0. -1.
         11    1    4    4    0    0 -0.25030270378E-01 -0.56274270188E-02 -0.70526749216E-01  0.75049755803E-01  0.51100000000E-03 0.  1.
</event>
<event>
 7    1  0.1104109E+005  0.1043930E+01  0.7957747E-01            NaN
         13   -1    0    0    0    0  0.00000000000E+00  0.00000000000E+00  0.74505805969E-08  0.10566000000E+00  0.10566000000E+00 0.  1.
     999900   -1    0    0    0    0 -0.00000000000E+00 -0.00000000000E+00 -0.74505805969E-08  0.93827000000E+00  0.93827000000E+00 0.  1.
     999903    2    1    2    0    0  0.73103292475E-01  0.30345292861E-02  0.64265481061E-01  0.99829902343E-01  0.21969469887E-01 0.  0.
         14    1    1    2    0    0  0.40622712306E-01 -0.51531133582E-02  0.31449833398E-01  0.51631883106E-01  0.00000000000E+00 0.  1.
     999901    1    1    2    0    0 -0.11372600478E+00  0.21185840722E-02 -0.95715314458E-01  0.89246821455E+00  0.88000000000E+00 0.  1.
        -11    1    3    3    0    0  0.55515083809E-01 -0.72793153567E-02  0.46590008013E-01  0.72840942676E-01  0.51100000000E-03 0.  1.
         11    1    3    3    0    0  0.17588208667E-01  0.10313844643E-01  0.17675473048E-01  0.26988959667E-01  0.51100000000E-03 0. -1.
</event>
<event>
 8    1  0.1104109E+005  0.1043930E+01  0.7957747E-01            NaN
         13   -1    0    0    0    0  0.00000000000E+00  0.00000000000E+00  0.74505805969E-08  0.10566000000E+00  0.10566000000E+00 0.  1.
     999900   -1    0    0    0    0 -0.00000000000E+00 -0.00000000000E+00 -0.74505805969E-08  0.93827000000E+00  0.93827000000E+00 0. -1.
     999902    2    1    2    0    0  0.22974611995E-01  0.49420499818E-02 -0.29370792252E-02  0.10202470296E+01  0.10199721164E+01 0.  0.
     999903    2    3    3    0    0  0.19697401605E-01 -0.12317879069E+00  0.31757511524E-01  0.13028669081E+00  0.20126603259E-01 0.  0.
         14    1    1    2    0    0 -0.22974611995E-01 -0.49420499818E-02  0.29370792252E-02  0.23682970437E-01  0.00000000000E+00 0. -1.
     999901    1    3    3    0    0  0.32772103899E-02  0.12812084067E+00 -0.34694590749E-01  0.88996033875E+00  0.88000000000E+00 0.  1.
        -11    1    4    4    0    0  0.21801937244E-01 -0.74406732844E-01  0.19408649000E-01  0.79928988090E-01  0.51100000000E-03 0. -1.
         11    1    4    4    0    0 -0.21045356393E-02 -0.48772057846E-01  0.12348862524E-01  0.50357702722E-01  0.51100000000E-03 0.  1.
</event>
<event>
 8    1  0.1104109E+005  0.1043930E+01  0.7957747E-01            NaN
         13   -1    0    0    0    0  0.00000000000E+00  0.00000000000E+00  0.74505805969E-08  0.10566000000E+00  0.10566000000E+00 0.  1.
     999900   -1    0    0    0    0 -0.00000000000E+00 -0.00000000000E+00 -0.74505805969E-08  0.93827000000E+00  0.93827000000E+00 0.  1.
     999902    2    1    2    0    0  0.15211441383E-01 -0.18763856753E-01  0.51305426667E-03  0.10197694227E+01  0.10194831740E+01 0.  0.
     999903    2    3    3    0    0  0.10610792425E+00  0.58894591250E-01  0.43251337293E-01  0.13065775034E+00  0.21755575849E-01 0.  0.
         14    1    1    2    0    0 -0.15211441383E-01  0.18763856753E-01 -0.51305426667E-03  0.24160577267E-01  0.00000000000E+00 0.  1.
     999901    1    3    3    0    0 -0.90896482866E-01 -0.77658448003E-01 -0.42738283026E-01  0.88911167239E+00  0.88000000000E+00 0.  1.
        -11    1    4    4    0    0  0.72692063709E-01  0.39543966606E-01  0.18522472167E-01  0.84800970026E-01  0.51100000000E-03 0. -1.
         11    1    4    4    0    0  0.33415860540E-01  0.19350624644E-01  0.24728865126E-01  0.45856780318E-01  0.51100000000E-03 0.  1.
</event>
<event>
 8    1  0.1104109E+005  0.1043930E+01  0.7957747E-01            NaN
         13   -1    0    0    0    0  0.00000000000E+00  0.00000000000E+00  0.74505805969E-08  0.10566000000E+00  0.10566000000E+00 0.  1.
     999900   -1    0    0    0    0 -0.00000000000E+00 -0.00000000000E+00 -0.74505805969E-08  0.93827000000E+00  0.93827000000E+00 0.  1.
     999902    2    1    2    0    0  0.23486521042E-01 -0.56664826946E-02  0.23001249462E-02  0.10196603426E+01  0.10193714720E+01 0.  0.
     999903    2    3    3    0    0 -0.97512072424E-01  0.11284169660E-01 -0.78763817410E-01  0.12752843137E+00  0.20587013427E-01 0.  0.
         14    1    1    2    0    0 -0.23486521042E-01  0.56664826946E-02 -0.23001249462E-02  0.24269657425E-01  0.00000000000E+00 0. -1.
     999901    1    3    3    0    0  0.12099859347E+00 -0.16950652354E-01  0.81063942357E-01  0.89213191120E+00  0.88000000000E+00 0. -1.
        -11    1    4    4    0    0 -0.50141472962E-01  0.14518398064E-01 -0.34203166746E-01  0.62410487336E-01  0.51100000000E-03 0.  1.
         11    1    4    4    0    0 -0.47370599462E-01 -0.32342284044E-02 -0.44560650665E-01  0.65117944036E-01  0.51100000000E-03 0. -1.
</event>
<event>
 8    1  0.1104109E+005  0.1043930E+01  0.7957747E-01            NaN
         13   -1    0    0    0    0  0.00000000000E+00  0.00000000000E+00  0.74505805969E-08  0.10566000000E+00  0.10566000000E+00 0. -1.
     999900   -1    0    0    0    0 -0.00000000000E+00 -0.00000000000E+00 -0.74505805969E-08  0.93827000000E+00  0.93827000000E+00 0. -1.
     999902    2    1    2    0    0 -0.16812089958E-01 -0.50927491383E-02  0.16388124381E-01  0.10199059894E+01  0.10196230059E+01 0.  0.
     999903    2    3    3    0    0  0.18415254249E-01  0.10476332441E+00 -0.69217615447E-01  0.12825714300E+00  0.18556419661E-01 0.  0.
         14    1    1    2    0    0  0.16812089958E-01  0.50927491383E-02 -0.16388124381E-01  0.24024010558E-01  0.00000000000E+00 0. -1.
     999901    1    3    3    0    0 -0.35227344207E-01 -0.10985607355E+00  0.85605739828E-01  0.89164884645E+00  0.88000000000E+00 0.  1.
        -11    1    4    4    0    0 -0.34135163422E-02  0.13824188880E-01 -0.11920660804E-01  0.18577501635E-01  0.51100000000E-03 0.  1.
         11    1    4    4    0    0  0.21828770591E-01  0.90939135531E-01 -0.57296954644E-01  0.10967964136E+00  0.51100000000E-03 0. -1.
</event>
<event>
 8    1  0.1104109E+005  0.1043930E+01  0.7957747E-01            NaN
         13   -1    0    0    0    0  0.00000000000E+00  0.00000000000E+00  0.74505805969E-08  0.10566000000E+00  0.10566000000E+00 0. -1.
     999900   -1    0    0    0    0 -0.00000000000E+00 -0.00000000000E+00 -0.74505805969E-08  0.93827000000E+00  0.93827000000E+00 0.  1.
     999902    2    1    2    0    0 -0.22258563074E-01  0.95877170142E-02 -0.15535075548E-02  0.10196445860E+01  0.10193553357E+01 0.  0.
     999903    2    3    3    0    0 -0.60471171113E-01 -0.38108929783E-02 -0.11486317154E+00  0.13145608904E+00  0.20392884286E-01 0.  0.
         14    1    1    2    0    0  0.22258563074E-01 -0.95877170142E-02  0.15535075548E-02  0.24285414005E-01  0.00000000000E+00 0.  1.
     999901    1    3    3    0    0  0.38212608039E-01  0.13398609993E-01  0.11330966399E+00  0.88818849695E+00  0.88000000000E+00 0. -1.
        -11    1    4    4    0    0 -0.41629132476E-01  0.10660425477E-02 -0.94568550382E-01  0.10333243905E+00  0.51100000000E-03 0. -1.
         11    1    4    4    0    0 -0.18842038637E-01 -0.48769355260E-02 -0.20294621158E-01  0.28123649996E-01  0.51100000000E-03 0.  1.
</event>
<event>
 8    1  0.1104109E+005  0.1043930E+01  0.7957747E-01            NaN
         13   -1    0    0    0    0  0.00000000000E+00  0.00000000000E+00  0.74505805969E-08  0.10566000000E+00  0.10566000000E+00 0.  1.
     999900   -1    0    0    0    0 -0.00000000000E+00 -0.00000000000E+00 -0.74505805969E-08  0.93827000000E+00  0.93827000000E+00 0.  1.
     999902    2    1    2    0    0 -0.11658397715E-01 -0.11102141103E-01 -0.19694776660E-01  0.10184926259E+01  0.10181749206E+01 0.  0.
     999903    2    3    3    0    0 -0.57723639342E-01  0.45681736922E-02  0.11171848749E+00  0.12740508178E+00  0.19953637943E-01 0.  0.
         14    1    1    2    0    0  0.11658397715E-01  0.11102141103E-01  0.19694776660E-01  0.25437374118E-01  0.00000000000E+00 0.  1.
     999901    1    3    3    0    0  0.46065241628E-01 -0.15670314796E-01 -0.13141326415E+00  0.89108754410E+00  0.88000000000E+00 0.  1.
        -11    1    4    4    0    0 -0.26219365856E-01  0.18697809952E-02  0.71903443728E-01  0.76559242210E-01  0.51100000000E-03 0. -1.
         11    1    4    4    0    0 -0.31504273486E-01  0.26983926970E-02  0.39815043763E-01  0.50845839573E-01  0.51100000000E-03 0.  1.
</event>
<event>
 8    1  0.1104109E+005  0.1043930E+01  0.7957747E-01            NaN
         13   -1    0    0    0    0  0.00000000000E+00  0.00000000000E+00  0.74505805969E-08  0.10566000000E+00  0.10566000000E+00 0.  1.
     999900   -1    0    0    0    0 -0.00000000000E+00 -0.00000000000E+00 -0.74505805969E-08  0.93827000000E+00  0.93827000000E+00 0.  1.
     999902    2    1    2    0    0  0.15595243455E-02 -0.17601957096E-01  0.17609676432E-01  0.10189828215E+01  0.10186773919E+01 0.  0.
     999903    2    3    3    0    0  0.11455589943E+00  0.17771939210E-01  0.56004823935E-01  0.13022319110E+00  0.19561269859E-01 0.  0.
         14    1    1    2    0    0 -0.15595243455E-02  0.17601957096E-01 -0.17609676432E-01  0.24947178474E-01  0.00000000000E+00 0. -1.
     999901    1    3    3    0    0 -0.11299637509E+00 -0.35373896306E-01 -0.38395147503E-01  0.88875963043E+00  0.88000000000E+00 0. -1.
        -11    1    4    4    0    0  0.75631388278E-01  0.34761459434E-02  0.31113376649E-01  0.81856544094E-01  0.51100000000E-03 0. -1.
         11    1    4    4    0    0  0.38924511154E-01  0.14295793267E-01  0.24891447286E-01  0.48366647007E-01  0.51100000000E-03 0.  1.
</event>
<event>
 8    1  0.1104109E+005  0.1043930E+01  0.7957747E-01            NaN
         13   -1    0    0    0    0  0.00000000000E+00  0.00000000000E+00  0.74505805969E-08  0.10566000000E+00  0.10566000000E+00 0.  1.
     999900   -1    0    0    0    0 -0.00000000000E+00 -0.00000000000E+00 -0.74505805969E-08  0.93827000000E+00  0.93827000000E+00 0.  1.
     999902    2    1    2    0    0  0.64489195055E-02 -0.21111481954E-01 -0.79902300577E-02  0.10204539056E+01  0.10201838297E+01 0.  0.
     999903    2    3    3    0    0  0.29526416869E-01  0.68814843896E-01 -0.10480365694E+00  0.13028978891E+00  0.19604350405E-01 0.  0.
         14    1    1    2    0    0 -0.64489195055E-02  0.21111481954E-01  0.79902300577E-02  0.23476094425E-01  0.00000000000E+00 0. -1.
     999901    1    3    3    0    0 -0.23077497364E-01 -0.89926325850E-01  0.96813426878E-01  0.89016411666E+00  0.88000000000E+00 0. -1.
        -11    1    4    4    0    0  0.31072012121E-01  0.53956978337E-01 -0.87990377207E-01  0.10779328852E+00  0.51100000000E-03 0. -1.
         11    1    4    4    0    0 -0.15455952519E-02  0.14857865559E-01 -0.16813279729E-01  0.22496500392E-01  0.51100000000E-03 0.  1.
</event>
<event>
 8    1  0.1104109E+005  0.1043930E+01  0.7957747E-01            NaN
         13   -1    0    0    0    0  0.00000000000E+00  0.00000000000E+00  0.74505805969E-08  0.10566000000E+00  0.10566000000E+00 0.  1.
     999900   -1    0    0    0    0 -0.00000000000E+00 -0.00000000000E+00 -0.74505805969E-08  0.93827000000E+00  0.93827000000E+00 0.  1.
     999902    2    1    2    0    0  0.24835490023E-03 -0.23801332720E-02 -0.21875462971E-01  0.10219240327E+01  0.10216870686E+01 0.  0.
     999903    2    3    3    0    0 -0.83498328405E-01 -0.66311169961E-01  0.72701460234E-01  0.13060732202E+00  0.20090498685E-01 0.  0.
         14    1    1    2    0    0 -0.24835490023E-03  0.23801332720E-02  0.21875462971E-01  0.22005967253E-01  0.00000000000E+00 0.  1.
     999901    1    3    3    0    0  0.83746683305E-01  0.63931036689E-01 -0.94576923205E-01  0.89131671073E+00  0.88000000000E+00 0.  1.
        -11    1    4    4    0    0 -0.55843167080E-01 -0.49204091858E-01  0.60335761068E-01  0.95813188809E-01  0.51100000000E-03 0.  1.
         11    1    4    4    0    0 -0.27655161325E-01 -0.17107078102E-01  0.12365699166E-01  0.34794133212E-01  0.51100000000E-03 0. -1.
</event>
<event>
 8    1  0.1104109E+005  0.1043930E+01  0.7957747E-01            NaN
         13   -1    0    0    0    0  0.00000000000E+00  0.00000000000E+00  0.74505805969E-08  0.10566000000E+00  0.10566000000E+00 0.  1.
     999900   -1    0    0    0    0 -0.00000000000E+00 -0.00000000000E+00 -0.74505805969E-08  0.93827000000E+00  0.93827000000E+00 0. -1.
     999902    2    1    2    0    0  0.23215611513E-01 -0.18050243585E-02 -0.28232212062E-02  0.10204738002E+01  0.10202041872E+01 0.  0.
     999903    2    3    3    0    0 -0.43119714487E-01  0.93214857745E-02  0.11999105017E+00  0.12940280418E+00  0.20025826662E-01 0.  0.
         14    1    1    2    0    0 -0.23215611513E-01  0.18050243585E-02  0.28232212062E-02  0.23456199795E-01  0.00000000000E+00 0.  1.
     999901    1    3    3    0    0  0.66335326000E-01 -0.11126510133E-01 -0.12281427138E+00  0.89107099603E+00  0.88000000000E+00 0. -1.
        -11    1    4    4    0    0 -0.49129065714E-02  0.85937769478E-02  0.31190478420E-01  0.32727614002E-01  0.51100000000E-03 0.  1.
         11    1    4    4    0    0 -0.38206807916E-01  0.72770882678E-03  0.88800571753E-01  0.96675190177E-01  0.51100000000E-03 0. -1.
</event>
<event>
 8    1  0.1104109E+005  0.1043930E+01  0.7957747E-01            NaN
         13   -1    0    0    0    0  0.00000000000E+00  0.00000000000E+00  0.74505805969E-08  0.10566000000E+00  0.10566000000E+00 0.  1.
     999900   -1    0    0    0    0 -0.00000000000E+00 -0.00000000000E+00 -0.74505805969E-08  0.93827000000E+00  0.93827000000E+00 0.  1.
     999902    2    1    2    0    0 -0.57674416590E-02  0.22488840395E-01 -0.61708213185E-02  0.10199072949E+01  0.10196243425E+01 0.  0.
     999903    2    3    3    0    0 -0.67348761150E-01 -0.58430863299E-01  0.90692773306E-01  0.12877160750E+00  0.20172415670E-01 0.  0.
         14    1    1    2    0    0  0.57674416590E-02 -0.22488840395E-01  0.61708213185E-02  0.24022705122E-01  0.00000000000E+00 0.  1.
     999901    1    3    3    0    0  0.61581319491E-01  0.80919703694E-01 -0.96863594624E-01  0.89113568738E+00  0.88000000000E+00 0.  1.
        -11    1    4    4    0    0 -0.56482523618E-01 -0.39244083383E-01  0.62148283034E-01  0.92698671834E-01  0.51100000000E-03 0. -1.
         11    1    4    4    0    0 -0.10866237532E-01 -0.19186779915E-01  0.28544490272E-01  0.36072935665E-01  0.51100000000E-03 0.  1.
</event>
<event>
 8    1  0.1104109E+005  0.1043930E+01  0.7957747E-01            NaN
         13   -1    0    0    0    0  0.00000000000E+00  0.00000000000E+00  0.74505805969E-08  0.10566000000E+00  0.10566000000E+00 0. -1.
     999900   -1    0    0    0    0 -0.00000000000E+00 -0.00000000000E+00 -0.74505805969E-08  0.93827000000E+00  0.93827000000E+00 0.  1.
     999902    2    1    2    0    0 -0.12094787298E-01  0.18044678628E-01 -0.50668022483E-02  0.10216237948E+01  0.10213802481E+01 0.  0.
     999903    2    3    3    0    0  0.32582814383E-01  0.29544746623E-01  0.12203494723E+00  0.13129621777E+00  0.20288829621E-01 0.  0.
         14    1    1    2    0    0  0.12094787298E-01 -0.18044678628E-01  0.50668022483E-02  0.22306205226E-01  0.00000000000E+00 0. -1.
     999901    1    3    3    0    0 -0.44677601681E-01 -0.11500067995E-01 -0.12710174948E+00  0.89032757701E+00  0.88000000000E+00 0.  1.
        -11    1    4    4    0    0  0.29918113755E-01  0.14871926775E-01  0.80344866688E-01  0.87016242511E-01  0.51100000000E-03 0. -1.
         11    1    4    4    0    0  0.26647006277E-02  0.14672819847E-01  0.41690080546E-01  0.44279975256E-01  0.51100000000E-03 0.  1.
</event>
<event>
 8    1  0.1104109E+005  0.1043930E+01  0.7957747E-01            NaN
         13   -1    0    0    0    0  0.00000000000E+00  0.00000000000E+00  0.74505805969E-08  0.10566000000E+00  0.10566000000E+00 0.  1.
     999900   -1    0    0    0    0 -0.00000000000E+00 -0.00000000000E+00 -0.74505805969E-08  0.93827000000E+00  0.93827000000E+00 0.  1.
     999902    2    1    2    0    0 -0.63488204850E-02 -0.22575336215E-01  0.44659548045E-02  0.10200574618E+01  0.10197780775E+01 0.  0.
     999903    2    3    3    0    0  0.93990883957E-01 -0.54159333064E-01  0.71485221450E-01  0.13126210447E+00  0.18763889781E-01 0.  0.
         14    1    1    2    0    0  0.63488204850E-02  0.22575336215E-01 -0.44659548045E-02  0.23872538178E-01  0.00000000000E+00 0. -1.
     999901    1    3    3    0    0 -0.10033970444E+00  0.31583996849E-01 -0.67019266646E-01  0.88879535735E+00  0.88000000000E+00 0. -1.
        -11    1    4    4    0    0  0.45511124368E-01 -0.35107454831E-01  0.31140753524E-01  0.65374333473E-01  0.51100000000E-03 0.  1.
         11    1    4    4    0    0  0.48479759589E-01 -0.19051878232E-01  0.40344467927E-01  0.65887770999E-01  0.51100000000E-03 0. -1.
</event>
<event>
 8    1  0.1104109E+005  0.1043930E+01  0.7957747E-01            NaN
         13   -1    0    0    0    0  0.00000000000E+00  0.00000000000E+00  0.74505805969E-08  0.10566000000E+00  0.10566000000E+00 0. -1.
     999900   -1    0    0    0    0 -0.00000000000E+00 -0.00000000000E+00 -0.74505805969E-08  0.93827000000E+00  0.93827000000E+00 0.  1.
     999902    2    1    2    0    0 -0.26763960021E-02 -0.21563071809E-01  0.10097015563E-01  0.10199700567E+01  0.10196885984E+01 0.  0.
     999903    2    3    3    0    0  0.46820503305E-01 -0.74995060520E-01 -0.94438514386E-01  0.13079482226E+00  0.19293364088E-01 0.  0.
         14    1    1    2    0    0  0.26763960021E-02  0.21563071809E-01 -0.10097015563E-01  0.23959943336E-01  0.00000000000E+00 0.  1.
     999901    1    3    3    0    0 -0.49496899307E-01  0.53431988711E-01  0.10453552995E+00  0.88917523441E+00  0.88000000000E+00 0. -1.
        -11    1    4    4    0    0  0.27792982950E-01 -0.29587531491E-01 -0.34906422259E-01  0.53540558056E-01  0.51100000000E-03 0. -1.
         11    1    4    4    0    0  0.19027520356E-01 -0.45407529029E-01 -0.59532092127E-01  0.77254264202E-01  0.51100000000E-03 0.  1.
</event>
<event>
 8    1  0.1104109E+005  0.1043930E+01  0.7957747E-01            NaN
         13   -1    0    0    0    0  0.00000000000E+00  0.00000000000E+00  0.74505805969E-08  0.10566000000E+00  0.10566000000E+00 0.  1.
     999900   -1    0    0    0    0 -0.00000000000E+00 -0.00000000000E+00 -0.74505805969E-08  0.93827000000E+00  0.93827000000E+00 0. -1.
     999902    2    1    2    0    0 -0.24166302733E-03  0.43190456841E-03 -0.23204915546E-01  0.10207198072E+01  0.10204558843E+01 0.  0.
     999903    2    3    3    0    0 -0.11622023817E-01  0.11315686435E+00  0.58849360075E-01  0.12967023885E+00  0.20287342779E-01 0.  0.
         14    1    1    2    0    0  0.24166302733E-03 -0.43190456841E-03  0.23204915546E-01  0.23210192762E-01  0.00000000000E+00 0.  1.
     999901    1    3    3    0    0  0.11380360790E-01 -0.11272495978E+00 -0.82054275621E-01  0.89104956838E+00  0.88000000000E+00 0. -1.
        -11    1    4    4    0    0 -0.10374660565E-01  0.75441733551E-01  0.28756722366E-01  0.81402081947E-01  0.51100000000E-03 0. -1.
         11    1    4    4    0    0 -0.12473632520E-02  0.37715130795E-01  0.30092637709E-01  0.48268156908E-01  0.51100000000E-03 0.  1.
</event>
<event>
 8    1  0.1104109E+005  0.1043930E+01  0.7957747E-01            NaN
         13   -1    0    0    0    0  0.00000000000E+00  0.00000000000E+00  0.74505805969E-08  0.10566000000E+00  0.10566000000E+00 0. -1.
     999900   -1    0    0    0    0 -0.00000000000E+00 -0.00000000000E+00 -0.74505805969E-08  0.93827000000E+00  0.93827000000E+00 0.  1.
     999902    2    1    2    0    0  0.79229652363E-02 -0.21368409580E-01  0.63679539038E-02  0.10202670935E+01  0.10199926514E+01 0.  0.
     999903    2    3    3    0    0 -0.12753906912E+00  0.87035362591E-02  0.15287747887E-02  0.12938118481E+00  0.19879339435E-01 0.  0.
         14    1    1    2    0    0 -0.79229652363E-02  0.21368409580E-01 -0.63679539038E-02  0.23662906479E-01  0.00000000000E+00 0.  1.
     999901    1    3    3    0    0  0.13546203436E+00 -0.30071945839E-01  0.48391791151E-02  0.89088590871E+00  0.88000000000E+00 0. -1.
        -11    1    4    4    0    0 -0.38587433360E-01  0.93685975333E-02  0.67108990448E-02  0.40274780198E-01  0.51100000000E-03 0. -1.
         11    1    4    4    0    0 -0.88951635759E-01 -0.66506127416E-03 -0.51821242560E-02  0.89106404616E-01  0.51100000000E-03 0.  1.
</event>
<event>
 8    1  0.1104109E+005  0.1043930E+01  0.7957747E-01            NaN
         13   -1    0    0    0    0  0.00000000000E+00  0.00000000000E+00  0.74505805969E-08  0.10566000000E+00  0.10566000000E+00 0.  1.
     999900   -1    0    0    0    0 -0.00000000000E+00 -0.00000000000E+00 -0.74505805969E-08  0.93827000000E+00  0.93827000000E+00 0. -1.
     999902    2    1    2    0    0  0.16419525019E-01  0.17993540227E-01  0.33194295869E-03  0.10195685863E+01  0.10192775008E+01 0.  0.
     999903    2    3    3    0    0  0.71393737751E-01  0.87211542121E-01 -0.67262507174E-01  0.13256108602E+00  0.18581651860E-01 0.  0.
         14    1    1    2    0    0 -0.16419525019E-01 -0.17993540227E-01 -0.33194295869E-03  0.24361413709E-01  0.00000000000E+00 0. -1.
     999901    1    3    3    0    0 -0.54974212732E-01 -0.69218001894E-01  0.67594450133E-01  0.88700750027E+00  0.88000000000E+00 0.  1.
        -11    1    4    4    0    0  0.37322275384E-01  0.49466062756E-01 -0.47192713722E-01  0.77892598838E-01  0.51100000000E-03 0. -1.
         11    1    4    4    0    0  0.34071462367E-01  0.37745479365E-01 -0.20069793453E-01  0.54668487180E-01  0.51100000000E-03 0.  1.
</event>
<event>
 8    1  0.1104109E+005  0.1043930E+01  0.7957747E-01            NaN
         13   -1    0    0    0    0  0.00000000000E+00  0.00000000000E+00  0.74505805969E-08  0.10566000000E+00  0.10566000000E+00 0. -1.
     999900   -1    0    0    0    0 -0.00000000000E+00 -0.00000000000E+00 -0.74505805969E-08  0.93827000000E+00  0.93827000000E+00 0. -1.
     999902    2    1    2    0    0 -0.73207935019E-02 -0.79127370575E-02 -0.21423892022E-01  0.10199469107E+01  0.10196649018E+01 0.  0.
     999903    2    3    3    0    0 -0.39007692559E-01  0.79012325340E-02  0.11992340850E+00  0.12796417507E+00  0.20228115113E-01 0.  0.
         14    1    1    2    0    0  0.73207935019E-02  0.79127370575E-02  0.21423892022E-01  0.23983089347E-01  0.00000000000E+00 0. -1.
     999901    1    3    3    0    0  0.31686899057E-01 -0.15813969591E-01 -0.14134730052E+00  0.89198273558E+00  0.88000000000E+00 0. -1.
        -11    1    4    4    0    0 -0.19389309006E-01 -0.32778451639E-02  0.35653157404E-01  0.40719753517E-01  0.51100000000E-03 0. -1.
         11    1    4    4    0    0 -0.19618383553E-01  0.11179077698E-01  0.84270251099E-01  0.87244421556E-01  0.51100000000E-03 0.  1.
</event>
<event>
 8    1  0.1104109E+005  0.1043930E+01  0.7957747E-01            NaN
         13   -1    0    0    0    0  0.00000000000E+00  0.00000000000E+00  0.74505805969E-08  0.10566000000E+00  0.10566000000E+00 0. -1.
     999900   -1    0    0    0    0 -0.00000000000E+00 -0.00000000000E+00 -0.74505805969E-08  0.93827000000E+00  0.93827000000E+00 0. -1.
     999902    2    1    2    0    0 -0.19557304606E-01 -0.80940320940E-02 -0.65089893999E-02  0.10217857352E+01  0.10215457505E+01 0.  0.
     999903    2    3    3    0    0  0.14985951562E-01 -0.10762952127E+00 -0.73946393398E-01  0.13293909289E+00  0.19900772053E-01 0.  0.
         14    1    1    2    0    0  0.19557304606E-01  0.80940320940E-02  0.65089893999E-02  0.22144264765E-01  0.00000000000E+00 0. -1.
     999901    1    3    3    0    0 -0.34543256168E-01  0.99535489177E-01  0.67437403998E-01  0.88884664235E+00  0.88000000000E+00 0.  1.
        -11    1    4    4    0    0  0.19594372818E-01 -0.75897799751E-01 -0.53572593831E-01  0.94945770753E-01  0.51100000000E-03 0. -1.
         11    1    4    4    0    0 -0.46084212559E-02 -0.31731721520E-01 -0.20373799567E-01  0.37993322135E-01  0.51100000000E-03 0.  1.
</event>
<event>
 7    1  0.1141098E+005  0.1043930E+01  0.7957747E-01            NaN
         13   -1    0    0    0    0  0.00000000000E+00  0.00000000000E+00  0.74505805969E-08  0.10566000000E+00  0.10566000000E+00 0.  1.
     999900   -1    0    0    0    0 -0.00000000000E+00 -0.00000000000E+00 -0.74505805969E-08  0.93827000000E+00  0.93827000000E+00 0. -1.
     999903    2    1    2    0    0  0.78431597779E-01 -0.81358677612E-02  0.43959134526E-01  0.92436916056E-01  0.19861270534E-01 0.  0.
         14    1    1    2    0    0  0.47935070766E-01  0.26716687436E-01  0.23541409682E-01  0.59713904300E-01  0.00000000000E+00 0. -1.
     999901    1    1    2    0    0 -0.12636666855E+00 -0.18580819675E-01 -0.67500544208E-01  0.89177917964E+00  0.88000000000E+00 0. -1.
        -11    1    3    3    0    0  0.69376274418E-01 -0.33124055388E-02  0.31436978166E-01  0.76240305612E-01  0.51100000000E-03 0.  1.
         11    1    3    3    0    0  0.90553233617E-02 -0.48234622224E-02  0.12522156359E-01  0.16196610444E-01  0.51100000000E-03 0. -1.
</event>
<event>
 8    1  0.1104109E+005  0.1043930E+01  0.7957747E-01            NaN
         13   -1    0    0    0    0  0.00000000000E+00  0.00000000000E+00  0.74505805969E-08  0.10566000000E+00  0.10566000000E+00 0. -1.
     999900   -1    0    0    0    0 -0.00000000000E+00 -0.00000000000E+00 -0.74505805969E-08  0.93827000000E+00  0.93827000000E+00 0.  1.
     999902    2    1    2    0    0  0.35247770477E-03 -0.19102744017E-02 -0.27615160562E-01  0.10162466028E+01  0.10158694735E+01 0.  0.
     999903    2    3    3    0    0  0.27794697569E-01 -0.72464460577E-01  0.95022581215E-01  0.12452299968E+00  0.21284812626E-01 0.  0.
         14    1    1    2    0    0 -0.35247770477E-03  0.19102744017E-02  0.27615160562E-01  0.27683397221E-01  0.00000000000E+00 0. -1.
     999901    1    3    3    0    0 -0.27442219864E-01  0.70554186176E-01 -0.12263774178E+00  0.89172360310E+00  0.88000000000E+00 0. -1.
        -11    1    4    4    0    0  0.83235463823E-02 -0.40580403781E-01  0.37197268007E-01  0.55677180816E-01  0.51100000000E-03 0.  1.
         11    1    4    4    0    0  0.19471151187E-01 -0.31884056797E-01  0.57825313208E-01  0.68845818863E-01  0.51100000000E-03 0. -1.
</event>
<event>
 8    1  0.1104109E+005  0.1043930E+01  0.7957747E-01            NaN
         13   -1    0    0    0    0  0.00000000000E+00  0.00000000000E+00  0.74505805969E-08  0.10566000000E+00  0.10566000000E+00 0. -1.
     999900   -1    0    0    0    0 -0.00000000000E+00 -0.00000000000E+00 -0.74505805969E-08  0.93827000000E+00  0.93827000000E+00 0.  1.
     999902    2    1    2    0    0 -0.13109186027E-01 -0.22705654979E-02 -0.25680649116E-01  0.10150076563E+01  0.10145955058E+01 0.  0.
     999903    2    3    3    0    0  0.71379995743E-01 -0.55158362352E-01 -0.87539810394E-01  0.12722271797E+00  0.19617666392E-01 0.  0.
         14    1    1    2    0    0  0.13109186027E-01  0.22705654979E-02  0.25680649116E-01  0.28922343698E-01  0.00000000000E+00 0. -1.
     999901    1    3    3    0    0 -0.84489181770E-01  0.52887796854E-01  0.61859161278E-01  0.88778493833E+00  0.88000000000E+00 0. -1.
        -11    1    4    4    0    0  0.32030404834E-01 -0.28956316330E-01 -0.54549317122E-01  0.69572294836E-01  0.51100000000E-03 0. -1.
         11    1    4    4    0    0  0.39349590909E-01 -0.26202046022E-01 -0.32990493272E-01  0.57650423136E-01  0.51100000000E-03 0.  1.
</event>
<event>
 8    1  0.1104109E+005  0.1043930E+01  0.7957747E-01            NaN
         13   -1    0    0    0    0  0.00000000000E+00  0.00000000000E+00  0.74505805969E-08  0.10566000000E+00  0.10566000000E+00 0.  1.
     999900   -1    0    0    0    0 -0.00000000000E+00 -0.00000000000E+00 -0.74505805969E-08  0.93827000000E+00  0.93827000000E+00 0. -1.
     999902    2    1    2    0    0 -0.12721498316E-01 -0.70938757161E-03  0.24598585414E-01  0.10162274703E+01  0.10158498123E+01 0.  0.
     999903    2    3    3    0    0  0.52581140489E-01 -0.11103182178E+00  0.24895434205E-01  0.12693811226E+00  0.20016491083E-01 0.  0.
         14    1    1    2    0    0  0.12721498316E-01  0.70938757161E-03 -0.24598585414E-01  0.27702529749E-01  0.00000000000E+00 0. -1.
     999901    1    3    3    0    0 -0.65302638804E-01  0.11032243421E+00 -0.29684879067E-03  0.88928935800E+00  0.88000000000E+00 0.  1.
        -11    1    4    4    0    0  0.31176260623E-01 -0.46465769979E-01  0.16853597834E-01  0.58440840917E-01  0.51100000000E-03 0.  1.
         11    1    4    4    0    0  0.21404879866E-01 -0.64566051803E-01  0.80418363708E-02  0.68497271338E-01  0.51100000000E-03 0. -1.
</event>
<event>
 8    1  0.1104109E+005  0.1043930E+01  0.7957747E-01            NaN
         13   -1    0    0    0    0  0.00000000000E+00  0.00000000000E+00  0.74505805969E-08  0.10566000000E+00  0.10566000000E+00 0.  1.
     999900   -1    0    0    0    0 -0.00000000000E+00 -0.00000000000E+00 -0.74505805969E-08  0.93827000000E+00  0.93827000000E+00 0.  1.
     999902    2    1    2    0    0  0.15292149154E-01  0.12226033615E-01 -0.12312957298E-01  0.10208013459E+01  0.10205392952E+01 0.  0.
     999903    2    3    3    0    0 -0.92004425520E-01  0.42659185124E-01  0.78182688458E-01  0.12915781086E+00  0.16869704847E-01 0.  0.
         14    1    1    2    0    0 -0.15292149154E-01 -0.12226033615E-01  0.12312957298E-01  0.23128654114E-01  0.00000000000E+00 0.  1.
     999901    1    3    3    0    0  0.10729657467E+00 -0.30433151509E-01 -0.90495645756E-01  0.89164353502E+00  0.88000000000E+00 0. -1.
        -11    1    4    4    0    0 -0.33950980631E-01  0.18860610512E-01  0.20458774462E-01  0.43900048841E-01  0.51100000000E-03 0.  1.
         11    1    4    4    0    0 -0.58053444889E-01  0.23798574611E-01  0.57723913996E-01  0.85257762022E-01  0.51100000000E-03 0. -1.
</event>
<event>
 8    1  0.1104109E+005  0.1043930E+01  0.7957747E-01            NaN
         13   -1    0    0    0    0  0.00000000000E+00  0.00000000000E+00  0.74505805969E-08  0.10566000000E+00  0.10566000000E+00 0.  1.
     999900   -1    0    0    0    0 -0.00000000000E+00 -0.00000000000E+00 -0.74505805969E-08  0.93827000000E+00  0.93827000000E+00 0. -1.
     999902    2    1    2    0    0  0.80329731599E-02 -0.17536282218E-01 -0.12163827524E-01  0.10211263040E+01  0.10208716472E+01 0.  0.
     999903    2    3    3    0    0  0.12577268130E+00  0.21824321624E-03  0.34287580899E-01  0.13189315380E+00  0.20033742163E-01 0.  0.
         14    1    1    2    0    0 -0.80329731599E-02  0.17536282218E-01  0.12163827524E-01  0.22803696013E-01  0.00000000000E+00 0.  1.
     999901    1    3    3    0    0 -0.11773970814E+00 -0.17754525435E-01 -0.46451408424E-01  0.88923315019E+00  0.88000000000E+00 0. -1.
        -11    1    4    4    0    0  0.58895867593E-01  0.10012719844E-01  0.17342077915E-01  0.62209216082E-01  0.51100000000E-03 0.  1.
         11    1    4    4    0    0  0.66876813703E-01 -0.97944766279E-02  0.16945502984E-01  0.69683937718E-01  0.51100000000E-03 0. -1.
</event>
<event>
 8    1  0.1104109E+005  0.1043930E+01  0.7957747E-01            NaN
         13   -1    0    0    0    0  0.00000000000E+00  0.00000000000E+00  0.74505805969E-08  0.10566000000E+00  0.10566000000E+00 0.  1.
     999900   -1    0    0    0    0 -0.00000000000E+00 -0.00000000000E+00 -0.74505805969E-08  0.93827000000E+00  0.93827000000E+00 0. -1.
     999902    2    1    2    0    0  0.18986200110E-01  0.47570795153E-03 -0.15044611072E-01  0.10197010418E+01  0.10194131509E+01 0.  0.
     999903    2    3    3    0    0  0.11424822471E+00 -0.16864254978E-01 -0.63042192936E-01  0.13308991200E+00  0.20038628661E-01 0.  0.
         14    1    1    2    0    0 -0.18986200110E-01 -0.47570795153E-03  0.15044611072E-01  0.24228958190E-01  0.00000000000E+00 0. -1.
     999901    1    3    3    0    0 -0.95262024604E-01  0.17339962930E-01  0.47997581864E-01  0.88661112981E+00  0.88000000000E+00 0.  1.
        -11    1    4    4    0    0  0.45432672452E-01 -0.16421640196E-01 -0.23577363255E-01  0.53758266080E-01  0.51100000000E-03 0. -1.
         11    1    4    4    0    0  0.68815552262E-01 -0.44261478200E-03 -0.39464829681E-01  0.79331645916E-01  0.51100000000E-03 0.  1.
</event>
<event>
 8    1  0.1104109E+005  0.1043930E+01  0.7957747E-01            NaN
         13   -1    0    0    0    0  0.00000000000E+00  0.00000000000E+00  0.74505805969E-08  0.10566000000E+00  0.10566000000E+00 0. -1.
     999900   -1    0    0    0    0 -0.00000000000E+00 -0.00000000000E+00 -0.74505805969E-08  0.93827000000E+00  0.93827000000E+00 0. -1.
     999902    2    1    2    0    0 -0.12762456667E-02 -0.24455756919E-01 -0.39646961098E-02  0.10191221048E+01  0.10188201180E+01 0.  0.
     999903    2    3    3    0    0  0.90365091276E-01 -0.86074205295E-01  0.35681546907E-01  0.13133452186E+00  0.20024118067E-01 0.  0.
         14    1    1    2    0    0  0.12762456667E-02  0.24455756919E-01  0.39646961098E-02  0.24807895210E-01  0.00000000000E+00 0.  1.
     999901    1    3    3    0    0 -0.91641336943E-01  0.61618448376E-01 -0.39646243017E-01  0.88778758293E+00  0.88000000000E+00 0.  1.
        -11    1    4    4    0    0  0.29705873930E-01 -0.17770778293E-01  0.50609826534E-02  0.34987343047E-01  0.51100000000E-03 0. -1.
         11    1    4    4    0    0  0.60659217347E-01 -0.68303427002E-01  0.30620564254E-01  0.96347178815E-01  0.51100000000E-03 0.  1.
</event>
<event>
 8    1  0.1243558E+005  0.1043930E+01  0.7957747E-01            NaN
         13   -1    0    0    0    0  0.00000000000E+00  0.00000000000E+00  0.74505805969E-08  0.10566000000E+00  0.10566000000E+00 0.  1.
     999900   -1    0    0    0    0 -0.00000000000E+00 -0.00000000000E+00 -0.74505805969E-08  0.93827000000E+00  0.93827000000E+00 0.  1.
     999902    2    1    2    0    0 -0.22673964714E-01  0.25528366672E-02 -0.67411767960E-02  0.10201377930E+01  0.10198603078E+01 0.  0.
     999903    2    3    3    0    0 -0.96322272187E-01  0.88861345375E-01  0.62419213258E-02  0.13275862220E+00  0.20287221747E-01 0.  0.
         14    1    1    2    0    0  0.22673964714E-01 -0.25528366672E-02  0.67411767960E-02  0.23792207033E-01  0.00000000000E+00 0.  1.
     999901    1    3    3    0    0  0.73648307473E-01 -0.86308508708E-01 -0.12983098122E-01  0.88737917076E+00  0.88000000000E+00 0.  1.
        -11    1    4    4    0    0 -0.30776978532E-01  0.40888586810E-01  0.60091102093E-02  0.51531247466E-01  0.51100000000E-03 0. -1.
         11    1    4    4    0    0 -0.65545293655E-01  0.47972758565E-01  0.23281111652E-03  0.81227374737E-01  0.51100000000E-03 0.  1.
</event>
<event>
 8    1  0.1104109E+005  0.1043930E+01  0.7957747E-01            NaN
         13   -1    0    0    0    0  0.00000000000E+00  0.00000000000E+00  0.74505805969E-08  0.10566000000E+00  0.10566000000E+00 0. -1.
     999900   -1    0    0    0    0 -0.00000000000E+00 -0.00000000000E+00 -0.74505805969E-08  0.93827000000E+00  0.93827000000E+00 0.  1.
     999902    2    1    2    0    0  0.60737121170E-02 -0.14798917510E-01 -0.17512083168E-01  0.10202114209E+01  0.10199356707E+01 0.  0.
     999903    2    3    3    0    0  0.62055497683E-02 -0.11006348254E+00  0.67724888882E-01  0.13097540265E+00  0.20381768501E-01 0.  0.
         14    1    1    2    0    0 -0.60737121170E-02  0.14798917510E-01  0.17512083168E-01  0.23718579115E-01  0.00000000000E+00 0. -1.
     999901    1    3    3    0    0 -0.13183765132E-03  0.95264565030E-01 -0.85236972050E-01  0.88923601824E+00  0.88000000000E+00 0.  1.
        -11    1    4    4    0    0  0.41986485711E-02 -0.47702392068E-01  0.17893346377E-01  0.51123182847E-01  0.51100000000E-03 0. -1.
         11    1    4    4    0    0  0.20069011972E-02 -0.62361090472E-01  0.49831542505E-01  0.79852219798E-01  0.51100000000E-03 0.  1.
</event>
<event>
 8    1  0.1104109E+005  0.1043930E+01  0.7957747E-01            NaN
         13   -1    0    0    0    0  0.00000000000E+00  0.00000000000E+00  0.74505805969E-08  0.10566000000E+00  0.10566000000E+00 0. -1.
     999900   -1    0    0    0    0 -0.00000000000E+00 -0.00000000000E+00 -0.74505805969E-08  0.93827000000E+00  0.93827000000E+00 0. -1.
     999902    2    1    2    0    0  0.92150767038E-02 -0.21367610751E-01 -0.15497914998E-02  0.10206084589E+01  0.10203419682E+01 0.  0.
     999903    2    3    3    0    0  0.35947520057E-01  0.11743562373E+00  0.32894169916E-01  0.12866263768E+00  0.19715425466E-01 0.  0.
         14    1    1    2    0    0 -0.92150767038E-02  0.21367610751E-01  0.15497914998E-02  0.23321541149E-01  0.00000000000E+00 0.  1.
     999901    1    3    3    0    0 -0.26732443354E-01 -0.13880323448E+00 -0.34443961415E-01  0.89194582117E+00  0.88000000000E+00 0. -1.
        -11    1    4    4    0    0  0.15889324944E-01  0.49267098591E-01  0.39007315494E-02  0.51915262480E-01  0.51100000000E-03 0. -1.
         11    1    4    4    0    0  0.20058195114E-01  0.68168525137E-01  0.28993438366E-01  0.76747375199E-01  0.51100000000E-03 0.  1.
</event>
<event>
 8    1  0.1104109E+005  0.1043930E+01  0.7957747E-01            NaN
         13   -1    0    0    0    0  0.00000000000E+00  0.00000000000E+00  0.74505805969E-08  0.10566000000E+00  0.10566000000E+00 0. -1.
     999900   -1    0    0    0    0 -0.00000000000E+00 -0.00000000000E+00 -0.74505805969E-08  0.93827000000E+00  0.93827000000E+00 0. -1.
     999902    2    1    2    0    0 -0.41177754513E-03  0.17533914406E-01 -0.15805922506E-01  0.10203199407E+01  0.10200467374E+01 0.  0.
     999903    2    3    3    0    0 -0.27770310401E-01  0.66665824829E-02  0.12402408639E+00  0.12879371021E+00  0.19753792610E-01 0.  0.
         14    1    1    2    0    0  0.41177754513E-03 -0.17533914406E-01  0.15805922506E-01  0.23610059327E-01  0.00000000000E+00 0. -1.
     999901    1    3    3    0    0  0.27358532856E-01  0.10867331924E-01 -0.13983000889E+00  0.89152623047E+00  0.88000000000E+00 0. -1.
        -11    1    4    4    0    0 -0.21143133121E-01  0.12051503282E-01  0.70351853116E-01  0.74444040510E-01  0.51100000000E-03 0. -1.
         11    1    4    4    0    0 -0.66271772795E-02 -0.53849207988E-02  0.53672233272E-01  0.54349669697E-01  0.51100000000E-03 0.  1.
</event>
<event>
 8    1  0.1104109E+005  0.1043930E+01  0.7957747E-01            NaN
         13   -1    0    0    0    0  0.00000000000E+00  0.00000000000E+00  0.74505805969E-08  0.10566000000E+00  0.10566000000E+00 0. -1.
     999900   -1    0    0    0    0 -0.00000000000E+00 -0.00000000000E+00 -0.74505805969E-08  0.93827000000E+00  0.93827000000E+00 0. -1.
     999902    2    1    2    0    0  0.20781144096E-01 -0.97715516332E-02  0.60373280423E-02  0.10201857691E+01  0.10199094151E+01 0.  0.
     999903    2    3    3    0    0 -0.69297226898E-01  0.11257809608E-01  0.10708770341E+00  0.12958623771E+00  0.19899066528E-01 0.  0.
         14    1    1    2    0    0 -0.20781144096E-01  0.97715516332E-02 -0.60373280423E-02  0.23744230902E-01  0.00000000000E+00 0.  1.
     999901    1    3    3    0    0  0.90078370994E-01 -0.21029361241E-01 -0.10105037537E+00  0.89059953139E+00  0.88000000000E+00 0. -1.
        -11    1    4    4    0    0 -0.58243778925E-01  0.13910690249E-01  0.98715258865E-01  0.11545912065E+00  0.51100000000E-03 0. -1.
         11    1    4    4    0    0 -0.11053447973E-01 -0.26528806412E-02  0.83724445427E-02  0.14127117059E-01  0.51100000000E-03 0.  1.
</event>
<event>
 8    1  0.1104109E+005  0.1043930E+01  0.7957747E-01            NaN
         13   -1    0    0    0    0  0.00000000000E+00  0.00000000000E+00  0.74505805969E-08  0.10566000000E+00  0.10566000000E+00 0. -1.
     999900   -1    0    0    0    0 -0.00000000000E+00 -0.00000000000E+00 -0.74505805969E-08  0.93827000000E+00  0.93827000000E+00 0. -1.
     999902    2    1    2    0    0  0.13202280853E-01  0.14932035780E-01  0.13012944329E-01  0.10201265836E+01  0.10198488339E+01 0.  0.
     999903    2    3    3    0    0  0.11555885684E-03 -0.97185801455E-01 -0.80908817369E-01  0.12795901580E+00  0.19549415264E-01 0.  0.
         14    1    1    2    0    0 -0.13202280853E-01 -0.14932035780E-01 -0.13012944329E-01  0.23803416401E-01  0.00000000000E+00 0.  1.
     999901    1    3    3    0    0  0.13086721996E-01  0.11211783723E+00  0.93921761699E-01  0.89216756780E+00  0.88000000000E+00 0.  1.
        -11    1    4    4    0    0 -0.46419439488E-02 -0.21084421032E-01 -0.27007497384E-01  0.34579856706E-01  0.51100000000E-03 0. -1.
         11    1    4    4    0    0  0.47575028056E-02 -0.76101380422E-01 -0.53901319986E-01  0.93379159090E-01  0.51100000000E-03 0.  1.
</event>
<event>
 8    1  0.1104109E+005  0.1043930E+01  0.7957747E-01            NaN
         13   -1    0    0    0    0  0.00000000000E+00  0.00000000000E+00  0.74505805969E-08  0.10566000000E+00  0.10566000000E+00 0. -1.
     999900   -1    0    0    0    0 -0.00000000000E+00 -0.00000000000E+00 -0.74505805969E-08  0.93827000000E+00  0.93827000000E+00 0. -1.
     999902    2    1    2    0    0 -0.13975141127E-01 -0.15540426011E-01 -0.11264945900E-01  0.10201874556E+01  0.10199111413E+01 0.  0.
     999903    2    3    3    0    0 -0.46449013103E-01 -0.11612251926E+00  0.38969387496E-01  0.13244042060E+00  0.19491063312E-01 0.  0.
         14    1    1    2    0    0  0.13975141127E-01  0.15540426011E-01  0.11264945900E-01  0.23742544435E-01  0.00000000000E+00 0.  1.
     999901    1    3    3    0    0  0.32473871976E-01  0.10058209325E+00 -0.50234333396E-01  0.88774703497E+00  0.88000000000E+00 0. -1.
        -11    1    4    4    0    0 -0.19819818940E-01 -0.29124272393E-01  0.64381942121E-02  0.35815638078E-01  0.51100000000E-03 0.  1.
         11    1    4    4    0    0 -0.26629194163E-01 -0.86998246864E-01  0.32531193284E-01  0.96624782518E-01  0.51100000000E-03 0. -1.
</event>
<event>
 8    1  0.1104109E+005  0.1043930E+01  0.7957747E-01            NaN
         13   -1    0    0    0    0  0.00000000000E+00  0.00000000000E+00  0.74505805969E-08  0.10566000000E+00  0.10566000000E+00 0.  1.
     999900   -1    0    0    0    0 -0.00000000000E+00 -0.00000000000E+00 -0.74505805969E-08  0.93827000000E+00  0.93827000000E+00 0. -1.
     999902    2    1    2    0    0 -0.11467772846E-01 -0.17225188807E-02  0.18243196399E-01  0.10223130830E+01  0.10220845115E+01 0.  0.
     999903    2    3    3    0    0 -0.58679567103E-01  0.56331634729E-01 -0.10054899575E+00  0.13118412310E+00  0.21968817500E-01 0.  0.
         14    1    1    2    0    0  0.11467772846E-01  0.17225188807E-02 -0.18243196399E-01  0.21616916991E-01  0.00000000000E+00 0. -1.
     999901    1    3    3    0    0  0.47211794257E-01 -0.58054153610E-01  0.11879219214E+00  0.89112895991E+00  0.88000000000E+00 0.  1.
        -11    1    4    4    0    0 -0.28755094898E-01  0.13840005620E-01 -0.44292812763E-01  0.54594098780E-01  0.51100000000E-03 0. -1.
         11    1    4    4    0    0 -0.29924472205E-01  0.42491629109E-01 -0.56256182983E-01  0.76590024323E-01  0.51100000000E-03 0.  1.
</event>
<event>
 8    1  0.1104109E+005  0.1043930E+01  0.7957747E-01            NaN
         13   -1    0    0    0    0  0.00000000000E+00  0.00000000000E+00  0.74505805969E-08  0.10566000000E+00  0.10566000000E+00 0.  1.
     999900   -1    0    0    0    0 -0.00000000000E+00 -0.00000000000E+00 -0.74505805969E-08  0.93827000000E+00  0.93827000000E+00 0.  1.
     999902    2    1    2    0    0 -0.13047122865E-01  0.22142736016E-03 -0.20047012966E-01  0.10200101510E+01  0.10197296451E+01 0.  0.
     999903    2    3    3    0    0 -0.12828573048E-01  0.47787284793E-01  0.11669034893E+00  0.12818075890E+00  0.19117336216E-01 0.  0.
         14    1    1    2    0    0  0.13047122865E-01 -0.22142736016E-03  0.20047012966E-01  0.23919848955E-01  0.00000000000E+00 0. -1.
     999901    1    3    3    0    0 -0.21854981743E-03 -0.47565857433E-01 -0.13673736190E+00  0.89182939215E+00  0.88000000000E+00 0.  1.
        -11    1    4    4    0    0 -0.13087571662E-01  0.44547324458E-01  0.89842149021E-01  0.10113170378E+00  0.51100000000E-03 0.  1.
         11    1    4    4    0    0  0.25899861465E-03  0.32399603349E-02  0.26848199910E-01  0.27049055116E-01  0.51100000000E-03 0. -1.
</event>
<event>
 8    1  0.1104109E+005  0.1043930E+01  0.7957747E-01            NaN
         13   -1    0    0    0    0  0.00000000000E+00  0.00000000000E+00  0.74505805969E-08  0.10566000000E+00  0.10566000000E+00 0.  1.
     999900   -1    0    0    0    0 -0.00000000000E+00 -0.00000000000E+00 -0.74505805969E-08  0.93827000000E+00  0.93827000000E+00 0.  1.
     999902    2    1    2    0    0 -0.20199423266E-01  0.20313601411E-02  0.12555061157E-01  0.10200600883E+01  0.10197807662E+01 0.  0.
     999903    2    3    3    0    0 -0.92367063596E-01  0.88066150861E-01  0.30584252194E-01  0.13274097700E+00  0.19936126234E-01 0.  0.
         14    1    1    2    0    0  0.20199423266E-01 -0.20313601411E-02 -0.12555061157E-01  0.23869911708E-01  0.00000000000E+00 0. -1.
     999901    1    3    3    0    0  0.72167640330E-01 -0.86034790720E-01 -0.18029191037E-01  0.88731911129E+00  0.88000000000E+00 0. -1.
        -11    1    4    4    0    0 -0.37923147767E-01  0.40199840030E-01  0.35924655365E-02  0.55383744949E-01  0.51100000000E-03 0.  1.
         11    1    4    4    0    0 -0.54443915829E-01  0.47866310831E-01  0.26991786658E-01  0.77357232056E-01  0.51100000000E-03 0. -1.
</event>
<event>
 8    1  0.1104109E+005  0.1043930E+01  0.7957747E-01            NaN
         13   -1    0    0    0    0  0.00000000000E+00  0.00000000000E+00  0.74505805969E-08  0.10566000000E+00  0.10566000000E+00 0.  1.
     999900   -1    0    0    0    0 -0.00000000000E+00 -0.00000000000E+00 -0.74505805969E-08  0.93827000000E+00  0.93827000000E+00 0.  1.
     999902    2    1    2    0    0 -0.93741723811E-02  0.19714363886E-01 -0.27688129242E-02  0.10219255101E+01  0.10216885781E+01 0.  0.
     999903    2    3    3    0    0  0.71381303478E-01  0.78718561936E-01 -0.78000955680E-01  0.13307073141E+00  0.18214499514E-01 0.  0.
         14    1    1    2    0    0  0.93741723811E-02 -0.19714363886E-01  0.27688129242E-02  0.22004489912E-01  0.00000000000E+00 0. -1.
     999901    1    3    3    0    0 -0.80755475859E-01 -0.59004198050E-01  0.75232142756E-01  0.88885477867E+00  0.88000000000E+00 0. -1.
        -11    1    4    4    0    0  0.47523204131E-01  0.57790224270E-01 -0.45143958915E-01  0.87386515548E-01  0.51100000000E-03 0.  1.
         11    1    4    4    0    0  0.23858099347E-01  0.20928337667E-01 -0.32856996764E-01  0.45684215866E-01  0.51100000000E-03 0. -1.
</event>
<event>
 8    1  0.1104109E+005  0.1043930E+01  0.7957747E-01            NaN
         13   -1    0    0    0    0  0.00000000000E+00  0.00000000000E+00  0.74505805969E-08  0.10566000000E+00  0.10566000000E+00 0.  1.
     999900   -1    0    0    0    0 -0.00000000000E+00 -0.00000000000E+00 -0.74505805969E-08  0.93827000000E+00  0.93827000000E+00 0.  1.
     999902    2    1    2    0    0  0.25642878814E-01  0.80722694574E-02  0.65203915354E-02  0.10162671319E+01  0.10158905694E+01 0.  0.
     999903    2    3    3    0    0  0.44900173690E-01 -0.71575691097E-01 -0.92598934058E-01  0.12691945984E+00  0.19871626577E-01 0.  0.
         14    1    1    2    0    0 -0.25642878814E-01 -0.80722694574E-02 -0.65203915354E-02  0.27662868142E-01  0.00000000000E+00 0. -1.
     999901    1    3    3    0    0 -0.19257294876E-01  0.79647960554E-01  0.99119325594E-01  0.88934767202E+00  0.88000000000E+00 0. -1.
        -11    1    4    4    0    0  0.19606561820E-01 -0.17454171778E-01 -0.36537173130E-01  0.44992127313E-01  0.51100000000E-03 0. -1.
         11    1    4    4    0    0  0.25293611871E-01 -0.54121519319E-01 -0.56061760928E-01  0.81927332522E-01  0.51100000000E-03 0.  1.
</event>
<event>
 8    1  0.1104109E+005  0.1043930E+01  0.7957747E-01            NaN
         13   -1    0    0    0    0  0.00000000000E+00  0.00000000000E+00  0.74505805969E-08  0.10566000000E+00  0.10566000000E+00 0. -1.
     999900   -1    0    0    0    0 -0.00000000000E+00 -0.00000000000E+00 -0.74505805969E-08  0.93827000000E+00  0.93827000000E+00 0.  1.
     999902    2    1    2    0    0 -0.14495208982E-01 -0.16118572215E-01  0.91195495808E-02  0.10204122272E+01  0.10201411803E+01 0.  0.
     999903    2    3    3    0    0  0.11991430974E+00 -0.28539283513E-01 -0.33070333374E-01  0.12912092855E+00  0.19612109958E-01 0.  0.
         14    1    1    2    0    0  0.14495208982E-01  0.16118572215E-01 -0.91195495808E-02  0.23517772816E-01  0.00000000000E+00 0.  1.
     999901    1    3    3    0    0 -0.13440951872E+00  0.12420711298E-01  0.42189882954E-01  0.89129129863E+00  0.88000000000E+00 0.  1.
        -11    1    4    4    0    0  0.38541963411E-01 -0.18000162702E-01 -0.76805192670E-02  0.43228928949E-01  0.51100000000E-03 0. -1.
         11    1    4    4    0    0  0.81372346329E-01 -0.10539120812E-01 -0.25389814107E-01  0.85891999604E-01  0.51100000000E-03 0.  1.
</event>
<event>
 8    1  0.1104109E+005  0.1043930E+01  0.7957747E-01            NaN
         13   -1    0    0    0    0  0.00000000000E+00  0.00000000000E+00  0.74505805969E-08  0.10566000000E+00  0.10566000000E+00 0.  1.
     999900   -1    0    0    0    0 -0.00000000000E+00 -0.00000000000E+00 -0.74505805969E-08  0.93827000000E+00  0.93827000000E+00 0. -1.
     999902    2    1    2    0    0  0.57306068888E-02  0.21337854976E-02 -0.21470252842E-01  0.10216059176E+01  0.10213619761E+01 0.  0.
     999903    2    3    3    0    0  0.44660286830E-01 -0.11068178888E+00  0.47089067696E-01  0.13090773406E+00  0.25970270150E-01 0.  0.
         14    1    1    2    0    0 -0.57306068888E-02 -0.21337854976E-02  0.21470252842E-01  0.22324082354E-01  0.00000000000E+00 0.  1.
     999901    1    3    3    0    0 -0.38929679941E-01  0.11281557438E+00 -0.68559320538E-01  0.89069818358E+00  0.88000000000E+00 0.  1.
        -11    1    4    4    0    0  0.19884928039E-01 -0.42201778538E-01  0.31891605012E-01  0.56513149497E-01  0.51100000000E-03 0. -1.
         11    1    4    4    0    0  0.24775358791E-01 -0.68480010344E-01  0.15197462684E-01  0.74394584567E-01  0.51100000000E-03 0.  1.
</event>
<event>
 8    1  0.1104109E+005  0.1043930E+01  0.7957747E-01            NaN
         13   -1    0    0    0    0  0.00000000000E+00  0.00000000000E+00  0.74505805969E-08  0.10566000000E+00  0.10566000000E+00 0.  1.
     999900   -1    0    0    0    0 -0.00000000000E+00 -0.00000000000E+00 -0.74505805969E-08  0.93827000000E+00  0.93827000000E+00 0. -1.
     999902    2    1    2    0    0  0.18623195330E-01 -0.14856551378E-01  0.11454061192E-02  0.10200793715E+01  0.10198005059E+01 0.  0.
     999903    2    3    3    0    0  0.63051634035E-01 -0.10197118193E+00  0.53107318582E-01  0.13313919014E+00  0.23065692384E-01 0.  0.
         14    1    1    2    0    0 -0.18623195330E-01  0.14856551378E-01 -0.11454061192E-02  0.23850628468E-01  0.00000000000E+00 0. -1.
     999901    1    3    3    0    0 -0.44428438706E-01  0.87114630552E-01 -0.51961912463E-01  0.88694018139E+00  0.88000000000E+00 0. -1.
        -11    1    4    4    0    0  0.39068376875E-01 -0.72613046425E-01  0.25742488111E-01  0.86382460013E-01  0.51100000000E-03 0.  1.
         11    1    4    4    0    0  0.23983257160E-01 -0.29358135505E-01  0.27364830471E-01  0.46756730126E-01  0.51100000000E-03 0. -1.
</event>
<event>
 8    1  0.1104109E+005  0.1043930E+01  0.7957747E-01            NaN
         13   -1    0    0    0    0  0.00000000000E+00  0.00000000000E+00  0.74505805969E-08  0.10566000000E+00  0.10566000000E+00 0. -1.
     999900   -1    0    0    0    0 -0.00000000000E+00 -0.00000000000E+00 -0.74505805969E-08  0.93827000000E+00  0.93827000000E+00 0.  1.
     999902    2    1    2    0    0 -0.58092928438E-02 -0.19593488558E-01  0.12414444218E-01  0.10200182643E+01  0.10197379509E+01 0.  0.
     999903    2    3    3    0    0  0.84279956802E-01 -0.19192117738E-01  0.96897459378E-01  0.13139370140E+00  0.20093248422E-01 0.  0.
         14    1    1    2    0    0  0.58092928438E-02  0.19593488558E-01 -0.12414444218E-01  0.23911735664E-01  0.00000000000E+00 0.  1.
     999901    1    3    3    0    0 -0.90089249646E-01 -0.40137082088E-03 -0.84483015160E-01  0.88862456293E+00  0.88000000000E+00 0.  1.
        -11    1    4    4    0    0  0.68615352702E-01 -0.81581067862E-02  0.69956370302E-01  0.98329935419E-01  0.51100000000E-03 0.  1.
         11    1    4    4    0    0  0.15664604100E-01 -0.11034010951E-01  0.26941089076E-01  0.33063765982E-01  0.51100000000E-03 0. -1.
</event>
<event>
 8    1  0.1104109E+005  0.1043930E+01  0.7957747E-01            NaN
         13   -1    0    0    0    0  0.00000000000E+00  0.00000000000E+00  0.74505805969E-08  0.10566000000E+00  0.10566000000E+00 0. -1.
     999900   -1    0    0    0    0 -0.00000000000E+00 -0.00000000000E+00 -0.74505805969E-08  0.93827000000E+00  0.93827000000E+00 0.  1.
     999902    2    1    2    0    0 -0.20836063624E-01 -0.12622773633E-01 -0.25563909259E-02  0.10194348761E+01  0.10191405475E+01 0.  0.
     999903    2    3    3    0    0 -0.73133182621E-01 -0.10027012710E+00  0.44760177912E-01  0.13227316313E+00  0.94950181481E-02 0.  0.
         14    1    1    2    0    0  0.20836063624E-01  0.12622773633E-01  0.25563909259E-02  0.24495123925E-01  0.00000000000E+00 0.  1.
     999901    1    3    3    0    0  0.52297118997E-01  0.87647353466E-01 -0.47316568838E-01  0.88716171294E+00  0.88000000000E+00 0.  1.
        -11    1    4    4    0    0 -0.13326244420E-01 -0.24439004552E-01  0.11587173197E-01  0.30155885620E-01  0.51100000000E-03 0.  1.
         11    1    4    4    0    0 -0.59806938201E-01 -0.75831122547E-01  0.33173004715E-01  0.10211727751E+00  0.51100000000E-03 0. -1.
</event>
<event>
 8    1  0.1104109E+005  0.1043930E+01  0.7957747E-01            NaN
         13   -1    0    0    0    0  0.00000000000E+00  0.00000000000E+00  0.74505805969E-08  0.10566000000E+00  0.10566000000E+00 0.  1.
     999900   -1    0    0    0    0 -0.00000000000E+00 -0.00000000000E+00 -0.74505805969E-08  0.93827000000E+00  0.93827000000E+00 0.  1.
     999902    2    1    2    0    0  0.85991903189E-03  0.19836113191E-01  0.11331063837E-01  0.10210694695E+01  0.10208135274E+01 0.  0.
     999903    2    3    3    0    0 -0.28538806638E-01 -0.12345082194E+00  0.15659367299E-01  0.12898530023E+00  0.18369076419E-01 0.  0.
         14    1    1    2    0    0 -0.85991903189E-03 -0.19836113191E-01 -0.11331063837E-01  0.22860530504E-01  0.00000000000E+00 0.  1.
     999901    1    3    3    0    0  0.29398725670E-01  0.14328693513E+00 -0.43283034623E-02  0.89208416927E+00  0.88000000000E+00 0.  1.
        -11    1    4    4    0    0 -0.98719125601E-02 -0.22980247761E-01 -0.26877721519E-02  0.25160120924E-01  0.51100000000E-03 0. -1.
         11    1    4    4    0    0 -0.18666894078E-01 -0.10047057418E+00  0.18347139451E-01  0.10382517930E+00  0.51100000000E-03 0.  1.
</event>
<event>
 8    1  0.1104109E+005  0.1043930E+01  0.7957747E-01            NaN
         13   -1    0    0    0    0  0.00000000000E+00  0.00000000000E+00  0.74505805969E-08  0.10566000000E+00  0.10566000000E+00 0. -1.
     999900   -1    0    0    0    0 -0.00000000000E+00 -0.00000000000E+00 -0.74505805969E-08  0.93827000000E+00  0.93827000000E+00 0. -1.
     999902    2    1    2    0    0  0.13575102827E-01 -0.16266494220E-01  0.10250791785E-01  0.10203936243E+01  0.10201221434E+01 0.  0.
     999903    2    3    3    0    0  0.30769090161E-01  0.46484055011E-01 -0.11472703757E+00  0.12918505021E+00  0.20468995247E-01 0.  0.
         14    1    1    2    0    0 -0.13575102827E-01  0.16266494220E-01 -0.10250791785E-01  0.23536375745E-01  0.00000000000E+00 0. -1.
     999901    1    3    3    0    0 -0.17193987334E-01 -0.62750549231E-01  0.12497782936E+00  0.89120857405E+00  0.88000000000E+00 0.  1.
        -11    1    4    4    0    0  0.64942164441E-02  0.16475427070E-01 -0.57410734323E-01  0.60082177731E-01  0.51100000000E-03 0. -1.
         11    1    4    4    0    0  0.24274873717E-01  0.30008627941E-01 -0.57316303251E-01  0.69102872474E-01  0.51100000000E-03 0.  1.
</event>
<event>
 8    1  0.1104109E+005  0.1043930E+01  0.7957747E-01            NaN
         13   -1    0    0    0    0  0.00000000000E+00  0.00000000000E+00  0.74505805969E-08  0.10566000000E+00  0.10566000000E+00 0. -1.
     999900   -1    0    0    0    0 -0.00000000000E+00 -0.00000000000E+00 -0.74505805969E-08  0.93827000000E+00  0.93827000000E+00 0.  1.
     999902    2    1    2    0    0  0.15600944561E-01 -0.17272097569E-01 -0.36902726941E-02  0.10203644969E+01  0.10200923358E+01 0.  0.
     999903    2    3    3    0    0  0.10670912168E+00  0.14129178827E-01 -0.73757493095E-01  0.13233513053E+00  0.22044242774E-01 0.  0.
         14    1    1    2    0    0 -0.15600944561E-01  0.17272097569E-01  0.36902726941E-02  0.23565503139E-01  0.00000000000E+00 0. -1.
     999901    1    3    3    0    0 -0.91108177121E-01 -0.31401276395E-01  0.70067220401E-01  0.88802936633E+00  0.88000000000E+00 0. -1.
        -11    1    4    4    0    0  0.76144334233E-01  0.63426227802E-02 -0.62915298998E-01  0.98978707147E-01  0.51100000000E-03 0.  1.
         11    1    4    4    0    0  0.30564787449E-01  0.77865560464E-02 -0.10842194097E-01  0.33356423380E-01  0.51100000000E-03 0. -1.
</event>
<event>
 8    1  0.1104109E+005  0.1043930E+01  0.7957747E-01            NaN
         13   -1    0    0    0    0  0.00000000000E+00  0.00000000000E+00  0.74505805969E-08  0.10566000000E+00  0.10566000000E+00 0. -1.
     999900   -1    0    0    0    0 -0.00000000000E+00 -0.00000000000E+00 -0.74505805969E-08  0.93827000000E+00  0.93827000000E+00 0.  1.
     999902    2    1    2    0    0 -0.85028143701E-02 -0.17964642978E-01 -0.79269932370E-02  0.10225322555E+01  0.10223083439E+01 0.  0.
     999903    2    3    3    0    0  0.65252827100E-01 -0.14158025636E-01 -0.11379245289E+00  0.13311565986E+00  0.17682630787E-01 0.  0.
         14    1    1    2    0    0  0.85028143701E-02  0.17964642978E-01  0.79269932370E-02  0.21397744538E-01  0.00000000000E+00 0. -1.
     999901    1    3    3    0    0 -0.73755641470E-01 -0.38066173423E-02  0.10586545965E+00  0.88941659560E+00  0.88000000000E+00 0.  1.
        -11    1    4    4    0    0  0.78698047952E-02 -0.77635736032E-02 -0.22898699669E-01  0.25432626096E-01  0.51100000000E-03 0.  1.
         11    1    4    4    0    0  0.57383022305E-01 -0.63944520328E-02 -0.90893753218E-01  0.10768303376E+00  0.51100000000E-03 0. -1.
</event>
<event>
 8    1  0.1104109E+005  0.1043930E+01  0.7957747E-01            NaN
         13   -1    0    0    0    0  0.00000000000E+00  0.00000000000E+00  0.74505805969E-08  0.10566000000E+00  0.10566000000E+00 0. -1.
     999900   -1    0    0    0    0 -0.00000000000E+00 -0.00000000000E+00 -0.74505805969E-08  0.93827000000E+00  0.93827000000E+00 0.  1.
     999902    2    1    2    0    0 -0.23422768318E-01 -0.24771933454E-02  0.12922484938E-02  0.10203411792E+01  0.10200684729E+01 0.  0.
     999903    2    3    3    0    0 -0.47462406750E-01 -0.25379607594E-01 -0.11844786045E+00  0.13161168236E+00  0.19872965314E-01 0.  0.
         14    1    1    2    0    0  0.23422768318E-01  0.24771933454E-02 -0.12922484938E-02  0.23588820842E-01  0.00000000000E+00 0.  1.
     999901    1    3    3    0    0  0.24039638432E-01  0.22902414248E-01  0.11974010895E+00  0.88872949680E+00  0.88000000000E+00 0. -1.
        -11    1    4    4    0    0 -0.25572954061E-01 -0.65396588194E-02 -0.39179227848E-01  0.47244217981E-01  0.51100000000E-03 0. -1.
         11    1    4    4    0    0 -0.21889452689E-01 -0.18839948774E-01 -0.79268632606E-01  0.84367464375E-01  0.51100000000E-03 0.  1.
</event>
<event>
 8    1  0.1104109E+005  0.1043930E+01  0.7957747E-01            NaN
         13   -1    0    0    0    0  0.00000000000E+00  0.00000000000E+00  0.74505805969E-08  0.10566000000E+00  0.10566000000E+00 0.  1.
     999900   -1    0    0    0    0 -0.00000000000E+00 -0.00000000000E+00 -0.74505805969E-08  0.93827000000E+00  0.93827000000E+00 0. -1.
     999902    2    1    2    0    0 -0.21404633115E-01  0.99166573687E-02  0.24990694475E-02  0.10202077792E+01  0.10199319433E+01 0.  0.
     999903    2    3    3    0    0 -0.96880928073E-01 -0.82869472424E-01 -0.26193406152E-01  0.13165322535E+00  0.19829612605E-01 0.  0.
         14    1    1    2    0    0  0.21404633115E-01 -0.99166573687E-02 -0.24990694475E-02  0.23722220812E-01  0.00000000000E+00 0. -1.
     999901    1    3    3    0    0  0.75476294959E-01  0.92786129793E-01  0.28692475600E-01  0.88855455383E+00  0.88000000000E+00 0.  1.
        -11    1    4    4    0    0 -0.39294194947E-01 -0.40495493215E-01 -0.30840176868E-02  0.56512750892E-01  0.51100000000E-03 0.  1.
         11    1    4    4    0    0 -0.57586733127E-01 -0.42373979209E-01 -0.23109388465E-01  0.75140474462E-01  0.51100000000E-03 0. -1.
</event>
<event>
 8    1  0.1104109E+005  0.1043930E+01  0.7957747E-01            NaN
         13   -1    0    0    0    0  0.00000000000E+00  0.00000000000E+00  0.74505805969E-08  0.10566000000E+00  0.10566000000E+00 0. -1.
     999900   -1    0    0    0    0 -0.00000000000E+00 -0.00000000000E+00 -0.74505805969E-08  0.93827000000E+00  0.93827000000E+00 0.  1.
     999902    2    1    2    0    0 -0.12617913290E-01  0.90707441707E-02 -0.14360414751E-01  0.10227708023E+01  0.10225519069E+01 0.  0.
     999903    2    3    3    0    0 -0.12296780734E+00  0.50882849839E-01  0.12404991574E-01  0.13449058847E+00  0.14956220196E-01 0.  0.
         14    1    1    2    0    0  0.12617913290E-01 -0.90707441707E-02  0.14360414751E-01  0.21159197703E-01  0.00000000000E+00 0. -1.
     999901    1    3    3    0    0  0.11034989405E+00 -0.41812105668E-01 -0.26765406325E-01  0.88828021382E+00  0.88000000000E+00 0. -1.
        -11    1    4    4    0    0 -0.73778917665E-01  0.23418680492E-01  0.38315519559E-02  0.77502936713E-01  0.51100000000E-03 0. -1.
         11    1    4    4    0    0 -0.49188889673E-01  0.27464169346E-01  0.85734396182E-02  0.56987651759E-01  0.51100000000E-03 0.  1.
</event>
<event>
 8    1  0.1104109E+005  0.1043930E+01  0.7957747E-01            NaN
         13   -1    0    0    0    0  0.00000000000E+00  0.00000000000E+00  0.74505805969E-08  0.10566000000E+00  0.10566000000E+00 0. -1.
     999900   -1    0    0    0    0 -0.00000000000E+00 -0.00000000000E+00 -0.74505805969E-08  0.93827000000E+00  0.93827000000E+00 0.  1.
     999902    2    1    2    0    0 -0.10644237388E-01  0.16235692358E-01 -0.14466948411E-01  0.10197186371E+01  0.10194311692E+01 0.  0.
     999903    2    3    3    0    0 -0.12980165704E+00  0.65942181195E-02 -0.90005734461E-02  0.13161879480E+00  0.18722791994E-01 0.  0.
         14    1    1    2    0    0  0.10644237388E-01 -0.16235692358E-01  0.14466948411E-01  0.24211362875E-01  0.00000000000E+00 0.  1.
     999901    1    3    3    0    0  0.11915741965E+00  0.96414742383E-02 -0.54663749654E-02  0.88809984233E+00  0.88000000000E+00 0. -1.
        -11    1    4    4    0    0 -0.66631778138E-01 -0.59005577086E-02 -0.34248452276E-02  0.66982095555E-01  0.51100000000E-03 0. -1.
         11    1    4    4    0    0 -0.63169878899E-01  0.12494775828E-01 -0.55757282185E-02  0.64636699245E-01  0.51100000000E-03 0.  1.
</event>
<event>
 8    1  0.1104109E+005  0.1043930E+01  0.7957747E-01            NaN
         13   -1    0    0    0    0  0.00000000000E+00  0.00000000000E+00  0.74505805969E-08  0.10566000000E+00  0.10566000000E+00 0. -1.
     999900   -1    0    0    0    0 -0.00000000000E+00 -0.00000000000E+00 -0.74505805969E-08  0.93827000000E+00  0.93827000000E+00 0.  1.
     999902    2    1    2    0    0 -0.52814249911E-02 -0.13132194556E-01 -0.18684711485E-01  0.10204892998E+01  0.10202200471E+01 0.  0.
     999903    2    3    3    0    0  0.73131062093E-01 -0.70297877780E-01 -0.83308752237E-01  0.13279977065E+00  0.20136708340E-01 0.  0.
         14    1    1    2    0    0  0.52814249911E-02  0.13132194556E-01  0.18684711485E-01  0.23440700226E-01  0.00000000000E+00 0. -1.
     999901    1    3    3    0    0 -0.78412487084E-01  0.57165683224E-01  0.64624040752E-01  0.88768952912E+00  0.88000000000E+00 0. -1.
        -11    1    4    4    0    0  0.46627753957E-01 -0.30944960912E-01 -0.44360925821E-01  0.71413520468E-01  0.51100000000E-03 0.  1.
         11    1    4    4    0    0  0.26503308136E-01 -0.39352916868E-01 -0.38947826416E-01  0.61386250184E-01  0.51100000000E-03 0. -1.
</event>
<event>
 8    1  0.1104109E+005  0.1043930E+01  0.7957747E-01            NaN
         13   -1    0    0    0    0  0.00000000000E+00  0.00000000000E+00  0.74505805969E-08  0.10566000000E+00  0.10566000000E+00 0. -1.
     999900   -1    0    0    0    0 -0.00000000000E+00 -0.00000000000E+00 -0.74505805969E-08  0.93827000000E+00  0.93827000000E+00 0. -1.
     999902    2    1    2    0    0  0.21105206899E-01  0.40195001273E-03  0.34867249798E-02  0.10225349405E+01  0.10223110857E+01 0.  0.
     999903    2    3    3    0    0  0.69290419654E-01  0.11530394436E-01  0.11282278505E+00  0.13439079053E+00  0.19944711145E-01 0.  0.
         14    1    1    2    0    0 -0.21105206899E-01 -0.40195001273E-03 -0.34867249798E-02  0.21395059550E-01  0.00000000000E+00 0.  1.
     999901    1    3    3    0    0 -0.48185212755E-01 -0.11128444423E-01 -0.10933606007E+00  0.88814414992E+00  0.88000000000E+00 0. -1.
        -11    1    4    4    0    0  0.55923449998E-01  0.95981382857E-02  0.10329508031E+00  0.11785453430E+00  0.51100000000E-03 0.  1.
         11    1    4    4    0    0  0.13366969655E-01  0.19322561503E-02  0.95277047386E-02  0.16536256232E-01  0.51100000000E-03 0. -1.
</event>
<event>
 8    1  0.1104109E+005  0.1043930E+01  0.7957747E-01            NaN
         13   -1    0    0    0    0  0.00000000000E+00  0.00000000000E+00  0.74505805969E-08  0.10566000000E+00  0.10566000000E+00 0. -1.
     999900   -1    0    0    0    0 -0.00000000000E+00 -0.00000000000E+00 -0.74505805969E-08  0.93827000000E+00  0.93827000000E+00 0. -1.
     999902    2    1    2    0    0  0.19073663083E-01 -0.10234552545E-01  0.89535559881E-02  0.10205052939E+01  0.10202364128E+01 0.  0.
     999903    2    3    3    0    0  0.58558186129E-01 -0.15936861488E-01 -0.11434846265E+00  0.13101390461E+00  0.20150125936E-01 0.  0.
         14    1    1    2    0    0 -0.19073663083E-01  0.10234552545E-01 -0.89535559881E-02  0.23424706060E-01  0.00000000000E+00 0.  1.
     999901    1    3    3    0    0 -0.39484523046E-01  0.57023089431E-02  0.12330201864E+00  0.88949138933E+00  0.88000000000E+00 0.  1.
        -11    1    4    4    0    0  0.52329668576E-01 -0.17208403462E-01 -0.87335255371E-01  0.10325808111E+00  0.51100000000E-03 0.  1.
         11    1    4    4    0    0  0.62285175528E-02  0.12715419747E-02 -0.27013207276E-01  0.27755823501E-01  0.51100000000E-03 0. -1.
</event>
<event>
 8    1  0.1104109E+005  0.1043930E+01  0.7957747E-01            NaN
         13   -1    0    0    0    0  0.00000000000E+00  0.00000000000E+00  0.74505805969E-08  0.10566000000E+00  0.10566000000E+00 0.  1.
     999900   -1    0    0    0    0 -0.00000000000E+00 -0.00000000000E+00 -0.74505805969E-08  0.93827000000E+00  0.93827000000E+00 0. -1.
     999902    2    1    2    0    0 -0.20547556844E-01 -0.10766071699E-01 -0.25678780140E-02  0.10205910971E+01  0.10203242049E+01 0.  0.
     999903    2    3    3    0    0 -0.71896585434E-01 -0.11021366315E+00 -0.95086456215E-02  0.13347514049E+00  0.20224446730E-01 0.  0.
         14    1    1    2    0    0  0.20547556844E-01  0.10766071699E-01  0.25678780140E-02  0.23338902922E-01  0.00000000000E+00 0.  1.
     999901    1    3    3    0    0  0.51349028590E-01  0.99447591447E-01  0.69407676075E-02  0.88711595659E+00  0.88000000000E+00 0.  1.
        -11    1    4    4    0    0 -0.28088503815E-01 -0.36066003395E-01  0.55257966380E-02  0.46049062933E-01  0.51100000000E-03 0.  1.
         11    1    4    4    0    0 -0.43808081619E-01 -0.74147659751E-01 -0.15034442260E-01  0.87426077555E-01  0.51100000000E-03 0. -1.
</event>
<event>
 8    1  0.1104109E+005  0.1043930E+01  0.7957747E-01            NaN
         13   -1    0    0    0    0  0.00000000000E+00  0.00000000000E+00  0.74505805969E-08  0.10566000000E+00  0.10566000000E+00 0. -1.
     999900   -1    0    0    0    0 -0.00000000000E+00 -0.00000000000E+00 -0.74505805969E-08  0.93827000000E+00  0.93827000000E+00 0. -1.
     999902    2    1    2    0    0  0.13328793283E-01 -0.17149058010E-01  0.10898495469E-01  0.10196292979E+01  0.10193396789E+01 0.  0.
     999903    2    3    3    0    0  0.74228850782E-01 -0.63945097198E-01  0.87479442591E-01  0.13297077974E+00  0.20728667237E-01 0.  0.
         14    1    1    2    0    0 -0.13328793283E-01  0.17149058010E-01 -0.10898495469E-01  0.24300702140E-01  0.00000000000E+00 0. -1.
     999901    1    3    3    0    0 -0.60900057499E-01  0.46796039188E-01 -0.76580947122E-01  0.88665851812E+00  0.88000000000E+00 0.  1.
        -11    1    4    4    0    0  0.13148046390E-01 -0.16408699465E-01  0.94295898735E-02  0.23049833583E-01  0.51100000000E-03 0. -1.
         11    1    4    4    0    0  0.61080804391E-01 -0.47536397733E-01  0.78049852717E-01  0.10992094616E+00  0.51100000000E-03 0.  1.
</event>
<event>
 8    1  0.1104109E+005  0.1043930E+01  0.7957747E-01            NaN
         13   -1    0    0    0    0  0.00000000000E+00  0.00000000000E+00  0.74505805969E-08  0.10566000000E+00  0.10566000000E+00 0.  1.
     999900   -1    0    0    0    0 -0.00000000000E+00 -0.00000000000E+00 -0.74505805969E-08  0.93827000000E+00  0.93827000000E+00 0.  1.
     999902    2    1    2    0    0  0.26815110748E-01  0.67676276984E-02 -0.13367143507E-01  0.10132130426E+01  0.10127473220E+01 0.  0.
     999903    2    3    3    0    0  0.12255848347E+00 -0.19473958332E-01  0.19021314440E-01  0.12703900408E+00  0.19423728587E-01 0.  0.
         14    1    1    2    0    0 -0.26815110748E-01 -0.67676276984E-02  0.13367143507E-01  0.30716957444E-01  0.00000000000E+00 0.  1.
     999901    1    3    3    0    0 -0.95743372719E-01  0.26241586030E-01 -0.32388457947E-01  0.88617403847E+00  0.88000000000E+00 0. -1.
        -11    1    4    4    0    0  0.57842956520E-01 -0.18998300880E-01  0.88234150887E-02  0.61521190090E-01  0.51100000000E-03 0.  1.
         11    1    4    4    0    0  0.64715526947E-01 -0.47565745195E-03  0.10197899351E-01  0.65517813992E-01  0.51100000000E-03 0. -1.
</event>
<event>
 8    1  0.1104109E+005  0.1043930E+01  0.7957747E-01            NaN
         13   -1    0    0    0    0  0.00000000000E+00  0.00000000000E+00  0.74505805969E-08  0.10566000000E+00  0.10566000000E+00 0. -1.
     999900   -1    0    0    0    0 -0.00000000000E+00 -0.00000000000E+00 -0.74505805969E-08  0.93827000000E+00  0.93827000000E+00 0.  1.
     999902    2    1    2    0    0 -0.39803651883E-02 -0.22342015750E-01  0.73532956549E-02  0.10200746037E+01  0.10197956252E+01 0.  0.
     999903    2    3    3    0    0  0.41957957623E-01 -0.92559612002E-01 -0.80821891171E-01  0.13169647257E+00  0.22000700297E-01 0.  0.
         14    1    1    2    0    0  0.39803651883E-02  0.22342015750E-01 -0.73532956549E-02  0.23855396282E-01  0.00000000000E+00 0.  1.
     999901    1    3    3    0    0 -0.45938322812E-01  0.70217596252E-01  0.88175186826E-01  0.88837813115E+00  0.88000000000E+00 0. -1.
        -11    1    4    4    0    0  0.20454769437E-01 -0.68809482780E-01 -0.59103341226E-01  0.92987142005E-01  0.51100000000E-03 0. -1.
         11    1    4    4    0    0  0.21503188186E-01 -0.23750129222E-01 -0.21718549945E-01  0.38709330567E-01  0.51100000000E-03 0.  1.
</event>
<event>
 8    1  0.1104109E+005  0.1043930E+01  0.7957747E-01            NaN
         13   -1    0    0    0    0  0.00000000000E+00  0.00000000000E+00  0.74505805969E-08  0.10566000000E+00  0.10566000000E+00 0.  1.
     999900   -1    0    0    0    0 -0.00000000000E+00 -0.00000000000E+00 -0.74505805969E-08  0.93827000000E+00  0.93827000000E+00 0.  1.
     999902    2    1    2    0    0 -0.47987078031E-02  0.23219628613E-01  0.11251183869E-02  0.10201930111E+01  0.10199168276E+01 0.  0.
     999903    2    3    3    0    0  0.19482650235E-01 -0.11416360965E+00 -0.50129376843E-01  0.12772969995E+00  0.19723549333E-01 0.  0.
         14    1    1    2    0    0  0.47987078031E-02 -0.23219628613E-01 -0.11251183869E-02  0.23736988876E-01  0.00000000000E+00 0.  1.
     999901    1    3    3    0    0 -0.24281358038E-01  0.13738323827E+00  0.51254495230E-01  0.89246331117E+00  0.88000000000E+00 0. -1.
        -11    1    4    4    0    0 -0.18915123349E-02 -0.45321571013E-01 -0.20817023134E-01  0.49912244902E-01  0.51100000000E-03 0.  1.
         11    1    4    4    0    0  0.21374162570E-01 -0.68842038640E-01 -0.29312353710E-01  0.77817455051E-01  0.51100000000E-03 0. -1.
</event>
<event>
 8    1  0.1104109E+005  0.1043930E+01  0.7957747E-01            NaN
         13   -1    0    0    0    0  0.00000000000E+00  0.00000000000E+00  0.74505805969E-08  0.10566000000E+00  0.10566000000E+00 0.  1.
     999900   -1    0    0    0    0 -0.00000000000E+00 -0.00000000000E+00 -0.74505805969E-08  0.93827000000E+00  0.93827000000E+00 0.  1.
     999902    2    1    2    0    0  0.18933463991E-01 -0.10957145651E-01 -0.82142864752E-02  0.10205631517E+01  0.10202956125E+01 0.  0.
     999903    2    3    3    0    0  0.72036954497E-01  0.95078725284E-01  0.49652589457E-01  0.13072487311E+00  0.19857643224E-01 0.  0.
         14    1    1    2    0    0 -0.18933463991E-01  0.10957145651E-01  0.82142864752E-02  0.23366848350E-01  0.00000000000E+00 0. -1.
     999901    1    3    3    0    0 -0.53103490507E-01 -0.10603587094E+00 -0.57866875932E-01  0.88983827854E+00  0.88000000000E+00 0. -1.
        -11    1    4    4    0    0  0.69178927015E-01  0.81270150089E-01  0.42206671123E-01  0.11477031605E+00  0.51100000000E-03 0.  1.
         11    1    4    4    0    0  0.28580274821E-02  0.13808575195E-01  0.74459183332E-02  0.15954557055E-01  0.51100000000E-03 0. -1.
</event>
<event>
 8    1  0.1104109E+005  0.1043930E+01  0.7957747E-01            NaN
         13   -1    0    0    0    0  0.00000000000E+00  0.00000000000E+00  0.74505805969E-08  0.10566000000E+00  0.10566000000E+00 0.  1.
     999900   -1    0    0    0    0 -0.00000000000E+00 -0.00000000000E+00 -0.74505805969E-08  0.93827000000E+00  0.93827000000E+00 0. -1.
     999902    2    1    2    0    0 -0.21696524825E-01 -0.76277238556E-02 -0.67356241064E-02  0.10199656516E+01  0.10196840886E+01 0.  0.
     999903    2    3    3    0    0  0.70187969511E-01  0.10446183887E+00  0.10134870111E-01  0.12795026838E+00  0.20734723115E-01 0.  0.
         14    1    1    2    0    0  0.21696524825E-01  0.76277238556E-02  0.67356241064E-02  0.23964348370E-01  0.00000000000E+00 0.  1.
     999901    1    3    3    0    0 -0.91884494336E-01 -0.11208956273E+00 -0.16870494217E-01  0.89201538325E+00  0.88000000000E+00 0. -1.
        -11    1    4    4    0    0  0.29676007658E-01  0.38512228172E-01 -0.56730330913E-02  0.48952033407E-01  0.51100000000E-03 0.  1.
         11    1    4    4    0    0  0.40511961853E-01  0.65949610701E-01  0.15807903202E-01  0.78998234977E-01  0.51100000000E-03 0. -1.
</event>
<event>
 8    1  0.1104109E+005  0.1043930E+01  0.7957747E-01            NaN
         13   -1    0    0    0    0  0.00000000000E+00  0.00000000000E+00  0.74505805969E-08  0.10566000000E+00  0.10566000000E+00 0. -1.
     999900   -1    0    0    0    0 -0.00000000000E+00 -0.00000000000E+00 -0.74505805969E-08  0.93827000000E+00  0.93827000000E+00 0. -1.
     999902    2    1    2    0    0 -0.21518102428E-01  0.64606303174E-02  0.12656942694E-01  0.10181430522E+01  0.10178164413E+01 0.  0.
     999903    2    3    3    0    0 -0.51630788180E-02  0.86026037239E-01  0.96323305221E-01  0.13045042470E+00  0.17663456907E-01 0.  0.
         14    1    1    2    0    0  0.21518102428E-01 -0.64606303174E-02 -0.12656942694E-01  0.25786947756E-01  0.00000000000E+00 0. -1.
     999901    1    3    3    0    0 -0.16355023610E-01 -0.79565406922E-01 -0.83666362527E-01  0.88769262754E+00  0.88000000000E+00 0. -1.
        -11    1    4    4    0    0 -0.67422349297E-02  0.12322521122E-01  0.12383818854E-01  0.18732921531E-01  0.51100000000E-03 0. -1.
         11    1    4    4    0    0  0.15791561117E-02  0.73703516117E-01  0.83939486367E-01  0.11171750317E+00  0.51100000000E-03 0.  1.
</event>
<event>
 8    1  0.1104109E+005  0.1043930E+01  0.7957747E-01            NaN
         13   -1    0    0    0    0  0.00000000000E+00  0.00000000000E+00  0.74505805969E-08  0.10566000000E+00  0.10566000000E+00 0. -1.
     999900   -1    0    0    0    0 -0.00000000000E+00 -0.00000000000E+00 -0.74505805969E-08  0.93827000000E+00  0.93827000000E+00 0. -1.
     999902    2    1    2    0    0  0.12823532222E-02  0.12299119276E-01  0.19754206730E-01  0.10206246047E+01  0.10203584872E+01 0.  0.
     999903    2    3    3    0    0 -0.10514884397E+00  0.54436368073E-01 -0.50996770727E-01  0.13039494432E+00  0.19559481701E-01 0.  0.
         14    1    1    2    0    0 -0.12823532222E-02 -0.12299119276E-01 -0.19754206730E-01  0.23305395261E-01  0.00000000000E+00 0. -1.
     999901    1    3    3    0    0  0.10643119719E+00 -0.42137248797E-01  0.70750977456E-01  0.89022966041E+00  0.88000000000E+00 0.  1.
        -11    1    4    4    0    0 -0.77142509423E-02  0.33705689063E-02 -0.97946040160E-02  0.12925393270E-01  0.51100000000E-03 0. -1.
         11    1    4    4    0    0 -0.97434593024E-01  0.51065799166E-01 -0.41202166711E-01  0.11746955105E+00  0.51100000000E-03 0.  1.
</event>
<event>
 8    1  0.1104109E+005  0.1043930E+01  0.7957747E-01            NaN
         13   -1    0    0    0    0  0.00000000000E+00  0.00000000000E+00  0.74505805969E-08  0.10566000000E+00  0.10566000000E+00 0.  1.
     999900   -1    0    0    0    0 -0.00000000000E+00 -0.00000000000E+00 -0.74505805969E-08  0.93827000000E+00  0.93827000000E+00 0.  1.
     999902    2    1    2    0    0  0.12074740954E-02 -0.23393680785E-01 -0.56656578951E-02  0.10198297516E+01  0.10195449476E+01 0.  0.
     999903    2    3    3    0    0 -0.94727244314E-01 -0.31194361413E-01  0.81385437443E-01  0.13031178436E+00  0.20278873634E-01 0.  0.
         14    1    1    2    0    0 -0.12074740954E-02  0.23393680785E-01  0.56656578951E-02  0.24100248416E-01  0.00000000000E+00 0.  1.
     999901    1    3    3    0    0  0.95934718410E-01  0.78006806287E-02 -0.87051095338E-01  0.88951796722E+00  0.88000000000E+00 0.  1.
        -11    1    4    4    0    0 -0.37136490363E-01 -0.21062180530E-01  0.27451713359E-01  0.50760142361E-01  0.51100000000E-03 0. -1.
         11    1    4    4    0    0 -0.57590753951E-01 -0.10132180883E-01  0.53933724084E-01  0.79551641999E-01  0.51100000000E-03 0.  1.
</event>
<event>
 8    1  0.1104109E+005  0.1043930E+01  0.7957747E-01            NaN
         13   -1    0    0    0    0  0.00000000000E+00  0.00000000000E+00  0.74505805969E-08  0.10566000000E+00  0.10566000000E+00 0. -1.
     999900   -1    0    0    0    0 -0.00000000000E+00 -0.00000000000E+00 -0.74505805969E-08  0.93827000000E+00  0.93827000000E+00 0. -1.
     999902    2    1    2    0    0  0.11770603138E-01  0.11080892052E-01 -0.15274688703E-01  0.10216892855E+01  0.10214471825E+01 0.  0.
     999903    2    3    3    0    0 -0.82454235397E-01  0.51666569606E-01  0.84253063264E-01  0.13015617291E+00  0.19336890311E-01 0.  0.
         14    1    1    2    0    0 -0.11770603138E-01 -0.11080892052E-01  0.15274688703E-01  0.22240714509E-01  0.00000000000E+00 0. -1.
     999901    1    3    3    0    0  0.94224838535E-01 -0.40585677554E-01 -0.99527751967E-01  0.89153311258E+00  0.88000000000E+00 0. -1.
        -11    1    4    4    0    0 -0.37744416381E-01  0.28480469100E-01  0.52305015228E-01  0.70511373743E-01  0.51100000000E-03 0. -1.
         11    1    4    4    0    0 -0.44709819017E-01  0.23186100506E-01  0.31948048036E-01  0.59644799165E-01  0.51100000000E-03 0.  1.
</event>
<event>
 8    1  0.1104109E+005  0.1043930E+01  0.7957747E-01            NaN
         13   -1    0    0    0    0  0.00000000000E+00  0.00000000000E+00  0.74505805969E-08  0.10566000000E+00  0.10566000000E+00 0.  1.
     999900   -1    0    0    0    0 -0.00000000000E+00 -0.00000000000E+00 -0.74505805969E-08  0.93827000000E+00  0.93827000000E+00 0.  1.
     999902    2    1    2    0    0 -0.60754488423E-02 -0.15823840730E-01  0.15851634408E-01  0.10207226881E+01  0.10204588314E+01 0.  0.
     999903    2    3    3    0    0 -0.72594971941E-01  0.98890212057E-01 -0.35933640555E-01  0.12928235042E+00  0.19323447308E-01 0.  0.
         14    1    1    2    0    0  0.60754488423E-02  0.15823840730E-01 -0.15851634408E-01  0.23207311940E-01  0.00000000000E+00 0. -1.
     999901    1    3    3    0    0  0.66519523098E-01 -0.11471405279E+00  0.51785274963E-01  0.89144033764E+00  0.88000000000E+00 0.  1.
        -11    1    4    4    0    0 -0.78281279446E-02  0.20639525196E-01 -0.11096132617E-01  0.24711431919E-01  0.51100000000E-03 0. -1.
         11    1    4    4    0    0 -0.64766843996E-01  0.78250686861E-01 -0.24837507939E-01  0.10457091851E+00  0.51100000000E-03 0.  1.
</event>
<event>
 8    1  0.1104109E+005  0.1043930E+01  0.7957747E-01            NaN
         13   -1    0    0    0    0  0.00000000000E+00  0.00000000000E+00  0.74505805969E-08  0.10566000000E+00  0.10566000000E+00 0.  1.
     999900   -1    0    0    0    0 -0.00000000000E+00 -0.00000000000E+00 -0.74505805969E-08  0.93827000000E+00  0.93827000000E+00 0. -1.
     999902    2    1    2    0    0  0.15112007039E-03  0.14446187033E-01  0.18999185866E-01  0.10200619414E+01  0.10197826632E+01 0.  0.
     999903    2    3    3    0    0  0.68797583025E-02  0.75009272506E-01  0.10843679480E+00  0.13343222852E+00  0.19284685751E-01 0.  0.
         14    1    1    2    0    0 -0.15112007039E-03 -0.14446187033E-01 -0.18999185866E-01  0.23868058585E-01  0.00000000000E+00 0. -1.
     999901    1    3    3    0    0 -0.67286382321E-02 -0.60563085473E-01 -0.89437608938E-01  0.88662971289E+00  0.88000000000E+00 0. -1.
        -11    1    4    4    0    0 -0.28160603683E-02  0.16573719196E-01  0.13664977728E-01  0.21670512253E-01  0.51100000000E-03 0. -1.
         11    1    4    4    0    0  0.96958186707E-02  0.58435553310E-01  0.94771817075E-01  0.11176171627E+00  0.51100000000E-03 0.  1.
</event>
<event>
 8    1  0.1104109E+005  0.1043930E+01  0.7957747E-01            NaN
         13   -1    0    0    0    0  0.00000000000E+00  0.00000000000E+00  0.74505805969E-08  0.10566000000E+00  0.10566000000E+00 0.  1.
     999900   -1    0    0    0    0 -0.00000000000E+00 -0.00000000000E+00 -0.74505805969E-08  0.93827000000E+00  0.93827000000E+00 0. -1.
     999902    2    1    2    0    0  0.58360864433E-02 -0.16035388844E-01 -0.16156601622E-01  0.10204304388E+01  0.10201598164E+01 0.  0.
     999903    2    3    3    0    0 -0.12011900837E+00  0.27797716804E-01 -0.35559408730E-01  0.13017064752E+00  0.21877767147E-01 0.  0.
         14    1    1    2    0    0 -0.58360864433E-02  0.16035388844E-01  0.16156601622E-01  0.23499561194E-01  0.00000000000E+00 0.  1.
     999901    1    3    3    0    0  0.12595509481E+00 -0.43833105647E-01  0.19402807108E-01  0.89025979129E+00  0.88000000000E+00 0.  1.
        -11    1    4    4    0    0 -0.10108140442E+00  0.18029434656E-01 -0.22554792990E-01  0.10512607022E+00  0.51100000000E-03 0.  1.
         11    1    4    4    0    0 -0.19037603951E-01  0.97682821481E-02 -0.13004615739E-01  0.25044577294E-01  0.51100000000E-03 0. -1.
</event>
<event>
 8    1  0.1104109E+005  0.1043930E+01  0.7957747E-01            NaN
         13   -1    0    0    0    0  0.00000000000E+00  0.00000000000E+00  0.74505805969E-08  0.10566000000E+00  0.10566000000E+00 0. -1.
     999900   -1    0    0    0    0 -0.00000000000E+00 -0.00000000000E+00 -0.74505805969E-08  0.93827000000E+00  0.93827000000E+00 0. -1.
     999902    2    1    2    0    0  0.10684132583E-02  0.29201735986E-01 -0.24182704030E-03  0.10147077247E+01  0.10142868555E+01 0.  0.
     999903    2    3    3    0    0  0.71013200310E-02  0.77860546922E-01 -0.98723225644E-01  0.12785787176E+00  0.22105804130E-01 0.  0.
         14    1    1    2    0    0 -0.10684132583E-02 -0.29201735986E-01  0.24182704030E-03  0.29222275268E-01  0.00000000000E+00 0.  1.
     999901    1    3    3    0    0 -0.60329067727E-02 -0.48658810936E-01  0.98481398604E-01  0.88684985297E+00  0.88000000000E+00 0.  1.
        -11    1    4    4    0    0  0.52774534534E-02  0.27407129557E-01 -0.52234926990E-01  0.59226269375E-01  0.51100000000E-03 0.  1.
         11    1    4    4    0    0  0.18238665776E-02  0.50453417365E-01 -0.46488298654E-01  0.68631602385E-01  0.51100000000E-03 0. -1.
</event>
<event>
 8    1  0.1104109E+005  0.1043930E+01  0.7957747E-01            NaN
         13   -1    0    0    0    0  0.00000000000E+00  0.00000000000E+00  0.74505805969E-08  0.10566000000E+00  0.10566000000E+00 0. -1.
     999900   -1    0    0    0    0 -0.00000000000E+00 -0.00000000000E+00 -0.74505805969E-08  0.93827000000E+00  0.93827000000E+00 0.  1.
     999902    2    1    2    0    0  0.22074821737E-01  0.96153895043E-02  0.56607456485E-03  0.10198452764E+01  0.10195608436E+01 0.  0.
     999903    2    3    3    0    0  0.72910250514E-01 -0.10030213115E+00  0.35863973497E-01  0.13085031364E+00  0.21427968651E-01 0.  0.
         14    1    1    2    0    0 -0.22074821737E-01 -0.96153895043E-02 -0.56607456485E-03  0.24084723591E-01  0.00000000000E+00 0.  1.
     999901    1    3    3    0    0 -0.50835428778E-01  0.10991752065E+00 -0.35297898932E-01  0.88899496277E+00  0.88000000000E+00 0.  1.
        -11    1    4    4    0    0  0.48110809944E-01 -0.81483953087E-01  0.25012732824E-01  0.97878407059E-01  0.51100000000E-03 0. -1.
         11    1    4    4    0    0  0.24799440570E-01 -0.18818178064E-01  0.10851240673E-01  0.32971906578E-01  0.51100000000E-03 0.  1.
</event>
<event>
 8    1  0.1104109E+005  0.1043930E+01  0.7957747E-01            NaN
         13   -1    0    0    0    0  0.00000000000E+00  0.00000000000E+00  0.74505805969E-08  0.10566000000E+00  0.10566000000E+00 0. -1.
     999900   -1    0    0    0    0 -0.00000000000E+00 -0.00000000000E+00 -0.74505805969E-08  0.93827000000E+00  0.93827000000E+00 0.  1.
     999902    2    1    2    0    0  0.26584437855E-02 -0.17307081272E-01  0.15570543714E-01  0.10204983074E+01  0.10202292641E+01 0.  0.
     999903    2    3    3    0    0 -0.11623589107E+00  0.52225279644E-01  0.12452089210E-01  0.12977930749E+00  0.21197922565E-01 0.  0.
         14    1    1    2    0    0 -0.26584437855E-02  0.17307081272E-01 -0.15570543714E-01  0.23431692578E-01  0.00000000000E+00 0.  1.
     999901    1    3    3    0    0  0.11889433486E+00 -0.69532360915E-01  0.31184545037E-02  0.89071899993E+00  0.88000000000E+00 0. -1.
        -11    1    4    4    0    0 -0.54459498954E-01  0.21292238637E-01 -0.44711249337E-02  0.58646811777E-01  0.51100000000E-03 0.  1.
         11    1    4    4    0    0 -0.61776392116E-01  0.30933041007E-01  0.16923214144E-01  0.71132495716E-01  0.51100000000E-03 0. -1.
</event>
<event>
 8    1  0.1104109E+005  0.1043930E+01  0.7957747E-01            NaN
         13   -1    0    0    0    0  0.00000000000E+00  0.00000000000E+00  0.74505805969E-08  0.10566000000E+00  0.10566000000E+00 0.  1.
     999900   -1    0    0    0    0 -0.00000000000E+00 -0.00000000000E+00 -0.74505805969E-08  0.93827000000E+00  0.93827000000E+00 0.  1.
     999902    2    1    2    0    0  0.53587452554E-02 -0.72409029288E-02 -0.20979190997E-01  0.10210985900E+01  0.10208433069E+01 0.  0.
     999903    2    3    3    0    0 -0.29659712732E-01 -0.11562002466E+00 -0.53754359607E-01  0.13315346893E+00  0.24343920186E-01 0.  0.
         14    1    1    2    0    0 -0.53587452554E-02  0.72409029288E-02  0.20979190997E-01  0.22831409962E-01  0.00000000000E+00 0.  1.
     999901    1    3    3    0    0  0.35018457987E-01  0.10837912173E+00  0.32775168610E-01  0.88794512111E+00  0.88000000000E+00 0. -1.
        -11    1    4    4    0    0 -0.83346620383E-02 -0.55855019762E-01 -0.13705769633E-01  0.58115050255E-01  0.51100000000E-03 0.  1.
         11    1    4    4    0    0 -0.21325050693E-01 -0.59765004894E-01 -0.40048589974E-01  0.75038418673E-01  0.51100000000E-03 0. -1.
</event>
<event>
 8    1  0.1104109E+005  0.1043930E+01  0.7957747E-01            NaN
         13   -1    0    0    0    0  0.00000000000E+00  0.00000000000E+00  0.74505805969E-08  0.10566000000E+00  0.10566000000E+00 0. -1.
     999900   -1    0    0    0    0 -0.00000000000E+00 -0.00000000000E+00 -0.74505805969E-08  0.93827000000E+00  0.93827000000E+00 0. -1.
     999902    2    1    2    0    0 -0.11465310921E-01 -0.84318892395E-02 -0.19047109051E-01  0.10201530685E+01  0.10198759437E+01 0.  0.
     999903    2    3    3    0    0 -0.10982284485E+00  0.18653655967E-01  0.64449117154E-01  0.13033317037E+00  0.20591999982E-01 0.  0.
         14    1    1    2    0    0  0.11465310921E-01  0.84318892395E-02  0.19047109051E-01  0.23776931548E-01  0.00000000000E+00 0. -1.
     999901    1    3    3    0    0  0.98357533931E-01 -0.27085545206E-01 -0.83496226205E-01  0.88981989809E+00  0.88000000000E+00 0. -1.
        -11    1    4    4    0    0 -0.90993664786E-01  0.21853636589E-01  0.58323096298E-01  0.11026909425E+00  0.51100000000E-03 0. -1.
         11    1    4    4    0    0 -0.18829180065E-01 -0.31999806224E-02  0.61260208555E-02  0.20064076117E-01  0.51100000000E-03 0.  1.
</event>
<event>
 8    1  0.1104109E+005  0.1043930E+01  0.7957747E-01            NaN
         13   -1    0    0    0    0  0.00000000000E+00  0.00000000000E+00  0.74505805969E-08  0.10566000000E+00  0.10566000000E+00 0.  1.
     999900   -1    0    0    0    0 -0.00000000000E+00 -0.00000000000E+00 -0.74505805969E-08  0.93827000000E+00  0.93827000000E+00 0.  1.
     999902    2    1    2    0    0  0.21268135914E-01  0.68703807037E-02 -0.80309689326E-02  0.10201806379E+01  0.10199041631E+01 0.  0.
     999903    2    3    3    0    0 -0.86776726991E-01 -0.88713545335E-01 -0.25664954593E-01  0.12826083394E+00  0.19795407438E-01 0.  0.
         14    1    1    2    0    0 -0.21268135914E-01 -0.68703807037E-02  0.80309689326E-02  0.23749362060E-01  0.00000000000E+00 0. -1.
     999901    1    3    3    0    0  0.10804486290E+00  0.95583926038E-01  0.17633985661E-01  0.89191980400E+00  0.88000000000E+00 0. -1.
        -11    1    4    4    0    0 -0.50832050869E-01 -0.38658287985E-01 -0.96647382211E-02  0.64591244850E-01  0.51100000000E-03 0. -1.
         11    1    4    4    0    0 -0.35944676122E-01 -0.50055257350E-01 -0.16000216372E-01  0.63669589090E-01  0.51100000000E-03 0.  1.
</event>
<event>
 8    1  0.1104109E+005  0.1043930E+01  0.7957747E-01            NaN
         13   -1    0    0    0    0  0.00000000000E+00  0.00000000000E+00  0.74505805969E-08  0.10566000000E+00  0.10566000000E+00 0. -1.
     999900   -1    0    0    0    0 -0.00000000000E+00 -0.00000000000E+00 -0.74505805969E-08  0.93827000000E+00  0.93827000000E+00 0. -1.
     999902    2    1    2    0    0  0.13786833839E-01  0.13859851273E-01 -0.11072791763E-01  0.10214627131E+01  0.10212155968E+01 0.  0.
     999903    2    3    3    0    0 -0.25018907914E-01 -0.10013192400E+00  0.74944193803E-01  0.12910688033E+00  0.19990157748E-01 0.  0.
         14    1    1    2    0    0 -0.13786833839E-01 -0.13859851273E-01  0.11072791763E-01  0.22467286931E-01  0.00000000000E+00 0. -1.
     999901    1    3    3    0    0  0.38805741753E-01  0.11399177527E+00 -0.86016985566E-01  0.89235583274E+00  0.88000000000E+00 0. -1.
        -11    1    4    4    0    0 -0.23083656415E-01 -0.87392691686E-01  0.72739448014E-01  0.11602424821E+00  0.51100000000E-03 0.  1.
         11    1    4    4    0    0 -0.19352514988E-02 -0.12739232310E-01  0.22047457891E-02  0.13082632120E-01  0.51100000000E-03 0. -1.
</event>
<event>
 8    1  0.1104109E+005  0.1043930E+01  0.7957747E-01            NaN
         13   -1    0    0    0    0  0.00000000000E+00  0.00000000000E+00  0.74505805969E-08  0.10566000000E+00  0.10566000000E+00 0.  1.
     999900   -1    0    0    0    0 -0.00000000000E+00 -0.00000000000E+00 -0.74505805969E-08  0.93827000000E+00  0.93827000000E+00 0.  1.
     999902    2    1    2    0    0 -0.21166211388E-02 -0.73260176305E-02 -0.22347776292E-01  0.10203170009E+01  0.10200437288E+01 0.  0.
     999903    2    3    3    0    0  0.12020999779E+00  0.36188472303E-01 -0.30140999886E-01  0.13075640893E+00  0.20705301370E-01 0.  0.
         14    1    1    2    0    0  0.21166211388E-02  0.73260176305E-02  0.22347776292E-01  0.23612999059E-01  0.00000000000E+00 0.  1.
     999901    1    3    3    0    0 -0.12232661893E+00 -0.43514489934E-01  0.77932235944E-02  0.88956059202E+00  0.88000000000E+00 0.  1.
        -11    1    4    4    0    0  0.40716201855E-01  0.19356240036E-01 -0.34099597781E-02  0.45214622286E-01  0.51100000000E-03 0.  1.
         11    1    4    4    0    0  0.79493795934E-01  0.16832232268E-01 -0.26731040108E-01  0.85541786639E-01  0.51100000000E-03 0. -1.
</event>
<event>
 8    1  0.1104109E+005  0.1043930E+01  0.7957747E-01            NaN
         13   -1    0    0    0    0  0.00000000000E+00  0.00000000000E+00  0.74505805969E-08  0.10566000000E+00  0.10566000000E+00 0. -1.
     999900   -1    0    0    0    0 -0.00000000000E+00 -0.00000000000E+00 -0.74505805969E-08  0.93827000000E+00  0.93827000000E+00 0.  1.
     999902    2    1    2    0    0 -0.10265766360E-01  0.76706892743E-02  0.19429050093E-01  0.10206552622E+01  0.10203898524E+01 0.  0.
     999903    2    3    3    0    0  0.81172827237E-01  0.41072655737E-01  0.93825705714E-01  0.13216689978E+00  0.19718910042E-01 0.  0.
         14    1    1    2    0    0  0.10265766360E-01 -0.76706892743E-02 -0.19429050093E-01  0.23274737816E-01  0.00000000000E+00 0.  1.
     999901    1    3    3    0    0 -0.91438593597E-01 -0.33401966463E-01 -0.74396655621E-01  0.88848836241E+00  0.88000000000E+00 0.  1.
        -11    1    4    4    0    0  0.47631120155E-01  0.27116692946E-01  0.42874994897E-01  0.69588540378E-01  0.51100000000E-03 0. -1.
         11    1    4    4    0    0  0.33541707082E-01  0.13955962791E-01  0.50950710818E-01  0.62578359400E-01  0.51100000000E-03 0.  1.
</event>
<event>
 7    1  0.1104109E+005  0.1043930E+01  0.7957747E-01            NaN
         13   -1    0    0    0    0  0.00000000000E+00  0.00000000000E+00  0.74505805969E-08  0.10566000000E+00  0.10566000000E+00 0. -1.
     999900   -1    0    0    0    0 -0.00000000000E+00 -0.00000000000E+00 -0.74505805969E-08  0.93827000000E+00  0.93827000000E+00 0. -1.
     999903    2    1    2    0    0 -0.94877774009E-01 -0.43303825780E-01  0.27291783151E-01  0.10948652560E+00  0.19116603574E-01 0.  0.
         14    1    1    2    0    0 -0.24801655434E-02  0.46418314246E-01 -0.15465909387E-01  0.48989850701E-01  0.00000000000E+00 0.  1.
     999901    1    1    2    0    0  0.97357939552E-01 -0.31144884665E-02 -0.11825873764E-01  0.88545362370E+00  0.88000000000E+00 0.  1.
        -11    1    3    3    0    0 -0.38017756494E-01 -0.96889591377E-02  0.39761377966E-02  0.39437248013E-01  0.51100000000E-03 0.  1.
         11    1    3    3    0    0 -0.56860017514E-01 -0.33614866642E-01  0.23315645355E-01  0.70049277587E-01  0.51100000000E-03 0. -1.
</event>
<event>
 8    1  0.1104109E+005  0.1043930E+01  0.7957747E-01            NaN
         13   -1    0    0    0    0  0.00000000000E+00  0.00000000000E+00  0.74505805969E-08  0.10566000000E+00  0.10566000000E+00 0.  1.
     999900   -1    0    0    0    0 -0.00000000000E+00 -0.00000000000E+00 -0.74505805969E-08  0.93827000000E+00  0.93827000000E+00 0. -1.
     999902    2    1    2    0    0  0.65125752441E-02 -0.25507819095E-01 -0.16693431926E-01  0.10127573655E+01  0.10122775056E+01 0.  0.
     999903    2    3    3    0    0 -0.77865356491E-01 -0.93842923941E-01  0.18780390834E-01  0.12537485835E+00  0.22285509005E-01 0.  0.
         14    1    1    2    0    0 -0.65125752441E-02  0.25507819095E-01  0.16693431926E-01  0.31172634485E-01  0.00000000000E+00 0.  1.
     999901    1    3    3    0    0  0.84377931735E-01  0.68335104846E-01 -0.35473822759E-01  0.88738250716E+00  0.88000000000E+00 0.  1.
        -11    1    4    4    0    0 -0.17630400462E-02 -0.48918378164E-02  0.54561757723E-02  0.75544266814E-02  0.51100000000E-03 0. -1.
         11    1    4    4    0    0 -0.76102316445E-01 -0.88951086124E-01  0.13324215061E-01  0.11782043167E+00  0.51100000000E-03 0.  1.
</event>
<event>
 8    1  0.1104109E+005  0.1043930E+01  0.7957747E-01            NaN
         13   -1    0    0    0    0  0.00000000000E+00  0.00000000000E+00  0.74505805969E-08  0.10566000000E+00  0.10566000000E+00 0. -1.
     999900   -1    0    0    0    0 -0.00000000000E+00 -0.00000000000E+00 -0.74505805969E-08  0.93827000000E+00  0.93827000000E+00 0.  1.
     999902    2    1    2    0    0 -0.23139241996E-01  0.55775947346E-02  0.30905584544E-02  0.10199282160E+01  0.10196457621E+01 0.  0.
     999903    2    3    3    0    0 -0.10969767505E+00 -0.32793410336E-01 -0.63055648062E-01  0.13238102459E+00  0.20969817515E-01 0.  0.
         14    1    1    2    0    0  0.23139241996E-01 -0.55775947346E-02 -0.30905584544E-02  0.24001783991E-01  0.00000000000E+00 0. -1.
     999901    1    3    3    0    0  0.86558433050E-01  0.38371005071E-01  0.66146206516E-01  0.88754719142E+00  0.88000000000E+00 0. -1.
        -11    1    4    4    0    0 -0.55980330876E-01 -0.18686597778E-01 -0.44168513580E-01  0.73716382809E-01  0.51100000000E-03 0. -1.
         11    1    4    4    0    0 -0.53717344170E-01 -0.14106812558E-01 -0.18887134482E-01  0.58664641780E-01  0.51100000000E-03 0.  1.
</event>
<event>
 8    1  0.1104109E+005  0.1043930E+01  0.7957747E-01            NaN
         13   -1    0    0    0    0  0.00000000000E+00  0.00000000000E+00  0.74505805969E-08  0.10566000000E+00  0.10566000000E+00 0. -1.
     999900   -1    0    0    0    0 -0.00000000000E+00 -0.00000000000E+00 -0.74505805969E-08  0.93827000000E+00  0.93827000000E+00 0.  1.
     999902    2    1    2    0    0  0.13689320621E-01  0.63741694546E-03  0.22780512362E-01  0.10173451257E+01  0.10169977135E+01 0.  0.
     999903    2    3    3    0    0  0.27333948321E-01  0.58379963920E-01 -0.10633236927E+00  0.12594705870E+00  0.20018089892E-01 0.  0.
         14    1    1    2    0    0 -0.13689320621E-01 -0.63741694546E-03 -0.22780512362E-01  0.26584874326E-01  0.00000000000E+00 0.  1.
     999901    1    3    3    0    0 -0.13644627700E-01 -0.57742546974E-01  0.12911288163E+00  0.89139806697E+00  0.88000000000E+00 0. -1.
        -11    1    4    4    0    0  0.10518442680E-01  0.34081706421E-01 -0.73961944432E-01  0.82114741028E-01  0.51100000000E-03 0.  1.
         11    1    4    4    0    0  0.16815505641E-01  0.24298257499E-01 -0.32370424840E-01  0.43832317675E-01  0.51100000000E-03 0. -1.
</event>
<event>
 8    1  0.1104109E+005  0.1043930E+01  0.7957747E-01            NaN
         13   -1    0    0    0    0  0.00000000000E+00  0.00000000000E+00  0.74505805969E-08  0.10566000000E+00  0.10566000000E+00 0. -1.
     999900   -1    0    0    0    0 -0.00000000000E+00 -0.00000000000E+00 -0.74505805969E-08  0.93827000000E+00  0.93827000000E+00 0.  1.
     999902    2    1    2    0    0  0.24990413799E-01  0.83385724439E-02  0.43230013173E-02  0.10172327920E+01  0.10168823985E+01 0.  0.
     999903    2    3    3    0    0  0.64188600731E-01  0.10644647605E+00 -0.33034113224E-01  0.13012670334E+00  0.19765564980E-01 0.  0.
         14    1    1    2    0    0 -0.24990413799E-01 -0.83385724439E-02 -0.43230013173E-02  0.26697207955E-01  0.00000000000E+00 0. -1.
     999901    1    3    3    0    0 -0.39198186933E-01 -0.98107903604E-01  0.37357114541E-01  0.88710608870E+00  0.88000000000E+00 0. -1.
        -11    1    4    4    0    0  0.38095583231E-01  0.54881035057E-01 -0.85247402176E-02  0.67350826182E-01  0.51100000000E-03 0.  1.
         11    1    4    4    0    0  0.26093017500E-01  0.51565440991E-01 -0.24509373006E-01  0.62775877159E-01  0.51100000000E-03 0. -1.
</event>
<event>
 8    1  0.1104109E+005  0.1043930E+01  0.7957747E-01            NaN
         13   -1    0    0    0    0  0.00000000000E+00  0.00000000000E+00  0.74505805969E-08  0.10566000000E+00  0.10566000000E+00 0. -1.
     999900   -1    0    0    0    0 -0.00000000000E+00 -0.00000000000E+00 -0.74505805969E-08  0.93827000000E+00  0.93827000000E+00 0. -1.
     999902    2    1    2    0    0  0.18475848769E-01  0.13207027758E-01  0.38070179533E-02  0.10209022785E+01  0.10206425360E+01 0.  0.
     999903    2    3    3    0    0 -0.43423860079E-01  0.99708322647E-01 -0.70993484162E-01  0.13134667989E+00  0.19608526094E-01 0.  0.
         14    1    1    2    0    0 -0.18475848769E-01 -0.13207027758E-01 -0.38070179533E-02  0.23027721460E-01  0.00000000000E+00 0. -1.
     999901    1    3    3    0    0  0.61899708848E-01 -0.86501294889E-01  0.74800502115E-01  0.88955559865E+00  0.88000000000E+00 0.  1.
        -11    1    4    4    0    0 -0.25383841414E-01  0.74415016576E-01 -0.43501953211E-01  0.89858862396E-01  0.51100000000E-03 0.  1.
         11    1    4    4    0    0 -0.18040018664E-01  0.25293306071E-01 -0.27491530951E-01  0.41487817494E-01  0.51100000000E-03 0. -1.
</event>
<event>
 8    1  0.1104109E+005  0.1043930E+01  0.7957747E-01            NaN
         13   -1    0    0    0    0  0.00000000000E+00  0.00000000000E+00  0.74505805969E-08  0.10566000000E+00  0.10566000000E+00 0.  1.
     999900   -1    0    0    0    0 -0.00000000000E+00 -0.00000000000E+00 -0.74505805969E-08  0.93827000000E+00  0.93827000000E+00 0. -1.
     999902    2    1    2    0    0 -0.16338345411E-01 -0.41242428547E-02 -0.13663260243E-01  0.10222358628E+01  0.10220056377E+01 0.  0.
     999903    2    3    3    0    0  0.74006094521E-01  0.82086211132E-01 -0.68750940818E-01  0.13171409843E+00  0.20170864574E-01 0.  0.
         14    1    1    2    0    0  0.16338345411E-01  0.41242428547E-02  0.13663260243E-01  0.21694137235E-01  0.00000000000E+00 0.  1.
     999901    1    3    3    0    0 -0.90344439933E-01 -0.86210453987E-01  0.55087680575E-01  0.89052176434E+00  0.88000000000E+00 0.  1.
        -11    1    4    4    0    0  0.56821599775E-01  0.55053170567E-01 -0.39942903155E-01  0.88629805505E-01  0.51100000000E-03 0.  1.
         11    1    4    4    0    0  0.17184494747E-01  0.27033040565E-01 -0.28808037663E-01  0.43084292925E-01  0.51100000000E-03 0. -1.
</event>
<event>
 8    1  0.1104109E+005  0.1043930E+01  0.7957747E-01            NaN
         13   -1    0    0    0    0  0.00000000000E+00  0.00000000000E+00  0.74505805969E-08  0.10566000000E+00  0.10566000000E+00 0. -1.
     999900   -1    0    0    0    0 -0.00000000000E+00 -0.00000000000E+00 -0.74505805969E-08  0.93827000000E+00  0.93827000000E+00 0.  1.
     999902    2    1    2    0    0 -0.17589192877E-01 -0.22068904707E-02  0.15080890356E-01  0.10206559087E+01  0.10203905138E+01 0.  0.
     999903    2    3    3    0    0 -0.16293392836E-01  0.69434244006E-01  0.11005010779E+00  0.13265068152E+00  0.19964673638E-01 0.  0.
         14    1    1    2    0    0  0.17589192877E-01  0.22068904707E-02 -0.15080890356E-01  0.23274091293E-01  0.00000000000E+00 0.  1.
     999901    1    3    3    0    0 -0.12958000408E-02 -0.71641134477E-01 -0.94969217432E-01  0.88800522718E+00  0.88000000000E+00 0.  1.
        -11    1    4    4    0    0 -0.68006953551E-02  0.25062775835E-01  0.23980908154E-01  0.35351623255E-01  0.51100000000E-03 0. -1.
         11    1    4    4    0    0 -0.94926974809E-02  0.44371468171E-01  0.86069199634E-01  0.97299058267E-01  0.51100000000E-03 0.  1.
</event>
<event>
 8    1  0.1104109E+005  0.1043930E+01  0.7957747E-01            NaN
         13   -1    0    0    0    0  0.00000000000E+00  0.00000000000E+00  0.74505805969E-08  0.10566000000E+00  0.10566000000E+00 0.  1.
     999900   -1    0    0    0    0 -0.00000000000E+00 -0.00000000000E+00 -0.74505805969E-08  0.93827000000E+00  0.93827000000E+00 0. -1.
     999902    2    1    2    0    0  0.97391299152E-02  0.21324933891E-01 -0.60140395030E-02  0.10197272702E+01  0.10194400098E+01 0.  0.
     999903    2    3    3    0    0  0.69388109839E-01 -0.27474943063E-02 -0.10945712496E+00  0.13133661600E+00  0.21123114976E-01 0.  0.
         14    1    1    2    0    0 -0.97391299152E-02 -0.21324933891E-01  0.60140395030E-02  0.24202729766E-01  0.00000000000E+00 0.  1.
     999901    1    3    3    0    0 -0.59648979923E-01  0.24072428198E-01  0.10344308545E+00  0.88839065424E+00  0.88000000000E+00 0.  1.
        -11    1    4    4    0    0  0.46361775805E-01  0.70576972906E-02 -0.79448580624E-01  0.92258134769E-01  0.51100000000E-03 0.  1.
         11    1    4    4    0    0  0.23026334033E-01 -0.98051915969E-02 -0.30008544332E-01  0.39078481229E-01  0.51100000000E-03 0. -1.
</event>
<event>
 8    1  0.1104109E+005  0.1043930E+01  0.7957747E-01            NaN
         13   -1    0    0    0    0  0.00000000000E+00  0.00000000000E+00  0.74505805969E-08  0.10566000000E+00  0.10566000000E+00 0. -1.
     999900   -1    0    0    0    0 -0.00000000000E+00 -0.00000000000E+00 -0.74505805969E-08  0.93827000000E+00  0.93827000000E+00 0.  1.
     999902    2    1    2    0    0  0.13554657702E-01  0.12652293733E-01 -0.14491634804E-01  0.10203966883E+01  0.10201252789E+01 0.  0.
     999903    2    3    3    0    0 -0.95401649727E-01 -0.38169672358E-01  0.73408056239E-01  0.12788298817E+00  0.20172190850E-01 0.  0.
         14    1    1    2    0    0 -0.13554657702E-01 -0.12652293733E-01  0.14491634804E-01  0.23533311739E-01  0.00000000000E+00 0. -1.
     999901    1    3    3    0    0  0.10895630743E+00  0.50821966091E-01 -0.87899691044E-01  0.89251370009E+00  0.88000000000E+00 0.  1.
        -11    1    4    4    0    0 -0.65947337211E-01 -0.23783548737E-01  0.38453927258E-01  0.79960453464E-01  0.51100000000E-03 0. -1.
         11    1    4    4    0    0 -0.29454312516E-01 -0.14386123621E-01  0.34954128982E-01  0.47922534704E-01  0.51100000000E-03 0.  1.
</event>
<event>
 8    1  0.1104109E+005  0.1043930E+01  0.7957747E-01            NaN
         13   -1    0    0    0    0  0.00000000000E+00  0.00000000000E+00  0.74505805969E-08  0.10566000000E+00  0.10566000000E+00 0. -1.
     999900   -1    0    0    0    0 -0.00000000000E+00 -0.00000000000E+00 -0.74505805969E-08  0.93827000000E+00  0.93827000000E+00 0. -1.
     999902    2    1    2    0    0  0.10645029934E-01  0.16123033912E-01  0.12406175578E-01  0.10209695541E+01  0.10207113442E+01 0.  0.
     999903    2    3    3    0    0  0.37319011095E-01  0.38463780754E-01  0.12078280523E+00  0.13363866647E+00  0.19965873823E-01 0.  0.
         14    1    1    2    0    0 -0.10645029934E-01 -0.16123033912E-01 -0.12406175578E-01  0.22960445930E-01  0.00000000000E+00 0. -1.
     999901    1    3    3    0    0 -0.26673981161E-01 -0.22340746842E-01 -0.10837662965E+00  0.88733088760E+00  0.88000000000E+00 0. -1.
        -11    1    4    4    0    0  0.21150970973E-01  0.80795426035E-02  0.43721404751E-01  0.49238855959E-01  0.51100000000E-03 0. -1.
         11    1    4    4    0    0  0.16168040122E-01  0.30384238150E-01  0.77061400477E-01  0.84399810508E-01  0.51100000000E-03 0.  1.
</event>
<event>
 8    1  0.1104109E+005  0.1043930E+01  0.7957747E-01            NaN
         13   -1    0    0    0    0  0.00000000000E+00  0.00000000000E+00  0.74505805969E-08  0.10566000000E+00  0.10566000000E+00 0. -1.
     999900   -1    0    0    0    0 -0.00000000000E+00 -0.00000000000E+00 -0.74505805969E-08  0.93827000000E+00  0.93827000000E+00 0.  1.
     999902    2    1    2    0    0  0.57959308820E-02  0.14604478346E-01 -0.18075251040E-01  0.10199800876E+01  0.10196988677E+01 0.  0.
     999903    2    3    3    0    0  0.12082958657E+00 -0.19105497354E-01 -0.43238007235E-01  0.13149695965E+00  0.21380273794E-01 0.  0.
         14    1    1    2    0    0 -0.57959308820E-02 -0.14604478346E-01  0.18075251040E-01  0.23949912374E-01  0.00000000000E+00 0. -1.
     999901    1    3    3    0    0 -0.11503365569E+00  0.33709975700E-01  0.25162756195E-01  0.88848312798E+00  0.88000000000E+00 0. -1.
        -11    1    4    4    0    0  0.34309204195E-03  0.14258766933E-02 -0.19378892529E-02  0.24834194673E-02  0.51100000000E-03 0. -1.
         11    1    4    4    0    0  0.12048649453E+00 -0.20531374047E-01 -0.41300117982E-01  0.12901354018E+00  0.51100000000E-03 0.  1.
</event>
<event>
 8    1  0.1104109E+005  0.1043930E+01  0.7957747E-01            NaN
         13   -1    0    0    0    0  0.00000000000E+00  0.00000000000E+00  0.74505805969E-08  0.10566000000E+00  0.10566000000E+00 0.  1.
     999900   -1    0    0    0    0 -0.00000000000E+00 -0.00000000000E+00 -0.74505805969E-08  0.93827000000E+00  0.93827000000E+00 0. -1.
     999902    2    1    2    0    0 -0.15357254787E-01 -0.16690745018E-01 -0.50098302801E-02  0.10207023302E+01  0.10204380051E+01 0.  0.
     999903    2    3    3    0    0 -0.41880952704E-01 -0.34781102762E-01 -0.11942087914E+00  0.13271547464E+00  0.19705621618E-01 0.  0.
         14    1    1    2    0    0  0.15357254787E-01  0.16690745018E-01  0.50098302801E-02  0.23227669777E-01  0.00000000000E+00 0. -1.
     999901    1    3    3    0    0  0.26523697917E-01  0.18090357744E-01  0.11441104886E+00  0.88798685559E+00  0.88000000000E+00 0.  1.
        -11    1    4    4    0    0 -0.31109778624E-01 -0.13734515242E-01 -0.76268807394E-01  0.83508366870E-01  0.51100000000E-03 0. -1.
         11    1    4    4    0    0 -0.10771174080E-01 -0.21046587520E-01 -0.43152071751E-01  0.49207107766E-01  0.51100000000E-03 0.  1.
</event>
<event>
 8    1  0.1104109E+005  0.1043930E+01  0.7957747E-01            NaN
         13   -1    0    0    0    0  0.00000000000E+00  0.00000000000E+00  0.74505805969E-08  0.10566000000E+00  0.10566000000E+00 0.  1.
     999900   -1    0    0    0    0 -0.00000000000E+00 -0.00000000000E+00 -0.74505805969E-08  0.93827000000E+00  0.93827000000E+00 0.  1.
     999902    2    1    2    0    0 -0.34023468217E-02  0.61151084436E-02  0.22961629418E-01  0.10199256891E+01  0.10196431750E+01 0.  0.
     999903    2    3    3    0    0 -0.66944258702E-01  0.10278510504E+00  0.44570018294E-01  0.13209147865E+00  0.20380397706E-01 0.  0.
         14    1    1    2    0    0  0.34023468217E-02 -0.61151084436E-02 -0.22961629418E-01  0.24004310877E-01  0.00000000000E+00 0. -1.
     999901    1    3    3    0    0  0.63541911880E-01 -0.96669996599E-01 -0.21608388876E-01  0.88783421047E+00  0.88000000000E+00 0.  1.
        -11    1    4    4    0    0 -0.30132484696E-01  0.63380557900E-01  0.21146070848E-01  0.73297197675E-01  0.51100000000E-03 0. -1.
         11    1    4    4    0    0 -0.36811774006E-01  0.39404547143E-01  0.23423947446E-01  0.58794280980E-01  0.51100000000E-03 0.  1.
</event>
<event>
 8    1  0.1104109E+005  0.1043930E+01  0.7957747E-01            NaN
         13   -1    0    0    0    0  0.00000000000E+00  0.00000000000E+00  0.74505805969E-08  0.10566000000E+00  0.10566000000E+00 0. -1.
     999900   -1    0    0    0    0 -0.00000000000E+00 -0.00000000000E+00 -0.74505805969E-08  0.93827000000E+00  0.93827000000E+00 0.  1.
     999902    2    1    2    0    0  0.18301202002E-01  0.64669365113E-03 -0.11507265092E-01  0.10223020237E+01  0.10220732158E+01 0.  0.
     999903    2    3    3    0    0  0.88237564551E-02  0.68449289086E-01  0.10982927353E+00  0.13134210908E+00  0.20618351957E-01 0.  0.
         14    1    1    2    0    0 -0.18301202002E-01 -0.64669365113E-03  0.11507265092E-01  0.21627976264E-01  0.00000000000E+00 0.  1.
     999901    1    3    3    0    0  0.94774455468E-02 -0.67802595434E-01 -0.12133653863E+00  0.89095991466E+00  0.88000000000E+00 0.  1.
        -11    1    4    4    0    0 -0.30356016040E-02  0.49822489772E-01  0.74541751407E-01  0.89711923332E-01  0.51100000000E-03 0.  1.
         11    1    4    4    0    0  0.11859358059E-01  0.18626799314E-01  0.35287522128E-01  0.41630185745E-01  0.51100000000E-03 0. -1.
</event>
<event>
 8    1  0.1104109E+005  0.1043930E+01  0.7957747E-01            NaN
         13   -1    0    0    0    0  0.00000000000E+00  0.00000000000E+00  0.74505805969E-08  0.10566000000E+00  0.10566000000E+00 0. -1.
     999900   -1    0    0    0    0 -0.00000000000E+00 -0.00000000000E+00 -0.74505805969E-08  0.93827000000E+00  0.93827000000E+00 0.  1.
     999902    2    1    2    0    0 -0.92844229776E-02 -0.19254482121E-01 -0.85097513161E-02  0.10209223609E+01  0.10206630764E+01 0.  0.
     999903    2    3    3    0    0  0.11637540947E+00 -0.43362128179E-01  0.35173245737E-01  0.13059670340E+00  0.19870370694E-01 0.  0.
         14    1    1    2    0    0  0.92844229776E-02  0.19254482121E-01  0.85097513161E-02  0.23007639150E-01  0.00000000000E+00 0. -1.
     999901    1    3    3    0    0 -0.12565983245E+00  0.24107646057E-01 -0.43682997053E-01  0.89032565745E+00  0.88000000000E+00 0.  1.
        -11    1    4    4    0    0  0.88929656273E-02 -0.10132279829E-02  0.77743763737E-02  0.11866487163E-01  0.51100000000E-03 0. -1.
         11    1    4    4    0    0  0.10748244385E+00 -0.42348900196E-01  0.27398869363E-01  0.11873021623E+00  0.51100000000E-03 0.  1.
</event>
<event>
 8    1  0.1104109E+005  0.1043930E+01  0.7957747E-01            NaN
         13   -1    0    0    0    0  0.00000000000E+00  0.00000000000E+00  0.74505805969E-08  0.10566000000E+00  0.10566000000E+00 0.  1.
     999900   -1    0    0    0    0 -0.00000000000E+00 -0.00000000000E+00 -0.74505805969E-08  0.93827000000E+00  0.93827000000E+00 0.  1.
     999902    2    1    2    0    0  0.19501742106E-01 -0.11734783837E-01  0.28713633420E-02  0.10209894720E+01  0.10207317151E+01 0.  0.
     999903    2    3    3    0    0  0.80466455684E-01 -0.26398627417E-01  0.10104432972E+00  0.13331292285E+00  0.19764635352E-01 0.  0.
         14    1    1    2    0    0 -0.19501742106E-01  0.11734783837E-01 -0.28713633420E-02  0.22940527987E-01  0.00000000000E+00 0.  1.
     999901    1    3    3    0    0 -0.60964713578E-01  0.14663843580E-01 -0.98172966375E-01  0.88767654916E+00  0.88000000000E+00 0.  1.
        -11    1    4    4    0    0  0.24966553978E-01 -0.14018691168E-01  0.22900258803E-01  0.36667908228E-01  0.51100000000E-03 0.  1.
         11    1    4    4    0    0  0.55499901706E-01 -0.12379936249E-01  0.78144070914E-01  0.96645014620E-01  0.51100000000E-03 0. -1.
</event>
<event>
 8    1  0.1104109E+005  0.1043930E+01  0.7957747E-01            NaN
         13   -1    0    0    0    0  0.00000000000E+00  0.00000000000E+00  0.74505805969E-08  0.10566000000E+00  0.10566000000E+00 0. -1.
     999900   -1    0    0    0    0 -0.00000000000E+00 -0.00000000000E+00 -0.74505805969E-08  0.93827000000E+00  0.93827000000E+00 0.  1.
     999902    2    1    2    0    0  0.19138815047E-01  0.80503384830E-02 -0.43296573043E-02  0.10227203766E+01  0.10225004257E+01 0.  0.
     999903    2    3    3    0    0  0.81621935562E-01 -0.77169627629E-01 -0.70299105538E-01  0.13394675468E+00  0.19557020657E-01 0.  0.
         14    1    1    2    0    0 -0.19138815047E-01 -0.80503384830E-02  0.43296573043E-02  0.21209623369E-01  0.00000000000E+00 0. -1.
     999901    1    3    3    0    0 -0.62483120515E-01  0.85219966112E-01  0.65969448234E-01  0.88877362195E+00  0.88000000000E+00 0. -1.
        -11    1    4    4    0    0  0.48553689579E-01 -0.33925577694E-01 -0.41798393514E-01  0.72496706235E-01  0.51100000000E-03 0.  1.
         11    1    4    4    0    0  0.33068245983E-01 -0.43244049935E-01 -0.28500712024E-01  0.61450048446E-01  0.51100000000E-03 0. -1.
</event>
<event>
 8    1  0.1104109E+005  0.1043930E+01  0.7957747E-01            NaN
         13   -1    0    0    0    0  0.00000000000E+00  0.00000000000E+00  0.74505805969E-08  0.10566000000E+00  0.10566000000E+00 0. -1.
     999900   -1    0    0    0    0 -0.00000000000E+00 -0.00000000000E+00 -0.74505805969E-08  0.93827000000E+00  0.93827000000E+00 0.  1.
     999902    2    1    2    0    0 -0.21469404196E-01  0.76492414784E-02 -0.64033987668E-02  0.10202561805E+01  0.10199814823E+01 0.  0.
     999903    2    3    3    0    0  0.97580303112E-01  0.36347156641E-01  0.72420531730E-01  0.12828666584E+00  0.19227684866E-01 0.  0.
         14    1    1    2    0    0  0.21469404196E-01 -0.76492414784E-02  0.64033987668E-02  0.23673819453E-01  0.00000000000E+00 0.  1.
     999901    1    3    3    0    0 -0.11904970731E+00 -0.28697915163E-01 -0.78823930497E-01  0.89196951471E+00  0.88000000000E+00 0. -1.
        -11    1    4    4    0    0  0.40151358126E-01  0.10214651231E-01  0.18868268920E-01  0.45527391230E-01  0.51100000000E-03 0.  1.
         11    1    4    4    0    0  0.57428944986E-01  0.26132505410E-01  0.53552262809E-01  0.82759274611E-01  0.51100000000E-03 0. -1.
</event>
<event>
 8    1  0.1104109E+005  0.1043930E+01  0.7957747E-01            NaN
         13   -1    0    0    0    0  0.00000000000E+00  0.00000000000E+00  0.74505805969E-08  0.10566000000E+00  0.10566000000E+00 0.  1.
     999900   -1    0    0    0    0 -0.00000000000E+00 -0.00000000000E+00 -0.74505805969E-08  0.93827000000E+00  0.93827000000E+00 0. -1.
     999902    2    1    2    0    0 -0.73671021570E-02 -0.17463143120E-01 -0.13627525521E-01  0.10205859426E+01  0.10203189312E+01 0.  0.
     999903    2    3    3    0    0 -0.73130833150E-01 -0.10879773466E+00  0.11192356288E-01  0.13307092731E+00  0.19938330704E-01 0.  0.
         14    1    1    2    0    0  0.73671021570E-02  0.17463143120E-01  0.13627525521E-01  0.23344057352E-01  0.00000000000E+00 0.  1.
     999901    1    3    3    0    0  0.65763730993E-01  0.91334591536E-01 -0.24819881809E-01  0.88751501534E+00  0.88000000000E+00 0. -1.
        -11    1    4    4    0    0 -0.50181067407E-01 -0.59772912992E-01  0.11808266431E-01  0.78934383704E-01  0.51100000000E-03 0. -1.
         11    1    4    4    0    0 -0.22949765743E-01 -0.49024821664E-01 -0.61591014277E-03  0.54136543602E-01  0.51100000000E-03 0.  1.
</event>
<event>
 8    1  0.1104109E+005  0.1043930E+01  0.7957747E-01            NaN
         13   -1    0    0    0    0  0.00000000000E+00  0.00000000000E+00  0.74505805969E-08  0.10566000000E+00  0.10566000000E+00 0. -1.
     999900   -1    0    0    0    0 -0.00000000000E+00 -0.00000000000E+00 -0.74505805969E-08  0.93827000000E+00  0.93827000000E+00 0. -1.
     999902    2    1    2    0    0  0.66398927497E-02  0.46328772063E-02  0.18109067973E-01  0.10240934159E+01  0.10239012816E+01 0.  0.
     999903    2    3    3    0    0 -0.12012341025E+00 -0.25865421400E-01 -0.44635182839E-01  0.13227733494E+00  0.20157878788E-01 0.  0.
         14    1    1    2    0    0 -0.66398927497E-02 -0.46328772063E-02 -0.18109067973E-01  0.19836584126E-01  0.00000000000E+00 0.  1.
     999901    1    3    3    0    0  0.12676330300E+00  0.30498298606E-01  0.62744250813E-01  0.89181608094E+00  0.88000000000E+00 0. -1.
        -11    1    4    4    0    0 -0.18742170087E-01 -0.93531663555E-02 -0.13574151870E-01  0.24965363615E-01  0.51100000000E-03 0. -1.
         11    1    4    4    0    0 -0.10138124016E+00 -0.16512255044E-01 -0.31061030970E-01  0.10731197132E+00  0.51100000000E-03 0.  1.
</event>
<event>
 8    1  0.1104109E+005  0.1043930E+01  0.7957747E-01            NaN
         13   -1    0    0    0    0  0.00000000000E+00  0.00000000000E+00  0.74505805969E-08  0.10566000000E+00  0.10566000000E+00 0. -1.
     999900   -1    0    0    0    0 -0.00000000000E+00 -0.00000000000E+00 -0.74505805969E-08  0.93827000000E+00  0.93827000000E+00 0.  1.
     999902    2    1    2    0    0  0.18367411436E-01  0.13299037907E-01  0.14264102267E-02  0.10212086255E+01  0.10209558247E+01 0.  0.
     999903    2    3    3    0    0 -0.10308989186E+00  0.49739333371E-01 -0.58540412372E-01  0.13009932164E+00  0.19933051003E-01 0.  0.
         14    1    1    2    0    0 -0.18367411436E-01 -0.13299037907E-01 -0.14264102267E-02  0.22721374480E-01  0.00000000000E+00 0. -1.
     999901    1    3    3    0    0  0.12145730329E+00 -0.36440295464E-01  0.59966822598E-01  0.89110930388E+00  0.88000000000E+00 0. -1.
        -11    1    4    4    0    0 -0.70726416584E-01  0.35420889960E-01 -0.29880760895E-01  0.84557592451E-01  0.51100000000E-03 0.  1.
         11    1    4    4    0    0 -0.32363475272E-01  0.14318443411E-01 -0.28659651477E-01  0.45541729185E-01  0.51100000000E-03 0. -1.
</event>
<event>
 8    1  0.1104109E+005  0.1043930E+01  0.7957747E-01            NaN
         13   -1    0    0    0    0  0.00000000000E+00  0.00000000000E+00  0.74505805969E-08  0.10566000000E+00  0.10566000000E+00 0.  1.
     999900   -1    0    0    0    0 -0.00000000000E+00 -0.00000000000E+00 -0.74505805969E-08  0.93827000000E+00  0.93827000000E+00 0. -1.
     999902    2    1    2    0    0  0.31191657803E-02 -0.21746957706E-01 -0.51109087478E-02  0.10213738312E+01  0.10211247339E+01 0.  0.
     999903    2    3    3    0    0 -0.56245913856E-01 -0.40349356395E-01 -0.11151002514E+00  0.13278448062E+00  0.20138500447E-01 0.  0.
         14    1    1    2    0    0 -0.31191657803E-02  0.21746957706E-01  0.51109087478E-02  0.22556168843E-01  0.00000000000E+00 0. -1.
     999901    1    3    3    0    0  0.59365079637E-01  0.18602398689E-01  0.10639911639E+00  0.88858935054E+00  0.88000000000E+00 0.  1.
        -11    1    4    4    0    0 -0.36485057454E-01 -0.25749869566E-01 -0.88448469461E-01  0.99083843643E-01  0.51100000000E-03 0. -1.
         11    1    4    4    0    0 -0.19760856403E-01 -0.14599486829E-01 -0.23061555678E-01  0.33700636978E-01  0.51100000000E-03 0.  1.
</event>
<event>
 8    1  0.1104109E+005  0.1043930E+01  0.7957747E-01            NaN
         13   -1    0    0    0    0  0.00000000000E+00  0.00000000000E+00  0.74505805969E-08  0.10566000000E+00  0.10566000000E+00 0.  1.
     999900   -1    0    0    0    0 -0.00000000000E+00 -0.00000000000E+00 -0.74505805969E-08  0.93827000000E+00  0.93827000000E+00 0.  1.
     999902    2    1    2    0    0 -0.22064752588E-01 -0.44641708105E-02  0.11507452567E-01  0.10186475240E+01  0.10183337246E+01 0.  0.
     999903    2    3    3    0    0  0.10297682200E+00 -0.65851825339E-01  0.29952148790E-01  0.12749992326E+00  0.20455083584E-01 0.  0.
         14    1    1    2    0    0  0.22064752588E-01  0.44641708105E-02 -0.11507452567E-01  0.25282475994E-01  0.00000000000E+00 0.  1.
     999901    1    3    3    0    0 -0.12504157458E+00  0.61387654529E-01 -0.18444696222E-01  0.89114760075E+00  0.88000000000E+00 0.  1.
        -11    1    4    4    0    0  0.59481160248E-01 -0.26004779632E-01  0.16882808442E-01  0.67078665237E-01  0.51100000000E-03 0. -1.
         11    1    4    4    0    0  0.43495661748E-01 -0.39847045707E-01  0.13069340347E-01  0.60421258019E-01  0.51100000000E-03 0.  1.
</event>
<event>
 8    1  0.1104109E+005  0.1043930E+01  0.7957747E-01            NaN
         13   -1    0    0    0    0  0.00000000000E+00  0.00000000000E+00  0.74505805969E-08  0.10566000000E+00  0.10566000000E+00 0. -1.
     999900   -1    0    0    0    0 -0.00000000000E+00 -0.00000000000E+00 -0.74505805969E-08  0.93827000000E+00  0.93827000000E+00 0. -1.
     999902    2    1    2    0    0  0.65525880908E-02 -0.20791513338E-02 -0.87091515562E-02  0.10328345684E+01  0.10327749693E+01 0.  0.
     999903    2    3    3    0    0 -0.35354515917E-01  0.22941632419E-01  0.13218133534E+00  0.14029192279E+00  0.20824454243E-01 0.  0.
         14    1    1    2    0    0 -0.65525880908E-02  0.20791513338E-02  0.87091515562E-02  0.11095431573E-01  0.00000000000E+00 0. -1.
     999901    1    3    3    0    0  0.41907104008E-01 -0.25020783753E-01 -0.14089048689E+00  0.89254264564E+00  0.88000000000E+00 0. -1.
        -11    1    4    4    0    0 -0.27520117074E-01  0.17531451092E-01  0.68217987121E-01  0.75621845448E-01  0.51100000000E-03 0. -1.
         11    1    4    4    0    0 -0.78343988431E-02  0.54101813272E-02  0.63963348216E-01  0.64670077341E-01  0.51100000000E-03 0.  1.
</event>
<event>
 8    1  0.1104109E+005  0.1043930E+01  0.7957747E-01            NaN
         13   -1    0    0    0    0  0.00000000000E+00  0.00000000000E+00  0.74505805969E-08  0.10566000000E+00  0.10566000000E+00 0. -1.
     999900   -1    0    0    0    0 -0.00000000000E+00 -0.00000000000E+00 -0.74505805969E-08  0.93827000000E+00  0.93827000000E+00 0. -1.
     999902    2    1    2    0    0 -0.54202010044E-02  0.53109998064E-02  0.22656617345E-01  0.10200363270E+01  0.10197564419E+01 0.  0.
     999903    2    3    3    0    0  0.98635047012E-01  0.82636436196E-01 -0.13206581989E-02  0.13021520598E+00  0.19914884969E-01 0.  0.
         14    1    1    2    0    0  0.54202010044E-02 -0.53109998064E-02 -0.22656617345E-01  0.23893672957E-01  0.00000000000E+00 0.  1.
     999901    1    3    3    0    0 -0.10405524802E+00 -0.77325436390E-01  0.23977275543E-01  0.88982112107E+00  0.88000000000E+00 0.  1.
        -11    1    4    4    0    0  0.45665793357E-01  0.26302715634E-01 -0.38936895369E-02  0.52845240768E-01  0.51100000000E-03 0.  1.
         11    1    4    4    0    0  0.52969253655E-01  0.56333720562E-01  0.25730313380E-02  0.77369965209E-01  0.51100000000E-03 0. -1.
</event>
<event>
 8    1  0.1104109E+005  0.1043930E+01  0.7957747E-01            NaN
         13   -1    0    0    0    0  0.00000000000E+00  0.00000000000E+00  0.74505805969E-08  0.10566000000E+00  0.10566000000E+00 0.  1.
     999900   -1    0    0    0    0 -0.00000000000E+00 -0.00000000000E+00 -0.74505805969E-08  0.93827000000E+00  0.93827000000E+00 0. -1.
     999902    2    1    2    0    0 -0.18532570307E-01 -0.14890772586E-01  0.37634354353E-02  0.10198602115E+01  0.10195761356E+01 0.  0.
     999903    2    3    3    0    0  0.79605127085E-01  0.64363567711E-01 -0.73647424743E-01  0.12750114738E+00  0.18787078161E-01 0.  0.
         14    1    1    2    0    0  0.18532570307E-01  0.14890772586E-01 -0.37634354353E-02  0.24069788464E-01  0.00000000000E+00 0. -1.
     999901    1    3    3    0    0 -0.98137697392E-01 -0.79254340297E-01  0.77410860178E-01  0.89235906415E+00  0.88000000000E+00 0.  1.
        -11    1    4    4    0    0  0.43302674660E-01  0.27935903730E-01 -0.27554503806E-01  0.58438413316E-01  0.51100000000E-03 0. -1.
         11    1    4    4    0    0  0.36302452424E-01  0.36427663981E-01 -0.46092920936E-01  0.69062734066E-01  0.51100000000E-03 0.  1.
</event>
<event>
 8    1  0.1104109E+005  0.1043930E+01  0.7957747E-01            NaN
         13   -1    0    0    0    0  0.00000000000E+00  0.00000000000E+00  0.74505805969E-08  0.10566000000E+00  0.10566000000E+00 0.  1.
     999900   -1    0    0    0    0 -0.00000000000E+00 -0.00000000000E+00 -0.74505805969E-08  0.93827000000E+00  0.93827000000E+00 0.  1.
     999902    2    1    2    0    0 -0.13885957339E-01  0.17286746966E-02 -0.18465055982E-01  0.10207617800E+01  0.10204988217E+01 0.  0.
     999903    2    3    3    0    0  0.12513708975E+00 -0.86820155325E-02 -0.27039870658E-01  0.12974588923E+00  0.19187822692E-01 0.  0.
         14    1    1    2    0    0  0.13885957339E-01 -0.17286746966E-02  0.18465055982E-01  0.23168220040E-01  0.00000000000E+00 0.  1.
     999901    1    3    3    0    0 -0.13902304709E+00  0.10410690229E-01  0.85748146760E-02  0.89101589073E+00  0.88000000000E+00 0.  1.
        -11    1    4    4    0    0  0.91267205828E-01 -0.16476909052E-02 -0.26844719707E-01  0.95148924545E-01  0.51100000000E-03 0.  1.
         11    1    4    4    0    0  0.33869883927E-01 -0.70343246273E-02 -0.19515095066E-03  0.34596964680E-01  0.51100000000E-03 0. -1.
</event>
<event>
 8    1  0.1104109E+005  0.1043930E+01  0.7957747E-01            NaN
         13   -1    0    0    0    0  0.00000000000E+00  0.00000000000E+00  0.74505805969E-08  0.10566000000E+00  0.10566000000E+00 0. -1.
     999900   -1    0    0    0    0 -0.00000000000E+00 -0.00000000000E+00 -0.74505805969E-08  0.93827000000E+00  0.93827000000E+00 0. -1.
     999902    2    1    2    0    0 -0.88223380774E-02 -0.79217595505E-03 -0.22941186596E-01  0.10193381470E+01  0.10190414607E+01 0.  0.
     999903    2    3    3    0    0 -0.53731882956E-01 -0.10444361996E+00  0.49410522212E-01  0.12917228670E+00  0.21177699345E-01 0.  0.
         14    1    1    2    0    0  0.88223380774E-02  0.79217595505E-03  0.22941186596E-01  0.24591853007E-01  0.00000000000E+00 0. -1.
     999901    1    3    3    0    0  0.44909544878E-01  0.10365144400E+00 -0.72351708808E-01  0.89016586029E+00  0.88000000000E+00 0. -1.
        -11    1    4    4    0    0 -0.54469049871E-01 -0.92443921673E-01  0.43772501952E-01  0.11588377408E+00  0.51100000000E-03 0. -1.
         11    1    4    4    0    0  0.73716691515E-03 -0.11999698287E-01  0.56380202607E-02  0.13288512614E-01  0.51100000000E-03 0.  1.
</event>
<event>
 8    1  0.1104109E+005  0.1043930E+01  0.7957747E-01            NaN
         13   -1    0    0    0    0  0.00000000000E+00  0.00000000000E+00  0.74505805969E-08  0.10566000000E+00  0.10566000000E+00 0.  1.
     999900   -1    0    0    0    0 -0.00000000000E+00 -0.00000000000E+00 -0.74505805969E-08  0.93827000000E+00  0.93827000000E+00 0. -1.
     999902    2    1    2    0    0  0.16674367159E-01  0.14318084635E-02  0.16890510591E-01  0.10201524067E+01  0.10198752664E+01 0.  0.
     999903    2    3    3    0    0  0.63491607977E-01  0.29290843584E-01 -0.10747438703E+00  0.12973980141E+00  0.19812480952E-01 0.  0.
         14    1    1    2    0    0 -0.16674367159E-01 -0.14318084635E-02 -0.16890510591E-01  0.23777593311E-01  0.00000000000E+00 0. -1.
     999901    1    3    3    0    0 -0.46817240818E-01 -0.27859035121E-01  0.12436489762E+00  0.89041260528E+00  0.88000000000E+00 0.  1.
        -11    1    4    4    0    0  0.23436330592E-01  0.17892268420E-01 -0.58018373157E-01  0.65082928681E-01  0.51100000000E-03 0.  1.
         11    1    4    4    0    0  0.40055277386E-01  0.11398575164E-01 -0.49456013873E-01  0.64656872731E-01  0.51100000000E-03 0. -1.
</event>
<event>
 8    1  0.1104109E+005  0.1043930E+01  0.7957747E-01            NaN
         13   -1    0    0    0    0  0.00000000000E+00  0.00000000000E+00  0.74505805969E-08  0.10566000000E+00  0.10566000000E+00 0. -1.
     999900   -1    0    0    0    0 -0.00000000000E+00 -0.00000000000E+00 -0.74505805969E-08  0.93827000000E+00  0.93827000000E+00 0.  1.
     999902    2    1    2    0    0  0.91599077064E-02 -0.12636873688E-01  0.17098089477E-01  0.10207796404E+01  0.10205170920E+01 0.  0.
     999903    2    3    3    0    0 -0.12293722271E+00 -0.48035402564E-02 -0.34723292328E-01  0.12937823330E+00  0.19909432290E-01 0.  0.
         14    1    1    2    0    0 -0.91599077064E-02  0.12636873688E-01 -0.17098089477E-01  0.23150359599E-01  0.00000000000E+00 0.  1.
     999901    1    3    3    0    0  0.13209713042E+00 -0.78333334315E-02  0.51821381804E-01  0.89140140711E+00  0.88000000000E+00 0.  1.
        -11    1    4    4    0    0 -0.47701907770E-01 -0.57896697239E-02 -0.22824428311E-01  0.53199698581E-01  0.51100000000E-03 0.  1.
         11    1    4    4    0    0 -0.75235314940E-01  0.98612946746E-03 -0.11898864017E-01  0.76178534715E-01  0.51100000000E-03 0. -1.
</event>
<event>
 8    1  0.1104109E+005  0.1043930E+01  0.7957747E-01            NaN
         13   -1    0    0    0    0  0.00000000000E+00  0.00000000000E+00  0.74505805969E-08  0.10566000000E+00  0.10566000000E+00 0. -1.
     999900   -1    0    0    0    0 -0.00000000000E+00 -0.00000000000E+00 -0.74505805969E-08  0.93827000000E+00  0.93827000000E+00 0. -1.
     999902    2    1    2    0    0  0.13527155596E-01  0.21608760974E-01 -0.57590227962E-02  0.10177940318E+01  0.10174584033E+01 0.  0.
     999903    2    3    3    0    0 -0.10762596085E+00 -0.22736252945E-01  0.58348605842E-01  0.12607975811E+00  0.19780317324E-01 0.  0.
         14    1    1    2    0    0 -0.13527155596E-01 -0.21608760974E-01  0.57590227962E-02  0.26135968184E-01  0.00000000000E+00 0. -1.
     999901    1    3    3    0    0  0.12115311645E+00  0.44345013919E-01 -0.64107628639E-01  0.89171427371E+00  0.88000000000E+00 0. -1.
        -11    1    4    4    0    0 -0.94464771694E-01 -0.13538899861E-01  0.46760366312E-01  0.10627176426E+00  0.51100000000E-03 0. -1.
         11    1    4    4    0    0 -0.13161189159E-01 -0.91973530839E-02  0.11588239530E-01  0.19807993847E-01  0.51100000000E-03 0.  1.
</event>
<event>
 8    1  0.1104109E+005  0.1043930E+01  0.7957747E-01            NaN
         13   -1    0    0    0    0  0.00000000000E+00  0.00000000000E+00  0.74505805969E-08  0.10566000000E+00  0.10566000000E+00 0.  1.
     999900   -1    0    0    0    0 -0.00000000000E+00 -0.00000000000E+00 -0.74505805969E-08  0.93827000000E+00  0.93827000000E+00 0.  1.
     999902    2    1    2    0    0  0.16286443199E-01 -0.17741377594E-01  0.79748313257E-03  0.10198335129E+01  0.10195487989E+01 0.  0.
     999903    2    3    3    0    0 -0.29130591090E-02  0.12609304143E+00 -0.25341009703E-02  0.12794335126E+00  0.21333974128E-01 0.  0.
         14    1    1    2    0    0 -0.16286443199E-01  0.17741377594E-01 -0.79748313257E-03  0.24096487096E-01  0.00000000000E+00 0.  1.
     999901    1    3    3    0    0  0.19199502308E-01 -0.14383441903E+00  0.33315841029E-02  0.89189016164E+00  0.88000000000E+00 0.  1.
        -11    1    4    4    0    0 -0.92938340891E-02  0.67836221205E-01  0.59289045726E-02  0.68728024051E-01  0.51100000000E-03 0.  1.
         11    1    4    4    0    0  0.63807749801E-02  0.58256820229E-01 -0.84630055429E-02  0.59215327208E-01  0.51100000000E-03 0. -1.
</event>
<event>
 8    1  0.1104109E+005  0.1043930E+01  0.7957747E-01            NaN
         13   -1    0    0    0    0  0.00000000000E+00  0.00000000000E+00  0.74505805969E-08  0.10566000000E+00  0.10566000000E+00 0. -1.
     999900   -1    0    0    0    0 -0.00000000000E+00 -0.00000000000E+00 -0.74505805969E-08  0.93827000000E+00  0.93827000000E+00 0. -1.
     999902    2    1    2    0    0 -0.80573680312E-02 -0.14524905358E-01 -0.26974442150E-01  0.10122517017E+01  0.10117558959E+01 0.  0.
     999903    2    3    3    0    0 -0.11346302118E+00 -0.54828747776E-02  0.42543795599E-01  0.12319326973E+00  0.21510185312E-01 0.  0.
         14    1    1    2    0    0  0.80573680312E-02  0.14524905358E-01  0.26974442150E-01  0.31678298322E-01  0.00000000000E+00 0. -1.
     999901    1    3    3    0    0  0.10540565315E+00 -0.90420305807E-02 -0.69518237749E-01  0.88905843195E+00  0.88000000000E+00 0.  1.
        -11    1    4    4    0    0 -0.93382496753E-01 -0.10800328991E-01  0.40345505256E-01  0.10229838084E+00  0.51100000000E-03 0.  1.
         11    1    4    4    0    0 -0.20080524428E-01  0.53174542138E-02  0.21982903434E-02  0.20894888898E-01  0.51100000000E-03 0. -1.
</event>
<event>
 8    1  0.1104109E+005  0.1043930E+01  0.7957747E-01            NaN
         13   -1    0    0    0    0  0.00000000000E+00  0.00000000000E+00  0.74505805969E-08  0.10566000000E+00  0.10566000000E+00 0.  1.
     999900   -1    0    0    0    0 -0.00000000000E+00 -0.00000000000E+00 -0.74505805969E-08  0.93827000000E+00  0.93827000000E+00 0.  1.
     999902    2    1    2    0    0  0.68191203939E-02 -0.12546826543E-01  0.21722365508E-01  0.10179341461E+01  0.10176021527E+01 0.  0.
     999903    2    3    3    0    0  0.93031212059E-01 -0.77486665435E-01  0.45583682774E-01  0.13101866536E+00  0.20713010416E-01 0.  0.
         14    1    1    2    0    0 -0.68191203939E-02  0.12546826543E-01 -0.21722365508E-01  0.25995853949E-01  0.00000000000E+00 0. -1.
     999901    1    3    3    0    0 -0.86212091665E-01  0.64939838892E-01 -0.23861317266E-01  0.88691548069E+00  0.88000000000E+00 0.  1.
        -11    1    4    4    0    0  0.47872493907E-01 -0.39349283646E-01  0.34336885047E-01  0.70847897584E-01  0.51100000000E-03 0. -1.
         11    1    4    4    0    0  0.45158718152E-01 -0.38137381789E-01  0.11246797727E-01  0.60170767778E-01  0.51100000000E-03 0.  1.
</event>
<event>
 8    1  0.1104109E+005  0.1043930E+01  0.7957747E-01            NaN
         13   -1    0    0    0    0  0.00000000000E+00  0.00000000000E+00  0.74505805969E-08  0.10566000000E+00  0.10566000000E+00 0. -1.
     999900   -1    0    0    0    0 -0.00000000000E+00 -0.00000000000E+00 -0.74505805969E-08  0.93827000000E+00  0.93827000000E+00 0.  1.
     999902    2    1    2    0    0  0.13358304849E-01 -0.19626646173E-01 -0.31296869305E-02  0.10199832990E+01  0.10197021554E+01 0.  0.
     999903    2    3    3    0    0 -0.70829899676E-01 -0.88904847518E-01 -0.62558258802E-01  0.13126575213E+00  0.19905158561E-01 0.  0.
         14    1    1    2    0    0 -0.13358304849E-01  0.19626646173E-01  0.31296869305E-02  0.23946700999E-01  0.00000000000E+00 0. -1.
     999901    1    3    3    0    0  0.84188204525E-01  0.69278201345E-01  0.59428571872E-01  0.88871754687E+00  0.88000000000E+00 0. -1.
        -11    1    4    4    0    0 -0.27819133057E-01 -0.50517157243E-01 -0.33647597313E-01  0.66770571855E-01  0.51100000000E-03 0.  1.
         11    1    4    4    0    0 -0.43010766619E-01 -0.38387690276E-01 -0.28910661489E-01  0.64495180274E-01  0.51100000000E-03 0. -1.
</event>
<event>
 8    1  0.1104109E+005  0.1043930E+01  0.7957747E-01            NaN
         13   -1    0    0    0    0  0.00000000000E+00  0.00000000000E+00  0.74505805969E-08  0.10566000000E+00  0.10566000000E+00 0. -1.
     999900   -1    0    0    0    0 -0.00000000000E+00 -0.00000000000E+00 -0.74505805969E-08  0.93827000000E+00  0.93827000000E+00 0.  1.
     999902    2    1    2    0    0  0.68970050221E-02 -0.38960323815E-02  0.34763088087E-01  0.10082758272E+01  0.10076452370E+01 0.  0.
     999903    2    3    3    0    0  0.70852113404E-01 -0.93992960571E-01 -0.14418135153E-01  0.12000418793E+00  0.18396300979E-01 0.  0.
         14    1    1    2    0    0 -0.68970050221E-02  0.38960323815E-02 -0.34763088087E-01  0.35654172827E-01  0.00000000000E+00 0.  1.
     999901    1    3    3    0    0 -0.63955108382E-01  0.90096928189E-01  0.49181223240E-01  0.88827163924E+00  0.88000000000E+00 0. -1.
        -11    1    4    4    0    0  0.41001296338E-01 -0.64697123774E-01 -0.15556810358E-01  0.78160729242E-01  0.51100000000E-03 0.  1.
         11    1    4    4    0    0  0.29850817066E-01 -0.29295836797E-01  0.11386752050E-02  0.41843458693E-01  0.51100000000E-03 0. -1.
</event>
<event>
 8    1  0.1104109E+005  0.1043930E+01  0.7957747E-01            NaN
         13   -1    0    0    0    0  0.00000000000E+00  0.00000000000E+00  0.74505805969E-08  0.10566000000E+00  0.10566000000E+00 0.  1.
     999900   -1    0    0    0    0 -0.00000000000E+00 -0.00000000000E+00 -0.74505805969E-08  0.93827000000E+00  0.93827000000E+00 0.  1.
     999902    2    1    2    0    0  0.59909688598E-03 -0.14640395714E-01  0.18473631424E-01  0.10203508744E+01  0.10200783949E+01 0.  0.
     999903    2    3    3    0    0 -0.52034207097E-01  0.33143689042E-01  0.11548485141E+00  0.13217028457E+00  0.18060187869E-01 0.  0.
         14    1    1    2    0    0 -0.59909688598E-03  0.14640395714E-01 -0.18473631424E-01  0.23579125551E-01  0.00000000000E+00 0. -1.
     999901    1    3    3    0    0  0.52633303983E-01 -0.47784084756E-01 -0.97011219983E-01  0.88818058988E+00  0.88000000000E+00 0.  1.
        -11    1    4    4    0    0 -0.44300456462E-01  0.26208643804E-01  0.79476226612E-01  0.94689783875E-01  0.51100000000E-03 0.  1.
         11    1    4    4    0    0 -0.77337506355E-02  0.69350452383E-02  0.36008624795E-01  0.37480500690E-01  0.51100000000E-03 0. -1.
</event>
<event>
 8    1  0.1104109E+005  0.1043930E+01  0.7957747E-01            NaN
         13   -1    0    0    0    0  0.00000000000E+00  0.00000000000E+00  0.74505805969E-08  0.10566000000E+00  0.10566000000E+00 0. -1.
     999900   -1    0    0    0    0 -0.00000000000E+00 -0.00000000000E+00 -0.74505805969E-08  0.93827000000E+00  0.93827000000E+00 0. -1.
     999902    2    1    2    0    0  0.16063363443E-01 -0.18343643415E-01  0.16839402454E-02  0.10194891213E+01  0.10191961106E+01 0.  0.
     999903    2    3    3    0    0 -0.72008573646E-01 -0.10361821838E+00  0.26543231478E-01  0.13064357585E+00  0.21005497252E-01 0.  0.
         14    1    1    2    0    0 -0.16063363443E-01  0.18343643415E-01 -0.16839402454E-02  0.24440878740E-01  0.00000000000E+00 0.  1.
     999901    1    3    3    0    0  0.88071937089E-01  0.85274574963E-01 -0.24859291232E-01  0.88884554541E+00  0.88000000000E+00 0. -1.
        -11    1    4    4    0    0 -0.17698346759E-01 -0.20937124655E-01  0.14416033475E-01  0.30978666998E-01  0.51100000000E-03 0.  1.
         11    1    4    4    0    0 -0.54310226887E-01 -0.82681093722E-01  0.12127198003E-01  0.99664908850E-01  0.51100000000E-03 0. -1.
</event>
<event>
 8    1  0.1104109E+005  0.1043930E+01  0.7957747E-01            NaN
         13   -1    0    0    0    0  0.00000000000E+00  0.00000000000E+00  0.74505805969E-08  0.10566000000E+00  0.10566000000E+00 0.  1.
     999900   -1    0    0    0    0 -0.00000000000E+00 -0.00000000000E+00 -0.74505805969E-08  0.93827000000E+00  0.93827000000E+00 0. -1.
     999902    2    1    2    0    0 -0.20964352153E-01  0.85678897562E-02  0.68378065193E-02  0.10202726884E+01  0.10199983776E+01 0.  0.
     999903    2    3    3    0    0  0.10775773910E+00  0.67622266122E-01 -0.47950972393E-02  0.12887372011E+00  0.20023525337E-01 0.  0.
         14    1    1    2    0    0  0.20964352153E-01 -0.85678897562E-02 -0.68378065193E-02  0.23657311641E-01  0.00000000000E+00 0. -1.
     999901    1    3    3    0    0 -0.12872209125E+00 -0.59054376366E-01  0.11632903759E-01  0.89139896825E+00  0.88000000000E+00 0. -1.
        -11    1    4    4    0    0  0.59899013971E-01  0.47386447113E-01 -0.80923783074E-02  0.76805696093E-01  0.51100000000E-03 0. -1.
         11    1    4    4    0    0  0.47858725127E-01  0.20235819009E-01  0.32972810681E-02  0.52068024018E-01  0.51100000000E-03 0.  1.
</event>
<event>
 7    1  0.1104109E+005  0.1043930E+01  0.7957747E-01            NaN
         13   -1    0    0    0    0  0.00000000000E+00  0.00000000000E+00  0.74505805969E-08  0.10566000000E+00  0.10566000000E+00 0.  1.
     999900   -1    0    0    0    0 -0.00000000000E+00 -0.00000000000E+00 -0.74505805969E-08  0.93827000000E+00  0.93827000000E+00 0.  1.
     999903    2    1    2    0    0  0.11248413340E+00 -0.43503751715E-01  0.83376841981E-01  0.14715601345E+00  0.12567332155E-01 0.  0.
         14    1    1    2    0    0 -0.52654529313E-02  0.73130386121E-03 -0.11089600489E-02  0.54304320546E-02  0.00000000000E+00 0.  1.
     999901    1    1    2    0    0 -0.10721868047E+00  0.42772447854E-01 -0.82267881932E-01  0.89134355449E+00  0.88000000000E+00 0.  1.
        -11    1    3    3    0    0  0.19722289090E-01 -0.26916822866E-02  0.13487080053E-01  0.24049455084E-01  0.51100000000E-03 0.  1.
         11    1    3    3    0    0  0.92761844307E-01 -0.40812069428E-01  0.69889761928E-01  0.12310655837E+00  0.51100000000E-03 0. -1.
</event>
<event>
 8    1  0.1104109E+005  0.1043930E+01  0.7957747E-01            NaN
         13   -1    0    0    0    0  0.00000000000E+00  0.00000000000E+00  0.74505805969E-08  0.10566000000E+00  0.10566000000E+00 0. -1.
     999900   -1    0    0    0    0 -0.00000000000E+00 -0.00000000000E+00 -0.74505805969E-08  0.93827000000E+00  0.93827000000E+00 0. -1.
     999902    2    1    2    0    0 -0.11323092911E-01 -0.18774179195E-01  0.10338314400E-01  0.10196903015E+01  0.10194021523E+01 0.  0.
     999903    2    3    3    0    0 -0.75869293028E-01  0.96161963104E-02  0.10529466803E+00  0.13177761749E+00  0.20730472735E-01 0.  0.
         14    1    1    2    0    0  0.11323092911E-01  0.18774179195E-01 -0.10338314400E-01  0.24239698475E-01  0.00000000000E+00 0.  1.
     999901    1    3    3    0    0  0.64546200117E-01 -0.28390375506E-01 -0.94956353632E-01  0.88791268403E+00  0.88000000000E+00 0.  1.
        -11    1    4    4    0    0 -0.26775173256E-01  0.13436485033E-01  0.38104962336E-01  0.48473686765E-01  0.51100000000E-03 0.  1.
         11    1    4    4    0    0 -0.49094119772E-01 -0.38202887222E-02  0.67189705696E-01  0.83303930728E-01  0.51100000000E-03 0. -1.
</event>
<event>
 8    1  0.1104109E+005  0.1043930E+01  0.7957747E-01            NaN
         13   -1    0    0    0    0  0.00000000000E+00  0.00000000000E+00  0.74505805969E-08  0.10566000000E+00  0.10566000000E+00 0. -1.
     999900   -1    0    0    0    0 -0.00000000000E+00 -0.00000000000E+00 -0.74505805969E-08  0.93827000000E+00  0.93827000000E+00 0.  1.
     999902    2    1    2    0    0  0.18839302134E-01 -0.19569415480E-01 -0.70681340290E-02  0.10158615151E+01  0.10154736717E+01 0.  0.
     999903    2    3    3    0    0  0.34160253056E-01 -0.12120049438E+00  0.22477551253E-01  0.12938728801E+00  0.19476839088E-01 0.  0.
         14    1    1    2    0    0 -0.18839302134E-01  0.19569415480E-01  0.70681340290E-02  0.28068484921E-01  0.00000000000E+00 0.  1.
     999901    1    3    3    0    0 -0.15320950922E-01  0.10163107890E+00 -0.29545685282E-01  0.88647422707E+00  0.88000000000E+00 0. -1.
        -11    1    4    4    0    0  0.21207118632E-01 -0.84394588872E-01  0.66366867976E-02  0.87272534306E-01  0.51100000000E-03 0.  1.
         11    1    4    4    0    0  0.12953134424E-01 -0.36805905512E-01  0.15840864456E-01  0.42114753705E-01  0.51100000000E-03 0. -1.
</event>
<event>
 8    1  0.1104109E+005  0.1043930E+01  0.7957747E-01            NaN
         13   -1    0    0    0    0  0.00000000000E+00  0.00000000000E+00  0.74505805969E-08  0.10566000000E+00  0.10566000000E+00 0.  1.
     999900   -1    0    0    0    0 -0.00000000000E+00 -0.00000000000E+00 -0.74505805969E-08  0.93827000000E+00  0.93827000000E+00 0.  1.
     999902    2    1    2    0    0 -0.23729257588E-02  0.22009985059E-01  0.76126240745E-02  0.10205201246E+01  0.10202515879E+01 0.  0.
     999903    2    3    3    0    0  0.66551059963E-01  0.11101876906E+00 -0.22509075706E-01  0.13283752583E+00  0.19619865293E-01 0.  0.
         14    1    1    2    0    0  0.23729257588E-02 -0.22009985059E-01 -0.76126240745E-02  0.23409875358E-01  0.00000000000E+00 0. -1.
     999901    1    3    3    0    0 -0.68923985722E-01 -0.89008783999E-01  0.30121699781E-01  0.88768259881E+00  0.88000000000E+00 0. -1.
        -11    1    4    4    0    0  0.24457070755E-01  0.57378813385E-01 -0.15634112521E-01  0.64305234085E-01  0.51100000000E-03 0. -1.
         11    1    4    4    0    0  0.42093989208E-01  0.53639955673E-01 -0.68749631856E-02  0.68532291745E-01  0.51100000000E-03 0.  1.
</event>
<event>
 7    1  0.1104109E+005  0.1043930E+01  0.7957747E-01            NaN
         13   -1    0    0    0    0  0.00000000000E+00  0.00000000000E+00  0.74505805969E-08  0.10566000000E+00  0.10566000000E+00 0. -1.
     999900   -1    0    0    0    0 -0.00000000000E+00 -0.00000000000E+00 -0.74505805969E-08  0.93827000000E+00  0.93827000000E+00 0. -1.
     999902    2    1    2    0    0  0.17012554584E-01  0.13405128220E-01  0.28450431398E-02  0.10220846630E+01  0.10218511828E+01 0.  0.
         14    1    1    2    0    0 -0.17012554584E-01 -0.13405128220E-01 -0.28450431398E-02  0.21845336951E-01  0.00000000000E+00 0. -1.
     999901    1    3    3    0    0  0.60763265086E-01 -0.19826882387E-01  0.12211176734E+00  0.89072810856E+00  0.88000000000E+00 0.  1.
        -11    1    3    3    0    0 -0.75364094369E-02  0.48657659695E-02 -0.17377564367E-01  0.19563077723E-01  0.51100000000E-03 0.  1.
         11    1    3    3    0    0 -0.36214301066E-01  0.28366244638E-01 -0.10188915983E+00  0.11179347677E+00  0.51100000000E-03 0. -1.
</event>
<event>
 8    1  0.1104109E+005  0.1043930E+01  0.7957747E-01            NaN
         13   -1    0    0    0    0  0.00000000000E+00  0.00000000000E+00  0.74505805969E-08  0.10566000000E+00  0.10566000000E+00 0.  1.
     999900   -1    0    0    0    0 -0.00000000000E+00 -0.00000000000E+00 -0.74505805969E-08  0.93827000000E+00  0.93827000000E+00 0.  1.
     999902    2    1    2    0    0  0.44151648100E-03  0.11108249663E-01 -0.21024305204E-01  0.10201474527E+01  0.10198701955E+01 0.  0.
     999903    2    3    3    0    0  0.28464414066E-01  0.87795925200E-01 -0.94346907028E-01  0.13333152686E+00  0.18910574774E-01 0.  0.
         14    1    1    2    0    0 -0.44151648100E-03 -0.11108249663E-01  0.21024305204E-01  0.23782547313E-01  0.00000000000E+00 0.  1.
     999901    1    3    3    0    0 -0.28022897585E-01 -0.76687675537E-01  0.73322601823E-01  0.88681592583E+00  0.88000000000E+00 0.  1.
        -11    1    4    4    0    0  0.54075920432E-02  0.46917022335E-01 -0.45234020566E-01  0.65397452351E-01  0.51100000000E-03 0. -1.
         11    1    4    4    0    0  0.23056822023E-01  0.40878902865E-01 -0.49112886462E-01  0.67934074505E-01  0.51100000000E-03 0.  1.
</event>
<event>
 8    1  0.1104109E+005  0.1043930E+01  0.7957747E-01            NaN
         13   -1    0    0    0    0  0.00000000000E+00  0.00000000000E+00  0.74505805969E-08  0.10566000000E+00  0.10566000000E+00 0.  1.
     999900   -1    0    0    0    0 -0.00000000000E+00 -0.00000000000E+00 -0.74505805969E-08  0.93827000000E+00  0.93827000000E+00 0. -1.
     999902    2    1    2    0    0  0.46231404749E-02  0.23879920704E-01 -0.15445026783E-01  0.10151172790E+01  0.10147082917E+01 0.  0.
     999903    2    3    3    0    0 -0.72970539849E-01 -0.91440613211E-01  0.32187578149E-01  0.12293541981E+00  0.19773513246E-01 0.  0.
         14    1    1    2    0    0 -0.46231404749E-02 -0.23879920704E-01  0.15445026783E-01  0.28812721028E-01  0.00000000000E+00 0.  1.
     999901    1    3    3    0    0  0.77593680324E-01  0.11532053391E+00 -0.47632604932E-01  0.89218185916E+00  0.88000000000E+00 0. -1.
        -11    1    4    4    0    0 -0.38726933125E-01 -0.63671342395E-01  0.18881467143E-01  0.76880336329E-01  0.51100000000E-03 0. -1.
         11    1    4    4    0    0 -0.34243606725E-01 -0.27769270816E-01  0.13306111006E-01  0.46055083479E-01  0.51100000000E-03 0.  1.
</event>
<event>
 8    1  0.1104109E+005  0.1043930E+01  0.7957747E-01            NaN
         13   -1    0    0    0    0  0.00000000000E+00  0.00000000000E+00  0.74505805969E-08  0.10566000000E+00  0.10566000000E+00 0. -1.
     999900   -1    0    0    0    0 -0.00000000000E+00 -0.00000000000E+00 -0.74505805969E-08  0.93827000000E+00  0.93827000000E+00 0.  1.
     999902    2    1    2    0    0  0.14415754895E-01  0.13722635841E-01 -0.13309278063E-01  0.10199871178E+01  0.10197060650E+01 0.  0.
     999903    2    3    3    0    0  0.11474233887E+00 -0.17819177462E-01 -0.60399349342E-01  0.13247498595E+00  0.20450258862E-01 0.  0.
         14    1    1    2    0    0 -0.14415754895E-01 -0.13722635841E-01  0.13309278063E-01  0.23942882161E-01  0.00000000000E+00 0. -1.
     999901    1    3    3    0    0 -0.10032658397E+00  0.31541813303E-01  0.47090071279E-01  0.88751213189E+00  0.88000000000E+00 0. -1.
        -11    1    4    4    0    0  0.19793303950E-01  0.45932845122E-02 -0.95133373849E-02  0.22441877218E-01  0.51100000000E-03 0. -1.
         11    1    4    4    0    0  0.94949034915E-01 -0.22412461974E-01 -0.50886011958E-01  0.11003310873E+00  0.51100000000E-03 0.  1.
</event>
<event>
 8    1  0.1104109E+005  0.1043930E+01  0.7957747E-01            NaN
         13   -1    0    0    0    0  0.00000000000E+00  0.00000000000E+00  0.74505805969E-08  0.10566000000E+00  0.10566000000E+00 0.  1.
     999900   -1    0    0    0    0 -0.00000000000E+00 -0.00000000000E+00 -0.74505805969E-08  0.93827000000E+00  0.93827000000E+00 0. -1.
     999902    2    1    2    0    0  0.23570527689E-01  0.35321259987E-02  0.71234002765E-02  0.10190545398E+01  0.10187508854E+01 0.  0.
     999903    2    3    3    0    0  0.30965246162E-01 -0.12337985369E+00  0.18565765640E-01  0.12984575655E+00  0.18270141602E-01 0.  0.
         14    1    1    2    0    0 -0.23570527689E-01 -0.35321259987E-02 -0.71234002765E-02  0.24875460219E-01  0.00000000000E+00 0.  1.
     999901    1    3    3    0    0 -0.73947184728E-02  0.12691197969E+00 -0.11442365363E-01  0.88920878323E+00  0.88000000000E+00 0. -1.
        -11    1    4    4    0    0  0.24386670637E-01 -0.71490919880E-01  0.44537583658E-02  0.75668741331E-01  0.51100000000E-03 0. -1.
         11    1    4    4    0    0  0.65785755249E-02 -0.51888933809E-01  0.14112007274E-01  0.54177015219E-01  0.51100000000E-03 0.  1.
</event>
<event>
 8    1  0.1104109E+005  0.1043930E+01  0.7957747E-01            NaN
         13   -1    0    0    0    0  0.00000000000E+00  0.00000000000E+00  0.74505805969E-08  0.10566000000E+00  0.10566000000E+00 0.  1.
     999900   -1    0    0    0    0 -0.00000000000E+00 -0.00000000000E+00 -0.74505805969E-08  0.93827000000E+00  0.93827000000E+00 0.  1.
     999902    2    1    2    0    0  0.13489342228E-01  0.19057217406E-01 -0.14635828689E-01  0.10163737417E+01  0.10160001159E+01 0.  0.
     999903    2    3    3    0    0  0.51150942532E-01  0.10998406620E+00  0.39759048355E-01  0.12921823640E+00  0.20091215793E-01 0.  0.
         14    1    1    2    0    0 -0.13489342228E-01 -0.19057217406E-01  0.14635828689E-01  0.27556258280E-01  0.00000000000E+00 0.  1.
     999901    1    3    3    0    0 -0.37661600305E-01 -0.90926848797E-01 -0.54394877044E-01  0.88715550532E+00  0.88000000000E+00 0. -1.
        -11    1    4    4    0    0  0.15690434104E-01  0.57411262883E-01  0.18262056453E-01  0.62257583113E-01  0.51100000000E-03 0.  1.
         11    1    4    4    0    0  0.35460508428E-01  0.52572803319E-01  0.21496991902E-01  0.66960653288E-01  0.51100000000E-03 0. -1.
</event>
<event>
 8    1  0.1104109E+005  0.1043930E+01  0.7957747E-01            NaN
         13   -1    0    0    0    0  0.00000000000E+00  0.00000000000E+00  0.74505805969E-08  0.10566000000E+00  0.10566000000E+00 0.  1.
     999900   -1    0    0    0    0 -0.00000000000E+00 -0.00000000000E+00 -0.74505805969E-08  0.93827000000E+00  0.93827000000E+00 0. -1.
     999902    2    1    2    0    0 -0.47300992473E-03  0.23413236274E-01 -0.93514770569E-03  0.10204933221E+01  0.10202241629E+01 0.  0.
     999903    2    3    3    0    0  0.12554425552E+00  0.33191975489E-01  0.16190699296E-02  0.13145873390E+00  0.20388967627E-01 0.  0.
         14    1    1    2    0    0  0.47300992473E-03 -0.23413236274E-01  0.93514770569E-03  0.23436677931E-01  0.00000000000E+00 0. -1.
     999901    1    3    3    0    0 -0.12601726544E+00 -0.97787392148E-02 -0.25542176353E-02  0.88903458817E+00  0.88000000000E+00 0. -1.
        -11    1    4    4    0    0  0.40024301658E-01  0.16472163755E-02  0.41045577843E-02  0.40271162891E-01  0.51100000000E-03 0. -1.
         11    1    4    4    0    0  0.85519953860E-01  0.31544759114E-01 -0.24854878548E-02  0.91187571010E-01  0.51100000000E-03 0.  1.
</event>
<event>
 8    1  0.1104109E+005  0.1043930E+01  0.7957747E-01            NaN
         13   -1    0    0    0    0  0.00000000000E+00  0.00000000000E+00  0.74505805969E-08  0.10566000000E+00  0.10566000000E+00 0. -1.
     999900   -1    0    0    0    0 -0.00000000000E+00 -0.00000000000E+00 -0.74505805969E-08  0.93827000000E+00  0.93827000000E+00 0.  1.
     999902    2    1    2    0    0  0.56958909643E-02  0.31519168377E-02  0.20098812253E-01  0.10228032395E+01  0.10225850218E+01 0.  0.
     999903    2    3    3    0    0  0.45058150594E-02 -0.10775280709E+00 -0.72185365316E-01  0.13105347447E+00  0.18256954850E-01 0.  0.
         14    1    1    2    0    0 -0.56958909643E-02 -0.31519168377E-02 -0.20098812253E-01  0.21126760461E-01  0.00000000000E+00 0.  1.
     999901    1    3    3    0    0  0.11900759049E-02  0.11090472393E+00  0.92284177568E-01  0.89174976507E+00  0.88000000000E+00 0. -1.
        -11    1    4    4    0    0  0.97333893975E-02 -0.33388814877E-01 -0.24817703983E-01  0.42728578025E-01  0.51100000000E-03 0. -1.
         11    1    4    4    0    0 -0.52275743381E-02 -0.74363992211E-01 -0.47367661333E-01  0.88324896446E-01  0.51100000000E-03 0.  1.
</event>
<event>
 8    1  0.1104109E+005  0.1043930E+01  0.7957747E-01            NaN
         13   -1    0    0    0    0  0.00000000000E+00  0.00000000000E+00  0.74505805969E-08  0.10566000000E+00  0.10566000000E+00 0.  1.
     999900   -1    0    0    0    0 -0.00000000000E+00 -0.00000000000E+00 -0.74505805969E-08  0.93827000000E+00  0.93827000000E+00 0. -1.
     999902    2    1    2    0    0  0.29027288828E-02 -0.84027136032E-03 -0.26147712358E-01  0.10176082456E+01  0.10172677656E+01 0.  0.
     999903    2    3    3    0    0 -0.67470819725E-01 -0.10581298551E+00  0.13796595997E-01  0.12768282470E+00  0.19075068698E-01 0.  0.
         14    1    1    2    0    0 -0.29027288828E-02  0.84027136032E-03  0.26147712358E-01  0.26321754358E-01  0.00000000000E+00 0.  1.
     999901    1    3    3    0    0  0.70373548607E-01  0.10497271415E+00 -0.39944308355E-01  0.88992542094E+00  0.88000000000E+00 0. -1.
        -11    1    4    4    0    0 -0.43586047763E-01 -0.61641103391E-01  0.16914910330E-01  0.77367593341E-01  0.51100000000E-03 0.  1.
         11    1    4    4    0    0 -0.23884771962E-01 -0.44171882123E-01 -0.31183143335E-02  0.50315231364E-01  0.51100000000E-03 0. -1.
</event>
<event>
 8    1  0.1104109E+005  0.1043930E+01  0.7957747E-01            NaN
         13   -1    0    0    0    0  0.00000000000E+00  0.00000000000E+00  0.74505805969E-08  0.10566000000E+00  0.10566000000E+00 0. -1.
     999900   -1    0    0    0    0 -0.00000000000E+00 -0.00000000000E+00 -0.74505805969E-08  0.93827000000E+00  0.93827000000E+00 0.  1.
     999902    2    1    2    0    0 -0.82926982336E-02 -0.17608040548E-01 -0.14320278499E-02  0.10244142976E+01  0.10242283879E+01 0.  0.
     999903    2    3    3    0    0 -0.12638846832E+00 -0.31777029397E-01  0.32239730422E-01  0.13577423636E+00  0.20283454315E-01 0.  0.
         14    1    1    2    0    0  0.82926982336E-02  0.17608040548E-01  0.14320278499E-02  0.19515702388E-01  0.00000000000E+00 0.  1.
     999901    1    3    3    0    0  0.11809577009E+00  0.14168988849E-01 -0.33671758271E-01  0.88864006125E+00  0.88000000000E+00 0. -1.
        -11    1    4    4    0    0 -0.46024184571E-01 -0.17048437856E-02  0.10016788273E-01  0.47135222775E-01  0.51100000000E-03 0. -1.
         11    1    4    4    0    0 -0.80364283752E-01 -0.30072185611E-01  0.22222942148E-01  0.88639013584E-01  0.51100000000E-03 0.  1.
</event>
<event>
 8    1  0.1104109E+005  0.1043930E+01  0.7957747E-01            NaN
         13   -1    0    0    0    0  0.00000000000E+00  0.00000000000E+00  0.74505805969E-08  0.10566000000E+00  0.10566000000E+00 0.  1.
     999900   -1    0    0    0    0 -0.00000000000E+00 -0.00000000000E+00 -0.74505805969E-08  0.93827000000E+00  0.93827000000E+00 0. -1.
     999902    2    1    2    0    0  0.17133382838E-01  0.90939320492E-02  0.12918645929E-01  0.10206245539E+01  0.10203584351E+01 0.  0.
     999903    2    3    3    0    0 -0.76473887091E-01 -0.29651575614E-01  0.99677203612E-01  0.13057366616E+00  0.19658739309E-01 0.  0.
         14    1    1    2    0    0 -0.17133382838E-01 -0.90939320492E-02 -0.12918645929E-01  0.23305446150E-01  0.00000000000E+00 0. -1.
     999901    1    3    3    0    0  0.93607269930E-01  0.38745507663E-01 -0.86758557684E-01  0.89005088769E+00  0.88000000000E+00 0.  1.
        -11    1    4    4    0    0 -0.19036836506E-01 -0.43354851714E-05  0.16243688463E-01  0.25030375523E-01  0.51100000000E-03 0. -1.
         11    1    4    4    0    0 -0.57437050585E-01 -0.29647240129E-01  0.83433515150E-01  0.10554329064E+00  0.51100000000E-03 0.  1.
</event>
<event>
 8    1  0.1104109E+005  0.1043930E+01  0.7957747E-01            NaN
         13   -1    0    0    0    0  0.00000000000E+00  0.00000000000E+00  0.74505805969E-08  0.10566000000E+00  0.10566000000E+00 0.  1.
     999900   -1    0    0    0    0 -0.00000000000E+00 -0.00000000000E+00 -0.74505805969E-08  0.93827000000E+00  0.93827000000E+00 0. -1.
     999902    2    1    2    0    0 -0.13243650021E-01  0.92461668317E-02 -0.16417271182E-01  0.10208993105E+01  0.10206395002E+01 0.  0.
     999903    2    3    3    0    0 -0.26614669667E-01  0.82634093834E-01  0.95149119600E-01  0.13072425379E+00  0.22332520287E-01 0.  0.
         14    1    1    2    0    0  0.13243650021E-01 -0.92461668317E-02  0.16417271182E-01  0.23030689525E-01  0.00000000000E+00 0.  1.
     999901    1    3    3    0    0  0.13371019646E-01 -0.73387927003E-01 -0.11156639078E+00  0.89017505669E+00  0.88000000000E+00 0. -1.
        -11    1    4    4    0    0 -0.88380924581E-02  0.41518264020E-01  0.61356840234E-01  0.74610998453E-01  0.51100000000E-03 0. -1.
         11    1    4    4    0    0 -0.17776577208E-01  0.41115829814E-01  0.33792279365E-01  0.56113255335E-01  0.51100000000E-03 0.  1.
</event>
<event>
 8    1  0.1104109E+005  0.1043930E+01  0.7957747E-01            NaN
         13   -1    0    0    0    0  0.00000000000E+00  0.00000000000E+00  0.74505805969E-08  0.10566000000E+00  0.10566000000E+00 0.  1.
     999900   -1    0    0    0    0 -0.00000000000E+00 -0.00000000000E+00 -0.74505805969E-08  0.93827000000E+00  0.93827000000E+00 0. -1.
     999902    2    1    2    0    0 -0.16645704219E-01  0.81394600553E-02 -0.14497980801E-01  0.10204029576E+01  0.10201316945E+01 0.  0.
     999903    2    3    3    0    0  0.12219152829E+00 -0.30157302321E-01 -0.17862385775E-01  0.12868902452E+00  0.20039155097E-01 0.  0.
         14    1    1    2    0    0  0.16645704219E-01 -0.81394600553E-02  0.14497980801E-01  0.23527042446E-01  0.00000000000E+00 0. -1.
     999901    1    3    3    0    0 -0.13883723251E+00  0.38296762376E-01  0.33644049740E-02  0.89171393303E+00  0.88000000000E+00 0. -1.
        -11    1    4    4    0    0  0.63965281005E-01 -0.13439383972E-01 -0.19093879236E-01  0.68095606032E-01  0.51100000000E-03 0.  1.
         11    1    4    4    0    0  0.58226247290E-01 -0.16717918349E-01  0.12314934605E-02  0.60593418492E-01  0.51100000000E-03 0. -1.
</event>
<event>
 8    1  0.1104109E+005  0.1043930E+01  0.7957747E-01            NaN
         13   -1    0    0    0    0  0.00000000000E+00  0.00000000000E+00  0.74505805969E-08  0.10566000000E+00  0.10566000000E+00 0. -1.
     999900   -1    0    0    0    0 -0.00000000000E+00 -0.00000000000E+00 -0.74505805969E-08  0.93827000000E+00  0.93827000000E+00 0. -1.
     999902    2    1    2    0    0 -0.84299925602E-02  0.17170861066E-01  0.13923200681E-01  0.10202707785E+01  0.10199964229E+01 0.  0.
     999903    2    3    3    0    0  0.10056008842E+00 -0.17270308105E-02  0.81105792591E-01  0.13080494514E+00  0.20407598172E-01 0.  0.
         14    1    1    2    0    0  0.84299925602E-02 -0.17170861066E-01 -0.13923200681E-01  0.23659221490E-01  0.00000000000E+00 0.  1.
     999901    1    3    3    0    0 -0.10899008098E+00  0.18897891877E-01 -0.67182591910E-01  0.88946583337E+00  0.88000000000E+00 0.  1.
        -11    1    4    4    0    0  0.90733144436E-01 -0.49059226253E-02  0.78647140710E-01  0.12017572733E+00  0.51100000000E-03 0.  1.
         11    1    4    4    0    0  0.98269439866E-02  0.31788918149E-02  0.24586518813E-02  0.10629217815E-01  0.51100000000E-03 0. -1.
</event>
<event>
 8    1  0.1104109E+005  0.1043930E+01  0.7957747E-01            NaN
         13   -1    0    0    0    0  0.00000000000E+00  0.00000000000E+00  0.74505805969E-08  0.10566000000E+00  0.10566000000E+00 0.  1.
     999900   -1    0    0    0    0 -0.00000000000E+00 -0.00000000000E+00 -0.74505805969E-08  0.93827000000E+00  0.93827000000E+00 0. -1.
     999902    2    1    2    0    0  0.41313019008E-02 -0.22560301209E-01 -0.56814993661E-02  0.10203013250E+01  0.10200276857E+01 0.  0.
     999903    2    3    3    0    0  0.12347177355E+00  0.61037988120E-02  0.36316325756E-01  0.13079157459E+00  0.22472766731E-01 0.  0.
         14    1    1    2    0    0 -0.41313019008E-02  0.22560301209E-01  0.56814993661E-02  0.23628674975E-01  0.00000000000E+00 0.  1.
     999901    1    3    3    0    0 -0.11934047165E+00 -0.28664100021E-01 -0.41997825122E-01  0.88950975043E+00  0.88000000000E+00 0. -1.
        -11    1    4    4    0    0  0.81362347847E-01  0.29927513736E-02  0.12683613966E-01  0.82400991451E-01  0.51100000000E-03 0. -1.
         11    1    4    4    0    0  0.42109425701E-01  0.31110474384E-02  0.23632711790E-01  0.48390583139E-01  0.51100000000E-03 0.  1.
</event>
<event>
 8    1  0.1104109E+005  0.1043930E+01  0.7957747E-01            NaN
         13   -1    0    0    0    0  0.00000000000E+00  0.00000000000E+00  0.74505805969E-08  0.10566000000E+00  0.10566000000E+00 0. -1.
     999900   -1    0    0    0    0 -0.00000000000E+00 -0.00000000000E+00 -0.74505805969E-08  0.93827000000E+00  0.93827000000E+00 0.  1.
     999902    2    1    2    0    0 -0.12563387224E-01  0.19319162592E-01 -0.70282562022E-02  0.10198371561E+01  0.10195525292E+01 0.  0.
     999903    2    3    3    0    0  0.72394848670E-01 -0.10061473689E+00 -0.22300289993E-01  0.12751699097E+00  0.19973498917E-01 0.  0.
         14    1    1    2    0    0  0.12563387224E-01 -0.19319162592E-01  0.70282562022E-02  0.24092843897E-01  0.00000000000E+00 0. -1.
     999901    1    3    3    0    0 -0.84958235894E-01  0.11993389948E+00  0.15272033790E-01  0.89232016514E+00  0.88000000000E+00 0. -1.
        -11    1    4    4    0    0  0.72261500782E-01 -0.96688419260E-01 -0.18671240282E-01  0.12214438689E+00  0.51100000000E-03 0. -1.
         11    1    4    4    0    0  0.13334788765E-03 -0.39263176277E-02 -0.36290497105E-02  0.53726040776E-02  0.51100000000E-03 0.  1.
</event>
<event>
 8    1  0.1104109E+005  0.1043930E+01  0.7957747E-01            NaN
         13   -1    0    0    0    0  0.00000000000E+00  0.00000000000E+00  0.74505805969E-08  0.10566000000E+00  0.10566000000E+00 0. -1.
     999900   -1    0    0    0    0 -0.00000000000E+00 -0.00000000000E+00 -0.74505805969E-08  0.93827000000E+00  0.93827000000E+00 0.  1.
     999902    2    1    2    0    0  0.21229747172E-01 -0.12282930755E-02 -0.10625791950E-01  0.10201577825E+01  0.10198807690E+01 0.  0.
     999903    2    3    3    0    0 -0.55645401701E-01  0.66878162735E-01 -0.94553614036E-01  0.13021837046E+00  0.21150382888E-01 0.  0.
         14    1    1    2    0    0 -0.21229747172E-01  0.12282930755E-02  0.10625791950E-01  0.23772217470E-01  0.00000000000E+00 0.  1.
     999901    1    3    3    0    0  0.76875148874E-01 -0.68106455810E-01  0.83927822086E-01  0.88993941207E+00  0.88000000000E+00 0. -1.
        -11    1    4    4    0    0 -0.31834190808E-01  0.53340789104E-01 -0.64365433847E-01  0.89452924390E-01  0.51100000000E-03 0.  1.
         11    1    4    4    0    0 -0.23811210894E-01  0.13537373631E-01 -0.30188180189E-01  0.40765446068E-01  0.51100000000E-03 0. -1.
</event>
<event>
 8    1  0.1104109E+005  0.1043930E+01  0.7957747E-01            NaN
         13   -1    0    0    0    0  0.00000000000E+00  0.00000000000E+00  0.74505805969E-08  0.10566000000E+00  0.10566000000E+00 0.  1.
     999900   -1    0    0    0    0 -0.00000000000E+00 -0.00000000000E+00 -0.74505805969E-08  0.93827000000E+00  0.93827000000E+00 0.  1.
     999902    2    1    2    0    0 -0.27770204171E-02  0.13640742265E-01  0.18430830321E-01  0.10208328747E+01  0.10205715462E+01 0.  0.
     999903    2    3    3    0    0  0.57091623879E-01 -0.70841587264E-01 -0.88333678583E-01  0.12835308278E+00  0.19841650259E-01 0.  0.
         14    1    1    2    0    0  0.27770204171E-02 -0.13640742265E-01 -0.18430830321E-01  0.23097125324E-01  0.00000000000E+00 0. -1.
     999901    1    3    3    0    0 -0.59868644297E-01  0.84482329529E-01  0.10676450890E+00  0.89247979189E+00  0.88000000000E+00 0. -1.
        -11    1    4    4    0    0  0.49598547402E-01 -0.66400274705E-01 -0.85740240497E-01  0.11925041864E+00  0.51100000000E-03 0. -1.
         11    1    4    4    0    0  0.74930764779E-02 -0.44413125596E-02 -0.25934380857E-02  0.91026641408E-02  0.51100000000E-03 0.  1.
</event>
<event>
 8    1  0.1104109E+005  0.1043930E+01  0.7957747E-01            NaN
         13   -1    0    0    0    0  0.00000000000E+00  0.00000000000E+00  0.74505805969E-08  0.10566000000E+00  0.10566000000E+00 0.  1.
     999900   -1    0    0    0    0 -0.00000000000E+00 -0.00000000000E+00 -0.74505805969E-08  0.93827000000E+00  0.93827000000E+00 0. -1.
     999902    2    1    2    0    0  0.83250918614E-02 -0.49158317681E-02 -0.20344061344E-01  0.10214054936E+01  0.10211571030E+01 0.  0.
     999903    2    3    3    0    0  0.54520866689E-01  0.66861457632E-01  0.94694875413E-01  0.12982263943E+00  0.21067008748E-01 0.  0.
         14    1    1    2    0    0 -0.83250918614E-02  0.49158317681E-02  0.20344061344E-01  0.22524506397E-01  0.00000000000E+00 0.  1.
     999901    1    3    3    0    0 -0.46195774828E-01 -0.71777289400E-01 -0.11503893676E+00  0.89158285417E+00  0.88000000000E+00 0. -1.
        -11    1    4    4    0    0  0.35353677066E-01  0.30284083461E-01  0.40639957067E-01  0.61797050290E-01  0.51100000000E-03 0. -1.
         11    1    4    4    0    0  0.19167189624E-01  0.36577374171E-01  0.54054918346E-01  0.68025589140E-01  0.51100000000E-03 0.  1.
</event>
<event>
 8    1  0.1104109E+005  0.1043930E+01  0.7957747E-01            NaN
         13   -1    0    0    0    0  0.00000000000E+00  0.00000000000E+00  0.74505805969E-08  0.10566000000E+00  0.10566000000E+00 0.  1.
     999900   -1    0    0    0    0 -0.00000000000E+00 -0.00000000000E+00 -0.74505805969E-08  0.93827000000E+00  0.93827000000E+00 0.  1.
     999902    2    1    2    0    0  0.18895565966E-01  0.90408646360E-02 -0.98249726462E-02  0.10207932385E+01  0.10205310020E+01 0.  0.
     999903    2    3    3    0    0  0.11954796263E+00  0.42988877159E-01 -0.37378547276E-01  0.13397726433E+00  0.20322220175E-01 0.  0.
         14    1    1    2    0    0 -0.18895565966E-01 -0.90408646360E-02  0.98249726462E-02  0.23136761529E-01  0.00000000000E+00 0.  1.
     999901    1    3    3    0    0 -0.10065239667E+00 -0.33948012523E-01  0.27553574630E-01  0.88681597414E+00  0.88000000000E+00 0. -1.
        -11    1    4    4    0    0  0.93509708113E-01  0.39437738442E-01 -0.23170556176E-01  0.10409868644E+00  0.51100000000E-03 0.  1.
         11    1    4    4    0    0  0.26038254520E-01  0.35511387163E-02 -0.14207991100E-01  0.29878577890E-01  0.51100000000E-03 0. -1.
</event>
<event>
 8    1  0.1104109E+005  0.1043930E+01  0.7957747E-01            NaN
         13   -1    0    0    0    0  0.00000000000E+00  0.00000000000E+00  0.74505805969E-08  0.10566000000E+00  0.10566000000E+00 0.  1.
     999900   -1    0    0    0    0 -0.00000000000E+00 -0.00000000000E+00 -0.74505805969E-08  0.93827000000E+00  0.93827000000E+00 0. -1.
     999902    2    1    2    0    0  0.12488965188E-01  0.12890333681E-01  0.14972547037E-01  0.10205566793E+01  0.10202889903E+01 0.  0.
     999903    2    3    3    0    0  0.16792616738E-01  0.10470265690E+00  0.78463812090E-01  0.13349458182E+00  0.20484023752E-01 0.  0.
         14    1    1    2    0    0 -0.12488965188E-01 -0.12890333681E-01 -0.14972547037E-01  0.23373320659E-01  0.00000000000E+00 0. -1.
     999901    1    3    3    0    0 -0.43036515493E-02 -0.91812323223E-01 -0.63491265053E-01  0.88706209752E+00  0.88000000000E+00 0. -1.
        -11    1    4    4    0    0 -0.46458143480E-02  0.23791115851E-01  0.19340284867E-01  0.31014650154E-01  0.51100000000E-03 0.  1.
         11    1    4    4    0    0  0.21438431086E-01  0.80911541053E-01  0.59123527223E-01  0.10247993167E+00  0.51100000000E-03 0. -1.
</event>
<event>
 8    1  0.1104109E+005  0.1043930E+01  0.7957747E-01            NaN
         13   -1    0    0    0    0  0.00000000000E+00  0.00000000000E+00  0.74505805969E-08  0.10566000000E+00  0.10566000000E+00 0. -1.
     999900   -1    0    0    0    0 -0.00000000000E+00 -0.00000000000E+00 -0.74505805969E-08  0.93827000000E+00  0.93827000000E+00 0.  1.
     999902    2    1    2    0    0  0.19740748947E-02  0.23429966857E-01 -0.95895798986E-03  0.10203974710E+01  0.10201260800E+01 0.  0.
     999903    2    3    3    0    0 -0.79708541462E-01 -0.59913292827E-01  0.80400141796E-01  0.12897307612E+00  0.15060455624E-01 0.  0.
         14    1    1    2    0    0 -0.19740748947E-02 -0.23429966857E-01  0.95895798986E-03  0.23532528955E-01  0.00000000000E+00 0.  1.
     999901    1    3    3    0    0  0.81682616357E-01  0.83343259683E-01 -0.81359099786E-01  0.89142439493E+00  0.88000000000E+00 0.  1.
        -11    1    4    4    0    0 -0.62889468635E-01 -0.53113527310E-01  0.69988086790E-01  0.10804964351E+00  0.51100000000E-03 0. -1.
         11    1    4    4    0    0 -0.16819072827E-01 -0.67997655167E-02  0.10412055006E-01  0.20923432613E-01  0.51100000000E-03 0.  1.
</event>
<event>
 8    1  0.1104109E+005  0.1043930E+01  0.7957747E-01            NaN
         13   -1    0    0    0    0  0.00000000000E+00  0.00000000000E+00  0.74505805969E-08  0.10566000000E+00  0.10566000000E+00 0.  1.
     999900   -1    0    0    0    0 -0.00000000000E+00 -0.00000000000E+00 -0.74505805969E-08  0.93827000000E+00  0.93827000000E+00 0. -1.
     999902    2    1    2    0    0 -0.14267931534E-01 -0.17843003876E-02 -0.18535343344E-01  0.10204711733E+01  0.10202014992E+01 0.  0.
     999903    2    3    3    0    0 -0.10930854543E+00  0.63908011912E-01 -0.34452431226E-01  0.13277665833E+00  0.20250404700E-01 0.  0.
         14    1    1    2    0    0  0.14267931534E-01  0.17843003876E-02  0.18535343344E-01  0.23458826719E-01  0.00000000000E+00 0.  1.
     999901    1    3    3    0    0  0.95040613894E-01 -0.65692312299E-01  0.15917087882E-01  0.88769451495E+00  0.88000000000E+00 0.  1.
        -11    1    4    4    0    0 -0.29716235465E-01  0.76018279300E-02 -0.99128134769E-02  0.32239221922E-01  0.51100000000E-03 0.  1.
         11    1    4    4    0    0 -0.79592309963E-01  0.56306183982E-01 -0.24539617749E-01  0.10053743641E+00  0.51100000000E-03 0. -1.
</event>
<event>
 8    1  0.1104109E+005  0.1043930E+01  0.7957747E-01            NaN
         13   -1    0    0    0    0  0.00000000000E+00  0.00000000000E+00  0.74505805969E-08  0.10566000000E+00  0.10566000000E+00 0. -1.
     999900   -1    0    0    0    0 -0.00000000000E+00 -0.00000000000E+00 -0.74505805969E-08  0.93827000000E+00  0.93827000000E+00 0.  1.
     999902    2    1    2    0    0  0.86016530327E-02  0.10519033573E-01 -0.18820208556E-01  0.10207170994E+01  0.10204531142E+01 0.  0.
     999903    2    3    3    0    0 -0.10696655096E+00  0.18845853274E-01 -0.71527378806E-01  0.13155828826E+00  0.19859710052E-01 0.  0.
         14    1    1    2    0    0 -0.86016530327E-02 -0.10519033573E-01  0.18820208556E-01  0.23212900558E-01  0.00000000000E+00 0. -1.
     999901    1    3    3    0    0  0.11556820399E+00 -0.83268197009E-02  0.52707170250E-01  0.88915881118E+00  0.88000000000E+00 0.  1.
        -11    1    4    4    0    0 -0.74019366508E-01  0.19954679439E-01 -0.42642414948E-01  0.87725096315E-01  0.51100000000E-03 0.  1.
         11    1    4    4    0    0 -0.32947184447E-01 -0.11088261650E-02 -0.28884963858E-01  0.43833191950E-01  0.51100000000E-03 0. -1.
</event>
<event>
 8    1  0.1104109E+005  0.1043930E+01  0.7957747E-01            NaN
         13   -1    0    0    0    0  0.00000000000E+00  0.00000000000E+00  0.74505805969E-08  0.10566000000E+00  0.10566000000E+00 0. -1.
     999900   -1    0    0    0    0 -0.00000000000E+00 -0.00000000000E+00 -0.74505805969E-08  0.93827000000E+00  0.93827000000E+00 0.  1.
     999902    2    1    2    0    0  0.20195653535E-01  0.13663454810E-03 -0.12457767033E-01  0.10202007132E+01  0.10199247111E+01 0.  0.
     999903    2    3    3    0    0 -0.56299201331E-02 -0.31504677823E-01  0.12271369307E+00  0.12894347959E+00  0.23313724230E-01 0.  0.
         14    1    1    2    0    0 -0.20195653535E-01 -0.13663454810E-03  0.12457767033E-01  0.23729286761E-01  0.00000000000E+00 0. -1.
     999901    1    3    3    0    0  0.25825573668E-01  0.31641312371E-01 -0.13517146010E+00  0.89125723365E+00  0.88000000000E+00 0.  1.
        -11    1    4    4    0    0  0.26491231332E-02  0.99125262371E-03  0.33682822970E-01  0.33805238047E-01  0.51100000000E-03 0.  1.
         11    1    4    4    0    0 -0.82790432663E-02 -0.32495930446E-01  0.89030870097E-01  0.95138241545E-01  0.51100000000E-03 0. -1.
</event>
<event>
 8    1  0.1104109E+005  0.1043930E+01  0.7957747E-01            NaN
         13   -1    0    0    0    0  0.00000000000E+00  0.00000000000E+00  0.74505805969E-08  0.10566000000E+00  0.10566000000E+00 0. -1.
     999900   -1    0    0    0    0 -0.00000000000E+00 -0.00000000000E+00 -0.74505805969E-08  0.93827000000E+00  0.93827000000E+00 0. -1.
     999902    2    1    2    0    0  0.15170744868E-01 -0.17097877034E-01  0.38988755991E-02  0.10207418537E+01  0.10204784377E+01 0.  0.
     999903    2    3    3    0    0 -0.10796075171E-01  0.11663749551E+00  0.47056759843E-01  0.12921393567E+00  0.27586988352E-01 0.  0.
         14    1    1    2    0    0 -0.15170744868E-01  0.17097877034E-01 -0.38988755991E-02  0.23188146322E-01  0.00000000000E+00 0.  1.
     999901    1    3    3    0    0  0.25966820039E-01 -0.13373537255E+00 -0.43157884244E-01  0.89152791801E+00  0.88000000000E+00 0.  1.
        -11    1    4    4    0    0 -0.19936555445E-01  0.70127956414E-01  0.27098423445E-01  0.77781631431E-01  0.51100000000E-03 0.  1.
         11    1    4    4    0    0  0.91404802735E-02  0.46509539097E-01  0.19958336398E-01  0.51432304240E-01  0.51100000000E-03 0. -1.
</event>
<event>
 8    1  0.1104109E+005  0.1043930E+01  0.7957747E-01            NaN
         13   -1    0    0    0    0  0.00000000000E+00  0.00000000000E+00  0.74505805969E-08  0.10566000000E+00  0.10566000000E+00 0. -1.
     999900   -1    0    0    0    0 -0.00000000000E+00 -0.00000000000E+00 -0.74505805969E-08  0.93827000000E+00  0.93827000000E+00 0.  1.
     999902    2    1    2    0    0  0.15149820431E-01 -0.18033665961E-01 -0.36786933209E-02  0.10200917335E+01  0.10198131602E+01 0.  0.
     999903    2    3    3    0    0  0.99843696164E-01  0.70188405063E-01 -0.42616968845E-01  0.13078167746E+00  0.19810735892E-01 0.  0.
         14    1    1    2    0    0 -0.15149820431E-01  0.18033665961E-01  0.36786933209E-02  0.23838266540E-01  0.00000000000E+00 0.  1.
     999901    1    3    3    0    0 -0.84693875733E-01 -0.88222071024E-01  0.38938275524E-01  0.88931005600E+00  0.88000000000E+00 0.  1.
        -11    1    4    4    0    0  0.95914733783E-01  0.64639583017E-01 -0.44131618847E-01  0.12379730511E+00  0.51100000000E-03 0. -1.
         11    1    4    4    0    0  0.39289623815E-02  0.55488220465E-02  0.15146500027E-02  0.69843723505E-02  0.51100000000E-03 0.  1.
</event>
<event>
 8    1  0.1104109E+005  0.1043930E+01  0.7957747E-01            NaN
         13   -1    0    0    0    0  0.00000000000E+00  0.00000000000E+00  0.74505805969E-08  0.10566000000E+00  0.10566000000E+00 0.  1.
     999900   -1    0    0    0    0 -0.00000000000E+00 -0.00000000000E+00 -0.74505805969E-08  0.93827000000E+00  0.93827000000E+00 0. -1.
     999902    2    1    2    0    0 -0.15525134177E-01 -0.18487943772E-01  0.32418080308E-02  0.10195713634E+01  0.10192803451E+01 0.  0.
     999903    2    3    3    0    0 -0.11869039378E+00  0.42908804169E-01  0.27671815130E-01  0.13108419037E+00  0.22107929867E-01 0.  0.
         14    1    1    2    0    0  0.15525134177E-01  0.18487943772E-01 -0.32418080308E-02  0.24358636568E-01  0.00000000000E+00 0.  1.
     999901    1    3    3    0    0  0.10316525960E+00 -0.61396747941E-01 -0.24430007100E-01  0.88848717306E+00  0.88000000000E+00 0.  1.
        -11    1    4    4    0    0 -0.10727625283E-01  0.75177642534E-02  0.91031223288E-02  0.15960159169E-01  0.51100000000E-03 0. -1.
         11    1    4    4    0    0 -0.10796276849E+00  0.35391039916E-01  0.18568692802E-01  0.11512403120E+00  0.51100000000E-03 0.  1.
</event>
<event>
 8    1  0.1104109E+005  0.1043930E+01  0.7957747E-01            NaN
         13   -1    0    0    0    0  0.00000000000E+00  0.00000000000E+00  0.74505805969E-08  0.10566000000E+00  0.10566000000E+00 0.  1.
     999900   -1    0    0    0    0 -0.00000000000E+00 -0.00000000000E+00 -0.74505805969E-08  0.93827000000E+00  0.93827000000E+00 0.  1.
     999902    2    1    2    0    0 -0.21802067296E-01 -0.13552286673E-02  0.79052690199E-02  0.10206994154E+01  0.10204350232E+01 0.  0.
     999903    2    3    3    0    0  0.76410327421E-01 -0.74086801723E-01  0.71971802238E-01  0.12994688136E+00  0.19464309194E-01 0.  0.
         14    1    1    2    0    0  0.21802067296E-01  0.13552286673E-02 -0.79052690199E-02  0.23230584611E-01  0.00000000000E+00 0. -1.
     999901    1    3    3    0    0 -0.98212394716E-01  0.72731573056E-01 -0.64066533218E-01  0.89075253403E+00  0.88000000000E+00 0. -1.
        -11    1    4    4    0    0  0.53917945772E-01 -0.52793139715E-01  0.61169324552E-01  0.97140145482E-01  0.51100000000E-03 0. -1.
         11    1    4    4    0    0  0.22492381649E-01 -0.21293662008E-01  0.10802477687E-01  0.32806735881E-01  0.51100000000E-03 0.  1.
</event>
<event>
 8    1  0.1104109E+005  0.1043930E+01  0.7957747E-01            NaN
         13   -1    0    0    0    0  0.00000000000E+00  0.00000000000E+00  0.74505805969E-08  0.10566000000E+00  0.10566000000E+00 0. -1.
     999900   -1    0    0    0    0 -0.00000000000E+00 -0.00000000000E+00 -0.74505805969E-08  0.93827000000E+00  0.93827000000E+00 0.  1.
     999902    2    1    2    0    0  0.12582151268E-01 -0.19206375677E-01  0.63950196022E-02  0.10200953262E+01  0.10198168379E+01 0.  0.
     999903    2    3    3    0    0 -0.85597597892E-01  0.69383156996E-01 -0.61266064078E-01  0.12764622927E+00  0.19976436135E-01 0.  0.
         14    1    1    2    0    0 -0.12582151268E-01  0.19206375677E-01 -0.63950196022E-02  0.23834673752E-01  0.00000000000E+00 0. -1.
     999901    1    3    3    0    0  0.98179749160E-01 -0.88589532673E-01  0.67661083680E-01  0.89244909697E+00  0.88000000000E+00 0. -1.
        -11    1    4    4    0    0 -0.25661007760E-01  0.30299677476E-01 -0.15060856409E-01  0.42469380631E-01  0.51100000000E-03 0. -1.
         11    1    4    4    0    0 -0.59936590132E-01  0.39083479521E-01 -0.46205207669E-01  0.85176848643E-01  0.51100000000E-03 0.  1.
</event>
<event>
 8    1  0.1104109E+005  0.1043930E+01  0.7957747E-01            NaN
         13   -1    0    0    0    0  0.00000000000E+00  0.00000000000E+00  0.74505805969E-08  0.10566000000E+00  0.10566000000E+00 0.  1.
     999900   -1    0    0    0    0 -0.00000000000E+00 -0.00000000000E+00 -0.74505805969E-08  0.93827000000E+00  0.93827000000E+00 0. -1.
     999902    2    1    2    0    0  0.18526419836E-01 -0.57613354143E-02 -0.15242214829E-01  0.10192572148E+01  0.10189585485E+01 0.  0.
     999903    2    3    3    0    0  0.61063466111E-02  0.12748853314E+00 -0.60455264784E-02  0.12909185668E+00  0.18372411895E-01 0.  0.
         14    1    1    2    0    0 -0.18526419836E-01  0.57613354143E-02  0.15242214829E-01  0.24672785221E-01  0.00000000000E+00 0. -1.
     999901    1    3    3    0    0  0.12420073225E-01 -0.13324986855E+00 -0.91966883504E-02  0.89016535810E+00  0.88000000000E+00 0. -1.
        -11    1    4    4    0    0 -0.19130803163E-03  0.28781601787E-01 -0.89324527496E-02  0.30140786873E-01  0.51100000000E-03 0.  1.
         11    1    4    4    0    0  0.62976546427E-02  0.98706931352E-01  0.28869262713E-02  0.98951069803E-01  0.51100000000E-03 0. -1.
</event>
<event>
 8    1  0.1104109E+005  0.1043930E+01  0.7957747E-01            NaN
         13   -1    0    0    0    0  0.00000000000E+00  0.00000000000E+00  0.74505805969E-08  0.10566000000E+00  0.10566000000E+00 0.  1.
     999900   -1    0    0    0    0 -0.00000000000E+00 -0.00000000000E+00 -0.74505805969E-08  0.93827000000E+00  0.93827000000E+00 0.  1.
     999902    2    1    2    0    0  0.82053948204E-02  0.19860689784E-01  0.98897596557E-02  0.10202744964E+01  0.10200002281E+01 0.  0.
     999903    2    3    3    0    0 -0.70862129424E-01  0.10971641698E+00  0.31753968434E-02  0.13214679854E+00  0.19838338598E-01 0.  0.
         14    1    1    2    0    0 -0.82053948204E-02 -0.19860689784E-01 -0.98897596557E-02  0.23655503565E-01  0.00000000000E+00 0. -1.
     999901    1    3    3    0    0  0.79067524245E-01 -0.89855727194E-01  0.67143628123E-02  0.88812769789E+00  0.88000000000E+00 0. -1.
        -11    1    4    4    0    0 -0.36927351263E-01  0.70027486646E-01  0.86468642996E-02  0.79639861504E-01  0.51100000000E-03 0.  1.
         11    1    4    4    0    0 -0.33934778161E-01  0.39688930332E-01 -0.54714674562E-02  0.52506937036E-01  0.51100000000E-03 0. -1.
</event>
<event>
 8    1  0.1104109E+005  0.1043930E+01  0.7957747E-01            NaN
         13   -1    0    0    0    0  0.00000000000E+00  0.00000000000E+00  0.74505805969E-08  0.10566000000E+00  0.10566000000E+00 0. -1.
     999900   -1    0    0    0    0 -0.00000000000E+00 -0.00000000000E+00 -0.74505805969E-08  0.93827000000E+00  0.93827000000E+00 0.  1.
     999902    2    1    2    0    0  0.15384098862E-01  0.14672499155E-01 -0.12246417366E-01  0.10193957899E+01  0.10191005097E+01 0.  0.
     999903    2    3    3    0    0  0.29684064698E-01 -0.90527656569E-01 -0.86035085280E-01  0.12994858552E+00  0.20203927285E-01 0.  0.
         14    1    1    2    0    0 -0.15384098862E-01 -0.14672499155E-01  0.12246417366E-01  0.24534210148E-01  0.00000000000E+00 0. -1.
     999901    1    3    3    0    0 -0.14299965836E-01  0.10520015572E+00  0.73788667914E-01  0.88944720434E+00  0.88000000000E+00 0. -1.
        -11    1    4    4    0    0  0.20475373723E-01 -0.80327434907E-01 -0.67698846576E-01  0.10702865353E+00  0.51100000000E-03 0.  1.
         11    1    4    4    0    0  0.92086909759E-02 -0.10200221662E-01 -0.18336238704E-01  0.22919931987E-01  0.51100000000E-03 0. -1.
</event>
<event>
 8    1  0.1104109E+005  0.1043930E+01  0.7957747E-01            NaN
         13   -1    0    0    0    0  0.00000000000E+00  0.00000000000E+00  0.74505805969E-08  0.10566000000E+00  0.10566000000E+00 0.  1.
     999900   -1    0    0    0    0 -0.00000000000E+00 -0.00000000000E+00 -0.74505805969E-08  0.93827000000E+00  0.93827000000E+00 0.  1.
     999902    2    1    2    0    0 -0.17108455941E-01 -0.22059915625E-02 -0.17436484158E-01  0.10194025329E+01  0.10191074170E+01 0.  0.
     999903    2    3    3    0    0 -0.12691449036E+00  0.22664666262E-01  0.17135701233E-01  0.13155617747E+00  0.19809609104E-01 0.  0.
         14    1    1    2    0    0  0.17108455941E-01  0.22059915625E-02  0.17436484158E-01  0.24527467119E-01  0.00000000000E+00 0.  1.
     999901    1    3    3    0    0  0.10980603442E+00 -0.24870657825E-01 -0.34572185391E-01  0.88784635541E+00  0.88000000000E+00 0.  1.
        -11    1    4    4    0    0 -0.26852373176E-01 -0.22188307618E-02  0.76294212981E-02  0.28007897913E-01  0.51100000000E-03 0.  1.
         11    1    4    4    0    0 -0.10006211719E+00  0.24883497024E-01  0.95062799344E-02  0.10354827956E+00  0.51100000000E-03 0. -1.
</event>
<event>
 8    1  0.1104109E+005  0.1043930E+01  0.7957747E-01            NaN
         13   -1    0    0    0    0  0.00000000000E+00  0.00000000000E+00  0.74505805969E-08  0.10566000000E+00  0.10566000000E+00 0. -1.
     999900   -1    0    0    0    0 -0.00000000000E+00 -0.00000000000E+00 -0.74505805969E-08  0.93827000000E+00  0.93827000000E+00 0. -1.
     999902    2    1    2    0    0 -0.38752855182E-02 -0.10522650654E-01 -0.16845436204E-01  0.10236935790E+01  0.10234935422E+01 0.  0.
     999903    2    3    3    0    0  0.68059383607E-01 -0.74013081560E-01  0.84165529955E-01  0.13273406996E+00  0.20602935619E-01 0.  0.
         14    1    1    2    0    0  0.38752855182E-02  0.10522650654E-01  0.16845436204E-01  0.20236421016E-01  0.00000000000E+00 0. -1.
     999901    1    3    3    0    0 -0.71934669125E-01  0.63490430906E-01 -0.10101096616E+00  0.89095950903E+00  0.88000000000E+00 0.  1.
        -11    1    4    4    0    0  0.57212028545E-01 -0.50238594186E-01  0.67362266510E-01  0.10166153956E+00  0.51100000000E-03 0. -1.
         11    1    4    4    0    0  0.10847355062E-01 -0.23774487374E-01  0.16803263445E-01  0.31072530395E-01  0.51100000000E-03 0.  1.
</event>
<event>
 8    1  0.1104109E+005  0.1043930E+01  0.7957747E-01            NaN
         13   -1    0    0    0    0  0.00000000000E+00  0.00000000000E+00  0.74505805969E-08  0.10566000000E+00  0.10566000000E+00 0.  1.
     999900   -1    0    0    0    0 -0.00000000000E+00 -0.00000000000E+00 -0.74505805969E-08  0.93827000000E+00  0.93827000000E+00 0.  1.
     999902    2    1    2    0    0  0.10531680259E-01 -0.16246446477E-01 -0.12035357250E-01  0.10211327823E+01  0.10208782718E+01 0.  0.
     999903    2    3    3    0    0  0.27506710401E-02  0.93677647078E-01  0.86134641212E-01  0.12884291959E+00  0.19956296183E-01 0.  0.
         14    1    1    2    0    0 -0.10531680259E-01  0.16246446477E-01  0.12035357250E-01  0.22797217732E-01  0.00000000000E+00 0.  1.
     999901    1    3    3    0    0  0.77810092190E-02 -0.10992409355E+00 -0.98169998462E-01  0.89228986268E+00  0.88000000000E+00 0.  1.
        -11    1    4    4    0    0  0.60179979568E-02  0.14264926899E-01  0.20920823073E-01  0.26031642244E-01  0.51100000000E-03 0.  1.
         11    1    4    4    0    0 -0.32673269167E-02  0.79412720179E-01  0.65213818139E-01  0.10281127734E+00  0.51100000000E-03 0. -1.
</event>
<event>
 8    1  0.1104109E+005  0.1043930E+01  0.7957747E-01            NaN
         13   -1    0    0    0    0  0.00000000000E+00  0.00000000000E+00  0.74505805969E-08  0.10566000000E+00  0.10566000000E+00 0.  1.
     999900   -1    0    0    0    0 -0.00000000000E+00 -0.00000000000E+00 -0.74505805969E-08  0.93827000000E+00  0.93827000000E+00 0.  1.
     999902    2    1    2    0    0  0.13080788670E-01  0.19807991749E-01 -0.72015389377E-02  0.10191242399E+01  0.10188223057E+01 0.  0.
     999903    2    3    3    0    0  0.53721175840E-03 -0.12079794848E+00 -0.35752561258E-01  0.12741659018E+00  0.19086876780E-01 0.  0.
         14    1    1    2    0    0 -0.13080788670E-01 -0.19807991749E-01  0.72015389377E-02  0.24805760065E-01  0.00000000000E+00 0.  1.
     999901    1    3    3    0    0  0.12543576912E-01  0.14060594022E+00  0.28551022320E-01  0.89170764975E+00  0.88000000000E+00 0. -1.
        -11    1    4    4    0    0 -0.92108033846E-02 -0.53470439194E-01 -0.15239769896E-01  0.56359901296E-01  0.51100000000E-03 0.  1.
         11    1    4    4    0    0  0.97480151430E-02 -0.67327509282E-01 -0.20512791362E-01  0.71056688888E-01  0.51100000000E-03 0. -1.
</event>
<event>
 8    1  0.1104109E+005  0.1043930E+01  0.7957747E-01            NaN
         13   -1    0    0    0    0  0.00000000000E+00  0.00000000000E+00  0.74505805969E-08  0.10566000000E+00  0.10566000000E+00 0.  1.
     999900   -1    0    0    0    0 -0.00000000000E+00 -0.00000000000E+00 -0.74505805969E-08  0.93827000000E+00  0.93827000000E+00 0.  1.
     999902    2    1    2    0    0 -0.30177509348E-02 -0.11277201541E-01  0.21416986348E-01  0.10195380054E+01  0.10192461798E+01 0.  0.
     999903    2    3    3    0    0  0.59623957437E-01  0.38936721703E-01 -0.10333357066E+00  0.12712099349E+00  0.20269078992E-01 0.  0.
         14    1    1    2    0    0  0.30177509348E-02  0.11277201541E-01 -0.21416986348E-01  0.24391994579E-01  0.00000000000E+00 0. -1.
     999901    1    3    3    0    0 -0.62641708372E-01 -0.50213923244E-01  0.12475055701E+00  0.89241701193E+00  0.88000000000E+00 0. -1.
        -11    1    4    4    0    0  0.20903353978E-01  0.24358792235E-01 -0.37498760455E-01  0.49363135266E-01  0.51100000000E-03 0. -1.
         11    1    4    4    0    0  0.38720603459E-01  0.14577929467E-01 -0.65834810202E-01  0.77757858221E-01  0.51100000000E-03 0.  1.
</event>
<event>
 8    1  0.1104109E+005  0.1043930E+01  0.7957747E-01            NaN
         13   -1    0    0    0    0  0.00000000000E+00  0.00000000000E+00  0.74505805969E-08  0.10566000000E+00  0.10566000000E+00 0.  1.
     999900   -1    0    0    0    0 -0.00000000000E+00 -0.00000000000E+00 -0.74505805969E-08  0.93827000000E+00  0.93827000000E+00 0.  1.
     999902    2    1    2    0    0 -0.12166533916E-01  0.15409251096E-01 -0.12144940789E-01  0.10208438753E+01  0.10205827985E+01 0.  0.
     999903    2    3    3    0    0 -0.41078045882E-01 -0.10444674497E+00  0.60740811949E-01  0.12926456404E+00  0.20575541102E-01 0.  0.
         14    1    1    2    0    0  0.12166533916E-01 -0.15409251096E-01  0.12144940789E-01  0.23086124700E-01  0.00000000000E+00 0.  1.
     999901    1    3    3    0    0  0.28911511965E-01  0.11985599607E+00 -0.72885752738E-01  0.89157931126E+00  0.88000000000E+00 0.  1.
        -11    1    4    4    0    0 -0.14093891471E-01 -0.17738384100E-01  0.68856494330E-02  0.23684622362E-01  0.51100000000E-03 0. -1.
         11    1    4    4    0    0 -0.26984154410E-01 -0.86708360869E-01  0.53855162516E-01  0.10557994168E+00  0.51100000000E-03 0.  1.
</event>
<event>
 8    1  0.1104109E+005  0.1043930E+01  0.7957747E-01            NaN
         13   -1    0    0    0    0  0.00000000000E+00  0.00000000000E+00  0.74505805969E-08  0.10566000000E+00  0.10566000000E+00 0.  1.
     999900   -1    0    0    0    0 -0.00000000000E+00 -0.00000000000E+00 -0.74505805969E-08  0.93827000000E+00  0.93827000000E+00 0.  1.
     999902    2    1    2    0    0 -0.18629321968E-01 -0.12574820988E-01  0.68910890639E-02  0.10204211747E+01  0.10201503364E+01 0.  0.
     999903    2    3    3    0    0  0.76059491705E-01  0.69809201837E-01  0.74543981611E-01  0.12894486398E+00  0.20287972132E-01 0.  0.
         14    1    1    2    0    0  0.18629321968E-01  0.12574820988E-01 -0.68910890639E-02  0.23508825329E-01  0.00000000000E+00 0.  1.
     999901    1    3    3    0    0 -0.94688813673E-01 -0.82384022825E-01 -0.67652892547E-01  0.89147631069E+00  0.88000000000E+00 0.  1.
        -11    1    4    4    0    0  0.36076183185E-01  0.25024322607E-01  0.41483818135E-01  0.60405926887E-01  0.51100000000E-03 0.  1.
         11    1    4    4    0    0  0.39983308520E-01  0.44784879230E-01  0.33060163476E-01  0.68538937093E-01  0.51100000000E-03 0. -1.
</event>
<event>
 8    1  0.1104109E+005  0.1043930E+01  0.7957747E-01            NaN
         13   -1    0    0    0    0  0.00000000000E+00  0.00000000000E+00  0.74505805969E-08  0.10566000000E+00  0.10566000000E+00 0.  1.
     999900   -1    0    0    0    0 -0.00000000000E+00 -0.00000000000E+00 -0.74505805969E-08  0.93827000000E+00  0.93827000000E+00 0.  1.
     999902    2    1    2    0    0 -0.13949886114E-01  0.14332050588E-02 -0.18009296076E-01  0.10211048353E+01  0.10208496934E+01 0.  0.
     999903    2    3    3    0    0 -0.13114073440E+00  0.84835874542E-02 -0.12000044464E-01  0.13328756021E+00  0.18753910645E-01 0.  0.
         14    1    1    2    0    0  0.13949886114E-01 -0.14332050588E-02  0.18009296076E-01  0.22825164720E-01  0.00000000000E+00 0.  1.
     999901    1    3    3    0    0  0.11719084828E+00 -0.70503823955E-02 -0.60092516121E-02  0.88781727507E+00  0.88000000000E+00 0. -1.
        -11    1    4    4    0    0 -0.44505010260E-01  0.13842079902E-02  0.46778423451E-02  0.44774493855E-01  0.51100000000E-03 0.  1.
         11    1    4    4    0    0 -0.86635724137E-01  0.70993794640E-02 -0.16677886809E-01  0.88513066352E-01  0.51100000000E-03 0. -1.
</event>
<event>
 8    1  0.1104109E+005  0.1043930E+01  0.7957747E-01            NaN
         13   -1    0    0    0    0  0.00000000000E+00  0.00000000000E+00  0.74505805969E-08  0.10566000000E+00  0.10566000000E+00 0.  1.
     999900   -1    0    0    0    0 -0.00000000000E+00 -0.00000000000E+00 -0.74505805969E-08  0.93827000000E+00  0.93827000000E+00 0.  1.
     999902    2    1    2    0    0  0.40602422572E-02 -0.58172656658E-02  0.22263981307E-01  0.10205631215E+01  0.10202955817E+01 0.  0.
     999903    2    3    3    0    0 -0.85727151233E-02  0.48701908956E-01  0.12197275357E+00  0.13316593237E+00  0.20259455829E-01 0.  0.
         14    1    1    2    0    0 -0.40602422572E-02  0.58172656658E-02 -0.22263981307E-01  0.23366878496E-01  0.00000000000E+00 0. -1.
     999901    1    3    3    0    0  0.12632957380E-01 -0.54519174622E-01 -0.99708772263E-01  0.88739718913E+00  0.88000000000E+00 0.  1.
        -11    1    4    4    0    0 -0.14798122575E-01  0.38485055379E-01  0.89076563972E-01  0.98157930343E-01  0.51100000000E-03 0. -1.
         11    1    4    4    0    0  0.62254074513E-02  0.10216853577E-01  0.32896189598E-01  0.35008002028E-01  0.51100000000E-03 0.  1.
</event>
<event>
 8    1  0.1104109E+005  0.1043930E+01  0.7957747E-01            NaN
         13   -1    0    0    0    0  0.00000000000E+00  0.00000000000E+00  0.74505805969E-08  0.10566000000E+00  0.10566000000E+00 0.  1.
     999900   -1    0    0    0    0 -0.00000000000E+00 -0.00000000000E+00 -0.74505805969E-08  0.93827000000E+00  0.93827000000E+00 0.  1.
     999902    2    1    2    0    0  0.19938807108E-01  0.13269106823E-01 -0.35511413478E-02  0.10197176926E+01  0.10194302020E+01 0.  0.
     999903    2    3    3    0    0  0.10350408323E+00 -0.77683074377E-01 -0.71659538394E-02  0.13108474165E+00  0.19598553768E-01 0.  0.
         14    1    1    2    0    0 -0.19938807108E-01 -0.13269106823E-01  0.35511413478E-02  0.24212307401E-01  0.00000000000E+00 0.  1.
     999901    1    3    3    0    0 -0.83565276122E-01  0.90952181200E-01  0.36148124916E-02  0.88863295095E+00  0.88000000000E+00 0. -1.
        -11    1    4    4    0    0  0.45388526022E-01 -0.36406435801E-01  0.63409108102E-02  0.58532171778E-01  0.51100000000E-03 0.  1.
         11    1    4    4    0    0  0.58115557209E-01 -0.41276638576E-01 -0.13506864650E-01  0.72552569875E-01  0.51100000000E-03 0. -1.
</event>
<event>
 8    1  0.1104109E+005  0.1043930E+01  0.7957747E-01            NaN
         13   -1    0    0    0    0  0.00000000000E+00  0.00000000000E+00  0.74505805969E-08  0.10566000000E+00  0.10566000000E+00 0. -1.
     999900   -1    0    0    0    0 -0.00000000000E+00 -0.00000000000E+00 -0.74505805969E-08  0.93827000000E+00  0.93827000000E+00 0.  1.
     999902    2    1    2    0    0  0.16041931841E-02  0.20137281516E-01  0.12702926213E-01  0.10200668930E+01  0.10197877320E+01 0.  0.
     999903    2    3    3    0    0 -0.11943245137E+00 -0.39742999227E-01  0.24233290326E-01  0.12969142911E+00  0.19723032149E-01 0.  0.
         14    1    1    2    0    0 -0.16041931841E-02 -0.20137281516E-01 -0.12702926213E-01  0.23863107027E-01  0.00000000000E+00 0.  1.
     999901    1    3    3    0    0  0.12103664456E+00  0.59880280742E-01 -0.11530364113E-01  0.89037546386E+00  0.88000000000E+00 0.  1.
        -11    1    4    4    0    0 -0.85070405085E-01 -0.37473832954E-01  0.17086307105E-01  0.94517008993E-01  0.51100000000E-03 0. -1.
         11    1    4    4    0    0 -0.34362046287E-01 -0.22691662727E-02  0.71469832205E-02  0.35174420120E-01  0.51100000000E-03 0.  1.
</event>
<event>
 8    1  0.1104109E+005  0.1043930E+01  0.7957747E-01            NaN
         13   -1    0    0    0    0  0.00000000000E+00  0.00000000000E+00  0.74505805969E-08  0.10566000000E+00  0.10566000000E+00 0. -1.
     999900   -1    0    0    0    0 -0.00000000000E+00 -0.00000000000E+00 -0.74505805969E-08  0.93827000000E+00  0.93827000000E+00 0. -1.
     999902    2    1    2    0    0 -0.69686467343E-02 -0.10527463926E-01 -0.20944604186E-01  0.10194746125E+01  0.10191812496E+01 0.  0.
     999903    2    3    3    0    0  0.49504451570E-01 -0.10932235614E+00  0.44879668727E-01  0.12970920719E+00  0.20204590716E-01 0.  0.
         14    1    1    2    0    0  0.69686467343E-02  0.10527463926E-01  0.20944604186E-01  0.24455387515E-01  0.00000000000E+00 0. -1.
     999901    1    3    3    0    0 -0.56473098305E-01  0.98794892217E-01 -0.65824272912E-01  0.88976540530E+00  0.88000000000E+00 0. -1.
        -11    1    4    4    0    0  0.35136133508E-01 -0.78976913221E-01  0.41716677669E-01  0.95981472256E-01  0.51100000000E-03 0.  1.
         11    1    4    4    0    0  0.14368318062E-01 -0.30345442923E-01  0.31629910581E-02  0.33727734931E-01  0.51100000000E-03 0. -1.
</event>
<event>
 8    1  0.1104109E+005  0.1043930E+01  0.7957747E-01            NaN
         13   -1    0    0    0    0  0.00000000000E+00  0.00000000000E+00  0.74505805969E-08  0.10566000000E+00  0.10566000000E+00 0. -1.
     999900   -1    0    0    0    0 -0.00000000000E+00 -0.00000000000E+00 -0.74505805969E-08  0.93827000000E+00  0.93827000000E+00 0. -1.
     999902    2    1    2    0    0 -0.17331096722E-01 -0.34646338338E-02  0.16139709224E-01  0.10199954890E+01  0.10197146350E+01 0.  0.
     999903    2    3    3    0    0  0.12464612480E+00 -0.14069550818E-01 -0.15908309317E-01  0.12797695157E+00  0.19758976153E-01 0.  0.
         14    1    1    2    0    0  0.17331096722E-01  0.34646338338E-02 -0.16139709224E-01  0.23934510963E-01  0.00000000000E+00 0.  1.
     999901    1    3    3    0    0 -0.14197722153E+00  0.10604916985E-01  0.32048018541E-01  0.89201853747E+00  0.88000000000E+00 0. -1.
        -11    1    4    4    0    0  0.55928118496E-01 -0.15086034254E-01 -0.11856461975E-01  0.59130192623E-01  0.51100000000E-03 0.  1.
         11    1    4    4    0    0  0.68718006307E-01  0.10164834355E-02 -0.40518473421E-02  0.68846758946E-01  0.51100000000E-03 0. -1.
</event>
<event>
 8    1  0.1129870E+005  0.1043930E+01  0.7957747E-01            NaN
         13   -1    0    0    0    0  0.00000000000E+00  0.00000000000E+00  0.74505805969E-08  0.10566000000E+00  0.10566000000E+00 0. -1.
     999900   -1    0    0    0    0 -0.00000000000E+00 -0.00000000000E+00 -0.74505805969E-08  0.93827000000E+00  0.93827000000E+00 0. -1.
     999902    2    1    2    0    0 -0.14092950940E-01 -0.18023292146E-01  0.14358455225E-02  0.10210059520E+01  0.10207485694E+01 0.  0.
     999903    2    3    3    0    0  0.73028790161E-01 -0.10793776444E+00  0.83765119008E-02  0.13211732961E+00  0.20026423701E-01 0.  0.
         14    1    1    2    0    0  0.14092950940E-01  0.18023292146E-01 -0.14358455225E-02  0.22924048036E-01  0.00000000000E+00 0.  1.
     999901    1    3    3    0    0 -0.87121741101E-01  0.89914472297E-01 -0.69406663783E-02  0.88888862235E+00  0.88000000000E+00 0. -1.
        -11    1    4    4    0    0  0.36126944249E-01 -0.36651442413E-01  0.61044600666E-03  0.51469584194E-01  0.51100000000E-03 0.  1.
         11    1    4    4    0    0  0.36901845912E-01 -0.71286322030E-01  0.77660658941E-02  0.80647745416E-01  0.51100000000E-03 0. -1.
</event>
<event>
 8    1  0.1104109E+005  0.1043930E+01  0.7957747E-01            NaN
         13   -1    0    0    0    0  0.00000000000E+00  0.00000000000E+00  0.74505805969E-08  0.10566000000E+00  0.10566000000E+00 0.  1.
     999900   -1    0    0    0    0 -0.00000000000E+00 -0.00000000000E+00 -0.74505805969E-08  0.93827000000E+00  0.93827000000E+00 0.  1.
     999902    2    1    2    0    0 -0.35963677831E-02  0.20155321218E-01 -0.12393994280E-01  0.10199971371E+01  0.10197163222E+01 0.  0.
     999903    2    3    3    0    0  0.54099596298E-01 -0.10598397201E+00 -0.45824453795E-01  0.12850538656E+00  0.15949456687E-01 0.  0.
         14    1    1    2    0    0  0.35963677831E-02 -0.20155321218E-01  0.12393994280E-01  0.23932862947E-01  0.00000000000E+00 0. -1.
     999901    1    3    3    0    0 -0.57695964081E-01  0.12613929322E+00  0.33430459515E-01  0.89149175049E+00  0.88000000000E+00 0.  1.
        -11    1    4    4    0    0  0.36995037304E-01 -0.69951902471E-01 -0.22383398276E-01  0.82238549865E-01  0.51100000000E-03 0. -1.
         11    1    4    4    0    0  0.17104558994E-01 -0.36032069535E-01 -0.23441055519E-01  0.46266836699E-01  0.51100000000E-03 0.  1.
</event>
<event>
 8    1  0.1274422E+005  0.1043930E+01  0.7957747E-01            NaN
         13   -1    0    0    0    0  0.00000000000E+00  0.00000000000E+00  0.74505805969E-08  0.10566000000E+00  0.10566000000E+00 0.  1.
     999900   -1    0    0    0    0 -0.00000000000E+00 -0.00000000000E+00 -0.74505805969E-08  0.93827000000E+00  0.93827000000E+00 0.  1.
     999902    2    1    2    0    0  0.34986324471E-02  0.71066705131E-02 -0.22444682303E-01  0.10201285513E+01  0.10198508481E+01 0.  0.
     999903    2    3    3    0    0 -0.12312016585E+00 -0.35101317721E-01 -0.67351288364E-02  0.12992597640E+00  0.21088376877E-01 0.  0.
         14    1    1    2    0    0 -0.34986324471E-02 -0.71066705131E-02  0.22444682303E-01  0.23801448663E-01  0.00000000000E+00 0.  1.
     999901    1    3    3    0    0  0.12661879829E+00  0.42207988234E-01 -0.15709553466E-01  0.89020257494E+00  0.88000000000E+00 0. -1.
        -11    1    4    4    0    0 -0.67019829140E-01 -0.84577795481E-02 -0.59271040240E-02  0.67812854357E-01  0.51100000000E-03 0.  1.
         11    1    4    4    0    0 -0.56100336707E-01 -0.26643538173E-01 -0.80802481241E-03  0.62113122045E-01  0.51100000000E-03 0. -1.
</event>
<event>
 8    1  0.1104109E+005  0.1043930E+01  0.7957747E-01            NaN
         13   -1    0    0    0    0  0.00000000000E+00  0.00000000000E+00  0.74505805969E-08  0.10566000000E+00  0.10566000000E+00 0. -1.
     999900   -1    0    0    0    0 -0.00000000000E+00 -0.00000000000E+00 -0.74505805969E-08  0.93827000000E+00  0.93827000000E+00 0. -1.
     999902    2    1    2    0    0  0.13278421258E-01 -0.17994359938E-01  0.70194168902E-02  0.10204910223E+01  0.10202218097E+01 0.  0.
     999903    2    3    3    0    0  0.10556918494E+00  0.59593807817E-01  0.46837363243E-01  0.13137743134E+00  0.19235803372E-01 0.  0.
         14    1    1    2    0    0 -0.13278421258E-01  0.17994359938E-01 -0.70194168902E-02  0.23438977669E-01  0.00000000000E+00 0.  1.
     999901    1    3    3    0    0 -0.92290763678E-01 -0.77588167755E-01 -0.39817946353E-01  0.88911359099E+00  0.88000000000E+00 0. -1.
        -11    1    4    4    0    0  0.47342557329E-01  0.21844895883E-01  0.29263351284E-01  0.59792324424E-01  0.51100000000E-03 0. -1.
         11    1    4    4    0    0  0.58226627607E-01  0.37748911934E-01  0.17574011959E-01  0.71585106915E-01  0.51100000000E-03 0.  1.
</event>
<event>
 8    1  0.1104109E+005  0.1043930E+01  0.7957747E-01            NaN
         13   -1    0    0    0    0  0.00000000000E+00  0.00000000000E+00  0.74505805969E-08  0.10566000000E+00  0.10566000000E+00 0. -1.
     999900   -1    0    0    0    0 -0.00000000000E+00 -0.00000000000E+00 -0.74505805969E-08  0.93827000000E+00  0.93827000000E+00 0. -1.
     999902    2    1    2    0    0 -0.15135561640E-01  0.13328497640E-01 -0.12675174487E-01  0.10201099638E+01  0.10198318215E+01 0.  0.
     999903    2    3    3    0    0 -0.45819136684E-01  0.54906456395E-01 -0.11056120015E+00  0.13317598518E+00  0.19948729574E-01 0.  0.
         14    1    1    2    0    0  0.15135561640E-01 -0.13328497640E-01  0.12675174487E-01  0.23820036184E-01  0.00000000000E+00 0. -1.
     999901    1    3    3    0    0  0.30683575044E-01 -0.41577958755E-01  0.97886025660E-01  0.88693397863E+00  0.88000000000E+00 0.  1.
        -11    1    4    4    0    0 -0.33312242861E-01  0.24507951057E-01 -0.60567593277E-01  0.73341936611E-01  0.51100000000E-03 0. -1.
         11    1    4    4    0    0 -0.12506893824E-01  0.30398505337E-01 -0.49993606871E-01  0.59834048574E-01  0.51100000000E-03 0.  1.
</event>
<event>
 8    1  0.1104109E+005  0.1043930E+01  0.7957747E-01            NaN
         13   -1    0    0    0    0  0.00000000000E+00  0.00000000000E+00  0.74505805969E-08  0.10566000000E+00  0.10566000000E+00 0.  1.
     999900   -1    0    0    0    0 -0.00000000000E+00 -0.00000000000E+00 -0.74505805969E-08  0.93827000000E+00  0.93827000000E+00 0. -1.
     999902    2    1    2    0    0  0.22286542215E-01  0.88326315581E-02  0.29146935217E-02  0.10197804496E+01  0.10194944653E+01 0.  0.
     999903    2    3    3    0    0 -0.90263901782E-01  0.39213974340E-01  0.80340640002E-01  0.12872186256E+00  0.20721769115E-01 0.  0.
         14    1    1    2    0    0 -0.22286542215E-01 -0.88326315581E-02 -0.29146935217E-02  0.24149550358E-01  0.00000000000E+00 0.  1.
     999901    1    3    3    0    0  0.11255044400E+00 -0.30381342782E-01 -0.77425946481E-01  0.89105858709E+00  0.88000000000E+00 0. -1.
        -11    1    4    4    0    0 -0.41254804539E-01  0.16419273044E-01  0.49462464908E-01  0.66470655034E-01  0.51100000000E-03 0.  1.
         11    1    4    4    0    0 -0.49009097243E-01  0.22794701295E-01  0.30878175095E-01  0.62251207521E-01  0.51100000000E-03 0. -1.
</event>
<event>
 8    1  0.1104109E+005  0.1043930E+01  0.7957747E-01            NaN
         13   -1    0    0    0    0  0.00000000000E+00  0.00000000000E+00  0.74505805969E-08  0.10566000000E+00  0.10566000000E+00 0. -1.
     999900   -1    0    0    0    0 -0.00000000000E+00 -0.00000000000E+00 -0.74505805969E-08  0.93827000000E+00  0.93827000000E+00 0. -1.
     999902    2    1    2    0    0 -0.18648723209E-01  0.11355314096E-01  0.99765889686E-02  0.10199247847E+01  0.10196422490E+01 0.  0.
     999903    2    3    3    0    0 -0.12835570302E+00  0.23878620439E-01 -0.62407642745E-02  0.13287605029E+00  0.23910721261E-01 0.  0.
         14    1    1    2    0    0  0.18648723209E-01 -0.11355314096E-01 -0.99765889686E-02  0.24005215330E-01  0.00000000000E+00 0.  1.
     999901    1    3    3    0    0  0.10970697981E+00 -0.12523306343E-01  0.16217353243E-01  0.88704873438E+00  0.88000000000E+00 0.  1.
        -11    1    4    4    0    0 -0.10085935075E+00  0.10450103970E-01 -0.10638846079E-01  0.10195714528E+00  0.51100000000E-03 0.  1.
         11    1    4    4    0    0 -0.27496352266E-01  0.13428516469E-01  0.43980818044E-02  0.30918905010E-01  0.51100000000E-03 0. -1.
</event>
<event>
 8    1  0.1104109E+005  0.1043930E+01  0.7957747E-01            NaN
         13   -1    0    0    0    0  0.00000000000E+00  0.00000000000E+00  0.74505805969E-08  0.10566000000E+00  0.10566000000E+00 0. -1.
     999900   -1    0    0    0    0 -0.00000000000E+00 -0.00000000000E+00 -0.74505805969E-08  0.93827000000E+00  0.93827000000E+00 0.  1.
     999902    2    1    2    0    0 -0.51964397275E-02 -0.83162568198E-02 -0.22263710460E-01  0.10196023220E+01  0.10193120519E+01 0.  0.
     999903    2    3    3    0    0  0.12774165677E+00  0.39598410723E-02 -0.25732257373E-02  0.12931531476E+00  0.19550394497E-01 0.  0.
         14    1    1    2    0    0  0.51964397275E-02  0.83162568198E-02  0.22263710460E-01  0.24327677999E-01  0.00000000000E+00 0. -1.
     999901    1    3    3    0    0 -0.13293809650E+00 -0.12276097892E-01 -0.19690484723E-01  0.89028700724E+00  0.88000000000E+00 0.  1.
        -11    1    4    4    0    0  0.91260477097E-01  0.92748294247E-02 -0.78610150861E-02  0.92068202002E-01  0.51100000000E-03 0.  1.
         11    1    4    4    0    0  0.36481179671E-01 -0.53149883524E-02  0.52877893488E-02  0.37247112755E-01  0.51100000000E-03 0. -1.
</event>
<event>
 8    1  0.1104109E+005  0.1043930E+01  0.7957747E-01            NaN
         13   -1    0    0    0    0  0.00000000000E+00  0.00000000000E+00  0.74505805969E-08  0.10566000000E+00  0.10566000000E+00 0. -1.
     999900   -1    0    0    0    0 -0.00000000000E+00 -0.00000000000E+00 -0.74505805969E-08  0.93827000000E+00  0.93827000000E+00 0. -1.
     999902    2    1    2    0    0  0.22469636417E-01 -0.43832584972E-02  0.30856939533E-02  0.10208298047E+01  0.10205684059E+01 0.  0.
     999903    2    3    3    0    0  0.73183266745E-01  0.89683731046E-02 -0.10825191053E+00  0.13226568178E+00  0.18425856734E-01 0.  0.
         14    1    1    2    0    0 -0.22469636417E-01  0.43832584972E-02 -0.30856939533E-02  0.23100195301E-01  0.00000000000E+00 0. -1.
     999901    1    3    3    0    0 -0.50713630328E-01 -0.13351631602E-01  0.11133760448E+00  0.88856412292E+00  0.88000000000E+00 0.  1.
        -11    1    4    4    0    0  0.40672320009E-02 -0.10362370993E-02 -0.16063661730E-01  0.16610795064E-01  0.51100000000E-03 0.  1.
         11    1    4    4    0    0  0.69116034744E-01  0.10004610204E-01 -0.92188248797E-01  0.11565488672E+00  0.51100000000E-03 0. -1.
</event>
<event>
 8    1  0.1104109E+005  0.1043930E+01  0.7957747E-01            NaN
         13   -1    0    0    0    0  0.00000000000E+00  0.00000000000E+00  0.74505805969E-08  0.10566000000E+00  0.10566000000E+00 0. -1.
     999900   -1    0    0    0    0 -0.00000000000E+00 -0.00000000000E+00 -0.74505805969E-08  0.93827000000E+00  0.93827000000E+00 0.  1.
     999902    2    1    2    0    0 -0.11594087997E-01 -0.21814121003E-01 -0.73778234564E-02  0.10181480096E+01  0.10178215258E+01 0.  0.
     999903    2    3    3    0    0 -0.12193763706E+00  0.13662239977E-01  0.36027605768E-01  0.12948704931E+00  0.20333800129E-01 0.  0.
         14    1    1    2    0    0  0.11594087997E-01  0.21814121003E-01  0.73778234564E-02  0.25781990430E-01  0.00000000000E+00 0.  1.
     999901    1    3    3    0    0  0.11034354906E+00 -0.35476360980E-01 -0.43405429224E-01  0.88866096026E+00  0.88000000000E+00 0.  1.
        -11    1    4    4    0    0 -0.38961255895E-01  0.13105674315E-01  0.78411970018E-02  0.41850730598E-01  0.51100000000E-03 0.  1.
         11    1    4    4    0    0 -0.82976381166E-01  0.55656566207E-03  0.28186408766E-01  0.87636318709E-01  0.51100000000E-03 0. -1.
</event>
<event>
 8    1  0.1104109E+005  0.1043930E+01  0.7957747E-01            NaN
         13   -1    0    0    0    0  0.00000000000E+00  0.00000000000E+00  0.74505805969E-08  0.10566000000E+00  0.10566000000E+00 0.  1.
     999900   -1    0    0    0    0 -0.00000000000E+00 -0.00000000000E+00 -0.74505805969E-08  0.93827000000E+00  0.93827000000E+00 0.  1.
     999902    2    1    2    0    0  0.38598747087E-02 -0.14222164269E-01 -0.15794606591E-01  0.10223281902E+01  0.10220999414E+01 0.  0.
     999903    2    3    3    0    0 -0.52777452568E-01 -0.50672772664E-01 -0.11104956347E+00  0.13462895031E+00  0.20970439340E-01 0.  0.
         14    1    1    2    0    0 -0.38598747087E-02  0.14222164269E-01  0.15794606591E-01  0.21601809800E-01  0.00000000000E+00 0.  1.
     999901    1    3    3    0    0  0.56637327277E-01  0.36450608395E-01  0.95254956876E-01  0.88769923989E+00  0.88000000000E+00 0. -1.
        -11    1    4    4    0    0 -0.23021396928E-01 -0.13400535337E-01 -0.54404807393E-01  0.60578075673E-01  0.51100000000E-03 0. -1.
         11    1    4    4    0    0 -0.29756055641E-01 -0.37272237327E-01 -0.56644756074E-01  0.74050874636E-01  0.51100000000E-03 0.  1.
</event>
<event>
 8    1  0.1104109E+005  0.1043930E+01  0.7957747E-01            NaN
         13   -1    0    0    0    0  0.00000000000E+00  0.00000000000E+00  0.74505805969E-08  0.10566000000E+00  0.10566000000E+00 0. -1.
     999900   -1    0    0    0    0 -0.00000000000E+00 -0.00000000000E+00 -0.74505805969E-08  0.93827000000E+00  0.93827000000E+00 0.  1.
     999902    2    1    2    0    0  0.14630157823E-01 -0.53159805681E-02  0.16231658854E-01  0.10214407155E+01  0.10211931098E+01 0.  0.
     999903    2    3    3    0    0 -0.10275933117E+00 -0.41723484026E-01 -0.63495407369E-01  0.12932962181E+00  0.19853338736E-01 0.  0.
         14    1    1    2    0    0 -0.14630157823E-01  0.53159805681E-02 -0.16231658854E-01  0.22489284481E-01  0.00000000000E+00 0. -1.
     999901    1    3    3    0    0  0.11738948899E+00  0.36407503458E-01  0.79727066223E-01  0.89211109371E+00  0.88000000000E+00 0. -1.
        -11    1    4    4    0    0 -0.78959109705E-01 -0.40541304125E-01 -0.51950478088E-01  0.10284576627E+00  0.51100000000E-03 0.  1.
         11    1    4    4    0    0 -0.23800221462E-01 -0.11821799015E-02 -0.11544929281E-01  0.26483855536E-01  0.51100000000E-03 0. -1.
</event>
<event>
 8    1  0.1104109E+005  0.1043930E+01  0.7957747E-01            NaN
         13   -1    0    0    0    0  0.00000000000E+00  0.00000000000E+00  0.74505805969E-08  0.10566000000E+00  0.10566000000E+00 0. -1.
     999900   -1    0    0    0    0 -0.00000000000E+00 -0.00000000000E+00 -0.74505805969E-08  0.93827000000E+00  0.93827000000E+00 0. -1.
     999902    2    1    2    0    0 -0.18814542074E-01  0.10277061776E-01 -0.99159607074E-02  0.10203094312E+01  0.10200359818E+01 0.  0.
     999903    2    3    3    0    0 -0.10872039254E+00  0.47645413596E-01  0.55486605424E-01  0.13252739079E+00  0.19862948868E-01 0.  0.
         14    1    1    2    0    0  0.18814542074E-01 -0.10277061776E-01  0.99159607074E-02  0.23620568769E-01  0.00000000000E+00 0. -1.
     999901    1    3    3    0    0  0.89905850469E-01 -0.37368351820E-01 -0.65402566132E-01  0.88778204044E+00  0.88000000000E+00 0.  1.
        -11    1    4    4    0    0 -0.53961081522E-01  0.19153627123E-01  0.16796567829E-01  0.59674496754E-01  0.51100000000E-03 0. -1.
         11    1    4    4    0    0 -0.54759311021E-01  0.28491786473E-01  0.38690037595E-01  0.72852894040E-01  0.51100000000E-03 0.  1.
</event>
<event>
 8    1  0.1104109E+005  0.1043930E+01  0.7957747E-01            NaN
         13   -1    0    0    0    0  0.00000000000E+00  0.00000000000E+00  0.74505805969E-08  0.10566000000E+00  0.10566000000E+00 0. -1.
     999900   -1    0    0    0    0 -0.00000000000E+00 -0.00000000000E+00 -0.74505805969E-08  0.93827000000E+00  0.93827000000E+00 0. -1.
     999902    2    1    2    0    0 -0.16148885523E-02  0.15142847549E-01  0.20869538082E-01  0.10180949208E+01  0.10177670738E+01 0.  0.
     999903    2    3    3    0    0 -0.23163853535E-01  0.10886351330E+00 -0.63580617518E-01  0.12883694370E+00  0.12985934673E-01 0.  0.
         14    1    1    2    0    0  0.16148885523E-02 -0.15142847549E-01 -0.20869538082E-01  0.25835079189E-01  0.00000000000E+00 0.  1.
     999901    1    3    3    0    0  0.21548964982E-01 -0.93720665748E-01  0.84450155600E-01  0.88925797711E+00  0.88000000000E+00 0.  1.
        -11    1    4    4    0    0 -0.56985831544E-03  0.18314463254E-01 -0.65567148589E-02  0.19467817893E-01  0.51100000000E-03 0. -1.
         11    1    4    4    0    0 -0.22593995219E-01  0.90549050043E-01 -0.57023902659E-01  0.10936912580E+00  0.51100000000E-03 0.  1.
</event>
<event>
 8    1  0.1104109E+005  0.1043930E+01  0.7957747E-01            NaN
         13   -1    0    0    0    0  0.00000000000E+00  0.00000000000E+00  0.74505805969E-08  0.10566000000E+00  0.10566000000E+00 0. -1.
     999900   -1    0    0    0    0 -0.00000000000E+00 -0.00000000000E+00 -0.74505805969E-08  0.93827000000E+00  0.93827000000E+00 0.  1.
     999902    2    1    2    0    0 -0.23641550463E-01 -0.27104138553E-02 -0.16424072230E-02  0.10200769760E+01  0.10197980537E+01 0.  0.
     999903    2    3    3    0    0 -0.54312831187E-01 -0.10520708577E+00 -0.54989671314E-01  0.13199351947E+00  0.19493863183E-01 0.  0.
         14    1    1    2    0    0  0.23641550463E-01  0.27104138553E-02  0.16424072230E-02  0.23853023981E-01  0.00000000000E+00 0.  1.
     999901    1    3    3    0    0  0.30671280724E-01  0.10249667192E+00  0.53347264091E-01  0.88808345655E+00  0.88000000000E+00 0. -1.
        -11    1    4    4    0    0 -0.46943098180E-01 -0.96761295776E-01 -0.54948863181E-01  0.12077268529E+00  0.51100000000E-03 0.  1.
         11    1    4    4    0    0 -0.73697330066E-02 -0.84457899964E-02 -0.40808132856E-04  0.11220834174E-01  0.51100000000E-03 0. -1.
</event>
<event>
 8    1  0.1104109E+005  0.1043930E+01  0.7957747E-01            NaN
         13   -1    0    0    0    0  0.00000000000E+00  0.00000000000E+00  0.74505805969E-08  0.10566000000E+00  0.10566000000E+00 0. -1.
     999900   -1    0    0    0    0 -0.00000000000E+00 -0.00000000000E+00 -0.74505805969E-08  0.93827000000E+00  0.93827000000E+00 0.  1.
     999902    2    1    2    0    0 -0.82267926762E-02 -0.13083005477E-01  0.18435722891E-01  0.10198733787E+01  0.10195896172E+01 0.  0.
     999903    2    3    3    0    0  0.11215670314E+00 -0.59572952103E-01 -0.15318741093E-01  0.12982120885E+00  0.22154452314E-01 0.  0.
         14    1    1    2    0    0  0.82267926762E-02  0.13083005477E-01 -0.18435722891E-01  0.24056621303E-01  0.00000000000E+00 0.  1.
     999901    1    3    3    0    0 -0.12038349582E+00  0.46489946627E-01  0.33754463983E-01  0.89005216984E+00  0.88000000000E+00 0.  1.
        -11    1    4    4    0    0  0.73822880110E-01 -0.49874273768E-01 -0.66744402831E-02  0.89342431608E-01  0.51100000000E-03 0. -1.
         11    1    4    4    0    0  0.38333823033E-01 -0.96986783354E-02 -0.86443008096E-02  0.40478777246E-01  0.51100000000E-03 0.  1.
</event>
<event>
 8    1  0.1104109E+005  0.1043930E+01  0.7957747E-01            NaN
         13   -1    0    0    0    0  0.00000000000E+00  0.00000000000E+00  0.74505805969E-08  0.10566000000E+00  0.10566000000E+00 0. -1.
     999900   -1    0    0    0    0 -0.00000000000E+00 -0.00000000000E+00 -0.74505805969E-08  0.93827000000E+00  0.93827000000E+00 0. -1.
     999902    2    1    2    0    0 -0.21656804005E-01  0.88589105410E-02  0.26923353713E-02  0.10203769508E+01  0.10201050807E+01 0.  0.
     999903    2    3    3    0    0  0.11986846151E+00  0.13924863673E-01 -0.37945172612E-01  0.12812896304E+00  0.20367747817E-01 0.  0.
         14    1    1    2    0    0  0.21656804005E-01 -0.88589105410E-02 -0.26923353713E-02  0.23553049175E-01  0.00000000000E+00 0.  1.
     999901    1    3    3    0    0 -0.14152526551E+00 -0.50659531323E-02  0.40637507983E-01  0.89224798779E+00  0.88000000000E+00 0.  1.
        -11    1    4    4    0    0  0.87844634334E-01  0.11731704412E-02 -0.25526867490E-01  0.91487366314E-01  0.51100000000E-03 0.  1.
         11    1    4    4    0    0  0.32023827175E-01  0.12751693232E-01 -0.12418305122E-01  0.36641596722E-01  0.51100000000E-03 0. -1.
</event>
<event>
 8    1  0.1104109E+005  0.1043930E+01  0.7957747E-01            NaN
         13   -1    0    0    0    0  0.00000000000E+00  0.00000000000E+00  0.74505805969E-08  0.10566000000E+00  0.10566000000E+00 0. -1.
     999900   -1    0    0    0    0 -0.00000000000E+00 -0.00000000000E+00 -0.74505805969E-08  0.93827000000E+00  0.93827000000E+00 0.  1.
     999902    2    1    2    0    0  0.61316162572E-02 -0.70952885484E-02 -0.21553642587E-01  0.10204246954E+01  0.10201539391E+01 0.  0.
     999903    2    3    3    0    0 -0.66566869622E-01 -0.10787442187E-03  0.10755117092E+00  0.12801114398E+00  0.19708852043E-01 0.  0.
         14    1    1    2    0    0 -0.61316162572E-02  0.70952885484E-02  0.21553642587E-01  0.23505304641E-01  0.00000000000E+00 0. -1.
     999901    1    3    3    0    0  0.72698485879E-01 -0.69874141265E-02 -0.12910481351E+00  0.89241355137E+00  0.88000000000E+00 0.  1.
        -11    1    4    4    0    0 -0.48133276549E-01 -0.53475051975E-02  0.89052571593E-01  0.10137075393E+00  0.51100000000E-03 0. -1.
         11    1    4    4    0    0 -0.18433593073E-01  0.52396307756E-02  0.18498599331E-01  0.26640390058E-01  0.51100000000E-03 0.  1.
</event>
<event>
 8    1  0.1104109E+005  0.1043930E+01  0.7957747E-01            NaN
         13   -1    0    0    0    0  0.00000000000E+00  0.00000000000E+00  0.74505805969E-08  0.10566000000E+00  0.10566000000E+00 0.  1.
     999900   -1    0    0    0    0 -0.00000000000E+00 -0.00000000000E+00 -0.74505805969E-08  0.93827000000E+00  0.93827000000E+00 0.  1.
     999902    2    1    2    0    0 -0.13632856557E-01 -0.80780545676E-02 -0.12962488066E-01  0.10234571927E+01  0.10232524075E+01 0.  0.
     999903    2    3    3    0    0 -0.71123484833E-01 -0.88535096928E-01 -0.71723557279E-01  0.13597120896E+00  0.21139714173E-01 0.  0.
         14    1    1    2    0    0  0.13632856557E-01  0.80780545676E-02  0.12962488066E-01  0.20472807340E-01  0.00000000000E+00 0.  1.
     999901    1    3    3    0    0  0.57490628276E-01  0.80457042360E-01  0.58761069212E-01  0.88748598370E+00  0.88000000000E+00 0.  1.
        -11    1    4    4    0    0 -0.31472994162E-01 -0.24094408668E-01 -0.28607129501E-01  0.48884750893E-01  0.51100000000E-03 0.  1.
         11    1    4    4    0    0 -0.39650490670E-01 -0.64440688260E-01 -0.43116427778E-01  0.87086458070E-01  0.51100000000E-03 0. -1.
</event>
<event>
 8    1  0.1104109E+005  0.1043930E+01  0.7957747E-01            NaN
         13   -1    0    0    0    0  0.00000000000E+00  0.00000000000E+00  0.74505805969E-08  0.10566000000E+00  0.10566000000E+00 0.  1.
     999900   -1    0    0    0    0 -0.00000000000E+00 -0.00000000000E+00 -0.74505805969E-08  0.93827000000E+00  0.93827000000E+00 0.  1.
     999902    2    1    2    0    0  0.17738048035E-01 -0.12673537799E-01 -0.12021426596E-01  0.10190347875E+01  0.10187306447E+01 0.  0.
     999903    2    3    3    0    0  0.95443866357E-01  0.38003042439E-01 -0.80234413589E-01  0.13153305703E+00  0.17596053730E-01 0.  0.
         14    1    1    2    0    0 -0.17738048035E-01  0.12673537799E-01  0.12021426596E-01  0.24895212508E-01  0.00000000000E+00 0.  1.
     999901    1    3    3    0    0 -0.77705818322E-01 -0.50676580237E-01  0.68212986993E-01  0.88750173047E+00  0.88000000000E+00 0.  1.
        -11    1    4    4    0    0  0.29920902450E-01  0.20417149678E-01 -0.24528477606E-01  0.43749602730E-01  0.51100000000E-03 0. -1.
         11    1    4    4    0    0  0.65522963907E-01  0.17585892761E-01 -0.55705935983E-01  0.87783454296E-01  0.51100000000E-03 0.  1.
</event>
<event>
 8    1  0.1104109E+005  0.1043930E+01  0.7957747E-01            NaN
         13   -1    0    0    0    0  0.00000000000E+00  0.00000000000E+00  0.74505805969E-08  0.10566000000E+00  0.10566000000E+00 0. -1.
     999900   -1    0    0    0    0 -0.00000000000E+00 -0.00000000000E+00 -0.74505805969E-08  0.93827000000E+00  0.93827000000E+00 0. -1.
     999902    2    1    2    0    0 -0.13222650414E-01 -0.23469628173E-02 -0.19435620790E-02  0.10303607645E+01  0.10302714113E+01 0.  0.
     999903    2    3    3    0    0  0.58130308164E-01 -0.10041812820E+00  0.73039506060E-01  0.13888353053E+00  0.22156994600E-01 0.  0.
         14    1    1    2    0    0  0.13222650414E-01  0.23469628173E-02  0.19435620790E-02  0.13569235497E-01  0.00000000000E+00 0. -1.
     999901    1    3    3    0    0 -0.71352958578E-01  0.98071165382E-01 -0.74983068139E-01  0.89147723397E+00  0.88000000000E+00 0. -1.
        -11    1    4    4    0    0  0.20891800822E-01 -0.44871186244E-01  0.43010440769E-01  0.65574765213E-01  0.51100000000E-03 0. -1.
         11    1    4    4    0    0  0.37238507342E-01 -0.55546941955E-01  0.30029065291E-01  0.73308765321E-01  0.51100000000E-03 0.  1.
</event>
<event>
 8    1  0.1104109E+005  0.1043930E+01  0.7957747E-01            NaN
         13   -1    0    0    0    0  0.00000000000E+00  0.00000000000E+00  0.74505805969E-08  0.10566000000E+00  0.10566000000E+00 0.  1.
     999900   -1    0    0    0    0 -0.00000000000E+00 -0.00000000000E+00 -0.74505805969E-08  0.93827000000E+00  0.93827000000E+00 0. -1.
     999902    2    1    2    0    0 -0.59672024332E-02 -0.20886435995E-01 -0.97646731905E-02  0.10201140483E+01  0.10198360025E+01 0.  0.
     999903    2    3    3    0    0  0.30803124294E-01 -0.68626744907E-01  0.10500470789E+00  0.13061800847E+00  0.19406516296E-01 0.  0.
         14    1    1    2    0    0  0.59672024332E-02  0.20886435995E-01  0.97646731905E-02  0.23815951712E-01  0.00000000000E+00 0.  1.
     999901    1    3    3    0    0 -0.36770326728E-01  0.47740308912E-01 -0.11476938108E+00  0.88949603982E+00  0.88000000000E+00 0. -1.
        -11    1    4    4    0    0  0.25612575354E-01 -0.58739625576E-01  0.75286288325E-01  0.98866748504E-01  0.51100000000E-03 0.  1.
         11    1    4    4    0    0  0.51905489405E-02 -0.98871193305E-02  0.29718419562E-01  0.31751259963E-01  0.51100000000E-03 0. -1.
</event>
<event>
 8    1  0.1104109E+005  0.1043930E+01  0.7957747E-01            NaN
         13   -1    0    0    0    0  0.00000000000E+00  0.00000000000E+00  0.74505805969E-08  0.10566000000E+00  0.10566000000E+00 0.  1.
     999900   -1    0    0    0    0 -0.00000000000E+00 -0.00000000000E+00 -0.74505805969E-08  0.93827000000E+00  0.93827000000E+00 0.  1.
     999902    2    1    2    0    0 -0.20545470486E-02 -0.19341524160E-01  0.13208183070E-01  0.10204189001E+01  0.10201480088E+01 0.  0.
     999903    2    3    3    0    0  0.32654124613E-01  0.84133793082E-01  0.91713751072E-01  0.13020827477E+00  0.19949829342E-01 0.  0.
         14    1    1    2    0    0  0.20545470486E-02  0.19341524160E-01 -0.13208183070E-01  0.23511099941E-01  0.00000000000E+00 0. -1.
     999901    1    3    3    0    0 -0.34708671662E-01 -0.10347531724E+00 -0.78505568002E-01  0.89021062529E+00  0.88000000000E+00 0.  1.
        -11    1    4    4    0    0  0.33474130133E-01  0.63622831567E-01  0.71227844308E-01  0.10120300890E+00  0.51100000000E-03 0. -1.
         11    1    4    4    0    0 -0.82000552017E-03  0.20510961515E-01  0.20485906763E-01  0.29005265871E-01  0.51100000000E-03 0.  1.
</event>
<event>
 8    1  0.1104109E+005  0.1043930E+01  0.7957747E-01            NaN
         13   -1    0    0    0    0  0.00000000000E+00  0.00000000000E+00  0.74505805969E-08  0.10566000000E+00  0.10566000000E+00 0. -1.
     999900   -1    0    0    0    0 -0.00000000000E+00 -0.00000000000E+00 -0.74505805969E-08  0.93827000000E+00  0.93827000000E+00 0. -1.
     999902    2    1    2    0    0  0.90051710026E-02  0.21657832650E-01  0.23154200250E-02  0.10203606133E+01  0.10200883615E+01 0.  0.
     999903    2    3    3    0    0 -0.10572570032E+00 -0.24447503737E-01 -0.66790574327E-01  0.12903322488E+00  0.20322110066E-01 0.  0.
         14    1    1    2    0    0 -0.90051710026E-02 -0.21657832650E-01 -0.23154200250E-02  0.23569386708E-01  0.00000000000E+00 0. -1.
     999901    1    3    3    0    0  0.11473087132E+00  0.46105336387E-01  0.69105994352E-01  0.89132738841E+00  0.88000000000E+00 0. -1.
        -11    1    4    4    0    0 -0.80848217505E-01 -0.22475738298E-01 -0.41945601805E-01  0.93815178503E-01  0.51100000000E-03 0. -1.
         11    1    4    4    0    0 -0.24877482813E-01 -0.19717654390E-02 -0.24844972522E-01  0.35218046378E-01  0.51100000000E-03 0.  1.
</event>
<event>
 8    1  0.1104109E+005  0.1043930E+01  0.7957747E-01            NaN
         13   -1    0    0    0    0  0.00000000000E+00  0.00000000000E+00  0.74505805969E-08  0.10566000000E+00  0.10566000000E+00 0. -1.
     999900   -1    0    0    0    0 -0.00000000000E+00 -0.00000000000E+00 -0.74505805969E-08  0.93827000000E+00  0.93827000000E+00 0.  1.
     999902    2    1    2    0    0  0.62907698533E-02 -0.17255765359E-01 -0.63067271635E-02  0.10245106789E+01  0.10243266184E+01 0.  0.
     999903    2    3    3    0    0 -0.11789277045E+00 -0.61669474538E-01  0.65138795185E-02  0.13459017843E+00  0.19242039620E-01 0.  0.
         14    1    1    2    0    0 -0.62907698533E-02  0.17255765359E-01  0.63067271635E-02  0.19419321074E-01  0.00000000000E+00 0.  1.
     999901    1    3    3    0    0  0.12418354031E+00  0.44413709179E-01 -0.12820606682E-01  0.88992050050E+00  0.88000000000E+00 0. -1.
        -11    1    4    4    0    0 -0.85280360157E-01 -0.52893061049E-01  0.87901767480E-02  0.10073700444E+00  0.51100000000E-03 0. -1.
         11    1    4    4    0    0 -0.32612410296E-01 -0.87764134893E-02 -0.22762972295E-02  0.33853173989E-01  0.51100000000E-03 0.  1.
</event>
<event>
 8    1  0.1104109E+005  0.1043930E+01  0.7957747E-01            NaN
         13   -1    0    0    0    0  0.00000000000E+00  0.00000000000E+00  0.74505805969E-08  0.10566000000E+00  0.10566000000E+00 0. -1.
     999900   -1    0    0    0    0 -0.00000000000E+00 -0.00000000000E+00 -0.74505805969E-08  0.93827000000E+00  0.93827000000E+00 0.  1.
     999902    2    1    2    0    0 -0.22899971752E-01 -0.65130354684E-02  0.81341818162E-03  0.10201079517E+01  0.10198297618E+01 0.  0.
     999903    2    3    3    0    0 -0.77914042259E-01  0.63655681640E-01 -0.82593786237E-01  0.13167846175E+00  0.19870580731E-01 0.  0.
         14    1    1    2    0    0  0.22899971752E-01  0.65130354684E-02 -0.81341818162E-03  0.23822048325E-01  0.00000000000E+00 0.  1.
     999901    1    3    3    0    0  0.55014070507E-01 -0.70168717108E-01  0.83407204418E-01  0.88842948992E+00  0.88000000000E+00 0. -1.
        -11    1    4    4    0    0 -0.61568394602E-01  0.43494694985E-01 -0.52123716981E-01  0.91649324594E-01  0.51100000000E-03 0. -1.
         11    1    4    4    0    0 -0.16345647657E-01  0.20160986655E-01 -0.30470069256E-01  0.40029137159E-01  0.51100000000E-03 0.  1.
</event>
<event>
 8    1  0.1104109E+005  0.1043930E+01  0.7957747E-01            NaN
         13   -1    0    0    0    0  0.00000000000E+00  0.00000000000E+00  0.74505805969E-08  0.10566000000E+00  0.10566000000E+00 0. -1.
     999900   -1    0    0    0    0 -0.00000000000E+00 -0.00000000000E+00 -0.74505805969E-08  0.93827000000E+00  0.93827000000E+00 0. -1.
     999902    2    1    2    0    0 -0.52504799223E-02  0.69493373350E-02  0.21952634988E-01  0.10203126544E+01  0.10200392805E+01 0.  0.
     999903    2    3    3    0    0 -0.40337036959E-01  0.14232365990E-01 -0.11922398453E+00  0.12834015099E+00  0.20668794743E-01 0.  0.
         14    1    1    2    0    0  0.52504799223E-02 -0.69493373350E-02 -0.21952634988E-01  0.23617345569E-01  0.00000000000E+00 0.  1.
     999901    1    3    3    0    0  0.35086557037E-01 -0.72830286554E-02  0.14117661952E+00  0.89197250344E+00  0.88000000000E+00 0.  1.
        -11    1    4    4    0    0 -0.16230079554E-01  0.54769002681E-03 -0.22713975950E-01  0.27926712502E-01  0.51100000000E-03 0. -1.
         11    1    4    4    0    0 -0.24106957405E-01  0.13684675964E-01 -0.96510008584E-01  0.10041343849E+00  0.51100000000E-03 0.  1.
</event>
<event>
 8    1  0.1104109E+005  0.1043930E+01  0.7957747E-01            NaN
         13   -1    0    0    0    0  0.00000000000E+00  0.00000000000E+00  0.74505805969E-08  0.10566000000E+00  0.10566000000E+00 0. -1.
     999900   -1    0    0    0    0 -0.00000000000E+00 -0.00000000000E+00 -0.74505805969E-08  0.93827000000E+00  0.93827000000E+00 0. -1.
     999902    2    1    2    0    0 -0.28932019255E-01 -0.13739025222E-01  0.14645202393E-01  0.10087120429E+01  0.10080970593E+01 0.  0.
     999903    2    3    3    0    0 -0.38017519000E-01  0.64496279662E-01 -0.90271872301E-01  0.11898685956E+00  0.20093779566E-01 0.  0.
         14    1    1    2    0    0  0.28932019255E-01  0.13739025222E-01 -0.14645202393E-01  0.35217957144E-01  0.00000000000E+00 0.  1.
     999901    1    3    3    0    0  0.90854997443E-02 -0.78235304884E-01  0.10491707469E+00  0.88972518330E+00  0.88000000000E+00 0.  1.
        -11    1    4    4    0    0 -0.46655040577E-02  0.25809708383E-01 -0.34779893859E-01  0.43563862464E-01  0.51100000000E-03 0. -1.
         11    1    4    4    0    0 -0.33352014942E-01  0.38686571279E-01 -0.55491978442E-01  0.75422997092E-01  0.51100000000E-03 0.  1.
</event>
<event>
 8    1  0.1104109E+005  0.1043930E+01  0.7957747E-01            NaN
         13   -1    0    0    0    0  0.00000000000E+00  0.00000000000E+00  0.74505805969E-08  0.10566000000E+00  0.10566000000E+00 0.  1.
     999900   -1    0    0    0    0 -0.00000000000E+00 -0.00000000000E+00 -0.74505805969E-08  0.93827000000E+00  0.93827000000E+00 0.  1.
     999902    2    1    2    0    0 -0.15650300609E-01 -0.91642435192E-02  0.15457847526E-01  0.10201001801E+01  0.10198218065E+01 0.  0.
     999903    2    3    3    0    0  0.91770784249E-01 -0.83009208395E-01  0.35329357380E-01  0.13027590234E+00  0.20279095579E-01 0.  0.
         14    1    1    2    0    0  0.15650300609E-01  0.91642435192E-02 -0.15457847526E-01  0.23829819944E-01  0.00000000000E+00 0.  1.
     999901    1    3    3    0    0 -0.10742108486E+00  0.73844964876E-01 -0.19871509854E-01  0.88982427772E+00  0.88000000000E+00 0.  1.
        -11    1    4    4    0    0  0.35464296590E-01 -0.43119953062E-01  0.21905386922E-01  0.59976276826E-01  0.51100000000E-03 0. -1.
         11    1    4    4    0    0  0.56306487659E-01 -0.39889255333E-01  0.13423970457E-01  0.70299625514E-01  0.51100000000E-03 0.  1.
</event>
<event>
 8    1  0.1104109E+005  0.1043930E+01  0.7957747E-01            NaN
         13   -1    0    0    0    0  0.00000000000E+00  0.00000000000E+00  0.74505805969E-08  0.10566000000E+00  0.10566000000E+00 0. -1.
     999900   -1    0    0    0    0 -0.00000000000E+00 -0.00000000000E+00 -0.74505805969E-08  0.93827000000E+00  0.93827000000E+00 0. -1.
     999902    2    1    2    0    0 -0.18100840453E-01  0.32976822142E-02  0.15505930178E-01  0.10198686409E+01  0.10195847663E+01 0.  0.
     999903    2    3    3    0    0  0.78663137530E-02 -0.12891757363E+00  0.46047708583E-02  0.12954622608E+00  0.89107291964E-02 0.  0.
         14    1    1    2    0    0  0.18100840453E-01 -0.32976822142E-02 -0.15505930178E-01  0.24061359143E-01  0.00000000000E+00 0.  1.
     999901    1    3    3    0    0 -0.25967154206E-01  0.13221525584E+00  0.10901159319E-01  0.89032241477E+00  0.88000000000E+00 0. -1.
        -11    1    4    4    0    0  0.92960986871E-02 -0.85326456980E-01  0.39513394498E-02  0.85923779689E-01  0.51100000000E-03 0.  1.
         11    1    4    4    0    0 -0.14297849342E-02 -0.43591116650E-01  0.65343140849E-03  0.43622446394E-01  0.51100000000E-03 0. -1.
</event>
<event>
 7    1  0.1104109E+005  0.1043930E+01  0.7957747E-01            NaN
         13   -1    0    0    0    0  0.00000000000E+00  0.00000000000E+00  0.74505805969E-08  0.10566000000E+00  0.10566000000E+00 0.  1.
     999900   -1    0    0    0    0 -0.00000000000E+00 -0.00000000000E+00 -0.74505805969E-08  0.93827000000E+00  0.93827000000E+00 0. -1.
     999902    2    1    2    0    0 -0.18090572674E-01 -0.61305538946E-02 -0.13191340868E-01  0.10207165560E+01  0.10204525582E+01 0.  0.
         14    1    1    2    0    0  0.18090572674E-01  0.61305538946E-02  0.13191340868E-01  0.23213444049E-01  0.00000000000E+00 0.  1.
     999901    1    3    3    0    0  0.10668186163E+00  0.35208765854E-01 -0.32703235479E-01  0.88774443305E+00  0.88000000000E+00 0.  1.
        -11    1    3    3    0    0 -0.82600862191E-01 -0.28223062562E-01  0.15069071478E-01  0.88582062131E-01  0.51100000000E-03 0. -1.
         11    1    3    3    0    0 -0.42171572114E-01 -0.13116257186E-01  0.44428231322E-02  0.44390060774E-01  0.51100000000E-03 0.  1.
</event>
<event>
 8    1  0.1104109E+005  0.1043930E+01  0.7957747E-01            NaN
         13   -1    0    0    0    0  0.00000000000E+00  0.00000000000E+00  0.74505805969E-08  0.10566000000E+00  0.10566000000E+00 0.  1.
     999900   -1    0    0    0    0 -0.00000000000E+00 -0.00000000000E+00 -0.74505805969E-08  0.93827000000E+00  0.93827000000E+00 0. -1.
     999902    2    1    2    0    0 -0.11056902690E-01 -0.14058492519E-01 -0.14060726887E-01  0.10211791682E+01  0.10209257040E+01 0.  0.
     999903    2    3    3    0    0 -0.56084943961E-01 -0.11073334250E+00 -0.46870362829E-01  0.13413349665E+00  0.19686795900E-01 0.  0.
         14    1    1    2    0    0  0.11056902690E-01  0.14058492519E-01  0.14060726887E-01  0.22750831844E-01  0.00000000000E+00 0.  1.
     999901    1    3    3    0    0  0.45028041271E-01  0.96674849981E-01  0.32809635942E-01  0.88704567150E+00  0.88000000000E+00 0. -1.
        -11    1    4    4    0    0 -0.24333537147E-01 -0.67829692433E-01 -0.30980060920E-01  0.78441146736E-01  0.51100000000E-03 0.  1.
         11    1    4    4    0    0 -0.31751406814E-01 -0.42903650067E-01 -0.15890301909E-01  0.55692349919E-01  0.51100000000E-03 0. -1.
</event>
<event>
 8    1  0.1104109E+005  0.1043930E+01  0.7957747E-01            NaN
         13   -1    0    0    0    0  0.00000000000E+00  0.00000000000E+00  0.74505805969E-08  0.10566000000E+00  0.10566000000E+00 0.  1.
     999900   -1    0    0    0    0 -0.00000000000E+00 -0.00000000000E+00 -0.74505805969E-08  0.93827000000E+00  0.93827000000E+00 0.  1.
     999902    2    1    2    0    0  0.10629815043E-01 -0.20115528079E-01 -0.58919885821E-02  0.10204280221E+01  0.10201573434E+01 0.  0.
     999903    2    3    3    0    0  0.19713468866E-01 -0.32037419557E-01 -0.12479218544E+00  0.13230533849E+00  0.22728746962E-01 0.  0.
         14    1    1    2    0    0 -0.10629815043E-01  0.20115528079E-01  0.58919885821E-02  0.23501977942E-01  0.00000000000E+00 0.  1.
     999901    1    3    3    0    0 -0.90836538229E-02  0.11921891478E-01  0.11890019686E+00  0.88812268357E+00  0.88000000000E+00 0. -1.
        -11    1    4    4    0    0  0.23604880046E-01 -0.27871955249E-01 -0.91447489438E-01  0.98473045534E-01  0.51100000000E-03 0. -1.
         11    1    4    4    0    0 -0.38914111808E-02 -0.41654643084E-02 -0.33344696002E-01  0.33832292951E-01  0.51100000000E-03 0.  1.
</event>
<event>
 8    1  0.1104109E+005  0.1043930E+01  0.7957747E-01            NaN
         13   -1    0    0    0    0  0.00000000000E+00  0.00000000000E+00  0.74505805969E-08  0.10566000000E+00  0.10566000000E+00 0.  1.
     999900   -1    0    0    0    0 -0.00000000000E+00 -0.00000000000E+00 -0.74505805969E-08  0.93827000000E+00  0.93827000000E+00 0.  1.
     999902    2    1    2    0    0  0.76132424930E-02  0.81290694066E-02 -0.20653107777E-01  0.10204652585E+01  0.10201954469E+01 0.  0.
     999903    2    3    3    0    0 -0.71858784824E-01 -0.57504374668E-01 -0.91712294556E-01  0.13160477448E+00  0.20934030450E-01 0.  0.
         14    1    1    2    0    0 -0.76132424930E-02 -0.81290694066E-02  0.20653107777E-01  0.23464741455E-01  0.00000000000E+00 0.  1.
     999901    1    3    3    0    0  0.79472027317E-01  0.65633444075E-01  0.71059186779E-01  0.88886048407E+00  0.88000000000E+00 0.  1.
        -11    1    4    4    0    0 -0.18230665593E-01 -0.23990673876E-01 -0.20957970396E-01  0.36707046260E-01  0.51100000000E-03 0.  1.
         11    1    4    4    0    0 -0.53628119231E-01 -0.33513700792E-01 -0.70754324160E-01  0.94897728220E-01  0.51100000000E-03 0. -1.
</event>
<event>
 8    1  0.1104109E+005  0.1043930E+01  0.7957747E-01            NaN
         13   -1    0    0    0    0  0.00000000000E+00  0.00000000000E+00  0.74505805969E-08  0.10566000000E+00  0.10566000000E+00 0.  1.
     999900   -1    0    0    0    0 -0.00000000000E+00 -0.00000000000E+00 -0.74505805969E-08  0.93827000000E+00  0.93827000000E+00 0. -1.
     999902    2    1    2    0    0 -0.46315552040E-02 -0.15519278750E-01 -0.16972971061E-01  0.10204697983E+01  0.10202000922E+01 0.  0.
     999903    2    3    3    0    0 -0.17532760300E-01  0.71317837645E-01 -0.10722493500E+00  0.13150830147E+00  0.20090172227E-01 0.  0.
         14    1    1    2    0    0  0.46315552040E-02  0.15519278750E-01  0.16972971061E-01  0.23460201686E-01  0.00000000000E+00 0.  1.
     999901    1    3    3    0    0  0.12901205096E-01 -0.86837116394E-01  0.90251963937E-01  0.88896149684E+00  0.88000000000E+00 0.  1.
        -11    1    4    4    0    0 -0.75573454906E-02  0.46087863691E-01 -0.51482255673E-01  0.69511786200E-01  0.51100000000E-03 0.  1.
         11    1    4    4    0    0 -0.99754148094E-02  0.25229973953E-01 -0.55742679325E-01  0.61996515270E-01  0.51100000000E-03 0. -1.
</event>
<event>
 8    1  0.1104109E+005  0.1043930E+01  0.7957747E-01            NaN
         13   -1    0    0    0    0  0.00000000000E+00  0.00000000000E+00  0.74505805969E-08  0.10566000000E+00  0.10566000000E+00 0. -1.
     999900   -1    0    0    0    0 -0.00000000000E+00 -0.00000000000E+00 -0.74505805969E-08  0.93827000000E+00  0.93827000000E+00 0.  1.
     999902    2    1    2    0    0 -0.48978322900E-03  0.18052749646E-01  0.11159866620E-01  0.10227006740E+01  0.10224803100E+01 0.  0.
     999903    2    3    3    0    0  0.11959463019E+00  0.14218795958E-01  0.54047973597E-01  0.13350195876E+00  0.19913307447E-01 0.  0.
         14    1    1    2    0    0  0.48978322900E-03 -0.18052749646E-01 -0.11159866620E-01  0.21229325951E-01  0.00000000000E+00 0.  1.
     999901    1    3    3    0    0 -0.12008441342E+00  0.38339536871E-02 -0.42888106977E-01  0.88919871529E+00  0.88000000000E+00 0. -1.
        -11    1    4    4    0    0  0.81684292090E-01  0.34919175027E-02  0.43959213667E-01  0.92828824453E-01  0.51100000000E-03 0. -1.
         11    1    4    4    0    0  0.37910338104E-01  0.10726878456E-01  0.10088759930E-01  0.40673134308E-01  0.51100000000E-03 0.  1.
</event>
<event>
 8    1  0.1104109E+005  0.1043930E+01  0.7957747E-01            NaN
         13   -1    0    0    0    0  0.00000000000E+00  0.00000000000E+00  0.74505805969E-08  0.10566000000E+00  0.10566000000E+00 0. -1.
     999900   -1    0    0    0    0 -0.00000000000E+00 -0.00000000000E+00 -0.74505805969E-08  0.93827000000E+00  0.93827000000E+00 0. -1.
     999902    2    1    2    0    0 -0.13322212735E-01  0.15488711766E-01 -0.10975506340E-01  0.10207385515E+01  0.10204750596E+01 0.  0.
     999903    2    3    3    0    0  0.98727089465E-01  0.83777567572E-01  0.93106138305E-02  0.13077791157E+00  0.15825789120E-01 0.  0.
         14    1    1    2    0    0  0.13322212735E-01 -0.15488711766E-01  0.10975506340E-01  0.23191448505E-01  0.00000000000E+00 0. -1.
     999901    1    3    3    0    0 -0.11204930220E+00 -0.68288855805E-01 -0.20286120171E-01  0.88996063993E+00  0.88000000000E+00 0.  1.
        -11    1    4    4    0    0  0.72049973792E-01  0.61429590067E-01 -0.24905012480E-03  0.94684298625E-01  0.51100000000E-03 0.  1.
         11    1    4    4    0    0  0.26677115673E-01  0.22347977505E-01  0.95596639553E-02  0.36093612941E-01  0.51100000000E-03 0. -1.
</event>
<event>
 8    1  0.1104109E+005  0.1043930E+01  0.7957747E-01            NaN
         13   -1    0    0    0    0  0.00000000000E+00  0.00000000000E+00  0.74505805969E-08  0.10566000000E+00  0.10566000000E+00 0.  1.
     999900   -1    0    0    0    0 -0.00000000000E+00 -0.00000000000E+00 -0.74505805969E-08  0.93827000000E+00  0.93827000000E+00 0.  1.
     999902    2    1    2    0    0 -0.17698992160E-02 -0.22944025244E-01 -0.52065151118E-02  0.10203361737E+01  0.10200633504E+01 0.  0.
     999903    2    3    3    0    0  0.57290350061E-02 -0.10269735158E+00 -0.82342399818E-01  0.13333742979E+00  0.20470259212E-01 0.  0.
         14    1    1    2    0    0  0.17698992160E-02  0.22944025244E-01  0.52065151118E-02  0.23593826253E-01  0.00000000000E+00 0. -1.
     999901    1    3    3    0    0 -0.74989342220E-02  0.79753326331E-01  0.77135884706E-01  0.88699874396E+00  0.88000000000E+00 0. -1.
        -11    1    4    4    0    0  0.52635167478E-02 -0.68865086376E-02 -0.10237160165E-01  0.13423456299E-01  0.51100000000E-03 0. -1.
         11    1    4    4    0    0  0.46551825826E-03 -0.95810842937E-01 -0.72105239653E-01  0.11991397349E+00  0.51100000000E-03 0.  1.
</event>
<event>
 8    1  0.1104109E+005  0.1043930E+01  0.7957747E-01            NaN
         13   -1    0    0    0    0  0.00000000000E+00  0.00000000000E+00  0.74505805969E-08  0.10566000000E+00  0.10566000000E+00 0.  1.
     999900   -1    0    0    0    0 -0.00000000000E+00 -0.00000000000E+00 -0.74505805969E-08  0.93827000000E+00  0.93827000000E+00 0. -1.
     999902    2    1    2    0    0 -0.12490287675E-01  0.66011730349E-02 -0.19604058601E-01  0.10197659381E+01  0.10194796058E+01 0.  0.
     999903    2    3    3    0    0  0.39393868759E-01  0.96639270867E-02  0.11911056973E+00  0.12738536111E+00  0.19860363110E-01 0.  0.
         14    1    1    2    0    0  0.12490287675E-01 -0.66011730349E-02  0.19604058601E-01  0.24164061854E-01  0.00000000000E+00 0.  1.
     999901    1    3    3    0    0 -0.51884156434E-01 -0.30627540518E-02 -0.13871462833E+00  0.89238057703E+00  0.88000000000E+00 0. -1.
        -11    1    4    4    0    0  0.28165937164E-01 -0.11309394016E-02  0.90707725080E-01  0.94988165318E-01  0.51100000000E-03 0. -1.
         11    1    4    4    0    0  0.11227931595E-01  0.10794866488E-01  0.28402844648E-01  0.32397195797E-01  0.51100000000E-03 0.  1.
</event>
<event>
 8    1  0.1104109E+005  0.1043930E+01  0.7957747E-01            NaN
         13   -1    0    0    0    0  0.00000000000E+00  0.00000000000E+00  0.74505805969E-08  0.10566000000E+00  0.10566000000E+00 0. -1.
     999900   -1    0    0    0    0 -0.00000000000E+00 -0.00000000000E+00 -0.74505805969E-08  0.93827000000E+00  0.93827000000E+00 0. -1.
     999902    2    1    2    0    0 -0.94236746893E-02  0.53505633110E-02 -0.20080805581E-01  0.10211117414E+01  0.10208567556E+01 0.  0.
     999903    2    3    3    0    0 -0.96383459687E-01 -0.56151163365E-01  0.64983944920E-01  0.13061722802E+00  0.19880209019E-01 0.  0.
         14    1    1    2    0    0  0.94236746893E-02 -0.53505633110E-02  0.20080805581E-01  0.22818258593E-01  0.00000000000E+00 0. -1.
     999901    1    3    3    0    0  0.86959784997E-01  0.61501726676E-01 -0.85064750501E-01  0.89049451338E+00  0.88000000000E+00 0. -1.
        -11    1    4    4    0    0 -0.10994155502E-01 -0.13378316295E-02  0.11262303837E-01  0.15803855776E-01  0.51100000000E-03 0.  1.
         11    1    4    4    0    0 -0.85389304185E-01 -0.54813331735E-01  0.53721641083E-01  0.11481337225E+00  0.51100000000E-03 0. -1.
</event>
<event>
 8    1  0.1104109E+005  0.1043930E+01  0.7957747E-01            NaN
         13   -1    0    0    0    0  0.00000000000E+00  0.00000000000E+00  0.74505805969E-08  0.10566000000E+00  0.10566000000E+00 0. -1.
     999900   -1    0    0    0    0 -0.00000000000E+00 -0.00000000000E+00 -0.74505805969E-08  0.93827000000E+00  0.93827000000E+00 0. -1.
     999902    2    1    2    0    0  0.11980793728E-01  0.10208783788E-02 -0.21701948002E-01  0.10191195958E+01  0.10188175471E+01 0.  0.
     999903    2    3    3    0    0 -0.82180029240E-01 -0.73502706955E-01 -0.65411740432E-01  0.12988927054E+00  0.20888314421E-01 0.  0.
         14    1    1    2    0    0 -0.11980793728E-01 -0.10208783788E-02  0.21701948002E-01  0.24810404231E-01  0.00000000000E+00 0. -1.
     999901    1    3    3    0    0  0.94160822968E-01  0.74523585334E-01  0.43709792430E-01  0.88923032523E+00  0.88000000000E+00 0.  1.
        -11    1    4    4    0    0 -0.26155113992E-01 -0.36660930970E-01 -0.23303241097E-01  0.50709131467E-01  0.51100000000E-03 0. -1.
         11    1    4    4    0    0 -0.56024915248E-01 -0.36841775985E-01 -0.42108499335E-01  0.79180139072E-01  0.51100000000E-03 0.  1.
</event>
<event>
 8    1  0.1104109E+005  0.1043930E+01  0.7957747E-01            NaN
         13   -1    0    0    0    0  0.00000000000E+00  0.00000000000E+00  0.74505805969E-08  0.10566000000E+00  0.10566000000E+00 0. -1.
     999900   -1    0    0    0    0 -0.00000000000E+00 -0.00000000000E+00 -0.74505805969E-08  0.93827000000E+00  0.93827000000E+00 0. -1.
     999902    2    1    2    0    0  0.16485488500E-01 -0.41402091671E-02  0.16703496211E-01  0.10200989394E+01  0.10198205365E+01 0.  0.
     999903    2    3    3    0    0  0.77982608510E-01 -0.10395105335E+00  0.14977171702E-01  0.13232245821E+00  0.19945138528E-01 0.  0.
         14    1    1    2    0    0 -0.16485488500E-01  0.41402091671E-02 -0.16703496211E-01  0.23831060587E-01  0.00000000000E+00 0.  1.
     999901    1    3    3    0    0 -0.61497120010E-01  0.99810844184E-01  0.17263245086E-02  0.88777648121E+00  0.88000000000E+00 0.  1.
        -11    1    4    4    0    0  0.20018055008E-01 -0.34113904611E-01  0.12658384424E-01  0.41532840395E-01  0.51100000000E-03 0. -1.
         11    1    4    4    0    0  0.57964553502E-01 -0.69837148741E-01  0.23187872777E-02  0.90789617812E-01  0.51100000000E-03 0.  1.
</event>
<event>
 8    1  0.1104109E+005  0.1043930E+01  0.7957747E-01            NaN
         13   -1    0    0    0    0  0.00000000000E+00  0.00000000000E+00  0.74505805969E-08  0.10566000000E+00  0.10566000000E+00 0. -1.
     999900   -1    0    0    0    0 -0.00000000000E+00 -0.00000000000E+00 -0.74505805969E-08  0.93827000000E+00  0.93827000000E+00 0.  1.
     999902    2    1    2    0    0  0.12515919248E-01 -0.18201689425E-01 -0.78072198347E-02  0.10205013335E+01  0.10202323604E+01 0.  0.
     999903    2    3    3    0    0 -0.73891176203E-01  0.50523015197E-02 -0.10561303915E+00  0.13057273382E+00  0.20240877136E-01 0.  0.
         14    1    1    2    0    0 -0.12515919248E-01  0.18201689425E-01  0.78072198347E-02  0.23428666502E-01  0.00000000000E+00 0. -1.
     999901    1    3    3    0    0  0.86407095451E-01 -0.23253990944E-01  0.97805819312E-01  0.88992859968E+00  0.88000000000E+00 0.  1.
        -11    1    4    4    0    0 -0.66300475788E-01  0.35587410944E-02 -0.10269147332E+00  0.12228743820E+00  0.51100000000E-03 0. -1.
         11    1    4    4    0    0 -0.75907004149E-02  0.14935604253E-02 -0.29215658215E-02  0.82852956122E-02  0.51100000000E-03 0.  1.
</event>
<event>
 8    1  0.1104109E+005  0.1043930E+01  0.7957747E-01            NaN
         13   -1    0    0    0    0  0.00000000000E+00  0.00000000000E+00  0.74505805969E-08  0.10566000000E+00  0.10566000000E+00 0. -1.
     999900   -1    0    0    0    0 -0.00000000000E+00 -0.00000000000E+00 -0.74505805969E-08  0.93827000000E+00  0.93827000000E+00 0. -1.
     999902    2    1    2    0    0 -0.11678255300E-01  0.98932705035E-02 -0.16780302526E-01  0.10212179547E+01  0.10209653638E+01 0.  0.
     999903    2    3    3    0    0 -0.58990850329E-01 -0.51529465831E-01  0.10172902604E+00  0.12989551298E+00  0.19719109576E-01 0.  0.
         14    1    1    2    0    0  0.11678255300E-01 -0.98932705035E-02  0.16780302526E-01  0.22712045284E-01  0.00000000000E+00 0. -1.
     999901    1    3    3    0    0  0.47312595029E-01  0.61422736335E-01 -0.11850932856E+00  0.89132244174E+00  0.88000000000E+00 0. -1.
        -11    1    4    4    0    0 -0.21935456449E-01 -0.17612078184E-01  0.52471905682E-01  0.59539159840E-01  0.51100000000E-03 0. -1.
         11    1    4    4    0    0 -0.37055393880E-01 -0.33917387648E-01  0.49257120354E-01  0.70356353139E-01  0.51100000000E-03 0.  1.
</event>
<event>
 8    1  0.1104109E+005  0.1043930E+01  0.7957747E-01            NaN
         13   -1    0    0    0    0  0.00000000000E+00  0.00000000000E+00  0.74505805969E-08  0.10566000000E+00  0.10566000000E+00 0.  1.
     999900   -1    0    0    0    0 -0.00000000000E+00 -0.00000000000E+00 -0.74505805969E-08  0.93827000000E+00  0.93827000000E+00 0. -1.
     999902    2    1    2    0    0 -0.59467851401E-02  0.14920818762E-01  0.17130366948E-01  0.10204471433E+01  0.10201769100E+01 0.  0.
     999903    2    3    3    0    0 -0.82243838814E-01 -0.95213140826E-01 -0.22734045712E-01  0.12941409071E+00  0.20039431888E-01 0.  0.
         14    1    1    2    0    0  0.59467851401E-02 -0.14920818762E-01 -0.17130366948E-01  0.23482856679E-01  0.00000000000E+00 0.  1.
     999901    1    3    3    0    0  0.76297053673E-01  0.11013395959E+00  0.39864412661E-01  0.89103305261E+00  0.88000000000E+00 0.  1.
        -11    1    4    4    0    0 -0.53499106365E-01 -0.51291129482E-01 -0.61888415534E-02  0.74374035968E-01  0.51100000000E-03 0. -1.
         11    1    4    4    0    0 -0.28744732448E-01 -0.43922011344E-01 -0.16545204159E-01  0.55040054739E-01  0.51100000000E-03 0.  1.
</event>
<event>
 7    1  0.1263559E+005  0.1043930E+01  0.7957747E-01            NaN
         13   -1    0    0    0    0  0.00000000000E+00  0.00000000000E+00  0.74505805969E-08  0.10566000000E+00  0.10566000000E+00 0. -1.
     999900   -1    0    0    0    0 -0.00000000000E+00 -0.00000000000E+00 -0.74505805969E-08  0.93827000000E+00  0.93827000000E+00 0.  1.
     999903    2    1    2    0    0 -0.16512765700E-01 -0.97967482911E-01 -0.34326693815E-01  0.10706164714E+00  0.20336549412E-01 0.  0.
         14    1    1    2    0    0 -0.73446461534E-05 -0.28085752355E-01 -0.35184613974E-01  0.45019624607E-01  0.00000000000E+00 0. -1.
     999901    1    1    2    0    0  0.16520110347E-01  0.12605323527E+00  0.69511307789E-01  0.89184872825E+00  0.88000000000E+00 0. -1.
        -11    1    3    3    0    0 -0.11941824302E-01 -0.34593925059E-01 -0.45236570611E-02  0.36879146043E-01  0.51100000000E-03 0. -1.
         11    1    3    3    0    0 -0.45709413984E-02 -0.63373557852E-01 -0.29803036754E-01  0.70182501101E-01  0.51100000000E-03 0.  1.
</event>
<event>
 8    1  0.1104109E+005  0.1043930E+01  0.7957747E-01            NaN
         13   -1    0    0    0    0  0.00000000000E+00  0.00000000000E+00  0.74505805969E-08  0.10566000000E+00  0.10566000000E+00 0. -1.
     999900   -1    0    0    0    0 -0.00000000000E+00 -0.00000000000E+00 -0.74505805969E-08  0.93827000000E+00  0.93827000000E+00 0.  1.
     999902    2    1    2    0    0 -0.81161471041E-05  0.14648282254E-01  0.23235424920E-01  0.10164626155E+01  0.10160914287E+01 0.  0.
     999903    2    3    3    0    0  0.12244154080E+00  0.16607613238E-01  0.27321014510E-01  0.12797263274E+00  0.19047655109E-01 0.  0.
         14    1    1    2    0    0  0.81161471041E-05 -0.14648282254E-01 -0.23235424920E-01  0.27467384478E-01  0.00000000000E+00 0. -1.
     999901    1    3    3    0    0 -0.12244965695E+00 -0.19593309848E-02 -0.40855895903E-02  0.88848998278E+00  0.88000000000E+00 0. -1.
        -11    1    4    4    0    0  0.75918208333E-01  0.92991993606E-03  0.16537083743E-01  0.77705697135E-01  0.51100000000E-03 0. -1.
         11    1    4    4    0    0  0.46523332467E-01  0.15677693302E-01  0.10783930767E-01  0.50266935603E-01  0.51100000000E-03 0.  1.
</event>
<event>
 8    1  0.1104109E+005  0.1043930E+01  0.7957747E-01            NaN
         13   -1    0    0    0    0  0.00000000000E+00  0.00000000000E+00  0.74505805969E-08  0.10566000000E+00  0.10566000000E+00 0. -1.
     999900   -1    0    0    0    0 -0.00000000000E+00 -0.00000000000E+00 -0.74505805969E-08  0.93827000000E+00  0.93827000000E+00 0.  1.
     999902    2    1    2    0    0 -0.92041351072E-02  0.18274372677E-01 -0.11307080146E-01  0.10205522571E+01  0.10202844656E+01 0.  0.
     999903    2    3    3    0    0 -0.60090975763E-01 -0.34655871616E-01 -0.11025519496E+00  0.13196809639E+00  0.21152201847E-01 0.  0.
         14    1    1    2    0    0  0.92041351072E-02 -0.18274372677E-01  0.11307080146E-01  0.23377742860E-01  0.00000000000E+00 0. -1.
     999901    1    3    3    0    0  0.50886840656E-01  0.52930244292E-01  0.98948114815E-01  0.88858416075E+00  0.88000000000E+00 0. -1.
        -11    1    4    4    0    0 -0.24289322812E-01 -0.22408286749E-01 -0.65441777423E-01  0.73314322413E-01  0.51100000000E-03 0.  1.
         11    1    4    4    0    0 -0.35801652951E-01 -0.12247584867E-01 -0.44813417538E-01  0.58653773975E-01  0.51100000000E-03 0. -1.
</event>
<event>
 8    1  0.1104109E+005  0.1043930E+01  0.7957747E-01            NaN
         13   -1    0    0    0    0  0.00000000000E+00  0.00000000000E+00  0.74505805969E-08  0.10566000000E+00  0.10566000000E+00 0. -1.
     999900   -1    0    0    0    0 -0.00000000000E+00 -0.00000000000E+00 -0.74505805969E-08  0.93827000000E+00  0.93827000000E+00 0.  1.
     999902    2    1    2    0    0 -0.21254260566E-01 -0.85104088378E-02 -0.60853177122E-02  0.10202403030E+01  0.10199652319E+01 0.  0.
     999903    2    3    3    0    0 -0.86430766262E-01  0.80108577307E-01  0.53778519988E-01  0.13137305723E+00  0.21888111800E-01 0.  0.
         14    1    1    2    0    0  0.21254260566E-01  0.85104088378E-02  0.60853177122E-02  0.23689696968E-01  0.00000000000E+00 0.  1.
     999901    1    3    3    0    0  0.65176505696E-01 -0.88618986145E-01 -0.59863837700E-01  0.88886724580E+00  0.88000000000E+00 0.  1.
        -11    1    4    4    0    0 -0.23234291549E-02 -0.87887031924E-03  0.33129994634E-02  0.41722682705E-02  0.51100000000E-03 0. -1.
         11    1    4    4    0    0 -0.84107337107E-01  0.80987447626E-01  0.50465520525E-01  0.12720078896E+00  0.51100000000E-03 0.  1.
</event>
<event>
 8    1  0.1104109E+005  0.1043930E+01  0.7957747E-01            NaN
         13   -1    0    0    0    0  0.00000000000E+00  0.00000000000E+00  0.74505805969E-08  0.10566000000E+00  0.10566000000E+00 0.  1.
     999900   -1    0    0    0    0 -0.00000000000E+00 -0.00000000000E+00 -0.74505805969E-08  0.93827000000E+00  0.93827000000E+00 0.  1.
     999902    2    1    2    0    0 -0.20201663114E-02 -0.60090223122E-03  0.22903985424E-01  0.10209292456E+01  0.10206701180E+01 0.  0.
     999903    2    3    3    0    0  0.91400455893E-01 -0.86354632855E-01 -0.29889113378E-01  0.13027318051E+00  0.16327170883E-01 0.  0.
         14    1    1    2    0    0  0.20201663114E-02  0.60090223122E-03 -0.22903985424E-01  0.23000754416E-01  0.00000000000E+00 0. -1.
     999901    1    3    3    0    0 -0.93420622204E-01  0.85753730624E-01  0.52793098802E-01  0.89065606507E+00  0.88000000000E+00 0.  1.
        -11    1    4    4    0    0  0.32192390328E-01 -0.34353516348E-01 -0.36824148295E-02  0.47226426718E-01  0.51100000000E-03 0.  1.
         11    1    4    4    0    0  0.59208065565E-01 -0.52001116507E-01 -0.26206698548E-01  0.83046753794E-01  0.51100000000E-03 0. -1.
</event>
<event>
 8    1  0.1104109E+005  0.1043930E+01  0.7957747E-01            NaN
         13   -1    0    0    0    0  0.00000000000E+00  0.00000000000E+00  0.74505805969E-08  0.10566000000E+00  0.10566000000E+00 0. -1.
     999900   -1    0    0    0    0 -0.00000000000E+00 -0.00000000000E+00 -0.74505805969E-08  0.93827000000E+00  0.93827000000E+00 0.  1.
     999902    2    1    2    0    0 -0.55206378587E-02 -0.18142545533E-01  0.16438985507E-01  0.10188327961E+01  0.10185236358E+01 0.  0.
     999903    2    3    3    0    0  0.54762425946E-01 -0.73453991778E-01  0.92237896821E-01  0.13179340640E+00  0.21616201245E-01 0.  0.
         14    1    1    2    0    0  0.55206378587E-02  0.18142545533E-01 -0.16438985507E-01  0.25097203933E-01  0.00000000000E+00 0.  1.
     999901    1    3    3    0    0 -0.60283063805E-01  0.55311446245E-01 -0.75798911315E-01  0.88703938967E+00  0.88000000000E+00 0. -1.
        -11    1    4    4    0    0  0.23221786235E-01 -0.16616888922E-01  0.21678748789E-01  0.35855287246E-01  0.51100000000E-03 0. -1.
         11    1    4    4    0    0  0.31540639711E-01 -0.56837102856E-01  0.70559148032E-01  0.95938119152E-01  0.51100000000E-03 0.  1.
</event>
<event>
 8    1  0.1104109E+005  0.1043930E+01  0.7957747E-01            NaN
         13   -1    0    0    0    0  0.00000000000E+00  0.00000000000E+00  0.74505805969E-08  0.10566000000E+00  0.10566000000E+00 0. -1.
     999900   -1    0    0    0    0 -0.00000000000E+00 -0.00000000000E+00 -0.74505805969E-08  0.93827000000E+00  0.93827000000E+00 0. -1.
     999902    2    1    2    0    0 -0.16650750584E-01 -0.70608133679E-02  0.16817665785E-01  0.10192331082E+01  0.10189338509E+01 0.  0.
     999903    2    3    3    0    0  0.47709393681E-01  0.11369561977E+00 -0.26297147709E-01  0.12761478661E+00  0.19776591799E-01 0.  0.
         14    1    1    2    0    0  0.16650750584E-01  0.70608133679E-02 -0.16817665785E-01  0.24696891766E-01  0.00000000000E+00 0.  1.
     999901    1    3    3    0    0 -0.64360144265E-01 -0.12075643314E+00  0.43114813494E-01  0.89161832162E+00  0.88000000000E+00 0. -1.
        -11    1    4    4    0    0  0.32831226185E-01  0.80929294800E-01 -0.93535122400E-02  0.87836151338E-01  0.51100000000E-03 0. -1.
         11    1    4    4    0    0  0.14878167496E-01  0.32766324972E-01 -0.16943635469E-01  0.39778635272E-01  0.51100000000E-03 0.  1.
</event>
<event>
 8    1  0.1104109E+005  0.1043930E+01  0.7957747E-01            NaN
         13   -1    0    0    0    0  0.00000000000E+00  0.00000000000E+00  0.74505805969E-08  0.10566000000E+00  0.10566000000E+00 0.  1.
     999900   -1    0    0    0    0 -0.00000000000E+00 -0.00000000000E+00 -0.74505805969E-08  0.93827000000E+00  0.93827000000E+00 0. -1.
     999902    2    1    2    0    0 -0.11688379171E-01  0.19402669832E-01  0.62601692701E-02  0.10204295421E+01  0.10201588988E+01 0.  0.
     999903    2    3    3    0    0 -0.10767499679E+00  0.68265057087E-01  0.34324955757E-01  0.13341849596E+00  0.19190349757E-01 0.  0.
         14    1    1    2    0    0  0.11688379171E-01 -0.19402669832E-01 -0.62601692701E-02  0.23500457943E-01  0.00000000000E+00 0.  1.
     999901    1    3    3    0    0  0.95986617622E-01 -0.48862387255E-01 -0.28064786487E-01  0.88701104609E+00  0.88000000000E+00 0.  1.
        -11    1    4    4    0    0 -0.78942190329E-01  0.56493854401E-01  0.32258252080E-01  0.10229506805E+00  0.51100000000E-03 0.  1.
         11    1    4    4    0    0 -0.28732806464E-01  0.11771202686E-01  0.20667036767E-02  0.31123427914E-01  0.51100000000E-03 0. -1.
</event>
<event>
 8    1  0.1104109E+005  0.1043930E+01  0.7957747E-01            NaN
         13   -1    0    0    0    0  0.00000000000E+00  0.00000000000E+00  0.74505805969E-08  0.10566000000E+00  0.10566000000E+00 0. -1.
     999900   -1    0    0    0    0 -0.00000000000E+00 -0.00000000000E+00 -0.74505805969E-08  0.93827000000E+00  0.93827000000E+00 0. -1.
     999902    2    1    2    0    0  0.14318392631E-01  0.13378399307E-01 -0.12624520010E-01  0.10206195637E+01  0.10203533297E+01 0.  0.
     999903    2    3    3    0    0 -0.82043682356E-01 -0.87633242668E-01 -0.42958444270E-01  0.12909886944E+00  0.20256829017E-01 0.  0.
         14    1    1    2    0    0 -0.14318392631E-01 -0.13378399307E-01  0.12624520010E-01  0.23310436312E-01  0.00000000000E+00 0. -1.
     999901    1    3    3    0    0  0.96362074987E-01  0.10101164197E+00  0.30333924260E-01  0.89152069425E+00  0.88000000000E+00 0.  1.
        -11    1    4    4    0    0 -0.29768358037E-01 -0.18620134110E-01 -0.10763375076E-01  0.36728407242E-01  0.51100000000E-03 0.  1.
         11    1    4    4    0    0 -0.52275324319E-01 -0.69013108558E-01 -0.32195069194E-01  0.92370462199E-01  0.51100000000E-03 0. -1.
</event>
<event>
 8    1  0.1104109E+005  0.1043930E+01  0.7957747E-01            NaN
         13   -1    0    0    0    0  0.00000000000E+00  0.00000000000E+00  0.74505805969E-08  0.10566000000E+00  0.10566000000E+00 0.  1.
     999900   -1    0    0    0    0 -0.00000000000E+00 -0.00000000000E+00 -0.74505805969E-08  0.93827000000E+00  0.93827000000E+00 0.  1.
     999902    2    1    2    0    0 -0.20801181964E-01 -0.10785522237E-01 -0.28785633091E-02  0.10203227387E+01  0.10200496009E+01 0.  0.
     999903    2    3    3    0    0 -0.11195666152E+00  0.49721575392E-01 -0.46404790248E-01  0.13247986814E+00  0.19773259359E-01 0.  0.
         14    1    1    2    0    0  0.20801181964E-01  0.10785522237E-01  0.28785633091E-02  0.23607261335E-01  0.00000000000E+00 0. -1.
     999901    1    3    3    0    0  0.91155479555E-01 -0.60507097629E-01  0.43526226939E-01  0.88784287053E+00  0.88000000000E+00 0. -1.
        -11    1    4    4    0    0 -0.58018243012E-01  0.28573145823E-01 -0.34610182759E-01  0.73353030313E-01  0.51100000000E-03 0. -1.
         11    1    4    4    0    0 -0.53938418507E-01  0.21148429569E-01 -0.11794607488E-01  0.59126837824E-01  0.51100000000E-03 0.  1.
</event>
<event>
 8    1  0.1104109E+005  0.1043930E+01  0.7957747E-01            NaN
         13   -1    0    0    0    0  0.00000000000E+00  0.00000000000E+00  0.74505805969E-08  0.10566000000E+00  0.10566000000E+00 0.  1.
     999900   -1    0    0    0    0 -0.00000000000E+00 -0.00000000000E+00 -0.74505805969E-08  0.93827000000E+00  0.93827000000E+00 0. -1.
     999902    2    1    2    0    0 -0.47326963421E-02  0.23141527153E-01  0.15617340573E-02  0.10202579129E+01  0.10199832553E+01 0.  0.
     999903    2    3    3    0    0  0.93790907937E-01  0.54534063458E-01 -0.71021005493E-01  0.13123561510E+00  0.20201607857E-01 0.  0.
         14    1    1    2    0    0  0.47326963421E-02 -0.23141527153E-01 -0.15617340573E-02  0.23672087084E-01  0.00000000000E+00 0. -1.
     999901    1    3    3    0    0 -0.98523604280E-01 -0.31392536305E-01  0.72582739550E-01  0.88902229782E+00  0.88000000000E+00 0. -1.
        -11    1    4    4    0    0  0.68190420996E-01  0.39510635385E-01 -0.40313554089E-01  0.88523824977E-01  0.51100000000E-03 0. -1.
         11    1    4    4    0    0  0.25600486941E-01  0.15023428074E-01 -0.30707451404E-01  0.42711790122E-01  0.51100000000E-03 0.  1.
</event>
<event>
 8    1  0.1104109E+005  0.1043930E+01  0.7957747E-01            NaN
         13   -1    0    0    0    0  0.00000000000E+00  0.00000000000E+00  0.74505805969E-08  0.10566000000E+00  0.10566000000E+00 0.  1.
     999900   -1    0    0    0    0 -0.00000000000E+00 -0.00000000000E+00 -0.74505805969E-08  0.93827000000E+00  0.93827000000E+00 0. -1.
     999902    2    1    2    0    0  0.14017754966E-01 -0.53305322702E-02  0.18360566358E-01  0.10202229878E+01  0.10199475097E+01 0.  0.
     999903    2    3    3    0    0  0.21430409280E-01  0.11185396881E+00 -0.57240510939E-01  0.12921082315E+00  0.21175172868E-01 0.  0.
         14    1    1    2    0    0 -0.14017754966E-01  0.53305322702E-02 -0.18360566358E-01  0.23707012160E-01  0.00000000000E+00 0. -1.
     999901    1    3    3    0    0 -0.74126543138E-02 -0.11718450108E+00  0.75601077297E-01  0.89101216469E+00  0.88000000000E+00 0.  1.
        -11    1    4    4    0    0  0.49231443876E-03  0.19096595211E-01 -0.19413515443E-02  0.19208130804E-01  0.51100000000E-03 0.  1.
         11    1    4    4    0    0  0.20938094841E-01  0.92757373600E-01 -0.55299159395E-01  0.11000269235E+00  0.51100000000E-03 0. -1.
</event>
<event>
 8    1  0.1104109E+005  0.1043930E+01  0.7957747E-01            NaN
         13   -1    0    0    0    0  0.00000000000E+00  0.00000000000E+00  0.74505805969E-08  0.10566000000E+00  0.10566000000E+00 0. -1.
     999900   -1    0    0    0    0 -0.00000000000E+00 -0.00000000000E+00 -0.74505805969E-08  0.93827000000E+00  0.93827000000E+00 0. -1.
     999902    2    1    2    0    0 -0.18559176606E-01 -0.13588125354E-01  0.55871708370E-02  0.10202594135E+01  0.10199847912E+01 0.  0.
     999903    2    3    3    0    0  0.10439282171E+00  0.63505186113E-01  0.32612646264E-01  0.12796408746E+00  0.19505206891E-01 0.  0.
         14    1    1    2    0    0  0.18559176606E-01  0.13588125354E-01 -0.55871708370E-02  0.23670586492E-01  0.00000000000E+00 0. -1.
     999901    1    3    3    0    0 -0.12295199831E+00 -0.77093311467E-01 -0.27025475427E-01  0.89229532605E+00  0.88000000000E+00 0. -1.
        -11    1    4    4    0    0  0.99227932089E-01  0.59491254067E-01  0.35167369117E-01  0.12092310279E+00  0.51100000000E-03 0.  1.
         11    1    4    4    0    0  0.51648896195E-02  0.40139320461E-02 -0.25547228539E-02  0.70409846693E-02  0.51100000000E-03 0. -1.
</event>
<event>
 8    1  0.1104109E+005  0.1043930E+01  0.7957747E-01            NaN
         13   -1    0    0    0    0  0.00000000000E+00  0.00000000000E+00  0.74505805969E-08  0.10566000000E+00  0.10566000000E+00 0.  1.
     999900   -1    0    0    0    0 -0.00000000000E+00 -0.00000000000E+00 -0.74505805969E-08  0.93827000000E+00  0.93827000000E+00 0.  1.
     999902    2    1    2    0    0 -0.15429283824E-01  0.17441962843E-01 -0.19830436872E-02  0.10205587072E+01  0.10202910650E+01 0.  0.
     999903    2    3    3    0    0 -0.27788846045E-01  0.66355907555E-01 -0.10953049682E+00  0.13257684504E+00  0.20108795941E-01 0.  0.
         14    1    1    2    0    0  0.15429283824E-01 -0.17441962843E-01  0.19830436872E-02  0.23371292848E-01  0.00000000000E+00 0.  1.
     999901    1    3    3    0    0  0.12359562222E-01 -0.48913944712E-01  0.10754745314E+00  0.88798186211E+00  0.88000000000E+00 0. -1.
        -11    1    4    4    0    0 -0.14882497419E-01  0.14664976382E-01 -0.24173390241E-01  0.31955659568E-01  0.51100000000E-03 0.  1.
         11    1    4    4    0    0 -0.12906348626E-01  0.51690931173E-01 -0.85357106582E-01  0.10062118547E+00  0.51100000000E-03 0. -1.
</event>
<event>
 8    1  0.1104109E+005  0.1043930E+01  0.7957747E-01            NaN
         13   -1    0    0    0    0  0.00000000000E+00  0.00000000000E+00  0.74505805969E-08  0.10566000000E+00  0.10566000000E+00 0.  1.
     999900   -1    0    0    0    0 -0.00000000000E+00 -0.00000000000E+00 -0.74505805969E-08  0.93827000000E+00  0.93827000000E+00 0.  1.
     999902    2    1    2    0    0  0.20807573766E-01 -0.35196041060E-02  0.11556362143E-01  0.10198698203E+01  0.10195859739E+01 0.  0.
     999903    2    3    3    0    0  0.67268442360E-01 -0.82354172142E-01  0.76975671105E-01  0.13270963897E+00  0.19476686763E-01 0.  0.
         14    1    1    2    0    0 -0.20807573766E-01  0.35196041060E-02 -0.11556362143E-01  0.24060179656E-01  0.00000000000E+00 0. -1.
     999901    1    3    3    0    0 -0.46460868594E-01  0.78834568036E-01 -0.65419308963E-01  0.88716018137E+00  0.88000000000E+00 0.  1.
        -11    1    4    4    0    0  0.31933011232E-01 -0.33559532651E-01  0.22571649618E-01  0.51533483538E-01  0.51100000000E-03 0. -1.
         11    1    4    4    0    0  0.35335431128E-01 -0.48794639490E-01  0.54404021487E-01  0.81176155433E-01  0.51100000000E-03 0.  1.
</event>
<event>
 8    1  0.1104109E+005  0.1043930E+01  0.7957747E-01            NaN
         13   -1    0    0    0    0  0.00000000000E+00  0.00000000000E+00  0.74505805969E-08  0.10566000000E+00  0.10566000000E+00 0.  1.
     999900   -1    0    0    0    0 -0.00000000000E+00 -0.00000000000E+00 -0.74505805969E-08  0.93827000000E+00  0.93827000000E+00 0.  1.
     999902    2    1    2    0    0 -0.13894968116E-01  0.12766734710E-01 -0.13840144195E-01  0.10205289478E+01  0.10202606157E+01 0.  0.
     999903    2    3    3    0    0 -0.11852579595E+00 -0.17877135023E-01 -0.53889735509E-01  0.13289691441E+00  0.19736514513E-01 0.  0.
         14    1    1    2    0    0  0.13894968116E-01 -0.12766734710E-01  0.13840144195E-01  0.23401052229E-01  0.00000000000E+00 0. -1.
     999901    1    3    3    0    0  0.10463082783E+00  0.30643869732E-01  0.40049591315E-01  0.88763203336E+00  0.88000000000E+00 0.  1.
        -11    1    4    4    0    0 -0.73720784443E-01 -0.15573760417E-01 -0.24381850937E-01  0.79196160567E-01  0.51100000000E-03 0.  1.
         11    1    4    4    0    0 -0.44805011503E-01 -0.23033746056E-02 -0.29507884572E-01  0.53700753843E-01  0.51100000000E-03 0. -1.
</event>
<event>
 8    1  0.1104109E+005  0.1043930E+01  0.7957747E-01            NaN
         13   -1    0    0    0    0  0.00000000000E+00  0.00000000000E+00  0.74505805969E-08  0.10566000000E+00  0.10566000000E+00 0. -1.
     999900   -1    0    0    0    0 -0.00000000000E+00 -0.00000000000E+00 -0.74505805969E-08  0.93827000000E+00  0.93827000000E+00 0.  1.
     999902    2    1    2    0    0 -0.13428385672E-01  0.16992132005E-01  0.11774440460E-01  0.10192785996E+01  0.10189804572E+01 0.  0.
     999903    2    3    3    0    0 -0.41342781444E-02 -0.37500197732E-01 -0.12059360713E+00  0.12766371951E+00  0.18216753634E-01 0.  0.
         14    1    1    2    0    0  0.13428385672E-01 -0.16992132005E-01 -0.11774440460E-01  0.24651400365E-01  0.00000000000E+00 0.  1.
     999901    1    3    3    0    0 -0.92941075274E-02  0.54492329737E-01  0.13236804759E+00  0.89161488012E+00  0.88000000000E+00 0. -1.
        -11    1    4    4    0    0  0.62099857673E-02 -0.60329243216E-02 -0.21703898161E-01  0.23372642458E-01  0.51100000000E-03 0.  1.
         11    1    4    4    0    0 -0.10344263912E-01 -0.31467273410E-01 -0.98889708970E-01  0.10429107705E+00  0.51100000000E-03 0. -1.
</event>
<event>
 8    1  0.1104109E+005  0.1043930E+01  0.7957747E-01            NaN
         13   -1    0    0    0    0  0.00000000000E+00  0.00000000000E+00  0.74505805969E-08  0.10566000000E+00  0.10566000000E+00 0. -1.
     999900   -1    0    0    0    0 -0.00000000000E+00 -0.00000000000E+00 -0.74505805969E-08  0.93827000000E+00  0.93827000000E+00 0.  1.
     999902    2    1    2    0    0  0.54399914350E-02 -0.12058771084E-01  0.19303282852E-01  0.10205286283E+01  0.10202602889E+01 0.  0.
     999903    2    3    3    0    0 -0.76530144221E-01  0.62119908712E-02  0.10588066439E+00  0.13230086088E+00  0.19933662327E-01 0.  0.
         14    1    1    2    0    0 -0.54399914350E-02  0.12058771084E-01 -0.19303282852E-01  0.23401371663E-01  0.00000000000E+00 0.  1.
     999901    1    3    3    0    0  0.81970135656E-01 -0.18270761955E-01 -0.86577381538E-01  0.88822776745E+00  0.88000000000E+00 0.  1.
        -11    1    4    4    0    0 -0.26485630185E-01  0.15863517665E-02  0.53424360729E-01  0.59652565397E-01  0.51100000000E-03 0. -1.
         11    1    4    4    0    0 -0.50044514036E-01  0.46256391048E-02  0.52456303662E-01  0.72648295486E-01  0.51100000000E-03 0.  1.
</event>
<event>
 8    1  0.1104109E+005  0.1043930E+01  0.7957747E-01            NaN
         13   -1    0    0    0    0  0.00000000000E+00  0.00000000000E+00  0.74505805969E-08  0.10566000000E+00  0.10566000000E+00 0. -1.
     999900   -1    0    0    0    0 -0.00000000000E+00 -0.00000000000E+00 -0.74505805969E-08  0.93827000000E+00  0.93827000000E+00 0. -1.
     999902    2    1    2    0    0  0.69012021649E-05  0.62279885884E-02 -0.22330602483E-01  0.10207471681E+01  0.10204838742E+01 0.  0.
     999903    2    3    3    0    0  0.91252857998E-02  0.11806090222E+00  0.51145040862E-01  0.13058515153E+00  0.20372018084E-01 0.  0.
         14    1    1    2    0    0 -0.69012021649E-05 -0.62279885884E-02  0.22330602483E-01  0.23182831940E-01  0.00000000000E+00 0. -1.
     999901    1    3    3    0    0 -0.91183845977E-02 -0.11183291363E+00 -0.73475643346E-01  0.89016201653E+00  0.88000000000E+00 0. -1.
        -11    1    4    4    0    0  0.10312665484E-01  0.95347260253E-01  0.49100473272E-01  0.10774306801E+00  0.51100000000E-03 0.  1.
         11    1    4    4    0    0 -0.11873796839E-02  0.22713641969E-01  0.20445675907E-02  0.22842083522E-01  0.51100000000E-03 0. -1.
</event>
<event>
 8    1  0.1104109E+005  0.1043930E+01  0.7957747E-01            NaN
         13   -1    0    0    0    0  0.00000000000E+00  0.00000000000E+00  0.74505805969E-08  0.10566000000E+00  0.10566000000E+00 0. -1.
     999900   -1    0    0    0    0 -0.00000000000E+00 -0.00000000000E+00 -0.74505805969E-08  0.93827000000E+00  0.93827000000E+00 0.  1.
     999902    2    1    2    0    0  0.20532769260E-02 -0.20127256557E-01  0.12741484799E-01  0.10200204237E+01  0.10197401615E+01 0.  0.
     999903    2    3    3    0    0  0.11352722874E+00  0.37852510963E-01  0.48041924483E-01  0.13039453808E+00  0.19325237406E-01 0.  0.
         14    1    1    2    0    0 -0.20532769260E-02  0.20127256557E-01 -0.12741484799E-01  0.23909576272E-01  0.00000000000E+00 0.  1.
     999901    1    3    3    0    0 -0.11147395182E+00 -0.57979767520E-01 -0.35300439685E-01  0.88962588565E+00  0.88000000000E+00 0.  1.
        -11    1    4    4    0    0  0.76557483926E-01  0.27829115845E-01  0.41876459232E-01  0.91593706075E-01  0.51100000000E-03 0.  1.
         11    1    4    4    0    0  0.36969744815E-01  0.10023395118E-01  0.61654652517E-02  0.38800832003E-01  0.51100000000E-03 0. -1.
</event>
<event>
 7    1  0.1104109E+005  0.1043930E+01  0.7957747E-01            NaN
         13   -1    0    0    0    0  0.00000000000E+00  0.00000000000E+00  0.74505805969E-08  0.10566000000E+00  0.10566000000E+00 0.  1.
     999900   -1    0    0    0    0 -0.00000000000E+00 -0.00000000000E+00 -0.74505805969E-08  0.93827000000E+00  0.93827000000E+00 0. -1.
     999903    2    1    2    0    0  0.84436065848E-01  0.30492152424E-01 -0.42241385149E-01  0.10125425060E+00  0.20220486382E-01 0.  0.
         14    1    1    2    0    0  0.18632411312E-01 -0.50430482782E-01 -0.10853688060E-01  0.54847086426E-01  0.00000000000E+00 0.  1.
     999901    1    1    2    0    0 -0.10306847716E+00  0.19938330358E-01  0.53095073208E-01  0.88782866298E+00  0.88000000000E+00 0.  1.
        -11    1    3    3    0    0  0.64809877630E-01  0.22405281383E-01 -0.22260004963E-01  0.72097751797E-01  0.51100000000E-03 0.  1.
         11    1    3    3    0    0  0.19626188219E-01  0.80868710415E-02 -0.19981380185E-01  0.29156498802E-01  0.51100000000E-03 0. -1.
</event>
<event>
 8    1  0.1104109E+005  0.1043930E+01  0.7957747E-01            NaN
         13   -1    0    0    0    0  0.00000000000E+00  0.00000000000E+00  0.74505805969E-08  0.10566000000E+00  0.10566000000E+00 0.  1.
     999900   -1    0    0    0    0 -0.00000000000E+00 -0.00000000000E+00 -0.74505805969E-08  0.93827000000E+00  0.93827000000E+00 0.  1.
     999902    2    1    2    0    0 -0.17788464466E-01 -0.11773408855E-01 -0.11039993809E-01  0.10199107559E+01  0.10196278860E+01 0.  0.
     999903    2    3    3    0    0  0.80788034533E-01 -0.99778212328E-01  0.62173999326E-03  0.12996796693E+00  0.20220971512E-01 0.  0.
         14    1    1    2    0    0  0.17788464466E-01  0.11773408855E-01  0.11039993809E-01  0.24019244106E-01  0.00000000000E+00 0.  1.
     999901    1    3    3    0    0 -0.98576498999E-01  0.88004803473E-01 -0.11661733802E-01  0.88994278896E+00  0.88000000000E+00 0.  1.
        -11    1    4    4    0    0  0.14914595942E-01 -0.11264689696E-01  0.56021355665E-02  0.19518797349E-01  0.51100000000E-03 0. -1.
         11    1    4    4    0    0  0.65873438590E-01 -0.88513522632E-01 -0.49803955733E-02  0.11044916958E+00  0.51100000000E-03 0.  1.
</event>
<event>
 8    1  0.1104109E+005  0.1043930E+01  0.7957747E-01            NaN
         13   -1    0    0    0    0  0.00000000000E+00  0.00000000000E+00  0.74505805969E-08  0.10566000000E+00  0.10566000000E+00 0. -1.
     999900   -1    0    0    0    0 -0.00000000000E+00 -0.00000000000E+00 -0.74505805969E-08  0.93827000000E+00  0.93827000000E+00 0. -1.
     999902    2    1    2    0    0 -0.16193410611E-01 -0.71523777688E-02  0.12435028162E-01  0.10222963923E+01  0.10220674639E+01 0.  0.
     999903    2    3    3    0    0  0.49223884203E-01 -0.93072240706E-01 -0.75743867048E-01  0.13132099264E+00  0.20558135787E-01 0.  0.
         14    1    1    2    0    0  0.16193410611E-01  0.71523777688E-02 -0.12435028162E-01  0.21633607659E-01  0.00000000000E+00 0.  1.
     999901    1    3    3    0    0 -0.65417294814E-01  0.85919862937E-01  0.88178895210E-01  0.89097539970E+00  0.88000000000E+00 0.  1.
        -11    1    4    4    0    0  0.24271868628E-01 -0.54155597482E-01 -0.53970611046E-01  0.80218703075E-01  0.51100000000E-03 0.  1.
         11    1    4    4    0    0  0.24952015576E-01 -0.38916643224E-01 -0.21773256003E-01  0.51102289568E-01  0.51100000000E-03 0. -1.
</event>
<event>
 8    1  0.1104109E+005  0.1043930E+01  0.7957747E-01            NaN
         13   -1    0    0    0    0  0.00000000000E+00  0.00000000000E+00  0.74505805969E-08  0.10566000000E+00  0.10566000000E+00 0. -1.
     999900   -1    0    0    0    0 -0.00000000000E+00 -0.00000000000E+00 -0.74505805969E-08  0.93827000000E+00  0.93827000000E+00 0.  1.
     999902    2    1    2    0    0 -0.47197508634E-02  0.26954053680E-01 -0.95417135176E-02  0.10149499835E+01  0.10145361638E+01 0.  0.
     999903    2    3    3    0    0 -0.74168292063E-01  0.37929138690E-03 -0.10122087762E+00  0.12706801671E+00  0.19988381504E-01 0.  0.
         14    1    1    2    0    0  0.47197508634E-02 -0.26954053680E-01  0.95417135176E-02  0.28980016474E-01  0.00000000000E+00 0. -1.
     999901    1    3    3    0    0  0.69448541199E-01  0.26574762293E-01  0.91679164102E-01  0.88788196682E+00  0.88000000000E+00 0. -1.
        -11    1    4    4    0    0 -0.39071728453E-01 -0.33825674588E-02 -0.68503346880E-01  0.78936755581E-01  0.51100000000E-03 0. -1.
         11    1    4    4    0    0 -0.35096563610E-01  0.37618588457E-02 -0.32717530740E-01  0.48131261129E-01  0.51100000000E-03 0.  1.
</event>
<event>
 8    1  0.1104109E+005  0.1043930E+01  0.7957747E-01            NaN
         13   -1    0    0    0    0  0.00000000000E+00  0.00000000000E+00  0.74505805969E-08  0.10566000000E+00  0.10566000000E+00 0.  1.
     999900   -1    0    0    0    0 -0.00000000000E+00 -0.00000000000E+00 -0.74505805969E-08  0.93827000000E+00  0.93827000000E+00 0.  1.
     999902    2    1    2    0    0 -0.19816334850E-01 -0.12582102142E-01 -0.25389939774E-02  0.10203197710E+01  0.10200465638E+01 0.  0.
     999903    2    3    3    0    0 -0.77348085964E-01 -0.10520005965E+00  0.18436933850E-01  0.13334289536E+00  0.19764317838E-01 0.  0.
         14    1    1    2    0    0  0.19816334850E-01  0.12582102142E-01  0.25389939774E-02  0.23610228962E-01  0.00000000000E+00 0.  1.
     999901    1    3    3    0    0  0.57531751114E-01  0.92617957511E-01 -0.20975927828E-01  0.88697687568E+00  0.88000000000E+00 0.  1.
        -11    1    4    4    0    0 -0.61846011558E-01 -0.95284283768E-01  0.14515390728E-01  0.11452066000E+00  0.51100000000E-03 0. -1.
         11    1    4    4    0    0 -0.15502074406E-01 -0.99157758855E-02  0.39215431224E-02  0.18822235355E-01  0.51100000000E-03 0.  1.
</event>
<event>
 8    1  0.1104109E+005  0.1043930E+01  0.7957747E-01            NaN
         13   -1    0    0    0    0  0.00000000000E+00  0.00000000000E+00  0.74505805969E-08  0.10566000000E+00  0.10566000000E+00 0.  1.
     999900   -1    0    0    0    0 -0.00000000000E+00 -0.00000000000E+00 -0.74505805969E-08  0.93827000000E+00  0.93827000000E+00 0.  1.
     999902    2    1    2    0    0  0.19274774134E-01 -0.49186681936E-02  0.12734612937E-01  0.10203105042E+01  0.10200370799E+01 0.  0.
     999903    2    3    3    0    0 -0.11472825981E-01  0.76956214896E-01 -0.10060412838E+00  0.12874189682E+00  0.19985009471E-01 0.  0.
         14    1    1    2    0    0 -0.19274774134E-01  0.49186681936E-02 -0.12734612937E-01  0.23619495790E-01  0.00000000000E+00 0. -1.
     999901    1    3    3    0    0  0.30747600115E-01 -0.81874883090E-01  0.11333874132E+00  0.89156860739E+00  0.88000000000E+00 0. -1.
        -11    1    4    4    0    0 -0.75651584794E-02  0.37513281908E-01 -0.33789434628E-01  0.51053549885E-01  0.51100000000E-03 0. -1.
         11    1    4    4    0    0 -0.39076675019E-02  0.39442932988E-01 -0.66814693751E-01  0.77688346938E-01  0.51100000000E-03 0.  1.
</event>
<event>
 8    1  0.1104109E+005  0.1043930E+01  0.7957747E-01            NaN
         13   -1    0    0    0    0  0.00000000000E+00  0.00000000000E+00  0.74505805969E-08  0.10566000000E+00  0.10566000000E+00 0. -1.
     999900   -1    0    0    0    0 -0.00000000000E+00 -0.00000000000E+00 -0.74505805969E-08  0.93827000000E+00  0.93827000000E+00 0. -1.
     999902    2    1    2    0    0 -0.22321991652E-01  0.44787564109E-02  0.47522227593E-02  0.10206724380E+01  0.10204074242E+01 0.  0.
     999903    2    3    3    0    0 -0.20964985040E-02 -0.10600516427E+00  0.73949177928E-01  0.13083875356E+00  0.20219009875E-01 0.  0.
         14    1    1    2    0    0  0.22321991652E-01 -0.44787564109E-02 -0.47522227593E-02  0.23257562028E-01  0.00000000000E+00 0. -1.
     999901    1    3    3    0    0 -0.20225493148E-01  0.11048392068E+00 -0.69196955169E-01  0.88983368441E+00  0.88000000000E+00 0. -1.
        -11    1    4    4    0    0 -0.66113560180E-02 -0.85987637317E-01  0.66853260781E-01  0.10912013287E+00  0.51100000000E-03 0. -1.
         11    1    4    4    0    0  0.45148575141E-02 -0.20017526953E-01  0.70959171467E-02  0.21718620694E-01  0.51100000000E-03 0.  1.
</event>
<event>
 8    1  0.1104109E+005  0.1043930E+01  0.7957747E-01            NaN
         13   -1    0    0    0    0  0.00000000000E+00  0.00000000000E+00  0.74505805969E-08  0.10566000000E+00  0.10566000000E+00 0. -1.
     999900   -1    0    0    0    0 -0.00000000000E+00 -0.00000000000E+00 -0.74505805969E-08  0.93827000000E+00  0.93827000000E+00 0.  1.
     999902    2    1    2    0    0  0.10969551577E-01 -0.19994918736E-01  0.53842002618E-02  0.10204967448E+01  0.10202276651E+01 0.  0.
     999903    2    3    3    0    0 -0.11780685481E+00  0.10175988144E-01  0.49156002915E-01  0.12953680340E+00  0.19531129981E-01 0.  0.
         14    1    1    2    0    0 -0.10969551577E-01  0.19994918736E-01 -0.53842002618E-02  0.23433255205E-01  0.00000000000E+00 0.  1.
     999901    1    3    3    0    0  0.12877640638E+00 -0.30170906880E-01 -0.43771802653E-01  0.89095994139E+00  0.88000000000E+00 0.  1.
        -11    1    4    4    0    0 -0.58269385977E-01  0.98336708436E-02  0.33673570170E-01  0.68016122158E-01  0.51100000000E-03 0. -1.
         11    1    4    4    0    0 -0.59537468830E-01  0.34231730036E-03  0.15482432744E-01  0.61520681242E-01  0.51100000000E-03 0.  1.
</event>
<event>
 8    1  0.1104109E+005  0.1043930E+01  0.7957747E-01            NaN
         13   -1    0    0    0    0  0.00000000000E+00  0.00000000000E+00  0.74505805969E-08  0.10566000000E+00  0.10566000000E+00 0. -1.
     999900   -1    0    0    0    0 -0.00000000000E+00 -0.00000000000E+00 -0.74505805969E-08  0.93827000000E+00  0.93827000000E+00 0. -1.
     999902    2    1    2    0    0  0.15734840446E-01  0.25692032327E-02 -0.17438239925E-01  0.10203020881E+01  0.10200284666E+01 0.  0.
     999903    2    3    3    0    0  0.48568411597E-01  0.12276002818E-03 -0.12282808028E+00  0.13340240554E+00  0.18723216110E-01 0.  0.
         14    1    1    2    0    0 -0.15734840446E-01 -0.25692032327E-02  0.17438239925E-01  0.23627911900E-01  0.00000000000E+00 0. -1.
     999901    1    3    3    0    0 -0.32833571152E-01  0.24464432046E-02  0.10538984036E+00  0.88689968256E+00  0.88000000000E+00 0.  1.
        -11    1    4    4    0    0  0.27480826872E-01 -0.34856759733E-02 -0.46471876923E-01  0.54103994754E-01  0.51100000000E-03 0.  1.
         11    1    4    4    0    0  0.21087584725E-01  0.36084360015E-02 -0.76356203361E-01  0.79298410783E-01  0.51100000000E-03 0. -1.
</event>
<event>
 8    1  0.1104109E+005  0.1043930E+01  0.7957747E-01            NaN
         13   -1    0    0    0    0  0.00000000000E+00  0.00000000000E+00  0.74505805969E-08  0.10566000000E+00  0.10566000000E+00 0.  1.
     999900   -1    0    0    0    0 -0.00000000000E+00 -0.00000000000E+00 -0.74505805969E-08  0.93827000000E+00  0.93827000000E+00 0.  1.
     999902    2    1    2    0    0 -0.18273377745E-01 -0.19197458429E-02 -0.14575395584E-01  0.10204769850E+01  0.10202074460E+01 0.  0.
     999903    2    3    3    0    0  0.59544360629E-02  0.65704981727E-01 -0.11259546937E+00  0.13212568867E+00  0.20660540913E-01 0.  0.
         14    1    1    2    0    0  0.18273377745E-01  0.19197458429E-02  0.14575395584E-01  0.23453015046E-01  0.00000000000E+00 0.  1.
     999901    1    3    3    0    0 -0.24227813807E-01 -0.67624727570E-01  0.98020073790E-01  0.88835129628E+00  0.88000000000E+00 0. -1.
        -11    1    4    4    0    0  0.19566935221E-02  0.41101138412E-01 -0.50055232631E-01  0.64799071467E-01  0.51100000000E-03 0. -1.
         11    1    4    4    0    0  0.39977425409E-02  0.24603843315E-01 -0.62540236743E-01  0.67326617204E-01  0.51100000000E-03 0.  1.
</event>
<event>
 8    1  0.1104109E+005  0.1043930E+01  0.7957747E-01            NaN
         13   -1    0    0    0    0  0.00000000000E+00  0.00000000000E+00  0.74505805969E-08  0.10566000000E+00  0.10566000000E+00 0. -1.
     999900   -1    0    0    0    0 -0.00000000000E+00 -0.00000000000E+00 -0.74505805969E-08  0.93827000000E+00  0.93827000000E+00 0.  1.
     999902    2    1    2    0    0  0.18482247181E-01  0.55789140245E-02 -0.13545646754E-01  0.10203460587E+01  0.10200734665E+01 0.  0.
     999903    2    3    3    0    0  0.10543618366E+00 -0.19305070273E-01  0.73714636897E-01  0.13141717690E+00  0.18632018885E-01 0.  0.
         14    1    1    2    0    0 -0.18482247181E-01 -0.55789140245E-02  0.13545646754E-01  0.23583941328E-01  0.00000000000E+00 0.  1.
     999901    1    3    3    0    0 -0.86953936483E-01  0.24883984297E-01 -0.87260283651E-01  0.88892888177E+00  0.88000000000E+00 0. -1.
        -11    1    4    4    0    0  0.41207863318E-01  0.11534070685E-02  0.31449746379E-01  0.51853312483E-01  0.51100000000E-03 0.  1.
         11    1    4    4    0    0  0.64228320346E-01 -0.20458477341E-01  0.42264890518E-01  0.79563864418E-01  0.51100000000E-03 0. -1.
</event>
<event>
 8    1  0.1104109E+005  0.1043930E+01  0.7957747E-01            NaN
         13   -1    0    0    0    0  0.00000000000E+00  0.00000000000E+00  0.74505805969E-08  0.10566000000E+00  0.10566000000E+00 0. -1.
     999900   -1    0    0    0    0 -0.00000000000E+00 -0.00000000000E+00 -0.74505805969E-08  0.93827000000E+00  0.93827000000E+00 0. -1.
     999902    2    1    2    0    0 -0.18566657805E-01 -0.13954860942E-01  0.38604449802E-02  0.10203851075E+01  0.10201134279E+01 0.  0.
     999903    2    3    3    0    0 -0.55056306584E-01  0.61494886463E-01 -0.99015749902E-01  0.13043697965E+00  0.19921570593E-01 0.  0.
         14    1    1    2    0    0  0.18566657805E-01  0.13954860942E-01 -0.38604449802E-02  0.23544892469E-01  0.00000000000E+00 0.  1.
     999901    1    3    3    0    0  0.36489648779E-01 -0.75449747405E-01  0.10287619488E+00  0.88994812788E+00  0.88000000000E+00 0.  1.
        -11    1    4    4    0    0 -0.26575482705E-01  0.17920728775E-01 -0.46600899126E-01  0.56562476265E-01  0.51100000000E-03 0.  1.
         11    1    4    4    0    0 -0.28480823878E-01  0.43574157688E-01 -0.52414850776E-01  0.73874503382E-01  0.51100000000E-03 0. -1.
</event>
<event>
 8    1  0.1104109E+005  0.1043930E+01  0.7957747E-01            NaN
         13   -1    0    0    0    0  0.00000000000E+00  0.00000000000E+00  0.74505805969E-08  0.10566000000E+00  0.10566000000E+00 0. -1.
     999900   -1    0    0    0    0 -0.00000000000E+00 -0.00000000000E+00 -0.74505805969E-08  0.93827000000E+00  0.93827000000E+00 0. -1.
     999902    2    1    2    0    0  0.11585735073E-01 -0.11588265366E-01  0.17722088927E-01  0.10197931073E+01  0.10195074263E+01 0.  0.
     999903    2    3    3    0    0  0.46308834323E-01  0.85946555739E-01 -0.81043715439E-01  0.12823636822E+00  0.18578582920E-01 0.  0.
         14    1    1    2    0    0 -0.11585735073E-01  0.11588265366E-01 -0.17722088927E-01  0.24136892661E-01  0.00000000000E+00 0.  1.
     999901    1    3    3    0    0 -0.34723099251E-01 -0.97534821105E-01  0.98765804366E-01  0.89155673912E+00  0.88000000000E+00 0.  1.
        -11    1    4    4    0    0  0.12945759539E-01  0.31053831917E-01 -0.38774713557E-01  0.51338803056E-01  0.51100000000E-03 0.  1.
         11    1    4    4    0    0  0.33363074784E-01  0.54892723822E-01 -0.42269001882E-01  0.76897565168E-01  0.51100000000E-03 0. -1.
</event>
<event>
 8    1  0.1104109E+005  0.1043930E+01  0.7957747E-01            NaN
         13   -1    0    0    0    0  0.00000000000E+00  0.00000000000E+00  0.74505805969E-08  0.10566000000E+00  0.10566000000E+00 0.  1.
     999900   -1    0    0    0    0 -0.00000000000E+00 -0.00000000000E+00 -0.74505805969E-08  0.93827000000E+00  0.93827000000E+00 0. -1.
     999902    2    1    2    0    0 -0.89544709402E-02 -0.16935090120E-01  0.13959160186E-01  0.10202268783E+01  0.10199514916E+01 0.  0.
     999903    2    3    3    0    0  0.87983970030E-01  0.90957129403E-01  0.44638215109E-02  0.12830314058E+00  0.20673456648E-01 0.  0.
         14    1    1    2    0    0  0.89544709402E-02  0.16935090120E-01 -0.13959160186E-01  0.23703121741E-01  0.00000000000E+00 0. -1.
     999901    1    3    3    0    0 -0.96938440970E-01 -0.10789221952E+00  0.94953386751E-02  0.89192373767E+00  0.88000000000E+00 0. -1.
        -11    1    4    4    0    0  0.53658793828E-01  0.49896351942E-01  0.12012318235E-01  0.74252737340E-01  0.51100000000E-03 0. -1.
         11    1    4    4    0    0  0.34325176202E-01  0.41060777461E-01 -0.75484967238E-02  0.54050403243E-01  0.51100000000E-03 0.  1.
</event>
<event>
 8    1  0.1104109E+005  0.1043930E+01  0.7957747E-01            NaN
         13   -1    0    0    0    0  0.00000000000E+00  0.00000000000E+00  0.74505805969E-08  0.10566000000E+00  0.10566000000E+00 0.  1.
     999900   -1    0    0    0    0 -0.00000000000E+00 -0.00000000000E+00 -0.74505805969E-08  0.93827000000E+00  0.93827000000E+00 0. -1.
     999902    2    1    2    0    0 -0.25797365152E-01  0.21794284118E-02  0.32133303934E-02  0.10178420823E+01  0.10175077027E+01 0.  0.
     999903    2    3    3    0    0 -0.12816225001E+00  0.43155210283E-02  0.21849609885E-01  0.13170978776E+00  0.20636780048E-01 0.  0.
         14    1    1    2    0    0  0.25797365152E-01 -0.21794284118E-02 -0.32133303934E-02  0.26087917686E-01  0.00000000000E+00 0. -1.
     999901    1    3    3    0    0  0.10236488485E+00 -0.21360926165E-02 -0.18636279491E-01  0.88613229456E+00  0.88000000000E+00 0.  1.
        -11    1    4    4    0    0 -0.92946950232E-01 -0.58470621817E-02  0.13382391660E-01  0.94088645549E-01  0.51100000000E-03 0.  1.
         11    1    4    4    0    0 -0.35215299773E-01  0.10162583210E-01  0.84672182248E-02  0.37621142208E-01  0.51100000000E-03 0. -1.
</event>
<event>
 8    1  0.1104109E+005  0.1043930E+01  0.7957747E-01            NaN
         13   -1    0    0    0    0  0.00000000000E+00  0.00000000000E+00  0.74505805969E-08  0.10566000000E+00  0.10566000000E+00 0.  1.
     999900   -1    0    0    0    0 -0.00000000000E+00 -0.00000000000E+00 -0.74505805969E-08  0.93827000000E+00  0.93827000000E+00 0. -1.
     999902    2    1    2    0    0  0.16697422911E-01 -0.15619321882E-01 -0.55223027215E-02  0.10204084572E+01  0.10201373224E+01 0.  0.
     999903    2    3    3    0    0 -0.14596309710E-02  0.12660932667E+00  0.10740801806E-01  0.12865560151E+00  0.20120806537E-01 0.  0.
         14    1    1    2    0    0 -0.16697422911E-01  0.15619321882E-01  0.55223027215E-02  0.23521542791E-01  0.00000000000E+00 0.  1.
     999901    1    3    3    0    0  0.18157053882E-01 -0.14222864855E+00 -0.16263104527E-01  0.89175285570E+00  0.88000000000E+00 0. -1.
        -11    1    4    4    0    0 -0.47367014499E-02  0.38819666100E-01  0.11614299939E-01  0.40798969360E-01  0.51100000000E-03 0. -1.
         11    1    4    4    0    0  0.32770704788E-02  0.87789660566E-01 -0.87349813353E-03  0.87856632152E-01  0.51100000000E-03 0.  1.
</event>
<event>
 8    1  0.1104109E+005  0.1043930E+01  0.7957747E-01            NaN
         13   -1    0    0    0    0  0.00000000000E+00  0.00000000000E+00  0.74505805969E-08  0.10566000000E+00  0.10566000000E+00 0.  1.
     999900   -1    0    0    0    0 -0.00000000000E+00 -0.00000000000E+00 -0.74505805969E-08  0.93827000000E+00  0.93827000000E+00 0. -1.
     999902    2    1    2    0    0 -0.89646595270E-02 -0.13694092038E-01 -0.19604518324E-01  0.10183911978E+01  0.10180709216E+01 0.  0.
     999903    2    3    3    0    0  0.68542539207E-01 -0.61465600884E-01  0.85931934903E-01  0.12742126239E+00  0.19385068990E-01 0.  0.
         14    1    1    2    0    0  0.89646595270E-02  0.13694092038E-01  0.19604518324E-01  0.25538802162E-01  0.00000000000E+00 0.  1.
     999901    1    3    3    0    0 -0.77507198734E-01  0.47771508846E-01 -0.10553645323E+00  0.89096993545E+00  0.88000000000E+00 0. -1.
        -11    1    4    4    0    0  0.21732800528E-01 -0.96559647680E-02  0.16489573998E-01  0.28943383459E-01  0.51100000000E-03 0. -1.
         11    1    4    4    0    0  0.46809738679E-01 -0.51809636116E-01  0.69442360905E-01  0.98477878931E-01  0.51100000000E-03 0.  1.
</event>
<event>
 8    1  0.1104109E+005  0.1043930E+01  0.7957747E-01            NaN
         13   -1    0    0    0    0  0.00000000000E+00  0.00000000000E+00  0.74505805969E-08  0.10566000000E+00  0.10566000000E+00 0.  1.
     999900   -1    0    0    0    0 -0.00000000000E+00 -0.00000000000E+00 -0.74505805969E-08  0.93827000000E+00  0.93827000000E+00 0.  1.
     999902    2    1    2    0    0 -0.64567774478E-02 -0.14453448290E-01  0.17189990085E-01  0.10205614763E+01  0.10202938983E+01 0.  0.
     999903    2    3    3    0    0 -0.24630470959E-01 -0.11929061629E+00 -0.46513536884E-01  0.13186622238E+00  0.19704828276E-01 0.  0.
         14    1    1    2    0    0  0.64567774478E-02  0.14453448290E-01 -0.17189990085E-01  0.23368523736E-01  0.00000000000E+00 0. -1.
     999901    1    3    3    0    0  0.18173693511E-01  0.10483716800E+00  0.63703526969E-01  0.88869525388E+00  0.88000000000E+00 0. -1.
        -11    1    4    4    0    0 -0.16789077357E-01 -0.10017383478E+00 -0.45142327082E-01  0.11115197303E+00  0.51100000000E-03 0. -1.
         11    1    4    4    0    0 -0.78413936020E-02 -0.19116781502E-01 -0.13712098023E-02  0.20714249345E-01  0.51100000000E-03 0.  1.
</event>
<event>
 8    1  0.1104109E+005  0.1043930E+01  0.7957747E-01            NaN
         13   -1    0    0    0    0  0.00000000000E+00  0.00000000000E+00  0.74505805969E-08  0.10566000000E+00  0.10566000000E+00 0.  1.
     999900   -1    0    0    0    0 -0.00000000000E+00 -0.00000000000E+00 -0.74505805969E-08  0.93827000000E+00  0.93827000000E+00 0.  1.
     999902    2    1    2    0    0 -0.11728197726E-01  0.49972786837E-02 -0.17538999124E-01  0.10222472902E+01  0.10220173102E+01 0.  0.
     999903    2    3    3    0    0  0.57323102222E-01 -0.47947636689E-01  0.10405522180E+00  0.12963516798E+00  0.19821041379E-01 0.  0.
         14    1    1    2    0    0  0.11728197726E-01 -0.49972786837E-02  0.17538999124E-01  0.21682709850E-01  0.00000000000E+00 0.  1.
     999901    1    3    3    0    0 -0.69051299948E-01  0.52944915372E-01 -0.12159422092E+00  0.89261212217E+00  0.88000000000E+00 0.  1.
        -11    1    4    4    0    0  0.53175158442E-01 -0.49232466025E-01  0.94171042148E-01  0.11882709913E+00  0.51100000000E-03 0. -1.
         11    1    4    4    0    0  0.41479437793E-02  0.12848293359E-02  0.98841796475E-02  0.10808068853E-01  0.51100000000E-03 0.  1.
</event>
<event>
 8    1  0.1104109E+005  0.1043930E+01  0.7957747E-01            NaN
         13   -1    0    0    0    0  0.00000000000E+00  0.00000000000E+00  0.74505805969E-08  0.10566000000E+00  0.10566000000E+00 0.  1.
     999900   -1    0    0    0    0 -0.00000000000E+00 -0.00000000000E+00 -0.74505805969E-08  0.93827000000E+00  0.93827000000E+00 0. -1.
     999902    2    1    2    0    0 -0.10920076218E-02  0.27616052467E-01 -0.20647222941E-01  0.10094314979E+01  0.10088418123E+01 0.  0.
     999903    2    3    3    0    0  0.12546227546E-01  0.99789380477E-02 -0.12078766615E+00  0.12347146624E+00  0.19963858623E-01 0.  0.
         14    1    1    2    0    0  0.10920076218E-02 -0.27616052467E-01  0.20647222941E-01  0.34498502137E-01  0.00000000000E+00 0.  1.
     999901    1    3    3    0    0 -0.13638235168E-01  0.17637114420E-01  0.10014044321E+00  0.88596003162E+00  0.88000000000E+00 0.  1.
        -11    1    4    4    0    0  0.12392942586E-02 -0.27497644542E-02 -0.66590353958E-01  0.66660583676E-01  0.51100000000E-03 0.  1.
         11    1    4    4    0    0  0.11306933288E-01  0.12728702502E-01 -0.54197312195E-01  0.56810882566E-01  0.51100000000E-03 0. -1.
</event>
<event>
 8    1  0.1104109E+005  0.1043930E+01  0.7957747E-01            NaN
         13   -1    0    0    0    0  0.00000000000E+00  0.00000000000E+00  0.74505805969E-08  0.10566000000E+00  0.10566000000E+00 0. -1.
     999900   -1    0    0    0    0 -0.00000000000E+00 -0.00000000000E+00 -0.74505805969E-08  0.93827000000E+00  0.93827000000E+00 0.  1.
     999902    2    1    2    0    0 -0.10619514360E-01 -0.87778012048E-03 -0.24349361861E-01  0.10173511361E+01  0.10170038830E+01 0.  0.
     999903    2    3    3    0    0 -0.23978531994E-01 -0.11298909987E+00  0.47111979699E-01  0.12726454778E+00  0.25203567306E-01 0.  0.
         14    1    1    2    0    0  0.10619514360E-01  0.87778012048E-03  0.24349361861E-01  0.26578863900E-01  0.00000000000E+00 0. -1.
     999901    1    3    3    0    0  0.13359017635E-01  0.11211131975E+00 -0.71461341561E-01  0.89008658832E+00  0.88000000000E+00 0.  1.
        -11    1    4    4    0    0  0.24288556360E-02 -0.28270888050E-01  0.19099829964E-01  0.34208289587E-01  0.51100000000E-03 0.  1.
         11    1    4    4    0    0 -0.26407387630E-01 -0.84718211819E-01  0.28012149736E-01  0.93056258194E-01  0.51100000000E-03 0. -1.
</event>
<event>
 8    1  0.1104109E+005  0.1043930E+01  0.7957747E-01            NaN
         13   -1    0    0    0    0  0.00000000000E+00  0.00000000000E+00  0.74505805969E-08  0.10566000000E+00  0.10566000000E+00 0. -1.
     999900   -1    0    0    0    0 -0.00000000000E+00 -0.00000000000E+00 -0.74505805969E-08  0.93827000000E+00  0.93827000000E+00 0. -1.
     999902    2    1    2    0    0  0.13380107018E-01 -0.56693174222E-02  0.19303552866E-01  0.10197681380E+01  0.10194818584E+01 0.  0.
     999903    2    3    3    0    0 -0.11401286851E+00  0.12065407234E-02 -0.53904966199E-01  0.12755979071E+00  0.19114520654E-01 0.  0.
         14    1    1    2    0    0 -0.13380107018E-01  0.56693174222E-02 -0.19303552866E-01  0.24161862038E-01  0.00000000000E+00 0.  1.
     999901    1    3    3    0    0  0.12739297553E+00 -0.68758581456E-02  0.73208519065E-01  0.89220834725E+00  0.88000000000E+00 0.  1.
        -11    1    4    4    0    0 -0.64116017540E-01 -0.37720819282E-02 -0.20974836786E-01  0.67566983110E-01  0.51100000000E-03 0.  1.
         11    1    4    4    0    0 -0.49896850967E-01  0.49786226516E-02 -0.32930129413E-01  0.59992807603E-01  0.51100000000E-03 0. -1.
</event>
<event>
 8    1  0.1104109E+005  0.1043930E+01  0.7957747E-01            NaN
         13   -1    0    0    0    0  0.00000000000E+00  0.00000000000E+00  0.74505805969E-08  0.10566000000E+00  0.10566000000E+00 0.  1.
     999900   -1    0    0    0    0 -0.00000000000E+00 -0.00000000000E+00 -0.74505805969E-08  0.93827000000E+00  0.93827000000E+00 0. -1.
     999902    2    1    2    0    0 -0.18701522622E-01 -0.14515465837E-01 -0.18441294818E-02  0.10201845476E+01  0.10199081648E+01 0.  0.
     999903    2    3    3    0    0 -0.30310924118E-01 -0.11240585256E+00  0.59865281194E-01  0.13253295074E+00  0.20671316567E-01 0.  0.
         14    1    1    2    0    0  0.18701522622E-01  0.14515465837E-01  0.18441294818E-02  0.23745452415E-01  0.00000000000E+00 0.  1.
     999901    1    3    3    0    0  0.11609401496E-01  0.97890386724E-01 -0.61709410676E-01  0.88765159685E+00  0.88000000000E+00 0. -1.
        -11    1    4    4    0    0 -0.30086173791E-01 -0.97985439797E-01  0.58541710535E-01  0.11804116764E+00  0.51100000000E-03 0.  1.
         11    1    4    4    0    0 -0.22475032736E-03 -0.14420412764E-01  0.13235706586E-02  0.14491783095E-01  0.51100000000E-03 0. -1.
</event>
<event>
 8    1  0.1104109E+005  0.1043930E+01  0.7957747E-01            NaN
         13   -1    0    0    0    0  0.00000000000E+00  0.00000000000E+00  0.74505805969E-08  0.10566000000E+00  0.10566000000E+00 0. -1.
     999900   -1    0    0    0    0 -0.00000000000E+00 -0.00000000000E+00 -0.74505805969E-08  0.93827000000E+00  0.93827000000E+00 0. -1.
     999902    2    1    2    0    0 -0.31134117924E-02 -0.23535569850E-01  0.80231816760E-03  0.10201758405E+01  0.10198992526E+01 0.  0.
     999903    2    3    3    0    0 -0.80427252704E-01 -0.10404794445E+00  0.75331980497E-02  0.13309919371E+00  0.19082153236E-01 0.  0.
         14    1    1    2    0    0  0.31134117924E-02  0.23535569850E-01 -0.80231816760E-03  0.23754159543E-01  0.00000000000E+00 0.  1.
     999901    1    3    3    0    0  0.77313840911E-01  0.80512374598E-01 -0.67308798821E-02  0.88707664675E+00  0.88000000000E+00 0. -1.
        -11    1    4    4    0    0 -0.13601657416E-01 -0.28368146114E-01 -0.29077354338E-02  0.31598620932E-01  0.51100000000E-03 0.  1.
         11    1    4    4    0    0 -0.66825595287E-01 -0.75679798334E-01  0.10440933484E-01  0.10150057278E+00  0.51100000000E-03 0. -1.
</event>
<event>
 8    1  0.1104109E+005  0.1043930E+01  0.7957747E-01            NaN
         13   -1    0    0    0    0  0.00000000000E+00  0.00000000000E+00  0.74505805969E-08  0.10566000000E+00  0.10566000000E+00 0. -1.
     999900   -1    0    0    0    0 -0.00000000000E+00 -0.00000000000E+00 -0.74505805969E-08  0.93827000000E+00  0.93827000000E+00 0.  1.
     999902    2    1    2    0    0  0.18524269612E-02 -0.63456369101E-02  0.22833890621E-01  0.10201584802E+01  0.10198814831E+01 0.  0.
     999903    2    3    3    0    0  0.34950247270E-01 -0.92705732354E-01  0.86328290647E-01  0.13303669000E+00  0.20744023797E-01 0.  0.
         14    1    1    2    0    0 -0.18524269612E-02  0.63456369101E-02 -0.22833890621E-01  0.23771519815E-01  0.00000000000E+00 0.  1.
     999901    1    3    3    0    0 -0.33097820309E-01  0.86360095444E-01 -0.63494400027E-01  0.88712179019E+00  0.88000000000E+00 0.  1.
        -11    1    4    4    0    0  0.19200579526E-01 -0.37928781073E-01  0.49142394900E-01  0.64980695482E-01  0.51100000000E-03 0.  1.
         11    1    4    4    0    0  0.15749667745E-01 -0.54776951281E-01  0.37185895748E-01  0.68055994513E-01  0.51100000000E-03 0. -1.
</event>
<event>
 8    1  0.1104109E+005  0.1043930E+01  0.7957747E-01            NaN
         13   -1    0    0    0    0  0.00000000000E+00  0.00000000000E+00  0.74505805969E-08  0.10566000000E+00  0.10566000000E+00 0.  1.
     999900   -1    0    0    0    0 -0.00000000000E+00 -0.00000000000E+00 -0.74505805969E-08  0.93827000000E+00  0.93827000000E+00 0.  1.
     999902    2    1    2    0    0 -0.17962310154E-01  0.15677263436E-01 -0.29052179159E-02  0.10199120595E+01  0.10196292207E+01 0.  0.
     999903    2    3    3    0    0  0.95278740704E-01  0.48154808823E-01  0.70423561275E-01  0.12903864738E+00  0.17163056039E-01 0.  0.
         14    1    1    2    0    0  0.17962310154E-01 -0.15677263436E-01  0.29052179159E-02  0.24017940504E-01  0.00000000000E+00 0.  1.
     999901    1    3    3    0    0 -0.11324105086E+00 -0.32477545387E-01 -0.73328779191E-01  0.89087341211E+00  0.88000000000E+00 0. -1.
        -11    1    4    4    0    0  0.91356368531E-01  0.41512405257E-01  0.64353989331E-01  0.11920974342E+00  0.51100000000E-03 0. -1.
         11    1    4    4    0    0  0.39223721729E-02  0.66424035662E-02  0.60695719434E-02  0.98289039661E-02  0.51100000000E-03 0.  1.
</event>
<event>
 8    1  0.1104109E+005  0.1043930E+01  0.7957747E-01            NaN
         13   -1    0    0    0    0  0.00000000000E+00  0.00000000000E+00  0.74505805969E-08  0.10566000000E+00  0.10566000000E+00 0.  1.
     999900   -1    0    0    0    0 -0.00000000000E+00 -0.00000000000E+00 -0.74505805969E-08  0.93827000000E+00  0.93827000000E+00 0.  1.
     999902    2    1    2    0    0  0.55594840577E-02 -0.22877779591E-01  0.21961030653E-02  0.10202842069E+01  0.10200101663E+01 0.  0.
     999903    2    3    3    0    0 -0.92008379457E-01  0.45802183115E-01 -0.75179063351E-01  0.12886772645E+00  0.19789327560E-01 0.  0.
         14    1    1    2    0    0 -0.55594840577E-02  0.22877779591E-01 -0.21961030653E-02  0.23645793086E-01  0.00000000000E+00 0.  1.
     999901    1    3    3    0    0  0.97567863515E-01 -0.68679962705E-01  0.77375166416E-01  0.89141648047E+00  0.88000000000E+00 0.  1.
        -11    1    4    4    0    0 -0.35728341717E-01  0.24583212260E-01 -0.41011692561E-01  0.59691446410E-01  0.51100000000E-03 0.  1.
         11    1    4    4    0    0 -0.56280037741E-01  0.21218970855E-01 -0.34167370790E-01  0.69176280038E-01  0.51100000000E-03 0. -1.
</event>
<event>
 8    1  0.1104109E+005  0.1043930E+01  0.7957747E-01            NaN
         13   -1    0    0    0    0  0.00000000000E+00  0.00000000000E+00  0.74505805969E-08  0.10566000000E+00  0.10566000000E+00 0. -1.
     999900   -1    0    0    0    0 -0.00000000000E+00 -0.00000000000E+00 -0.74505805969E-08  0.93827000000E+00  0.93827000000E+00 0. -1.
     999902    2    1    2    0    0  0.19051282635E-01 -0.72100053335E-02  0.13025977364E-01  0.10197512566E+01  0.10194645721E+01 0.  0.
     999903    2    3    3    0    0 -0.48481384722E-01  0.67881031575E-01 -0.94192806228E-01  0.12750958947E+00  0.20691339938E-01 0.  0.
         14    1    1    2    0    0 -0.19051282635E-01  0.72100053335E-02 -0.13025977364E-01  0.24178743418E-01  0.00000000000E+00 0.  1.
     999901    1    3    3    0    0  0.67532667357E-01 -0.75091036909E-01  0.10721878359E+00  0.89224166712E+00  0.88000000000E+00 0.  1.
        -11    1    4    4    0    0 -0.61385867297E-02  0.93528464169E-02 -0.38655504123E-02  0.11847429431E-01  0.51100000000E-03 0. -1.
         11    1    4    4    0    0 -0.42342797992E-01  0.58528185158E-01 -0.90327255815E-01  0.11566216003E+00  0.51100000000E-03 0.  1.
</event>
<event>
 8    1  0.1104109E+005  0.1043930E+01  0.7957747E-01            NaN
         13   -1    0    0    0    0  0.00000000000E+00  0.00000000000E+00  0.74505805969E-08  0.10566000000E+00  0.10566000000E+00 0. -1.
     999900   -1    0    0    0    0 -0.00000000000E+00 -0.00000000000E+00 -0.74505805969E-08  0.93827000000E+00  0.93827000000E+00 0. -1.
     999902    2    1    2    0    0  0.90503745829E-02 -0.21524153481E-01 -0.35564327395E-02  0.10203112219E+01  0.10200378145E+01 0.  0.
     999903    2    3    3    0    0  0.75781804556E-01  0.47062077201E-01  0.91979720174E-01  0.12998301768E+00  0.21853945878E-01 0.  0.
         14    1    1    2    0    0 -0.90503745829E-02  0.21524153481E-01  0.35564327395E-02  0.23618778059E-01  0.00000000000E+00 0. -1.
     999901    1    3    3    0    0 -0.66731429973E-01 -0.68586230682E-01 -0.95536152913E-01  0.89032820426E+00  0.88000000000E+00 0. -1.
        -11    1    4    4    0    0  0.94650743525E-02  0.44420877706E-02  0.22846672674E-01  0.25130685417E-01  0.51100000000E-03 0. -1.
         11    1    4    4    0    0  0.66316730203E-01  0.42619989431E-01  0.69133047500E-01  0.10485233227E+00  0.51100000000E-03 0.  1.
</event>
<event>
 8    1  0.1104109E+005  0.1043930E+01  0.7957747E-01            NaN
         13   -1    0    0    0    0  0.00000000000E+00  0.00000000000E+00  0.74505805969E-08  0.10566000000E+00  0.10566000000E+00 0.  1.
     999900   -1    0    0    0    0 -0.00000000000E+00 -0.00000000000E+00 -0.74505805969E-08  0.93827000000E+00  0.93827000000E+00 0. -1.
     999902    2    1    2    0    0 -0.14755947688E-01 -0.18163305759E-01  0.35786924228E-02  0.10202561598E+01  0.10199814611E+01 0.  0.
     999903    2    3    3    0    0  0.11246096610E+00 -0.56361134500E-01  0.23047875380E-01  0.13007512974E+00  0.23754756147E-01 0.  0.
         14    1    1    2    0    0  0.14755947688E-01  0.18163305759E-01 -0.35786924228E-02  0.23673840155E-01  0.00000000000E+00 0.  1.
     999901    1    3    3    0    0 -0.12721691378E+00  0.38197828741E-01 -0.19469182958E-01  0.89018103010E+00  0.88000000000E+00 0. -1.
        -11    1    4    4    0    0  0.21407647708E-01 -0.12132928460E-02  0.18109526320E-02  0.21524407782E-01  0.51100000000E-03 0.  1.
         11    1    4    4    0    0  0.91053318389E-01 -0.55147841654E-01  0.21236922748E-01  0.10855072196E+00  0.51100000000E-03 0. -1.
</event>
<event>
 8    1  0.1104109E+005  0.1043930E+01  0.7957747E-01            NaN
         13   -1    0    0    0    0  0.00000000000E+00  0.00000000000E+00  0.74505805969E-08  0.10566000000E+00  0.10566000000E+00 0. -1.
     999900   -1    0    0    0    0 -0.00000000000E+00 -0.00000000000E+00 -0.74505805969E-08  0.93827000000E+00  0.93827000000E+00 0.  1.
     999902    2    1    2    0    0  0.24000859844E-01  0.10523641518E-02 -0.12161218434E-01  0.10170033593E+01  0.10166468359E+01 0.  0.
     999903    2    3    3    0    0  0.46267411397E-01  0.57665173388E-01 -0.10524242610E+00  0.13000565883E+00  0.18962001382E-01 0.  0.
         14    1    1    2    0    0 -0.24000859844E-01 -0.10523641518E-02  0.12161218434E-01  0.26926640662E-01  0.00000000000E+00 0. -1.
     999901    1    3    3    0    0 -0.22266551553E-01 -0.56612809236E-01  0.93081207668E-01  0.88699770051E+00  0.88000000000E+00 0. -1.
        -11    1    4    4    0    0  0.35998792589E-01  0.30290506488E-01 -0.66763438420E-01  0.81676469573E-01  0.51100000000E-03 0. -1.
         11    1    4    4    0    0  0.10268618807E-01  0.27374666900E-01 -0.38478987682E-01  0.48329189256E-01  0.51100000000E-03 0.  1.
</event>
<event>
 8    1  0.1104109E+005  0.1043930E+01  0.7957747E-01            NaN
         13   -1    0    0    0    0  0.00000000000E+00  0.00000000000E+00  0.74505805969E-08  0.10566000000E+00  0.10566000000E+00 0. -1.
     999900   -1    0    0    0    0 -0.00000000000E+00 -0.00000000000E+00 -0.74505805969E-08  0.93827000000E+00  0.93827000000E+00 0. -1.
     999902    2    1    2    0    0  0.57380407032E-03  0.37891848818E-02 -0.23438517782E-01  0.10201802360E+01  0.10199037517E+01 0.  0.
     999903    2    3    3    0    0 -0.41733886136E-02 -0.47495296775E-01  0.11682987656E+00  0.12758410319E+00  0.18848420096E-01 0.  0.
         14    1    1    2    0    0 -0.57380407032E-03 -0.37891848818E-02  0.23438517782E-01  0.23749763978E-01  0.00000000000E+00 0. -1.
     999901    1    3    3    0    0  0.47471926839E-02  0.51284481657E-01 -0.14026839435E+00  0.89259613283E+00  0.88000000000E+00 0. -1.
        -11    1    4    4    0    0  0.74767573641E-02 -0.19121980253E-01  0.43996022659E-01  0.48553714176E-01  0.51100000000E-03 0. -1.
         11    1    4    4    0    0 -0.11650145978E-01 -0.28373316521E-01  0.72833853906E-01  0.79030389013E-01  0.51100000000E-03 0.  1.
</event>
<event>
 8    1  0.1104109E+005  0.1043930E+01  0.7957747E-01            NaN
         13   -1    0    0    0    0  0.00000000000E+00  0.00000000000E+00  0.74505805969E-08  0.10566000000E+00  0.10566000000E+00 0.  1.
     999900   -1    0    0    0    0 -0.00000000000E+00 -0.00000000000E+00 -0.74505805969E-08  0.93827000000E+00  0.93827000000E+00 0. -1.
     999902    2    1    2    0    0  0.63568465395E-02  0.17975203853E-01 -0.14563447067E-01  0.10199380963E+01  0.10196558777E+01 0.  0.
     999903    2    3    3    0    0  0.14599406046E-01 -0.48773811469E-02 -0.12984470412E+00  0.13208678633E+00  0.18717383104E-01 0.  0.
         14    1    1    2    0    0 -0.63568465395E-02 -0.17975203853E-01  0.14563447067E-01  0.23991903676E-01  0.00000000000E+00 0. -1.
     999901    1    3    3    0    0 -0.82425595070E-02  0.22852585000E-01  0.11528125706E+00  0.88785130999E+00  0.88000000000E+00 0.  1.
        -11    1    4    4    0    0  0.26904064440E-02  0.69126921331E-02 -0.36801609787E-01  0.37545215452E-01  0.51100000000E-03 0.  1.
         11    1    4    4    0    0  0.11908999602E-01 -0.11790073280E-01 -0.93043094337E-01  0.94541570879E-01  0.51100000000E-03 0. -1.
</event>
<event>
 8    1  0.1104109E+005  0.1043930E+01  0.7957747E-01            NaN
         13   -1    0    0    0    0  0.00000000000E+00  0.00000000000E+00  0.74505805969E-08  0.10566000000E+00  0.10566000000E+00 0. -1.
     999900   -1    0    0    0    0 -0.00000000000E+00 -0.00000000000E+00 -0.74505805969E-08  0.93827000000E+00  0.93827000000E+00 0.  1.
     999902    2    1    2    0    0  0.91378040216E-02  0.22501349071E-01  0.13563451055E-02  0.10196061466E+01  0.10193159688E+01 0.  0.
     999903    2    3    3    0    0 -0.12569537686E-01  0.65425916717E-02  0.12844599100E+00  0.13006825043E+00  0.14784396559E-01 0.  0.
         14    1    1    2    0    0 -0.91378040216E-02 -0.22501349071E-01 -0.13563451055E-02  0.24323853404E-01  0.00000000000E+00 0. -1.
     999901    1    3    3    0    0  0.21707341707E-01  0.15958757400E-01 -0.12708964590E+00  0.88953789617E+00  0.88000000000E+00 0.  1.
        -11    1    4    4    0    0 -0.86133358050E-02  0.10856617348E-01  0.72487456072E-01  0.73802087387E-01  0.51100000000E-03 0.  1.
         11    1    4    4    0    0 -0.39562018806E-02 -0.43140256762E-02  0.55958534931E-01  0.56266163042E-01  0.51100000000E-03 0. -1.
</event>
<event>
 8    1  0.1104109E+005  0.1043930E+01  0.7957747E-01            NaN
         13   -1    0    0    0    0  0.00000000000E+00  0.00000000000E+00  0.74505805969E-08  0.10566000000E+00  0.10566000000E+00 0. -1.
     999900   -1    0    0    0    0 -0.00000000000E+00 -0.00000000000E+00 -0.74505805969E-08  0.93827000000E+00  0.93827000000E+00 0. -1.
     999902    2    1    2    0    0 -0.79978576052E-02  0.45551110516E-02 -0.22121639392E-01  0.10199699981E+01  0.10196885384E+01 0.  0.
     999903    2    3    3    0    0 -0.79600025691E-01  0.42757019445E-01 -0.95737623065E-01  0.13317488683E+00  0.20137805467E-01 0.  0.
         14    1    1    2    0    0  0.79978576052E-02 -0.45551110516E-02  0.22121639392E-01  0.23960001927E-01  0.00000000000E+00 0. -1.
     999901    1    3    3    0    0  0.71602168086E-01 -0.38201908393E-01  0.73615983673E-01  0.88679511125E+00  0.88000000000E+00 0.  1.
        -11    1    4    4    0    0 -0.28821339200E-01  0.20992107813E-01 -0.50209218611E-01  0.61583804188E-01  0.51100000000E-03 0. -1.
         11    1    4    4    0    0 -0.50778686492E-01  0.21764911631E-01 -0.45528404454E-01  0.71591082638E-01  0.51100000000E-03 0.  1.
</event>
<event>
 8    1  0.1104109E+005  0.1043930E+01  0.7957747E-01            NaN
         13   -1    0    0    0    0  0.00000000000E+00  0.00000000000E+00  0.74505805969E-08  0.10566000000E+00  0.10566000000E+00 0. -1.
     999900   -1    0    0    0    0 -0.00000000000E+00 -0.00000000000E+00 -0.74505805969E-08  0.93827000000E+00  0.93827000000E+00 0. -1.
     999902    2    1    2    0    0  0.10658356503E-01 -0.36914437209E-02  0.20810791679E-01  0.10202589973E+01  0.10199843651E+01 0.  0.
     999903    2    3    3    0    0 -0.11932689312E+00  0.38472573722E-01  0.26655201784E-01  0.12969281409E+00  0.19765624020E-01 0.  0.
         14    1    1    2    0    0 -0.10658356503E-01  0.36914437209E-02 -0.20810791679E-01  0.23671002734E-01  0.00000000000E+00 0.  1.
     999901    1    3    3    0    0  0.12998524963E+00 -0.42164017443E-01 -0.58444101050E-02  0.89056618318E+00  0.88000000000E+00 0. -1.
        -11    1    4    4    0    0 -0.36422507445E-01  0.24924227012E-02  0.62744322069E-02  0.37046468658E-01  0.51100000000E-03 0.  1.
         11    1    4    4    0    0 -0.82904385680E-01  0.35980151021E-01  0.20380769577E-01  0.92646345432E-01  0.51100000000E-03 0. -1.
</event>
<event>
 8    1  0.1104109E+005  0.1043930E+01  0.7957747E-01            NaN
         13   -1    0    0    0    0  0.00000000000E+00  0.00000000000E+00  0.74505805969E-08  0.10566000000E+00  0.10566000000E+00 0.  1.
     999900   -1    0    0    0    0 -0.00000000000E+00 -0.00000000000E+00 -0.74505805969E-08  0.93827000000E+00  0.93827000000E+00 0.  1.
     999902    2    1    2    0    0  0.46554908571E-03  0.28663684385E-03 -0.24244123022E-01  0.10196797135E+01  0.10193913094E+01 0.  0.
     999903    2    3    3    0    0  0.99746823987E-01 -0.50581603708E-01 -0.66410953705E-01  0.13163557544E+00  0.20238142717E-01 0.  0.
         14    1    1    2    0    0 -0.46554908571E-03 -0.28663684385E-03  0.24244123022E-01  0.24250286549E-01  0.00000000000E+00 0.  1.
     999901    1    3    3    0    0 -0.99281274901E-01  0.50868240552E-01  0.42166830684E-01  0.88804413801E+00  0.88000000000E+00 0. -1.
        -11    1    4    4    0    0  0.18736106584E-01 -0.14743794286E-01 -0.65806497013E-02  0.24738375682E-01  0.51100000000E-03 0.  1.
         11    1    4    4    0    0  0.81010717402E-01 -0.35837809422E-01 -0.59830304004E-01  0.10689719976E+00  0.51100000000E-03 0. -1.
</event>
<event>
 8    1  0.1104109E+005  0.1043930E+01  0.7957747E-01            NaN
         13   -1    0    0    0    0  0.00000000000E+00  0.00000000000E+00  0.74505805969E-08  0.10566000000E+00  0.10566000000E+00 0. -1.
     999900   -1    0    0    0    0 -0.00000000000E+00 -0.00000000000E+00 -0.74505805969E-08  0.93827000000E+00  0.93827000000E+00 0. -1.
     999902    2    1    2    0    0 -0.12966073260E-01 -0.17372304286E-01 -0.75740142440E-02  0.10209673846E+01  0.10207091255E+01 0.  0.
     999903    2    3    3    0    0 -0.13419375525E-01  0.85373029280E-02 -0.12983655948E+00  0.13213689282E+00  0.18699226909E-01 0.  0.
         14    1    1    2    0    0  0.12966073260E-01  0.17372304286E-01  0.75740142440E-02  0.22962615351E-01  0.00000000000E+00 0. -1.
     999901    1    3    3    0    0  0.45330226497E-03 -0.25909607214E-01  0.12226254524E+00  0.88883049182E+00  0.88000000000E+00 0.  1.
        -11    1    4    4    0    0 -0.13049999309E-01 -0.11403258182E-02 -0.97498144143E-01  0.98375566363E-01  0.51100000000E-03 0. -1.
         11    1    4    4    0    0 -0.36937621621E-03  0.96776287462E-02 -0.32338415337E-01  0.33761326462E-01  0.51100000000E-03 0.  1.
</event>
<event>
 8    1  0.1104109E+005  0.1043930E+01  0.7957747E-01            NaN
         13   -1    0    0    0    0  0.00000000000E+00  0.00000000000E+00  0.74505805969E-08  0.10566000000E+00  0.10566000000E+00 0.  1.
     999900   -1    0    0    0    0 -0.00000000000E+00 -0.00000000000E+00 -0.74505805969E-08  0.93827000000E+00  0.93827000000E+00 0. -1.
     999902    2    1    2    0    0 -0.17005692746E-01 -0.12211184972E-01  0.11351706065E-01  0.10201147138E+01  0.10198366838E+01 0.  0.
     999903    2    3    3    0    0  0.88501543890E-01  0.88148123066E-01 -0.17760447439E-01  0.12767351960E+00  0.19557076564E-01 0.  0.
         14    1    1    2    0    0  0.17005692746E-01  0.12211184972E-01 -0.11351706065E-01  0.23815286158E-01  0.00000000000E+00 0.  1.
     999901    1    3    3    0    0 -0.10550723664E+00 -0.10035930804E+00  0.29112153504E-01  0.89244119424E+00  0.88000000000E+00 0.  1.
        -11    1    4    4    0    0  0.81631075635E-01  0.83547869126E-01 -0.11666280464E-01  0.11738927620E+00  0.51100000000E-03 0. -1.
         11    1    4    4    0    0  0.68704682548E-02  0.46002539399E-02 -0.60941669752E-02  0.10284243408E-01  0.51100000000E-03 0.  1.
</event>
<event>
 8    1  0.1124399E+005  0.1043930E+01  0.7957747E-01            NaN
         13   -1    0    0    0    0  0.00000000000E+00  0.00000000000E+00  0.74505805969E-08  0.10566000000E+00  0.10566000000E+00 0. -1.
     999900   -1    0    0    0    0 -0.00000000000E+00 -0.00000000000E+00 -0.74505805969E-08  0.93827000000E+00  0.93827000000E+00 0. -1.
     999902    2    1    2    0    0 -0.83181287168E-02 -0.15163323352E-01  0.31424031310E-01  0.10080609690E+01  0.10074226173E+01 0.  0.
     999903    2    3    3    0    0 -0.63576036045E-01 -0.96399567013E-01 -0.29266220267E-01  0.12051600100E+00  0.18242970378E-01 0.  0.
         14    1    1    2    0    0  0.83181287168E-02  0.15163323352E-01 -0.31424031310E-01  0.35869030990E-01  0.00000000000E+00 0.  1.
     999901    1    3    3    0    0  0.55257907329E-01  0.81236243662E-01  0.60690251577E-01  0.88754496801E+00  0.88000000000E+00 0.  1.
        -11    1    4    4    0    0 -0.31575735605E-01 -0.41878445790E-01 -0.45935367584E-02  0.52651619175E-01  0.51100000000E-03 0. -1.
         11    1    4    4    0    0 -0.32000300440E-01 -0.54521121223E-01 -0.24672683508E-01  0.67864381823E-01  0.51100000000E-03 0.  1.
</event>
<event>
 8    1  0.1104109E+005  0.1043930E+01  0.7957747E-01            NaN
         13   -1    0    0    0    0  0.00000000000E+00  0.00000000000E+00  0.74505805969E-08  0.10566000000E+00  0.10566000000E+00 0.  1.
     999900   -1    0    0    0    0 -0.00000000000E+00 -0.00000000000E+00 -0.74505805969E-08  0.93827000000E+00  0.93827000000E+00 0.  1.
     999902    2    1    2    0    0  0.18950257332E-02 -0.20012387883E-01 -0.91094508416E-02  0.10218603628E+01  0.10216220104E+01 0.  0.
     999903    2    3    3    0    0  0.86630701713E-01 -0.57696124421E-01  0.79546635808E-01  0.13255720837E+00  0.20249073322E-01 0.  0.
         14    1    1    2    0    0 -0.18950257332E-02  0.20012387883E-01  0.91094508416E-02  0.22069637196E-01  0.00000000000E+00 0.  1.
     999901    1    3    3    0    0 -0.84735675980E-01  0.37683736538E-01 -0.88656086650E-01  0.88930315443E+00  0.88000000000E+00 0.  1.
        -11    1    4    4    0    0  0.15824364466E-01 -0.20320588049E-01  0.23016898755E-01  0.34545268253E-01  0.51100000000E-03 0.  1.
         11    1    4    4    0    0  0.70806337247E-01 -0.37375536373E-01  0.56529737054E-01  0.98011940119E-01  0.51100000000E-03 0. -1.
</event>
<event>
 8    1  0.1104109E+005  0.1043930E+01  0.7957747E-01            NaN
         13   -1    0    0    0    0  0.00000000000E+00  0.00000000000E+00  0.74505805969E-08  0.10566000000E+00  0.10566000000E+00 0. -1.
     999900   -1    0    0    0    0 -0.00000000000E+00 -0.00000000000E+00 -0.74505805969E-08  0.93827000000E+00  0.93827000000E+00 0. -1.
     999902    2    1    2    0    0 -0.12271168611E-01  0.50599609932E-02  0.20510231548E-01  0.10194993966E+01  0.10192066352E+01 0.  0.
     999903    2    3    3    0    0  0.97651915330E-01 -0.80065707866E-01  0.12635931306E-01  0.12854964017E+00  0.20467757178E-01 0.  0.
         14    1    1    2    0    0  0.12271168611E-01 -0.50599609932E-02 -0.20510231548E-01  0.24430603400E-01  0.00000000000E+00 0.  1.
     999901    1    3    3    0    0 -0.10992308394E+00  0.85125668859E-01  0.78743002416E-02  0.89094975643E+00  0.88000000000E+00 0.  1.
        -11    1    4    4    0    0  0.34474021670E-01 -0.40432143577E-01  0.88754787133E-02  0.53872550040E-01  0.51100000000E-03 0. -1.
         11    1    4    4    0    0  0.63177893659E-01 -0.39633564288E-01  0.37604525928E-02  0.74677090129E-01  0.51100000000E-03 0.  1.
</event>
<event>
 8    1  0.1104109E+005  0.1043930E+01  0.7957747E-01            NaN
         13   -1    0    0    0    0  0.00000000000E+00  0.00000000000E+00  0.74505805969E-08  0.10566000000E+00  0.10566000000E+00 0.  1.
     999900   -1    0    0    0    0 -0.00000000000E+00 -0.00000000000E+00 -0.74505805969E-08  0.93827000000E+00  0.93827000000E+00 0. -1.
     999902    2    1    2    0    0 -0.14964358308E-01 -0.32664781420E-02  0.18059049217E-01  0.10202502374E+01  0.10199753996E+01 0.  0.
     999903    2    3    3    0    0 -0.19936516212E-01  0.12276796538E+00 -0.31402835364E-01  0.12988184097E+00  0.20340023158E-01 0.  0.
         14    1    1    2    0    0  0.14964358308E-01  0.32664781420E-02 -0.18059049217E-01  0.23679762618E-01  0.00000000000E+00 0.  1.
     999901    1    3    3    0    0  0.49721579038E-02 -0.12603444352E+00  0.49461884581E-01  0.89036839641E+00  0.88000000000E+00 0. -1.
        -11    1    4    4    0    0 -0.22606092905E-02  0.65632273714E-01 -0.22458607385E-01  0.69407174513E-01  0.51100000000E-03 0. -1.
         11    1    4    4    0    0 -0.17675906921E-01  0.57135691666E-01 -0.89442279789E-02  0.60474666454E-01  0.51100000000E-03 0.  1.
</event>
<event>
 8    1  0.1104109E+005  0.1043930E+01  0.7957747E-01            NaN
         13   -1    0    0    0    0  0.00000000000E+00  0.00000000000E+00  0.74505805969E-08  0.10566000000E+00  0.10566000000E+00 0. -1.
     999900   -1    0    0    0    0 -0.00000000000E+00 -0.00000000000E+00 -0.74505805969E-08  0.93827000000E+00  0.93827000000E+00 0. -1.
     999902    2    1    2    0    0 -0.15184891603E-01  0.16911931972E-03 -0.16413038343E-01  0.10215693792E+01  0.10213246297E+01 0.  0.
     999903    2    3    3    0    0  0.44655127580E-01 -0.11820612597E+00  0.26301517752E-01  0.13060469984E+00  0.19976214568E-01 0.  0.
         14    1    1    2    0    0  0.15184891603E-01 -0.16911931972E-03  0.16413038343E-01  0.22360620787E-01  0.00000000000E+00 0. -1.
     999901    1    3    3    0    0 -0.59840019182E-01  0.11837524529E+00 -0.42714556095E-01  0.89096467938E+00  0.88000000000E+00 0. -1.
        -11    1    4    4    0    0  0.40718623264E-01 -0.83757467951E-01  0.16635863414E-01  0.94606198479E-01  0.51100000000E-03 0.  1.
         11    1    4    4    0    0  0.39365043153E-02 -0.34448658016E-01  0.96656543376E-02  0.35998501359E-01  0.51100000000E-03 0. -1.
</event>
<event>
 8    1  0.1104109E+005  0.1043930E+01  0.7957747E-01            NaN
         13   -1    0    0    0    0  0.00000000000E+00  0.00000000000E+00  0.74505805969E-08  0.10566000000E+00  0.10566000000E+00 0.  1.
     999900   -1    0    0    0    0 -0.00000000000E+00 -0.00000000000E+00 -0.74505805969E-08  0.93827000000E+00  0.93827000000E+00 0. -1.
     999902    2    1    2    0    0 -0.16358728252E-02 -0.11808460208E-01 -0.19702178921E-01  0.10209019374E+01  0.10206421871E+01 0.  0.
     999903    2    3    3    0    0 -0.10800205358E+00 -0.45876680270E-01  0.53975319447E-01  0.13078802235E+00  0.20568381295E-01 0.  0.
         14    1    1    2    0    0  0.16358728252E-02  0.11808460208E-01  0.19702178921E-01  0.23028062589E-01  0.00000000000E+00 0.  1.
     999901    1    3    3    0    0  0.10636618076E+00  0.34068220062E-01 -0.73677498368E-01  0.89011391507E+00  0.88000000000E+00 0.  1.
        -11    1    4    4    0    0 -0.78000090531E-01 -0.34133693961E-01  0.48847099060E-01  0.98160192511E-01  0.51100000000E-03 0. -1.
         11    1    4    4    0    0 -0.30001963051E-01 -0.11742986309E-01  0.51282203880E-02  0.32627829835E-01  0.51100000000E-03 0.  1.
</event>
<event>
 8    1  0.1104109E+005  0.1043930E+01  0.7957747E-01            NaN
         13   -1    0    0    0    0  0.00000000000E+00  0.00000000000E+00  0.74505805969E-08  0.10566000000E+00  0.10566000000E+00 0.  1.
     999900   -1    0    0    0    0 -0.00000000000E+00 -0.00000000000E+00 -0.74505805969E-08  0.93827000000E+00  0.93827000000E+00 0. -1.
     999902    2    1    2    0    0 -0.22030320317E-02 -0.17812996874E-01 -0.17374153591E-01  0.10189496593E+01  0.10186434071E+01 0.  0.
     999903    2    3    3    0    0 -0.33822926503E-01  0.39860078981E-02 -0.12544394319E+00  0.13150721399E+00  0.19952088427E-01 0.  0.
         14    1    1    2    0    0  0.22030320317E-02  0.17812996874E-01  0.17374153591E-01  0.24980340686E-01  0.00000000000E+00 0.  1.
     999901    1    3    3    0    0  0.31619894471E-01 -0.21799004772E-01  0.10806978960E+00  0.88744244532E+00  0.88000000000E+00 0. -1.
        -11    1    4    4    0    0 -0.27665705905E-01 -0.41203523552E-02 -0.75088370142E-01  0.80130475091E-01  0.51100000000E-03 0. -1.
         11    1    4    4    0    0 -0.61572205974E-02  0.81063602533E-02 -0.50355573049E-01  0.51376738901E-01  0.51100000000E-03 0.  1.
</event>
<event>
 8    1  0.1104109E+005  0.1043930E+01  0.7957747E-01            NaN
         13   -1    0    0    0    0  0.00000000000E+00  0.00000000000E+00  0.74505805969E-08  0.10566000000E+00  0.10566000000E+00 0.  1.
     999900   -1    0    0    0    0 -0.00000000000E+00 -0.00000000000E+00 -0.74505805969E-08  0.93827000000E+00  0.93827000000E+00 0.  1.
     999902    2    1    2    0    0 -0.14506733125E-01  0.18694106494E-01  0.12666671786E-02  0.10202336001E+01  0.10199583714E+01 0.  0.
     999903    2    3    3    0    0  0.11832641379E+00 -0.38274152324E-02  0.46307638548E-01  0.12884112032E+00  0.20972543749E-01 0.  0.
         14    1    1    2    0    0  0.14506733125E-01 -0.18694106494E-01 -0.12666671786E-02  0.23696399923E-01  0.00000000000E+00 0.  1.
     999901    1    3    3    0    0 -0.13283314691E+00  0.22521521726E-01 -0.45040971369E-01  0.89139247975E+00  0.88000000000E+00 0.  1.
        -11    1    4    4    0    0  0.96006512864E-01 -0.52477737428E-02  0.28613185266E-01  0.10031831903E+00  0.51100000000E-03 0.  1.
         11    1    4    4    0    0  0.22319900922E-01  0.14203585104E-02  0.17694453282E-01  0.28522801290E-01  0.51100000000E-03 0. -1.
</event>
<event>
 8    1  0.1104109E+005  0.1043930E+01  0.7957747E-01            NaN
         13   -1    0    0    0    0  0.00000000000E+00  0.00000000000E+00  0.74505805969E-08  0.10566000000E+00  0.10566000000E+00 0.  1.
     999900   -1    0    0    0    0 -0.00000000000E+00 -0.00000000000E+00 -0.74505805969E-08  0.93827000000E+00  0.93827000000E+00 0.  1.
     999902    2    1    2    0    0 -0.22674015141E-01  0.64052969427E-02  0.28436314675E-03  0.10203669006E+01  0.10200947957E+01 0.  0.
     999903    2    3    3    0    0 -0.52207828328E-01 -0.10827633602E+00  0.48241141490E-01  0.13114028400E+00  0.20521795119E-01 0.  0.
         14    1    1    2    0    0  0.22674015141E-01 -0.64052969427E-02 -0.28436314675E-03  0.23563099413E-01  0.00000000000E+00 0.  1.
     999901    1    3    3    0    0  0.29533813186E-01  0.11468163296E+00 -0.47956778344E-01  0.88922661659E+00  0.88000000000E+00 0.  1.
        -11    1    4    4    0    0 -0.42890256845E-01 -0.81591611924E-01  0.45328139213E-01  0.10272130545E+00  0.51100000000E-03 0. -1.
         11    1    4    4    0    0 -0.93175714829E-02 -0.26684724093E-01  0.29130022775E-02  0.28418978545E-01  0.51100000000E-03 0.  1.
</event>
<event>
 8    1  0.1104109E+005  0.1043930E+01  0.7957747E-01            NaN
         13   -1    0    0    0    0  0.00000000000E+00  0.00000000000E+00  0.74505805969E-08  0.10566000000E+00  0.10566000000E+00 0. -1.
     999900   -1    0    0    0    0 -0.00000000000E+00 -0.00000000000E+00 -0.74505805969E-08  0.93827000000E+00  0.93827000000E+00 0.  1.
     999902    2    1    2    0    0  0.93276418158E-02  0.12908321262E-01  0.16923923324E-01  0.10206910491E+01  0.10204264642E+01 0.  0.
     999903    2    3    3    0    0  0.11978551872E+00  0.48358071051E-01  0.24954042966E-01  0.13304128134E+00  0.19753600948E-01 0.  0.
         14    1    1    2    0    0 -0.93276418158E-02 -0.12908321262E-01 -0.16923923324E-01  0.23238950930E-01  0.00000000000E+00 0.  1.
     999901    1    3    3    0    0 -0.11045787690E+00 -0.35449749789E-01 -0.80301196423E-02  0.88764976773E+00  0.88000000000E+00 0. -1.
        -11    1    4    4    0    0  0.80978792430E-01  0.36993093004E-01  0.86884482665E-02  0.89452803241E-01  0.51100000000E-03 0. -1.
         11    1    4    4    0    0  0.38806726286E-01  0.11364978047E-01  0.16265594699E-01  0.43588478099E-01  0.51100000000E-03 0.  1.
</event>
<event>
 8    1  0.1104109E+005  0.1043930E+01  0.7957747E-01            NaN
         13   -1    0    0    0    0  0.00000000000E+00  0.00000000000E+00  0.74505805969E-08  0.10566000000E+00  0.10566000000E+00 0. -1.
     999900   -1    0    0    0    0 -0.00000000000E+00 -0.00000000000E+00 -0.74505805969E-08  0.93827000000E+00  0.93827000000E+00 0.  1.
     999902    2    1    2    0    0 -0.20518914008E-01  0.10267619011E-01  0.31325707589E-02  0.10207726506E+01  0.10205099418E+01 0.  0.
     999903    2    3    3    0    0 -0.12908267247E+00  0.26656599079E-01  0.12684923567E-01  0.13389840033E+00  0.19873694153E-01 0.  0.
         14    1    1    2    0    0  0.20518914008E-01 -0.10267619011E-01 -0.31325707589E-02  0.23157349412E-01  0.00000000000E+00 0. -1.
     999901    1    3    3    0    0  0.10856375846E+00 -0.16388980068E-01 -0.95523528081E-02  0.88687425025E+00  0.88000000000E+00 0.  1.
        -11    1    4    4    0    0 -0.89716160194E-01  0.90675817189E-02  0.83094108435E-02  0.90556710783E-01  0.51100000000E-03 0. -1.
         11    1    4    4    0    0 -0.39366512277E-01  0.17589017360E-01  0.43755127235E-02  0.43341689552E-01  0.51100000000E-03 0.  1.
</event>
<event>
 8    1  0.1104109E+005  0.1043930E+01  0.7957747E-01            NaN
         13   -1    0    0    0    0  0.00000000000E+00  0.00000000000E+00  0.74505805969E-08  0.10566000000E+00  0.10566000000E+00 0.  1.
     999900   -1    0    0    0    0 -0.00000000000E+00 -0.00000000000E+00 -0.74505805969E-08  0.93827000000E+00  0.93827000000E+00 0. -1.
     999902    2    1    2    0    0 -0.21063454791E-01  0.91388205686E-02 -0.93386404437E-02  0.10191429595E+01  0.10188414865E+01 0.  0.
     999903    2    3    3    0    0 -0.10406479297E+00 -0.76395971802E-01 -0.11472555955E-01  0.13110581143E+00  0.19781016337E-01 0.  0.
         14    1    1    2    0    0  0.21063454791E-01 -0.91388205686E-02  0.93386404437E-02  0.24787040454E-01  0.00000000000E+00 0.  1.
     999901    1    3    3    0    0  0.83001338174E-01  0.85534792371E-01  0.21339155111E-02  0.88803714812E+00  0.88000000000E+00 0.  1.
        -11    1    4    4    0    0 -0.33336450791E-01 -0.36208230209E-01 -0.29001805181E-02  0.49305446497E-01  0.51100000000E-03 0.  1.
         11    1    4    4    0    0 -0.70728342174E-01 -0.40187741593E-01 -0.85723754367E-02  0.81800364930E-01  0.51100000000E-03 0. -1.
</event>
<event>
 8    1  0.1104109E+005  0.1043930E+01  0.7957747E-01            NaN
         13   -1    0    0    0    0  0.00000000000E+00  0.00000000000E+00  0.74505805969E-08  0.10566000000E+00  0.10566000000E+00 0. -1.
     999900   -1    0    0    0    0 -0.00000000000E+00 -0.00000000000E+00 -0.74505805969E-08  0.93827000000E+00  0.93827000000E+00 0.  1.
     999902    2    1    2    0    0  0.12184949082E-01 -0.28035961756E-02 -0.19515615119E-01  0.10207525892E+01  0.10204894199E+01 0.  0.
     999903    2    3    3    0    0 -0.44620252390E-01  0.62066488277E-01 -0.10618251078E+00  0.13230106577E+00  0.19637477361E-01 0.  0.
         14    1    1    2    0    0 -0.12184949082E-01  0.28035961756E-02  0.19515615119E-01  0.23177410751E-01  0.00000000000E+00 0. -1.
     999901    1    3    3    0    0  0.56805201472E-01 -0.64870084452E-01  0.86666895663E-01  0.88845152348E+00  0.88000000000E+00 0. -1.
        -11    1    4    4    0    0 -0.40245586324E-01  0.41226443263E-01 -0.78289003226E-01  0.97204711767E-01  0.51100000000E-03 0. -1.
         11    1    4    4    0    0 -0.43746660660E-02  0.20840045014E-01 -0.27893507556E-01  0.35096354001E-01  0.51100000000E-03 0.  1.
</event>
<event>
 8    1  0.1104109E+005  0.1043930E+01  0.7957747E-01            NaN
         13   -1    0    0    0    0  0.00000000000E+00  0.00000000000E+00  0.74505805969E-08  0.10566000000E+00  0.10566000000E+00 0.  1.
     999900   -1    0    0    0    0 -0.00000000000E+00 -0.00000000000E+00 -0.74505805969E-08  0.93827000000E+00  0.93827000000E+00 0. -1.
     999902    2    1    2    0    0 -0.44763722393E-02 -0.14761008679E-01 -0.18353230129E-01  0.10199557150E+01  0.10196739156E+01 0.  0.
     999903    2    3    3    0    0  0.18372010705E-01  0.12170931054E+00  0.27478630678E-01  0.12796538091E+00  0.21665099037E-01 0.  0.
         14    1    1    2    0    0  0.44763722393E-02  0.14761008679E-01  0.18353230129E-01  0.23974285011E-01  0.00000000000E+00 0.  1.
     999901    1    3    3    0    0 -0.22848382944E-01 -0.13647031922E+00 -0.45831860807E-01  0.89199033408E+00  0.88000000000E+00 0. -1.
        -11    1    4    4    0    0 -0.21923085908E-02  0.29831403543E-01  0.11268481404E-03  0.29916428148E-01  0.51100000000E-03 0. -1.
         11    1    4    4    0    0  0.20564319296E-01  0.91877907000E-01  0.27365945864E-01  0.98048952758E-01  0.51100000000E-03 0.  1.
</event>
<event>
 8    1  0.1104109E+005  0.1043930E+01  0.7957747E-01            NaN
         13   -1    0    0    0    0  0.00000000000E+00  0.00000000000E+00  0.74505805969E-08  0.10566000000E+00  0.10566000000E+00 0.  1.
     999900   -1    0    0    0    0 -0.00000000000E+00 -0.00000000000E+00 -0.74505805969E-08  0.93827000000E+00  0.93827000000E+00 0. -1.
     999902    2    1    2    0    0  0.20078807814E-01 -0.52390296172E-02  0.15403846952E-01  0.10180865394E+01  0.10177584769E+01 0.  0.
     999903    2    3    3    0    0 -0.10304752734E+00  0.74528680247E-02 -0.67816456639E-01  0.12553581390E+00  0.22041566341E-01 0.  0.
         14    1    1    2    0    0 -0.20078807814E-01  0.52390296172E-02 -0.15403846952E-01  0.25843460594E-01  0.00000000000E+00 0. -1.
     999901    1    3    3    0    0  0.12312633516E+00 -0.12691897642E-01  0.83220303591E-01  0.89255072551E+00  0.88000000000E+00 0.  1.
        -11    1    4    4    0    0 -0.17854637599E-01  0.89769107164E-02 -0.17579292227E-01  0.26620774707E-01  0.51100000000E-03 0.  1.
         11    1    4    4    0    0 -0.85192889744E-01 -0.15240426918E-02 -0.50237164412E-01  0.98915039191E-01  0.51100000000E-03 0. -1.
</event>
<event>
 8    1  0.1104109E+005  0.1043930E+01  0.7957747E-01            NaN
         13   -1    0    0    0    0  0.00000000000E+00  0.00000000000E+00  0.74505805969E-08  0.10566000000E+00  0.10566000000E+00 0.  1.
     999900   -1    0    0    0    0 -0.00000000000E+00 -0.00000000000E+00 -0.74505805969E-08  0.93827000000E+00  0.93827000000E+00 0.  1.
     999902    2    1    2    0    0  0.21533082920E-02 -0.91623957313E-02  0.21662825144E-01  0.10203108505E+01  0.10200374343E+01 0.  0.
     999903    2    3    3    0    0 -0.24414246368E-02  0.11927755507E+00 -0.43132392257E-01  0.12861788046E+00  0.21191040926E-01 0.  0.
         14    1    1    2    0    0 -0.21533082920E-02  0.91623957313E-02 -0.21662825144E-01  0.23619149548E-01  0.00000000000E+00 0. -1.
     999901    1    3    3    0    0  0.45947329288E-02 -0.12843995080E+00  0.64795217401E-01  0.89169296999E+00  0.88000000000E+00 0.  1.
        -11    1    4    4    0    0 -0.21715164850E-02  0.38185478108E-01 -0.36539363414E-02  0.38424713324E-01  0.51100000000E-03 0. -1.
         11    1    4    4    0    0 -0.26990815180E-03  0.81092076959E-01 -0.39478455915E-01  0.90193167138E-01  0.51100000000E-03 0.  1.
</event>
<event>
 8    1  0.1104109E+005  0.1043930E+01  0.7957747E-01            NaN
         13   -1    0    0    0    0  0.00000000000E+00  0.00000000000E+00  0.74505805969E-08  0.10566000000E+00  0.10566000000E+00 0. -1.
     999900   -1    0    0    0    0 -0.00000000000E+00 -0.00000000000E+00 -0.74505805969E-08  0.93827000000E+00  0.93827000000E+00 0. -1.
     999902    2    1    2    0    0  0.96854695060E-02  0.10249076381E-01  0.17865312284E-01  0.10211699194E+01  0.10209162468E+01 0.  0.
     999903    2    3    3    0    0 -0.72431367867E-01 -0.37969925531E-01  0.10201943597E+00  0.13204104029E+00  0.18407952299E-01 0.  0.
         14    1    1    2    0    0 -0.96854695060E-02 -0.10249076381E-01 -0.17865312284E-01  0.22760080607E-01  0.00000000000E+00 0.  1.
     999901    1    3    3    0    0  0.82116837373E-01  0.48219001913E-01 -0.84154123691E-01  0.88912887911E+00  0.88000000000E+00 0. -1.
        -11    1    4    4    0    0 -0.23941306801E-01 -0.16756539820E-01  0.24297932233E-01  0.38008136364E-01  0.51100000000E-03 0. -1.
         11    1    4    4    0    0 -0.48490061066E-01 -0.21213385712E-01  0.77721503741E-01  0.94032903923E-01  0.51100000000E-03 0.  1.
</event>
<event>
 8    1  0.1104109E+005  0.1043930E+01  0.7957747E-01            NaN
         13   -1    0    0    0    0  0.00000000000E+00  0.00000000000E+00  0.74505805969E-08  0.10566000000E+00  0.10566000000E+00 0. -1.
     999900   -1    0    0    0    0 -0.00000000000E+00 -0.00000000000E+00 -0.74505805969E-08  0.93827000000E+00  0.93827000000E+00 0.  1.
     999902    2    1    2    0    0 -0.14839793530E-01 -0.13492420074E-01  0.13628000547E-01  0.10196815512E+01  0.10193931913E+01 0.  0.
     999903    2    3    3    0    0 -0.99483134175E-01  0.15362065283E-01 -0.80261067339E-01  0.13018043622E+00  0.19293004142E-01 0.  0.
         14    1    1    2    0    0  0.14839793530E-01  0.13492420074E-01 -0.13628000547E-01  0.24248448824E-01  0.00000000000E+00 0.  1.
     999901    1    3    3    0    0  0.84643340645E-01 -0.28854485357E-01  0.93889067886E-01  0.88950111496E+00  0.88000000000E+00 0.  1.
        -11    1    4    4    0    0 -0.33959690522E-01  0.39382365992E-02 -0.16203850767E-01  0.37836439956E-01  0.51100000000E-03 0. -1.
         11    1    4    4    0    0 -0.65523443653E-01  0.11423828684E-01 -0.64057216572E-01  0.92343996263E-01  0.51100000000E-03 0.  1.
</event>
<event>
 8    1  0.1104109E+005  0.1043930E+01  0.7957747E-01            NaN
         13   -1    0    0    0    0  0.00000000000E+00  0.00000000000E+00  0.74505805969E-08  0.10566000000E+00  0.10566000000E+00 0.  1.
     999900   -1    0    0    0    0 -0.00000000000E+00 -0.00000000000E+00 -0.74505805969E-08  0.93827000000E+00  0.93827000000E+00 0.  1.
     999902    2    1    2    0    0 -0.15425323392E-01 -0.38444445689E-02 -0.17645660725E-01  0.10201794274E+01  0.10199029240E+01 0.  0.
     999903    2    3    3    0    0  0.88103899876E-01  0.38485505759E-01  0.81294734098E-01  0.12759927611E+00  0.20719800813E-01 0.  0.
         14    1    1    2    0    0  0.15425323392E-01  0.38444445689E-02  0.17645660725E-01  0.23750572587E-01  0.00000000000E+00 0.  1.
     999901    1    3    3    0    0 -0.10352922327E+00 -0.42329950328E-01 -0.98940394823E-01  0.89258015130E+00  0.88000000000E+00 0.  1.
        -11    1    4    4    0    0  0.56386286776E-01  0.28356229824E-01  0.40732565733E-01  0.75119186221E-01  0.51100000000E-03 0. -1.
         11    1    4    4    0    0  0.31717613100E-01  0.10129275935E-01  0.40562168364E-01  0.52480089893E-01  0.51100000000E-03 0.  1.
</event>
<event>
 8    1  0.1104109E+005  0.1043930E+01  0.7957747E-01            NaN
         13   -1    0    0    0    0  0.00000000000E+00  0.00000000000E+00  0.74505805969E-08  0.10566000000E+00  0.10566000000E+00 0.  1.
     999900   -1    0    0    0    0 -0.00000000000E+00 -0.00000000000E+00 -0.74505805969E-08  0.93827000000E+00  0.93827000000E+00 0. -1.
     999902    2    1    2    0    0  0.22132163389E-01 -0.43924491491E-02 -0.84701340649E-02  0.10198287669E+01  0.10195439394E+01 0.  0.
     999903    2    3    3    0    0 -0.11902685993E-01 -0.11027794545E+00 -0.66703831620E-01  0.13091860674E+00  0.19682003288E-01 0.  0.
         14    1    1    2    0    0 -0.22132163389E-01  0.43924491491E-02  0.84701340649E-02  0.24101233099E-01  0.00000000000E+00 0.  1.
     999901    1    3    3    0    0  0.34034849382E-01  0.10588549630E+00  0.58233697555E-01  0.88891016016E+00  0.88000000000E+00 0.  1.
        -11    1    4    4    0    0 -0.11853873138E-01 -0.92141576082E-01 -0.46932990697E-01  0.10408434603E+00  0.51100000000E-03 0.  1.
         11    1    4    4    0    0 -0.48812854813E-04 -0.18136369364E-01 -0.19770840923E-01  0.26834260717E-01  0.51100000000E-03 0. -1.
</event>
<event>
 8    1  0.1104109E+005  0.1043930E+01  0.7957747E-01            NaN
         13   -1    0    0    0    0  0.00000000000E+00  0.00000000000E+00  0.74505805969E-08  0.10566000000E+00  0.10566000000E+00 0.  1.
     999900   -1    0    0    0    0 -0.00000000000E+00 -0.00000000000E+00 -0.74505805969E-08  0.93827000000E+00  0.93827000000E+00 0.  1.
     999902    2    1    2    0    0  0.12538557404E-01 -0.19365394446E-01 -0.43721436549E-02  0.10204491660E+01  0.10201789798E+01 0.  0.
     999903    2    3    3    0    0 -0.23439148620E-01 -0.60784398291E-01 -0.11278977922E+00  0.13209995940E+00  0.22016544122E-01 0.  0.
         14    1    1    2    0    0 -0.12538557404E-01  0.19365394446E-01  0.43721436549E-02  0.23480833971E-01  0.00000000000E+00 0. -1.
     999901    1    3    3    0    0  0.35977706024E-01  0.41419003845E-01  0.10841763556E+00  0.88834920663E+00  0.88000000000E+00 0. -1.
        -11    1    4    4    0    0 -0.16479017349E-01 -0.21434030528E-01 -0.60655102135E-01  0.66409925565E-01  0.51100000000E-03 0.  1.
         11    1    4    4    0    0 -0.69601312709E-02 -0.39350367763E-01 -0.52134677082E-01  0.65690033840E-01  0.51100000000E-03 0. -1.
</event>
<event>
 8    1  0.1104109E+005  0.1043930E+01  0.7957747E-01            NaN
         13   -1    0    0    0    0  0.00000000000E+00  0.00000000000E+00  0.74505805969E-08  0.10566000000E+00  0.10566000000E+00 0. -1.
     999900   -1    0    0    0    0 -0.00000000000E+00 -0.00000000000E+00 -0.74505805969E-08  0.93827000000E+00  0.93827000000E+00 0. -1.
     999902    2    1    2    0    0 -0.16964839829E-01 -0.18397822545E-01  0.15026817385E-02  0.10188592258E+01  0.10185507245E+01 0.  0.
     999903    2    3    3    0    0 -0.90025323161E-01 -0.94584964863E-01  0.11397278270E-01  0.13249574626E+00  0.19348137824E-01 0.  0.
         14    1    1    2    0    0  0.16964839829E-01  0.18397822545E-01 -0.15026817385E-02  0.25070774165E-01  0.00000000000E+00 0.  1.
     999901    1    3    3    0    0  0.73060483332E-01  0.76187142317E-01 -0.98945965310E-02  0.88636347957E+00  0.88000000000E+00 0. -1.
        -11    1    4    4    0    0 -0.35975888559E-01 -0.44927615347E-01 -0.32450961877E-02  0.57650212043E-01  0.51100000000E-03 0. -1.
         11    1    4    4    0    0 -0.54049434602E-01 -0.49657349516E-01  0.14642374457E-01  0.74845534219E-01  0.51100000000E-03 0.  1.
</event>
<event>
 8    1  0.1104109E+005  0.1043930E+01  0.7957747E-01            NaN
         13   -1    0    0    0    0  0.00000000000E+00  0.00000000000E+00  0.74505805969E-08  0.10566000000E+00  0.10566000000E+00 0.  1.
     999900   -1    0    0    0    0 -0.00000000000E+00 -0.00000000000E+00 -0.74505805969E-08  0.93827000000E+00  0.93827000000E+00 0. -1.
     999902    2    1    2    0    0  0.23876870921E-01  0.54479482388E-02  0.11577497312E-01  0.10168408223E+01  0.10164799232E+01 0.  0.
     999903    2    3    3    0    0 -0.78337796369E-01 -0.93857427619E-01 -0.15373835637E-01  0.12496876295E+00  0.20852094183E-01 0.  0.
         14    1    1    2    0    0 -0.23876870921E-01 -0.54479482388E-02 -0.11577497312E-01  0.27089177710E-01  0.00000000000E+00 0. -1.
     999901    1    3    3    0    0  0.10221466729E+00  0.99305375858E-01  0.26951332949E-01  0.89187205934E+00  0.88000000000E+00 0.  1.
        -11    1    4    4    0    0 -0.39474981140E-01 -0.60399663437E-01 -0.30308895384E-02  0.72220778808E-01  0.51100000000E-03 0. -1.
         11    1    4    4    0    0 -0.38862815229E-01 -0.33457764182E-01 -0.12342946099E-01  0.52747984141E-01  0.51100000000E-03 0.  1.
</event>
<event>
 8    1  0.1104109E+005  0.1043930E+01  0.7957747E-01            NaN
         13   -1    0    0    0    0  0.00000000000E+00  0.00000000000E+00  0.74505805969E-08  0.10566000000E+00  0.10566000000E+00 0. -1.
     999900   -1    0    0    0    0 -0.00000000000E+00 -0.00000000000E+00 -0.74505805969E-08  0.93827000000E+00  0.93827000000E+00 0.  1.
     999902    2    1    2    0    0 -0.16187601264E-01 -0.11250042251E-01  0.14151729872E-01  0.10196632873E+01  0.10193744877E+01 0.  0.
     999903    2    3    3    0    0 -0.27049486875E-01  0.72226072092E-02  0.12747729219E+00  0.13213756804E+00  0.20640641135E-01 0.  0.
         14    1    1    2    0    0  0.16187601264E-01  0.11250042251E-01 -0.14151729872E-01  0.24266712668E-01  0.00000000000E+00 0. -1.
     999901    1    3    3    0    0  0.10861885610E-01 -0.18472649460E-01 -0.11332556232E+00  0.88752571930E+00  0.88000000000E+00 0.  1.
        -11    1    4    4    0    0 -0.17018540831E-01 -0.56785607545E-02  0.55642146240E-01  0.58465257576E-01  0.51100000000E-03 0.  1.
         11    1    4    4    0    0 -0.10030946044E-01  0.12901167964E-01  0.71835145953E-01  0.73672310460E-01  0.51100000000E-03 0. -1.
</event>
<event>
 8    1  0.1104109E+005  0.1043930E+01  0.7957747E-01            NaN
         13   -1    0    0    0    0  0.00000000000E+00  0.00000000000E+00  0.74505805969E-08  0.10566000000E+00  0.10566000000E+00 0. -1.
     999900   -1    0    0    0    0 -0.00000000000E+00 -0.00000000000E+00 -0.74505805969E-08  0.93827000000E+00  0.93827000000E+00 0. -1.
     999902    2    1    2    0    0 -0.43856109995E-03  0.56520743346E-02  0.23377816251E-01  0.10198746353E+01  0.10195909038E+01 0.  0.
     999903    2    3    3    0    0  0.12118788428E+00  0.41111177634E-01  0.17743037687E-01  0.13078403754E+00  0.20322816401E-01 0.  0.
         14    1    1    2    0    0  0.43856109995E-03 -0.56520743346E-02 -0.23377816251E-01  0.24055364741E-01  0.00000000000E+00 0.  1.
     999901    1    3    3    0    0 -0.12162644538E+00 -0.35459103299E-01  0.56347785646E-02  0.88909059772E+00  0.88000000000E+00 0. -1.
        -11    1    4    4    0    0  0.94873684530E-01  0.37601749240E-01  0.20486220909E-01  0.10409060443E+00  0.51100000000E-03 0.  1.
         11    1    4    4    0    0  0.26314199750E-01  0.35094283936E-02 -0.27431832218E-02  0.26693433112E-01  0.51100000000E-03 0. -1.
</event>
<event>
 8    1  0.1104109E+005  0.1043930E+01  0.7957747E-01            NaN
         13   -1    0    0    0    0  0.00000000000E+00  0.00000000000E+00  0.74505805969E-08  0.10566000000E+00  0.10566000000E+00 0. -1.
     999900   -1    0    0    0    0 -0.00000000000E+00 -0.00000000000E+00 -0.74505805969E-08  0.93827000000E+00  0.93827000000E+00 0. -1.
     999902    2    1    2    0    0  0.42333046224E-02  0.82413475681E-02 -0.25041702494E-01  0.10172292970E+01  0.10168788104E+01 0.  0.
     999903    2    3    3    0    0  0.62610656226E-01 -0.35265139774E-01  0.10078447038E+00  0.12530275550E+00  0.19481958601E-01 0.  0.
         14    1    1    2    0    0 -0.42333046224E-02 -0.82413475681E-02  0.25041702494E-01  0.26700703016E-01  0.00000000000E+00 0. -1.
     999901    1    3    3    0    0 -0.58377351603E-01  0.43506487342E-01 -0.12582617287E+00  0.89192654148E+00  0.88000000000E+00 0. -1.
        -11    1    4    4    0    0  0.21211352126E-01 -0.22390568131E-01  0.36911622191E-01  0.48103928883E-01  0.51100000000E-03 0.  1.
         11    1    4    4    0    0  0.41399304100E-01 -0.12874571643E-01  0.63872848186E-01  0.77198826619E-01  0.51100000000E-03 0. -1.
</event>
<event>
 8    1  0.1104109E+005  0.1043930E+01  0.7957747E-01            NaN
         13   -1    0    0    0    0  0.00000000000E+00  0.00000000000E+00  0.74505805969E-08  0.10566000000E+00  0.10566000000E+00 0. -1.
     999900   -1    0    0    0    0 -0.00000000000E+00 -0.00000000000E+00 -0.74505805969E-08  0.93827000000E+00  0.93827000000E+00 0.  1.
     999902    2    1    2    0    0 -0.17428632736E-01  0.11539021738E-01 -0.10427739412E-01  0.10205709758E+01  0.10203036179E+01 0.  0.
     999903    2    3    3    0    0  0.52841608299E-01 -0.69775178827E-01 -0.94221720884E-01  0.13008159501E+00  0.19562145241E-01 0.  0.
         14    1    1    2    0    0  0.17428632736E-01 -0.11539021738E-01  0.10427739412E-01  0.23359024187E-01  0.00000000000E+00 0. -1.
     999901    1    3    3    0    0 -0.70270241036E-01  0.81314200565E-01  0.83793981472E-01  0.89048938080E+00  0.88000000000E+00 0. -1.
        -11    1    4    4    0    0  0.24758032516E-01 -0.45028512869E-01 -0.63258465689E-01  0.81501053659E-01  0.51100000000E-03 0. -1.
         11    1    4    4    0    0  0.28083575783E-01 -0.24746665958E-01 -0.30963255195E-01  0.48580541353E-01  0.51100000000E-03 0.  1.
</event>
<event>
 8    1  0.1104109E+005  0.1043930E+01  0.7957747E-01            NaN
         13   -1    0    0    0    0  0.00000000000E+00  0.00000000000E+00  0.74505805969E-08  0.10566000000E+00  0.10566000000E+00 0.  1.
     999900   -1    0    0    0    0 -0.00000000000E+00 -0.00000000000E+00 -0.74505805969E-08  0.93827000000E+00  0.93827000000E+00 0. -1.
     999902    2    1    2    0    0 -0.19407995289E-02 -0.11929215058E-01  0.20413083608E-01  0.10202072924E+01  0.10199314450E+01 0.  0.
     999903    2    3    3    0    0  0.61827020323E-01  0.42304750448E-01 -0.10170430017E+00  0.12783947959E+00  0.19669659798E-01 0.  0.
         14    1    1    2    0    0  0.19407995289E-02  0.11929215058E-01 -0.20413083608E-01  0.23722707626E-01  0.00000000000E+00 0. -1.
     999901    1    3    3    0    0 -0.63767819852E-01 -0.54233965506E-01  0.12211738378E+00  0.89236781278E+00  0.88000000000E+00 0.  1.
        -11    1    4    4    0    0  0.19431583083E-01  0.58702286390E-02 -0.37999783521E-01  0.43084691876E-01  0.51100000000E-03 0. -1.
         11    1    4    4    0    0  0.42395437241E-01  0.36434521809E-01 -0.63704516653E-01  0.84754787719E-01  0.51100000000E-03 0.  1.
</event>
<event>
 8    1  0.1104109E+005  0.1043930E+01  0.7957747E-01            NaN
         13   -1    0    0    0    0  0.00000000000E+00  0.00000000000E+00  0.74505805969E-08  0.10566000000E+00  0.10566000000E+00 0.  1.
     999900   -1    0    0    0    0 -0.00000000000E+00 -0.00000000000E+00 -0.74505805969E-08  0.93827000000E+00  0.93827000000E+00 0. -1.
     999902    2    1    2    0    0 -0.19174711480E-01  0.11064221426E-01  0.44335346443E-02  0.10213525160E+01  0.10211029424E+01 0.  0.
     999903    2    3    3    0    0  0.12735053953E+00 -0.51314561369E-02 -0.29873142225E-02  0.12905939251E+00  0.20072642816E-01 0.  0.
         14    1    1    2    0    0  0.19174711480E-01 -0.11064221426E-01 -0.44335346443E-02  0.22577484040E-01  0.00000000000E+00 0.  1.
     999901    1    3    3    0    0 -0.14652525101E+00  0.16195677563E-01  0.74208488668E-02  0.89229312345E+00  0.88000000000E+00 0. -1.
        -11    1    4    4    0    0  0.12082679326E+00 -0.49608306946E-02 -0.74147215828E-02  0.12115677046E+00  0.51100000000E-03 0.  1.
         11    1    4    4    0    0  0.65237462642E-02 -0.17062544232E-03  0.44274073603E-02  0.79026220519E-02  0.51100000000E-03 0. -1.
</event>
<event>
 8    1  0.1104109E+005  0.1043930E+01  0.7957747E-01            NaN
         13   -1    0    0    0    0  0.00000000000E+00  0.00000000000E+00  0.74505805969E-08  0.10566000000E+00  0.10566000000E+00 0. -1.
     999900   -1    0    0    0    0 -0.00000000000E+00 -0.00000000000E+00 -0.74505805969E-08  0.93827000000E+00  0.93827000000E+00 0.  1.
     999902    2    1    2    0    0 -0.10356185349E-01 -0.20398527305E-01 -0.16207951906E-02  0.10209958013E+01  0.10207381882E+01 0.  0.
     999903    2    3    3    0    0 -0.38061249077E-01  0.94185428532E-01 -0.78286248563E-01  0.12983103249E+00  0.20194223309E-01 0.  0.
         14    1    1    2    0    0  0.10356185349E-01  0.20398527305E-01  0.16207951906E-02  0.22934198661E-01  0.00000000000E+00 0. -1.
     999901    1    3    3    0    0  0.27705063728E-01 -0.11458395584E+00  0.76665453372E-01  0.89116476885E+00  0.88000000000E+00 0. -1.
        -11    1    4    4    0    0 -0.76726871192E-02  0.44066013930E-01 -0.38158676911E-01  0.58796508876E-01  0.51100000000E-03 0. -1.
         11    1    4    4    0    0 -0.30388561957E-01  0.50119414602E-01 -0.40127571651E-01  0.71034523617E-01  0.51100000000E-03 0.  1.
</event>
<event>
 8    1  0.1104109E+005  0.1043930E+01  0.7957747E-01            NaN
         13   -1    0    0    0    0  0.00000000000E+00  0.00000000000E+00  0.74505805969E-08  0.10566000000E+00  0.10566000000E+00 0. -1.
     999900   -1    0    0    0    0 -0.00000000000E+00 -0.00000000000E+00 -0.74505805969E-08  0.93827000000E+00  0.93827000000E+00 0.  1.
     999902    2    1    2    0    0 -0.21379517410E-01  0.91872323488E-02  0.77265655279E-02  0.10194108479E+01  0.10191159346E+01 0.  0.
     999903    2    3    3    0    0  0.82953005114E-01  0.87482440322E-01  0.41349933706E-01  0.12916035188E+00  0.20933252447E-01 0.  0.
         14    1    1    2    0    0  0.21379517410E-01 -0.91872323488E-02 -0.77265655279E-02  0.24519152060E-01  0.00000000000E+00 0. -1.
     999901    1    3    3    0    0 -0.10433252252E+00 -0.78295207973E-01 -0.33623368178E-01  0.89025049606E+00  0.88000000000E+00 0.  1.
        -11    1    4    4    0    0  0.21325800334E-02  0.10562317053E-01  0.37201831947E-02  0.11411017621E-01  0.51100000000E-03 0. -1.
         11    1    4    4    0    0  0.80820425081E-01  0.76920123269E-01  0.37629750511E-01  0.11774933426E+00  0.51100000000E-03 0.  1.
</event>
<event>
 8    1  0.1104109E+005  0.1043930E+01  0.7957747E-01            NaN
         13   -1    0    0    0    0  0.00000000000E+00  0.00000000000E+00  0.74505805969E-08  0.10566000000E+00  0.10566000000E+00 0.  1.
     999900   -1    0    0    0    0 -0.00000000000E+00 -0.00000000000E+00 -0.74505805969E-08  0.93827000000E+00  0.93827000000E+00 0. -1.
     999902    2    1    2    0    0 -0.20063431917E-02 -0.22643379443E-01 -0.64159084417E-02  0.10203098407E+01  0.10200364008E+01 0.  0.
     999903    2    3    3    0    0 -0.84318990798E-01 -0.66162163185E-01  0.73981965287E-01  0.13175310382E+00  0.19960589497E-01 0.  0.
         14    1    1    2    0    0  0.20063431917E-02  0.22643379443E-01  0.64159084417E-02  0.23620159330E-01  0.00000000000E+00 0.  1.
     999901    1    3    3    0    0  0.82312647607E-01  0.43518783742E-01 -0.80397873728E-01  0.88855673685E+00  0.88000000000E+00 0. -1.
        -11    1    4    4    0    0 -0.40559490517E-01 -0.32308427410E-01  0.47863640062E-01  0.70569794627E-01  0.51100000000E-03 0.  1.
         11    1    4    4    0    0 -0.43759500281E-01 -0.33853735775E-01  0.26118325225E-01  0.61183309198E-01  0.51100000000E-03 0. -1.
</event>
<event>
 8    1  0.1104109E+005  0.1043930E+01  0.7957747E-01            NaN
         13   -1    0    0    0    0  0.00000000000E+00  0.00000000000E+00  0.74505805969E-08  0.10566000000E+00  0.10566000000E+00 0. -1.
     999900   -1    0    0    0    0 -0.00000000000E+00 -0.00000000000E+00 -0.74505805969E-08  0.93827000000E+00  0.93827000000E+00 0. -1.
     999902    2    1    2    0    0 -0.12512344989E-02 -0.90049769412E-02  0.19519516191E-01  0.10223970785E+01  0.10221702986E+01 0.  0.
     999903    2    3    3    0    0 -0.99035363051E-02 -0.12217866023E+00  0.51646762296E-01  0.13452585759E+00  0.20102568436E-01 0.  0.
         14    1    1    2    0    0  0.12512344989E-02  0.90049769412E-02 -0.19519516191E-01  0.21532921535E-01  0.00000000000E+00 0.  1.
     999901    1    3    3    0    0  0.86523018062E-02  0.11317368329E+00 -0.32127246105E-01  0.88787122088E+00  0.88000000000E+00 0. -1.
        -11    1    4    4    0    0  0.33471284925E-03 -0.30249636499E-01  0.41308926616E-02  0.30536501702E-01  0.51100000000E-03 0. -1.
         11    1    4    4    0    0 -0.10238249154E-01 -0.91929023731E-01  0.47515869635E-01  0.10398935589E+00  0.51100000000E-03 0.  1.
</event>
<event>
 8    1  0.1104109E+005  0.1043930E+01  0.7957747E-01            NaN
         13   -1    0    0    0    0  0.00000000000E+00  0.00000000000E+00  0.74505805969E-08  0.10566000000E+00  0.10566000000E+00 0.  1.
     999900   -1    0    0    0    0 -0.00000000000E+00 -0.00000000000E+00 -0.74505805969E-08  0.93827000000E+00  0.93827000000E+00 0.  1.
     999902    2    1    2    0    0 -0.12639966925E-01 -0.13128053314E-01  0.15307718435E-01  0.10201299834E+01  0.10198523139E+01 0.  0.
     999903    2    3    3    0    0  0.71322616734E-01  0.10441091260E+00  0.87762965192E-02  0.12832967869E+00  0.20073084583E-01 0.  0.
         14    1    1    2    0    0  0.12639966925E-01  0.13128053314E-01 -0.15307718435E-01  0.23800016625E-01  0.00000000000E+00 0. -1.
     999901    1    3    3    0    0 -0.83962583658E-01 -0.11753896591E+00  0.65314219159E-02  0.89180030468E+00  0.88000000000E+00 0.  1.
        -11    1    4    4    0    0  0.32225383353E-01  0.38109759125E-01  0.11842623393E-01  0.51296568332E-01  0.51100000000E-03 0.  1.
         11    1    4    4    0    0  0.39097233380E-01  0.66301153474E-01 -0.30663268733E-02  0.77033110359E-01  0.51100000000E-03 0. -1.
</event>
<event>
 8    1  0.1104109E+005  0.1043930E+01  0.7957747E-01            NaN
         13   -1    0    0    0    0  0.00000000000E+00  0.00000000000E+00  0.74505805969E-08  0.10566000000E+00  0.10566000000E+00 0. -1.
     999900   -1    0    0    0    0 -0.00000000000E+00 -0.00000000000E+00 -0.74505805969E-08  0.93827000000E+00  0.93827000000E+00 0. -1.
     999902    2    1    2    0    0  0.39505062523E-02 -0.14367422918E-01 -0.18228736157E-01  0.10203860801E+01  0.10201144232E+01 0.  0.
     999903    2    3    3    0    0  0.10075453569E+00  0.73889077761E-01 -0.31495962007E-01  0.13059045792E+00  0.21232046556E-01 0.  0.
         14    1    1    2    0    0 -0.39505062523E-02  0.14367422918E-01  0.18228736157E-01  0.23543919870E-01  0.00000000000E+00 0.  1.
     999901    1    3    3    0    0 -0.96804029441E-01 -0.88256500679E-01  0.13267225850E-01  0.88979562221E+00  0.88000000000E+00 0.  1.
        -11    1    4    4    0    0  0.60346721049E-01  0.37562535020E-01 -0.85148611058E-02  0.71592141742E-01  0.51100000000E-03 0.  1.
         11    1    4    4    0    0  0.40407814644E-01  0.36326542742E-01 -0.22981100901E-01  0.58998316175E-01  0.51100000000E-03 0. -1.
</event>
<event>
 8    1  0.1104109E+005  0.1043930E+01  0.7957747E-01            NaN
         13   -1    0    0    0    0  0.00000000000E+00  0.00000000000E+00  0.74505805969E-08  0.10566000000E+00  0.10566000000E+00 0.  1.
     999900   -1    0    0    0    0 -0.00000000000E+00 -0.00000000000E+00 -0.74505805969E-08  0.93827000000E+00  0.93827000000E+00 0. -1.
     999902    2    1    2    0    0 -0.16451747777E-02 -0.42726332243E-02 -0.23104041420E-01  0.10203766834E+01  0.10201048070E+01 0.  0.
     999903    2    3    3    0    0  0.21181595671E-01  0.12678953219E+00 -0.28907134864E-02  0.13014809964E+00  0.20147608987E-01 0.  0.
         14    1    1    2    0    0  0.16451747777E-02  0.42726332243E-02  0.23104041420E-01  0.23553316638E-01  0.00000000000E+00 0.  1.
     999901    1    3    3    0    0 -0.22826770449E-01 -0.13106216541E+00 -0.20213327934E-01  0.89022858372E+00  0.88000000000E+00 0.  1.
        -11    1    4    4    0    0  0.22884725530E-01  0.83114526332E-01 -0.52894481279E-02  0.86371144096E-01  0.51100000000E-03 0. -1.
         11    1    4    4    0    0 -0.17031298588E-02  0.43675005855E-01  0.23987346415E-02  0.43776955543E-01  0.51100000000E-03 0.  1.
</event>
<event>
 8    1  0.1104109E+005  0.1043930E+01  0.7957747E-01            NaN
         13   -1    0    0    0    0  0.00000000000E+00  0.00000000000E+00  0.74505805969E-08  0.10566000000E+00  0.10566000000E+00 0.  1.
     999900   -1    0    0    0    0 -0.00000000000E+00 -0.00000000000E+00 -0.74505805969E-08  0.93827000000E+00  0.93827000000E+00 0. -1.
     999902    2    1    2    0    0  0.46674370393E-02  0.16214413577E-01  0.16625502282E-01  0.10202424610E+01  0.10199674406E+01 0.  0.
     999903    2    3    3    0    0 -0.12004704568E+00 -0.32950268401E-01 -0.27595953472E-01  0.12899254922E+00  0.19507120341E-01 0.  0.
         14    1    1    2    0    0 -0.46674370393E-02 -0.16214413577E-01 -0.16625502282E-01  0.23687538966E-01  0.00000000000E+00 0. -1.
     999901    1    3    3    0    0  0.12471448272E+00  0.49164681977E-01  0.44221455754E-01  0.89124991181E+00  0.88000000000E+00 0.  1.
        -11    1    4    4    0    0 -0.52891956967E-01 -0.12619053787E-01 -0.21802111172E-01  0.58586626484E-01  0.51100000000E-03 0.  1.
         11    1    4    4    0    0 -0.67155088709E-01 -0.20331214613E-01 -0.57938423005E-02  0.70405922739E-01  0.51100000000E-03 0. -1.
</event>
<event>
 8    1  0.1104109E+005  0.1043930E+01  0.7957747E-01            NaN
         13   -1    0    0    0    0  0.00000000000E+00  0.00000000000E+00  0.74505805969E-08  0.10566000000E+00  0.10566000000E+00 0.  1.
     999900   -1    0    0    0    0 -0.00000000000E+00 -0.00000000000E+00 -0.74505805969E-08  0.93827000000E+00  0.93827000000E+00 0. -1.
     999902    2    1    2    0    0 -0.40855377733E-02  0.22450981740E-01  0.76336117181E-02  0.10198673686E+01  0.10195834637E+01 0.  0.
     999903    2    3    3    0    0  0.38233682921E-01 -0.13935698639E-01 -0.12058902311E+00  0.12882530957E+00  0.19955693068E-01 0.  0.
         14    1    1    2    0    0  0.40855377733E-02 -0.22450981740E-01 -0.76336117181E-02  0.24062631358E-01  0.00000000000E+00 0. -1.
     999901    1    3    3    0    0 -0.42319220694E-01  0.36386680379E-01  0.12822263483E+00  0.89104205907E+00  0.88000000000E+00 0.  1.
        -11    1    4    4    0    0  0.23937643406E-01 -0.99570359746E-03 -0.85372768767E-01  0.88672278449E-01  0.51100000000E-03 0. -1.
         11    1    4    4    0    0  0.14296039515E-01 -0.12939995041E-01 -0.35216254342E-01  0.40153031123E-01  0.51100000000E-03 0.  1.
</event>
<event>
 8    1  0.1104109E+005  0.1043930E+01  0.7957747E-01            NaN
         13   -1    0    0    0    0  0.00000000000E+00  0.00000000000E+00  0.74505805969E-08  0.10566000000E+00  0.10566000000E+00 0.  1.
     999900   -1    0    0    0    0 -0.00000000000E+00 -0.00000000000E+00 -0.74505805969E-08  0.93827000000E+00  0.93827000000E+00 0. -1.
     999902    2    1    2    0    0 -0.18293724074E-01 -0.34354937144E-02 -0.14331402771E-01  0.10204384683E+01  0.10201680330E+01 0.  0.
     999903    2    3    3    0    0  0.10698602223E+00 -0.69066396302E-01  0.56829292102E-02  0.12892122015E+00  0.19292725860E-01 0.  0.
         14    1    1    2    0    0  0.18293724074E-01  0.34354937144E-02  0.14331402771E-01  0.23491531728E-01  0.00000000000E+00 0.  1.
     999901    1    3    3    0    0 -0.12527974630E+00  0.65630902587E-01 -0.20014331981E-01  0.89151724812E+00  0.88000000000E+00 0. -1.
        -11    1    4    4    0    0  0.43239132248E-01 -0.21596236866E-01  0.98572026622E-02  0.49329966244E-01  0.51100000000E-03 0. -1.
         11    1    4    4    0    0  0.63746889981E-01 -0.47470159435E-01 -0.41742734520E-02  0.79591253909E-01  0.51100000000E-03 0.  1.
</event>
<event>
 8    1  0.1104109E+005  0.1043930E+01  0.7957747E-01            NaN
         13   -1    0    0    0    0  0.00000000000E+00  0.00000000000E+00  0.74505805969E-08  0.10566000000E+00  0.10566000000E+00 0. -1.
     999900   -1    0    0    0    0 -0.00000000000E+00 -0.00000000000E+00 -0.74505805969E-08  0.93827000000E+00  0.93827000000E+00 0. -1.
     999902    2    1    2    0    0 -0.11001222819E-01 -0.15043232323E-01  0.14566585440E-01  0.10202760119E+01  0.10200017791E+01 0.  0.
     999903    2    3    3    0    0 -0.97180452668E-01  0.29984470217E-01  0.82343299952E-01  0.13233004693E+00  0.19690440287E-01 0.  0.
         14    1    1    2    0    0  0.11001222819E-01  0.15043232323E-01 -0.14566585440E-01  0.23653988112E-01  0.00000000000E+00 0.  1.
     999901    1    3    3    0    0  0.86179229849E-01 -0.45027702540E-01 -0.67776714512E-01  0.88794596496E+00  0.88000000000E+00 0. -1.
        -11    1    4    4    0    0 -0.40167463947E-01  0.17685640641E-01  0.24884287821E-01  0.50454890210E-01  0.51100000000E-03 0.  1.
         11    1    4    4    0    0 -0.57012988722E-01  0.12298829576E-01  0.57459012131E-01  0.81875156721E-01  0.51100000000E-03 0. -1.
</event>
<event>
 7    1  0.1104109E+005  0.1043930E+01  0.7957747E-01            NaN
         13   -1    0    0    0    0  0.00000000000E+00  0.00000000000E+00  0.74505805969E-08  0.10566000000E+00  0.10566000000E+00 0. -1.
     999900   -1    0    0    0    0 -0.00000000000E+00 -0.00000000000E+00 -0.74505805969E-08  0.93827000000E+00  0.93827000000E+00 0. -1.
     999903    2    1    2    0    0  0.81231359475E-01  0.25709419340E-01 -0.21060227838E-01  0.90555329721E-01  0.22298577070E-01 0.  0.
         14    1    1    2    0    0 -0.10992712284E-01  0.42181674169E-01  0.51468467148E-01  0.67447286599E-01  0.00000000000E+00 0.  1.
     999901    1    1    2    0    0 -0.70238647191E-01 -0.67891093509E-01 -0.30408239309E-01  0.88592738368E+00  0.88000000000E+00 0. -1.
        -11    1    3    3    0    0  0.16392089963E-01 -0.33732618067E-02 -0.12961911032E-02  0.16793473165E-01  0.51100000000E-03 0.  1.
         11    1    3    3    0    0  0.64839269512E-01  0.29082681147E-01 -0.19764036735E-01  0.73761856556E-01  0.51100000000E-03 0. -1.
</event>
<event>
 8    1  0.1104109E+005  0.1043930E+01  0.7957747E-01            NaN
         13   -1    0    0    0    0  0.00000000000E+00  0.00000000000E+00  0.74505805969E-08  0.10566000000E+00  0.10566000000E+00 0.  1.
     999900   -1    0    0    0    0 -0.00000000000E+00 -0.00000000000E+00 -0.74505805969E-08  0.93827000000E+00  0.93827000000E+00 0.  1.
     999902    2    1    2    0    0  0.19218168681E-01  0.13975573265E-02  0.14720853492E-01  0.10196813979E+01  0.10193930344E+01 0.  0.
     999903    2    3    3    0    0  0.40040283438E-01  0.11917149813E+00  0.32636068762E-01  0.13141048402E+00  0.19963267772E-01 0.  0.
         14    1    1    2    0    0 -0.19218168681E-01 -0.13975573265E-02 -0.14720853492E-01  0.24248602052E-01  0.00000000000E+00 0.  1.
     999901    1    3    3    0    0 -0.20822114757E-01 -0.11777394081E+00 -0.17915215270E-01  0.88827091393E+00  0.88000000000E+00 0.  1.
        -11    1    4    4    0    0  0.18911283391E-01  0.34817411438E-01  0.38653343562E-02  0.39813197679E-01  0.51100000000E-03 0.  1.
         11    1    4    4    0    0  0.21129000047E-01  0.84354086696E-01  0.28770734406E-01  0.91597286339E-01  0.51100000000E-03 0. -1.
</event>
<event>
 8    1  0.1104109E+005  0.1043930E+01  0.7957747E-01            NaN
         13   -1    0    0    0    0  0.00000000000E+00  0.00000000000E+00  0.74505805969E-08  0.10566000000E+00  0.10566000000E+00 0.  1.
     999900   -1    0    0    0    0 -0.00000000000E+00 -0.00000000000E+00 -0.74505805969E-08  0.93827000000E+00  0.93827000000E+00 0. -1.
     999902    2    1    2    0    0 -0.10408294915E-01 -0.23483532379E-02  0.22329367561E-01  0.10191823128E+01  0.10188818080E+01 0.  0.
     999903    2    3    3    0    0  0.10617635268E+00 -0.30988789516E-01  0.65147600255E-01  0.12999973555E+00  0.20542601592E-01 0.  0.
         14    1    1    2    0    0  0.10408294915E-01  0.23483532379E-02 -0.22329367561E-01  0.24747687198E-01  0.00000000000E+00 0. -1.
     999901    1    3    3    0    0 -0.11658464759E+00  0.28640436279E-01 -0.42818232694E-01  0.88918257726E+00  0.88000000000E+00 0. -1.
        -11    1    4    4    0    0  0.75825540380E-01 -0.28190263359E-01  0.38862141200E-01  0.89748151300E-01  0.51100000000E-03 0.  1.
         11    1    4    4    0    0  0.30350812295E-01 -0.27985261579E-02  0.26285459055E-01  0.40251584247E-01  0.51100000000E-03 0. -1.
</event>
<event>
 8    1  0.1104109E+005  0.1043930E+01  0.7957747E-01            NaN
         13   -1    0    0    0    0  0.00000000000E+00  0.00000000000E+00  0.74505805969E-08  0.10566000000E+00  0.10566000000E+00 0.  1.
     999900   -1    0    0    0    0 -0.00000000000E+00 -0.00000000000E+00 -0.74505805969E-08  0.93827000000E+00  0.93827000000E+00 0. -1.
     999902    2    1    2    0    0  0.61333287397E-02  0.19369310131E-01  0.11865940644E-01  0.10204015397E+01  0.10201302435E+01 0.  0.
     999903    2    3    3    0    0  0.16130565931E-01  0.26243555747E-01 -0.12458311850E+00  0.12980311969E+00  0.19467333881E-01 0.  0.
         14    1    1    2    0    0 -0.61333287397E-02 -0.19369310131E-01 -0.11865940644E-01  0.23528460293E-01  0.00000000000E+00 0. -1.
     999901    1    3    3    0    0 -0.99972371908E-02 -0.68742456158E-02  0.13644905915E+00  0.89059842002E+00  0.88000000000E+00 0.  1.
        -11    1    4    4    0    0  0.13433295885E-01  0.40728626722E-02 -0.51570001808E-01  0.53448740454E-01  0.51100000000E-03 0.  1.
         11    1    4    4    0    0  0.26972700457E-02  0.22170693075E-01 -0.73013116696E-01  0.76354379231E-01  0.51100000000E-03 0. -1.
</event>
<event>
 8    1  0.1104109E+005  0.1043930E+01  0.7957747E-01            NaN
         13   -1    0    0    0    0  0.00000000000E+00  0.00000000000E+00  0.74505805969E-08  0.10566000000E+00  0.10566000000E+00 0. -1.
     999900   -1    0    0    0    0 -0.00000000000E+00 -0.00000000000E+00 -0.74505805969E-08  0.93827000000E+00  0.93827000000E+00 0.  1.
     999902    2    1    2    0    0 -0.10791314321E-01 -0.64425922109E-02 -0.19861178308E-01  0.10204262585E+01  0.10201555387E+01 0.  0.
     999903    2    3    3    0    0  0.11942848155E+00  0.43771275822E-01 -0.18973755989E-01  0.12942714782E+00  0.14570394075E-01 0.  0.
         14    1    1    2    0    0  0.10791314321E-01  0.64425922109E-02  0.19861178308E-01  0.23503741467E-01  0.00000000000E+00 0.  1.
     999901    1    3    3    0    0 -0.13021979587E+00 -0.50213868033E-01 -0.88742231857E-03  0.89099911072E+00  0.88000000000E+00 0.  1.
        -11    1    4    4    0    0  0.24649272795E-01  0.15402205667E-01 -0.32718350986E-02  0.29253728218E-01  0.51100000000E-03 0.  1.
         11    1    4    4    0    0  0.94779208754E-01  0.28369070154E-01 -0.15701920891E-01  0.10017341960E+00  0.51100000000E-03 0. -1.
</event>
<event>
 8    1  0.1104109E+005  0.1043930E+01  0.7957747E-01            NaN
         13   -1    0    0    0    0  0.00000000000E+00  0.00000000000E+00  0.74505805969E-08  0.10566000000E+00  0.10566000000E+00 0.  1.
     999900   -1    0    0    0    0 -0.00000000000E+00 -0.00000000000E+00 -0.74505805969E-08  0.93827000000E+00  0.93827000000E+00 0. -1.
     999902    2    1    2    0    0 -0.14828596308E-01 -0.18413127279E-01  0.19725002890E-02  0.10202061453E+01  0.10199302710E+01 0.  0.
     999903    2    3    3    0    0  0.81045886253E-02  0.67500631738E-01  0.10820695238E+00  0.12936785258E+00  0.20131495094E-01 0.  0.
         14    1    1    2    0    0  0.14828596308E-01  0.18413127279E-01 -0.19725002890E-02  0.23723854704E-01  0.00000000000E+00 0.  1.
     999901    1    3    3    0    0 -0.22933184934E-01 -0.85913759017E-01 -0.10623445209E+00  0.89083829272E+00  0.88000000000E+00 0. -1.
        -11    1    4    4    0    0 -0.54116672219E-02  0.24216813904E-01  0.29703438104E-01  0.38707823163E-01  0.51100000000E-03 0.  1.
         11    1    4    4    0    0  0.13516255847E-01  0.43283817834E-01  0.78503514279E-01  0.90660029415E-01  0.51100000000E-03 0. -1.
</event>
<event>
 8    1  0.1104109E+005  0.1043930E+01  0.7957747E-01            NaN
         13   -1    0    0    0    0  0.00000000000E+00  0.00000000000E+00  0.74505805969E-08  0.10566000000E+00  0.10566000000E+00 0.  1.
     999900   -1    0    0    0    0 -0.00000000000E+00 -0.00000000000E+00 -0.74505805969E-08  0.93827000000E+00  0.93827000000E+00 0. -1.
     999902    2    1    2    0    0 -0.94598045399E-02 -0.22203122301E-01  0.44297019785E-02  0.10193925021E+01  0.10190971419E+01 0.  0.
     999903    2    3    3    0    0  0.11351936206E+00 -0.41327449477E-01  0.43079649030E-01  0.12979515855E+00  0.19907872331E-01 0.  0.
         14    1    1    2    0    0  0.94598045399E-02  0.22203122301E-01 -0.44297019785E-02  0.24537497865E-01  0.00000000000E+00 0.  1.
     999901    1    3    3    0    0 -0.12297916659E+00  0.19124327176E-01 -0.38649947051E-01  0.88959734358E+00  0.88000000000E+00 0. -1.
        -11    1    4    4    0    0  0.66659629966E-01 -0.24463314646E-01  0.35597352606E-01  0.79431685518E-01  0.51100000000E-03 0. -1.
         11    1    4    4    0    0  0.46859732089E-01 -0.16864134831E-01  0.74822964244E-02  0.50363473032E-01  0.51100000000E-03 0.  1.
</event>
<event>
 8    1  0.1104109E+005  0.1043930E+01  0.7957747E-01            NaN
         13   -1    0    0    0    0  0.00000000000E+00  0.00000000000E+00  0.74505805969E-08  0.10566000000E+00  0.10566000000E+00 0. -1.
     999900   -1    0    0    0    0 -0.00000000000E+00 -0.00000000000E+00 -0.74505805969E-08  0.93827000000E+00  0.93827000000E+00 0. -1.
     999902    2    1    2    0    0 -0.70554569330E-03  0.21142100272E-01 -0.22719346638E-02  0.10226544768E+01  0.10224331426E+01 0.  0.
     999903    2    3    3    0    0  0.11325128936E+00 -0.39947189165E-01 -0.50732420611E-01  0.13188712212E+00  0.19970027931E-01 0.  0.
         14    1    1    2    0    0  0.70554569330E-03 -0.21142100272E-01  0.22719346638E-02  0.21275523161E-01  0.00000000000E+00 0.  1.
     999901    1    3    3    0    0 -0.11395683505E+00  0.61089289437E-01  0.48460485947E-01  0.89076735472E+00  0.88000000000E+00 0.  1.
        -11    1    4    4    0    0  0.49081185705E-01 -0.27592959136E-01 -0.21090021856E-01  0.60128066050E-01  0.51100000000E-03 0. -1.
         11    1    4    4    0    0  0.64170103655E-01 -0.12354230029E-01 -0.29642398755E-01  0.71759056068E-01  0.51100000000E-03 0.  1.
</event>
<event>
 8    1  0.1104109E+005  0.1043930E+01  0.7957747E-01            NaN
         13   -1    0    0    0    0  0.00000000000E+00  0.00000000000E+00  0.74505805969E-08  0.10566000000E+00  0.10566000000E+00 0.  1.
     999900   -1    0    0    0    0 -0.00000000000E+00 -0.00000000000E+00 -0.74505805969E-08  0.93827000000E+00  0.93827000000E+00 0.  1.
     999902    2    1    2    0    0  0.13957913740E-01  0.96931751520E-02 -0.14189654625E-01  0.10217911812E+01  0.10215513157E+01 0.  0.
     999903    2    3    3    0    0 -0.10959033405E+00 -0.39260913063E-01  0.52202905662E-01  0.12934026132E+00  0.21267327712E-01 0.  0.
         14    1    1    2    0    0 -0.13957913740E-01 -0.96931751520E-02  0.14189654625E-01  0.22138818823E-01  0.00000000000E+00 0.  1.
     999901    1    3    3    0    0  0.12354824779E+00  0.48954088215E-01 -0.66392560287E-01  0.89245091985E+00  0.88000000000E+00 0. -1.
        -11    1    4    4    0    0 -0.66655672706E-01 -0.32708450428E-01  0.39409015138E-01  0.84060412969E-01  0.51100000000E-03 0.  1.
         11    1    4    4    0    0 -0.42934661345E-01 -0.65524626343E-02  0.12793890523E-01  0.45279848355E-01  0.51100000000E-03 0. -1.
</event>
<event>
 8    1  0.1104109E+005  0.1043930E+01  0.7957747E-01            NaN
         13   -1    0    0    0    0  0.00000000000E+00  0.00000000000E+00  0.74505805969E-08  0.10566000000E+00  0.10566000000E+00 0.  1.
     999900   -1    0    0    0    0 -0.00000000000E+00 -0.00000000000E+00 -0.74505805969E-08  0.93827000000E+00  0.93827000000E+00 0. -1.
     999902    2    1    2    0    0 -0.23114965193E-02  0.21664007770E-01 -0.10308637998E-01  0.10198272975E+01  0.10195424349E+01 0.  0.
     999903    2    3    3    0    0 -0.12779223235E+00 -0.69134980997E-03  0.14458917710E-01  0.13030011476E+00  0.20921926080E-01 0.  0.
         14    1    1    2    0    0  0.23114965193E-02 -0.21664007770E-01  0.10308637998E-01  0.24102702467E-01  0.00000000000E+00 0.  1.
     999901    1    3    3    0    0  0.12548073583E+00  0.22355357580E-01 -0.24767555708E-01  0.88952718277E+00  0.88000000000E+00 0. -1.
        -11    1    4    4    0    0 -0.82050983005E-01  0.95337035125E-02  0.81839706706E-02  0.83008998378E-01  0.51100000000E-03 0. -1.
         11    1    4    4    0    0 -0.45741249347E-01 -0.10225053322E-01  0.62749470392E-02  0.47291116382E-01  0.51100000000E-03 0.  1.
</event>
<event>
 8    1  0.1104109E+005  0.1043930E+01  0.7957747E-01            NaN
         13   -1    0    0    0    0  0.00000000000E+00  0.00000000000E+00  0.74505805969E-08  0.10566000000E+00  0.10566000000E+00 0.  1.
     999900   -1    0    0    0    0 -0.00000000000E+00 -0.00000000000E+00 -0.74505805969E-08  0.93827000000E+00  0.93827000000E+00 0. -1.
     999902    2    1    2    0    0 -0.16096642266E-01  0.42846411830E-02  0.16526482524E-01  0.10204654594E+01  0.10201956524E+01 0.  0.
     999903    2    3    3    0    0  0.41932451958E-01 -0.85481980407E-01 -0.83962891266E-01  0.12831999120E+00  0.18728415069E-01 0.  0.
         14    1    1    2    0    0  0.16096642266E-01 -0.42846411830E-02 -0.16526482524E-01  0.23464540629E-01  0.00000000000E+00 0. -1.
     999901    1    3    3    0    0 -0.58029094224E-01  0.89766621590E-01  0.10048937379E+00  0.89214546817E+00  0.88000000000E+00 0. -1.
        -11    1    4    4    0    0  0.14851716692E-01 -0.43084996355E-01 -0.49799454964E-01  0.67506571793E-01  0.51100000000E-03 0. -1.
         11    1    4    4    0    0  0.27080735267E-01 -0.42396984053E-01 -0.34163436302E-01  0.60813419410E-01  0.51100000000E-03 0.  1.
</event>
<event>
 8    1  0.1104109E+005  0.1043930E+01  0.7957747E-01            NaN
         13   -1    0    0    0    0  0.00000000000E+00  0.00000000000E+00  0.74505805969E-08  0.10566000000E+00  0.10566000000E+00 0. -1.
     999900   -1    0    0    0    0 -0.00000000000E+00 -0.00000000000E+00 -0.74505805969E-08  0.93827000000E+00  0.93827000000E+00 0. -1.
     999902    2    1    2    0    0 -0.91986271452E-02  0.18585460362E-01 -0.10674929497E-01  0.10206064454E+01  0.10203399082E+01 0.  0.
     999903    2    3    3    0    0  0.99696009872E-01  0.54190502199E-01  0.60817015987E-01  0.13030489020E+00  0.20118401089E-01 0.  0.
         14    1    1    2    0    0  0.91986271452E-02 -0.18585460362E-01  0.10674929497E-01  0.23323554575E-01  0.00000000000E+00 0. -1.
     999901    1    3    3    0    0 -0.10889463702E+00 -0.35605041836E-01 -0.71491945484E-01  0.89030155523E+00  0.88000000000E+00 0. -1.
        -11    1    4    4    0    0  0.73562579540E-01  0.39365042221E-01  0.54324400313E-01  0.99561344145E-01  0.51100000000E-03 0.  1.
         11    1    4    4    0    0  0.26133430332E-01  0.14825459977E-01  0.64926156744E-02  0.30743546050E-01  0.51100000000E-03 0. -1.
</event>
<event>
 8    1  0.1104109E+005  0.1043930E+01  0.7957747E-01            NaN
         13   -1    0    0    0    0  0.00000000000E+00  0.00000000000E+00  0.74505805969E-08  0.10566000000E+00  0.10566000000E+00 0.  1.
     999900   -1    0    0    0    0 -0.00000000000E+00 -0.00000000000E+00 -0.74505805969E-08  0.93827000000E+00  0.93827000000E+00 0. -1.
     999902    2    1    2    0    0  0.69459771655E-02  0.64127551035E-02 -0.24962909691E-01  0.10172369880E+01  0.10168867061E+01 0.  0.
     999903    2    3    3    0    0 -0.59109577946E-02 -0.12172409865E+00  0.26297097463E-01  0.12638798715E+00  0.20753080424E-01 0.  0.
         14    1    1    2    0    0 -0.69459771655E-02 -0.64127551035E-02  0.24962909691E-01  0.26693011951E-01  0.00000000000E+00 0.  1.
     999901    1    3    3    0    0  0.12856934960E-01  0.12813685375E+00 -0.51260007154E-01  0.89084900090E+00  0.88000000000E+00 0. -1.
        -11    1    4    4    0    0  0.27051965631E-02 -0.46295057891E-01  0.18996007651E-01  0.50116463375E-01  0.51100000000E-03 0.  1.
         11    1    4    4    0    0 -0.86161543576E-02 -0.75429040758E-01  0.73010898119E-02  0.76271523776E-01  0.51100000000E-03 0. -1.
</event>
<event>
 8    1  0.1104109E+005  0.1043930E+01  0.7957747E-01            NaN
         13   -1    0    0    0    0  0.00000000000E+00  0.00000000000E+00  0.74505805969E-08  0.10566000000E+00  0.10566000000E+00 0.  1.
     999900   -1    0    0    0    0 -0.00000000000E+00 -0.00000000000E+00 -0.74505805969E-08  0.93827000000E+00  0.93827000000E+00 0.  1.
     999902    2    1    2    0    0 -0.11181485517E-01  0.21326845149E-01  0.70765438442E-03  0.10198393230E+01  0.10195547480E+01 0.  0.
     999903    2    3    3    0    0 -0.27627079298E-01 -0.11491874747E+00 -0.45036156607E-01  0.12802890858E+00  0.19838649141E-01 0.  0.
         14    1    1    2    0    0  0.11181485517E-01 -0.21326845149E-01 -0.70765438442E-03  0.24090676975E-01  0.00000000000E+00 0.  1.
     999901    1    3    3    0    0  0.16445593781E-01  0.13624559262E+00  0.45743810991E-01  0.89181041444E+00  0.88000000000E+00 0. -1.
        -11    1    4    4    0    0 -0.67983221794E-02 -0.26771424864E-01 -0.18601388053E-02  0.27688402104E-01  0.51100000000E-03 0.  1.
         11    1    4    4    0    0 -0.20828757119E-01 -0.88147322610E-01 -0.43176017801E-01  0.10034050648E+00  0.51100000000E-03 0. -1.
</event>
<event>
 8    1  0.1104109E+005  0.1043930E+01  0.7957747E-01            NaN
         13   -1    0    0    0    0  0.00000000000E+00  0.00000000000E+00  0.74505805969E-08  0.10566000000E+00  0.10566000000E+00 0. -1.
     999900   -1    0    0    0    0 -0.00000000000E+00 -0.00000000000E+00 -0.74505805969E-08  0.93827000000E+00  0.93827000000E+00 0.  1.
     999902    2    1    2    0    0  0.16038177620E-01 -0.96921873453E-02 -0.62756587364E-02  0.10241677752E+01  0.10239770926E+01 0.  0.
     999903    2    3    3    0    0 -0.14017111494E-01 -0.12937789341E+00  0.29021557104E-01  0.13485687225E+00  0.20223909111E-01 0.  0.
         14    1    1    2    0    0 -0.16038177620E-01  0.96921873453E-02  0.62756587364E-02  0.19762224811E-01  0.00000000000E+00 0. -1.
     999901    1    3    3    0    0  0.30055289114E-01  0.11968570606E+00 -0.35297215840E-01  0.88931090294E+00  0.88000000000E+00 0.  1.
        -11    1    4    4    0    0 -0.56967831316E-02 -0.10262856990E+00  0.16246980841E-01  0.10406393326E+00  0.51100000000E-03 0. -1.
         11    1    4    4    0    0 -0.83203283624E-02 -0.26749323504E-01  0.12774576262E-01  0.30792938990E-01  0.51100000000E-03 0.  1.
</event>
<event>
 8    1  0.1104109E+005  0.1043930E+01  0.7957747E-01            NaN
         13   -1    0    0    0    0  0.00000000000E+00  0.00000000000E+00  0.74505805969E-08  0.10566000000E+00  0.10566000000E+00 0. -1.
     999900   -1    0    0    0    0 -0.00000000000E+00 -0.00000000000E+00 -0.74505805969E-08  0.93827000000E+00  0.93827000000E+00 0.  1.
     999902    2    1    2    0    0  0.14938361664E-02 -0.21861364368E-01  0.42544689572E-02  0.10216084565E+01  0.10213645711E+01 0.  0.
     999903    2    3    3    0    0  0.96661186466E-01  0.83166353952E-01  0.23789940768E-01  0.13005403816E+00  0.93842507649E-02 0.  0.
         14    1    1    2    0    0 -0.14938361664E-02  0.21861364368E-01 -0.42544689572E-02  0.22321543510E-01  0.00000000000E+00 0. -1.
     999901    1    3    3    0    0 -0.95167350299E-01 -0.10502771832E+00 -0.19535471811E-01  0.89155441833E+00  0.88000000000E+00 0.  1.
        -11    1    4    4    0    0  0.86402449387E-01  0.70545785742E-01  0.21870266616E-01  0.11366908475E+00  0.51100000000E-03 0.  1.
         11    1    4    4    0    0  0.10258737079E-01  0.12620568210E-01  0.19196741523E-02  0.16384953410E-01  0.51100000000E-03 0. -1.
</event>
<event>
 8    1  0.1104109E+005  0.1043930E+01  0.7957747E-01            NaN
         13   -1    0    0    0    0  0.00000000000E+00  0.00000000000E+00  0.74505805969E-08  0.10566000000E+00  0.10566000000E+00 0. -1.
     999900   -1    0    0    0    0 -0.00000000000E+00 -0.00000000000E+00 -0.74505805969E-08  0.93827000000E+00  0.93827000000E+00 0.  1.
     999902    2    1    2    0    0  0.21529524808E-01  0.25067374392E-02  0.55219008920E-02  0.10215627123E+01  0.10213178151E+01 0.  0.
     999903    2    3    3    0    0 -0.20549735797E-01  0.29288389420E-01  0.12553288040E+00  0.13201757218E+00  0.19749276082E-01 0.  0.
         14    1    1    2    0    0 -0.21529524808E-01 -0.25067374392E-02 -0.55219008920E-02  0.22367287732E-01  0.00000000000E+00 0.  1.
     999901    1    3    3    0    0  0.42079260605E-01 -0.26781651981E-01 -0.12001097951E+00  0.88954514009E+00  0.88000000000E+00 0.  1.
        -11    1    4    4    0    0 -0.23562175438E-01  0.24500883379E-01  0.93578024627E-01  0.99561926517E-01  0.51100000000E-03 0. -1.
         11    1    4    4    0    0  0.30124396414E-02  0.47875060405E-02  0.31954855774E-01  0.32455645661E-01  0.51100000000E-03 0.  1.
</event>
<event>
 8    1  0.1389846E+005  0.1043930E+01  0.7957747E-01            NaN
         13   -1    0    0    0    0  0.00000000000E+00  0.00000000000E+00  0.74505805969E-08  0.10566000000E+00  0.10566000000E+00 0. -1.
     999900   -1    0    0    0    0 -0.00000000000E+00 -0.00000000000E+00 -0.74505805969E-08  0.93827000000E+00  0.93827000000E+00 0.  1.
     999902    2    1    2    0    0  0.97166877251E-02  0.53136148204E-02  0.20563654946E-01  0.10205737925E+01  0.10203064998E+01 0.  0.
     999903    2    3    3    0    0 -0.43106759046E-01  0.12218804596E+00  0.66118286148E-02  0.13116691002E+00  0.19311415167E-01 0.  0.
         14    1    1    2    0    0 -0.97166877251E-02 -0.53136148204E-02 -0.20563654946E-01  0.23356207474E-01  0.00000000000E+00 0.  1.
     999901    1    3    3    0    0  0.52823446771E-01 -0.11687443114E+00  0.13951826331E-01  0.88940688250E+00  0.88000000000E+00 0.  1.
        -11    1    4    4    0    0 -0.20336934746E-01  0.84864432166E-01  0.50704399762E-02  0.87415863802E-01  0.51100000000E-03 0. -1.
         11    1    4    4    0    0 -0.22769824300E-01  0.37323613798E-01  0.15413886386E-02  0.43751046222E-01  0.51100000000E-03 0.  1.
</event>
<event>
 8    1  0.1104109E+005  0.1043930E+01  0.7957747E-01            NaN
         13   -1    0    0    0    0  0.00000000000E+00  0.00000000000E+00  0.74505805969E-08  0.10566000000E+00  0.10566000000E+00 0.  1.
     999900   -1    0    0    0    0 -0.00000000000E+00 -0.00000000000E+00 -0.74505805969E-08  0.93827000000E+00  0.93827000000E+00 0. -1.
     999902    2    1    2    0    0  0.42951849028E-02 -0.23590390881E-01  0.77727401171E-03  0.10199391828E+01  0.10196569900E+01 0.  0.
     999903    2    3    3    0    0 -0.63376627688E-02 -0.11674638556E+00  0.60066182473E-01  0.13297454344E+00  0.20109659809E-01 0.  0.
         14    1    1    2    0    0 -0.42951849028E-02  0.23590390881E-01 -0.77727401171E-03  0.23990817204E-01  0.00000000000E+00 0.  1.
     999901    1    3    3    0    0  0.10632847672E-01  0.93155994675E-01 -0.59288908462E-01  0.88696463935E+00  0.88000000000E+00 0. -1.
        -11    1    4    4    0    0 -0.64129118953E-02 -0.91920171717E-01  0.37713151080E-01  0.99563980901E-01  0.51100000000E-03 0. -1.
         11    1    4    4    0    0  0.75249126480E-04 -0.24826213838E-01  0.22353031393E-01  0.33410562543E-01  0.51100000000E-03 0.  1.
</event>
<event>
 8    1  0.1104109E+005  0.1043930E+01  0.7957747E-01            NaN
         13   -1    0    0    0    0  0.00000000000E+00  0.00000000000E+00  0.74505805969E-08  0.10566000000E+00  0.10566000000E+00 0. -1.
     999900   -1    0    0    0    0 -0.00000000000E+00 -0.00000000000E+00 -0.74505805969E-08  0.93827000000E+00  0.93827000000E+00 0.  1.
     999902    2    1    2    0    0  0.16510136622E-02  0.24393875167E-01  0.26559693255E-02  0.10193364812E+01  0.10190397543E+01 0.  0.
     999903    2    3    3    0    0  0.32616657410E-01  0.12747303657E+00 -0.11703592034E-02  0.13277073332E+00  0.17705267315E-01 0.  0.
         14    1    1    2    0    0 -0.16510136622E-02 -0.24393875167E-01 -0.26559693255E-02  0.24593518756E-01  0.00000000000E+00 0.  1.
     999901    1    3    3    0    0 -0.30965643747E-01 -0.10307916141E+00  0.38263285288E-02  0.88656574793E+00  0.88000000000E+00 0. -1.
        -11    1    4    4    0    0  0.32201103624E-01  0.10161598255E+00  0.26174747865E-02  0.10662941095E+00  0.51100000000E-03 0. -1.
         11    1    4    4    0    0  0.41555378588E-03  0.25857054023E-01 -0.37878339898E-02  0.26141322366E-01  0.51100000000E-03 0.  1.
</event>
<event>
 8    1  0.1104109E+005  0.1043930E+01  0.7957747E-01            NaN
         13   -1    0    0    0    0  0.00000000000E+00  0.00000000000E+00  0.74505805969E-08  0.10566000000E+00  0.10566000000E+00 0. -1.
     999900   -1    0    0    0    0 -0.00000000000E+00 -0.00000000000E+00 -0.74505805969E-08  0.93827000000E+00  0.93827000000E+00 0. -1.
     999902    2    1    2    0    0  0.13962503411E-01  0.14129677744E-01  0.13845514697E-01  0.10197164176E+01  0.10194288964E+01 0.  0.
     999903    2    3    3    0    0  0.11216266035E+00 -0.41865401449E-01 -0.47452632751E-01  0.13037048796E+00  0.20286388559E-01 0.  0.
         14    1    1    2    0    0 -0.13962503411E-01 -0.14129677744E-01 -0.13845514697E-01  0.24213582384E-01  0.00000000000E+00 0.  1.
     999901    1    3    3    0    0 -0.98200156938E-01  0.55995079193E-01  0.61298147449E-01  0.88934592966E+00  0.88000000000E+00 0. -1.
        -11    1    4    4    0    0  0.75150364463E-01 -0.18183038260E-01 -0.26984328698E-01  0.81893926976E-01  0.51100000000E-03 0.  1.
         11    1    4    4    0    0  0.37012295885E-01 -0.23682363188E-01 -0.20468304054E-01  0.48476560983E-01  0.51100000000E-03 0. -1.
</event>
<event>
 8    1  0.1104109E+005  0.1043930E+01  0.7957747E-01            NaN
         13   -1    0    0    0    0  0.00000000000E+00  0.00000000000E+00  0.74505805969E-08  0.10566000000E+00  0.10566000000E+00 0.  1.
     999900   -1    0    0    0    0 -0.00000000000E+00 -0.00000000000E+00 -0.74505805969E-08  0.93827000000E+00  0.93827000000E+00 0. -1.
     999902    2    1    2    0    0  0.51962281369E-02 -0.20216983461E-01  0.90522906245E-02  0.10211776117E+01  0.10209241125E+01 0.  0.
     999903    2    3    3    0    0  0.57496693399E-01 -0.10203235710E+00  0.62396022805E-01  0.13423079945E+00  0.20203272257E-01 0.  0.
         14    1    1    2    0    0 -0.51962281369E-02  0.20216983461E-01 -0.90522906245E-02  0.22752388285E-01  0.00000000000E+00 0. -1.
     999901    1    3    3    0    0 -0.52300465263E-01  0.81815373644E-01 -0.53343732181E-01  0.88694681227E+00  0.88000000000E+00 0. -1.
        -11    1    4    4    0    0  0.48260126204E-01 -0.66750948717E-01  0.43613029999E-01  0.93204540890E-01  0.51100000000E-03 0.  1.
         11    1    4    4    0    0  0.92365671956E-02 -0.35281408387E-01  0.18782992807E-01  0.41026258556E-01  0.51100000000E-03 0. -1.
</event>
<event>
 8    1  0.1104109E+005  0.1043930E+01  0.7957747E-01            NaN
         13   -1    0    0    0    0  0.00000000000E+00  0.00000000000E+00  0.74505805969E-08  0.10566000000E+00  0.10566000000E+00 0. -1.
     999900   -1    0    0    0    0 -0.00000000000E+00 -0.00000000000E+00 -0.74505805969E-08  0.93827000000E+00  0.93827000000E+00 0.  1.
     999902    2    1    2    0    0 -0.15608831823E-01 -0.53038304590E-02  0.11413627588E-01  0.10238791361E+01  0.10236827869E+01 0.  0.
     999903    2    3    3    0    0  0.79269855768E-01  0.10152718144E+00  0.22865308182E-01  0.13228170931E+00  0.19599737164E-01 0.  0.
         14    1    1    2    0    0  0.15608831823E-01  0.53038304590E-02 -0.11413627588E-01  0.20050863900E-01  0.00000000000E+00 0.  1.
     999901    1    3    3    0    0 -0.94878687591E-01 -0.10683101190E+00 -0.11451680593E-01  0.89159742679E+00  0.88000000000E+00 0. -1.
        -11    1    4    4    0    0  0.38125326857E-01  0.36544647308E-01  0.15357479904E-01  0.55001500933E-01  0.51100000000E-03 0.  1.
         11    1    4    4    0    0  0.41144528911E-01  0.64982534129E-01  0.75078282774E-02  0.77280208382E-01  0.51100000000E-03 0. -1.
</event>
<event>
 8    1  0.1104109E+005  0.1043930E+01  0.7957747E-01            NaN
         13   -1    0    0    0    0  0.00000000000E+00  0.00000000000E+00  0.74505805969E-08  0.10566000000E+00  0.10566000000E+00 0.  1.
     999900   -1    0    0    0    0 -0.00000000000E+00 -0.00000000000E+00 -0.74505805969E-08  0.93827000000E+00  0.93827000000E+00 0.  1.
     999902    2    1    2    0    0 -0.26081641404E-02  0.22163671618E-01  0.27678274031E-02  0.10214424095E+01  0.10211948414E+01 0.  0.
     999903    2    3    3    0    0 -0.62000340210E-03 -0.68549836707E-01  0.10904551648E+00  0.13041612445E+00  0.20444469591E-01 0.  0.
         14    1    1    2    0    0  0.26081641404E-02 -0.22163671618E-01 -0.27678274031E-02  0.22487590540E-01  0.00000000000E+00 0.  1.
     999901    1    3    3    0    0 -0.19881607383E-02  0.90713508324E-01 -0.10627768908E+00  0.89102628501E+00  0.88000000000E+00 0.  1.
        -11    1    4    4    0    0 -0.10305210914E-01 -0.42326594378E-01  0.65302345531E-01  0.78500926214E-01  0.51100000000E-03 0.  1.
         11    1    4    4    0    0  0.96852075116E-02 -0.26223242329E-01  0.43743170948E-01  0.51915198241E-01  0.51100000000E-03 0. -1.
</event>
<event>
 8    1  0.1104109E+005  0.1043930E+01  0.7957747E-01            NaN
         13   -1    0    0    0    0  0.00000000000E+00  0.00000000000E+00  0.74505805969E-08  0.10566000000E+00  0.10566000000E+00 0. -1.
     999900   -1    0    0    0    0 -0.00000000000E+00 -0.00000000000E+00 -0.74505805969E-08  0.93827000000E+00  0.93827000000E+00 0. -1.
     999902    2    1    2    0    0 -0.16227068373E-01  0.15485466413E-01 -0.65575111889E-02  0.10205608243E+01  0.10202932313E+01 0.  0.
     999903    2    3    3    0    0 -0.10629196649E+00 -0.28166466060E-01 -0.71233444853E-01  0.13252920695E+00  0.19961339616E-01 0.  0.
         14    1    1    2    0    0  0.16227068373E-01 -0.15485466413E-01  0.65575111889E-02  0.23369175659E-01  0.00000000000E+00 0.  1.
     999901    1    3    3    0    0  0.90064898119E-01  0.43651932473E-01  0.64675933664E-01  0.88803161739E+00  0.88000000000E+00 0.  1.
        -11    1    4    4    0    0 -0.98845920916E-01 -0.22822912901E-01 -0.59419876949E-01  0.11756863669E+00  0.51100000000E-03 0. -1.
         11    1    4    4    0    0 -0.74460455767E-02 -0.53435531586E-02 -0.11813567904E-01  0.14960570267E-01  0.51100000000E-03 0.  1.
</event>
<event>
 8    1  0.1104109E+005  0.1043930E+01  0.7957747E-01            NaN
         13   -1    0    0    0    0  0.00000000000E+00  0.00000000000E+00  0.74505805969E-08  0.10566000000E+00  0.10566000000E+00 0.  1.
     999900   -1    0    0    0    0 -0.00000000000E+00 -0.00000000000E+00 -0.74505805969E-08  0.93827000000E+00  0.93827000000E+00 0.  1.
     999902    2    1    2    0    0  0.20719313082E-02  0.46939883854E-02  0.23624301610E-01  0.10197549291E+01  0.10194683327E+01 0.  0.
     999903    2    3    3    0    0  0.41995560605E-02  0.35527443149E-01 -0.12102422751E+00  0.12741058655E+00  0.17514520621E-01 0.  0.
         14    1    1    2    0    0 -0.20719313082E-02 -0.46939883854E-02 -0.23624301610E-01  0.24175070897E-01  0.00000000000E+00 0. -1.
     999901    1    3    3    0    0 -0.21276247523E-02 -0.30833454764E-01  0.14464852912E+00  0.89234434256E+00  0.88000000000E+00 0. -1.
        -11    1    4    4    0    0 -0.40625567811E-02  0.27493926693E-01 -0.75724205576E-01  0.80664966396E-01  0.51100000000E-03 0. -1.
         11    1    4    4    0    0  0.82621128416E-02  0.80335164559E-02 -0.45300021930E-01  0.46745620149E-01  0.51100000000E-03 0.  1.
</event>
<event>
 8    1  0.1104109E+005  0.1043930E+01  0.7957747E-01            NaN
         13   -1    0    0    0    0  0.00000000000E+00  0.00000000000E+00  0.74505805969E-08  0.10566000000E+00  0.10566000000E+00 0.  1.
     999900   -1    0    0    0    0 -0.00000000000E+00 -0.00000000000E+00 -0.74505805969E-08  0.93827000000E+00  0.93827000000E+00 0.  1.
     999902    2    1    2    0    0 -0.12678877403E-01 -0.18523016093E-01  0.68387667967E-02  0.10204646044E+01  0.10201947775E+01 0.  0.
     999903    2    3    3    0    0  0.59224618156E-01  0.15178266594E-01  0.11292724548E+00  0.13054289191E+00  0.23472296075E-01 0.  0.
         14    1    1    2    0    0  0.12678877403E-01  0.18523016093E-01 -0.68387667967E-02  0.23465395557E-01  0.00000000000E+00 0. -1.
     999901    1    3    3    0    0 -0.71903495559E-01 -0.33701282686E-01 -0.10608847869E+00  0.88992171253E+00  0.88000000000E+00 0.  1.
        -11    1    4    4    0    0  0.11255043755E-01  0.40249119551E-02  0.45479390727E-01  0.47026716110E-01  0.51100000000E-03 0.  1.
         11    1    4    4    0    0  0.47969574401E-01  0.11153354639E-01  0.67447854757E-01  0.83516175800E-01  0.51100000000E-03 0. -1.
</event>
<event>
 8    1  0.1104109E+005  0.1043930E+01  0.7957747E-01            NaN
         13   -1    0    0    0    0  0.00000000000E+00  0.00000000000E+00  0.74505805969E-08  0.10566000000E+00  0.10566000000E+00 0. -1.
     999900   -1    0    0    0    0 -0.00000000000E+00 -0.00000000000E+00 -0.74505805969E-08  0.93827000000E+00  0.93827000000E+00 0. -1.
     999902    2    1    2    0    0 -0.57013151117E-02 -0.22089830281E-01 -0.10933976375E-01  0.10186314341E+01  0.10183172301E+01 0.  0.
     999903    2    3    3    0    0  0.27734100697E-01 -0.12222003224E+00  0.33204104919E-01  0.13122388706E+00  0.20255353093E-01 0.  0.
         14    1    1    2    0    0  0.57013151117E-02  0.22089830281E-01  0.10933976375E-01  0.25298565873E-01  0.00000000000E+00 0.  1.
     999901    1    3    3    0    0 -0.33435415809E-01  0.10013020196E+00 -0.44138081294E-01  0.88740754707E+00  0.88000000000E+00 0. -1.
        -11    1    4    4    0    0  0.23265392158E-01 -0.10315972022E+00  0.20059114305E-01  0.10763751918E+00  0.51100000000E-03 0.  1.
         11    1    4    4    0    0  0.44687085395E-02 -0.19060312021E-01  0.13144990614E-01  0.23586367876E-01  0.51100000000E-03 0. -1.
</event>
<event>
 8    1  0.1104109E+005  0.1043930E+01  0.7957747E-01            NaN
         13   -1    0    0    0    0  0.00000000000E+00  0.00000000000E+00  0.74505805969E-08  0.10566000000E+00  0.10566000000E+00 0.  1.
     999900   -1    0    0    0    0 -0.00000000000E+00 -0.00000000000E+00 -0.74505805969E-08  0.93827000000E+00  0.93827000000E+00 0.  1.
     999902    2    1    2    0    0 -0.76969733450E-02 -0.13624109913E-01  0.18102974449E-01  0.10200014093E+01  0.10197206958E+01 0.  0.
     999903    2    3    3    0    0  0.23585151361E-01 -0.22774855545E-01  0.12705628052E+00  0.13268346719E+00  0.19663433947E-01 0.  0.
         14    1    1    2    0    0  0.76969733450E-02  0.13624109913E-01 -0.18102974449E-01  0.23928590712E-01  0.00000000000E+00 0. -1.
     999901    1    3    3    0    0 -0.31282124706E-01  0.91507456325E-02 -0.10895330607E+00  0.88731794210E+00  0.88000000000E+00 0.  1.
        -11    1    4    4    0    0  0.98335388717E-02 -0.20951488836E-01  0.62450682532E-01  0.66603395116E-01  0.51100000000E-03 0. -1.
         11    1    4    4    0    0  0.13751612489E-01 -0.18233667091E-02  0.64605597989E-01  0.66080072070E-01  0.51100000000E-03 0.  1.
</event>
<event>
 8    1  0.1104109E+005  0.1043930E+01  0.7957747E-01            NaN
         13   -1    0    0    0    0  0.00000000000E+00  0.00000000000E+00  0.74505805969E-08  0.10566000000E+00  0.10566000000E+00 0.  1.
     999900   -1    0    0    0    0 -0.00000000000E+00 -0.00000000000E+00 -0.74505805969E-08  0.93827000000E+00  0.93827000000E+00 0.  1.
     999902    2    1    2    0    0 -0.22720634323E-01 -0.67318597646E-02 -0.11600723166E-02  0.10202046775E+01  0.10199287686E+01 0.  0.
     999903    2    3    3    0    0 -0.12938280490E+00  0.18268968145E-01 -0.17795032401E-01  0.13325564744E+00  0.19150430726E-01 0.  0.
         14    1    1    2    0    0  0.22720634323E-01  0.67318597646E-02  0.11600723166E-02  0.23725322500E-01  0.00000000000E+00 0.  1.
     999901    1    3    3    0    0  0.10666217057E+00 -0.25000827910E-01  0.16634960084E-01  0.88694903006E+00  0.88000000000E+00 0.  1.
        -11    1    4    4    0    0 -0.47441456090E-01 -0.23353643175E-02 -0.43727092860E-02  0.47702488299E-01  0.51100000000E-03 0.  1.
         11    1    4    4    0    0 -0.81941348805E-01  0.20604332463E-01 -0.13422323115E-01  0.85553159141E-01  0.51100000000E-03 0. -1.
</event>
<event>
 8    1  0.1104109E+005  0.1043930E+01  0.7957747E-01            NaN
         13   -1    0    0    0    0  0.00000000000E+00  0.00000000000E+00  0.74505805969E-08  0.10566000000E+00  0.10566000000E+00 0.  1.
     999900   -1    0    0    0    0 -0.00000000000E+00 -0.00000000000E+00 -0.74505805969E-08  0.93827000000E+00  0.93827000000E+00 0.  1.
     999902    2    1    2    0    0  0.94335914292E-02 -0.12105925295E-01  0.17609005884E-01  0.10205714221E+01  0.10203040745E+01 0.  0.
     999903    2    3    3    0    0 -0.59737193784E-01 -0.11333856285E+00 -0.19362905311E-01  0.13130230271E+00  0.21241714747E-01 0.  0.
         14    1    1    2    0    0 -0.94335914292E-02  0.12105925295E-01 -0.17609005884E-01  0.23358577926E-01  0.00000000000E+00 0. -1.
     999901    1    3    3    0    0  0.69170785214E-01  0.10123263756E+00  0.36971911194E-01  0.88926911936E+00  0.88000000000E+00 0. -1.
        -11    1    4    4    0    0 -0.44128227403E-01 -0.77653337378E-01 -0.39311027686E-02  0.89403892251E-01  0.51100000000E-03 0.  1.
         11    1    4    4    0    0 -0.15608966381E-01 -0.35685225472E-01 -0.15431802542E-01  0.41898410461E-01  0.51100000000E-03 0. -1.
</event>
<event>
 8    1  0.1104109E+005  0.1043930E+01  0.7957747E-01            NaN
         13   -1    0    0    0    0  0.00000000000E+00  0.00000000000E+00  0.74505805969E-08  0.10566000000E+00  0.10566000000E+00 0. -1.
     999900   -1    0    0    0    0 -0.00000000000E+00 -0.00000000000E+00 -0.74505805969E-08  0.93827000000E+00  0.93827000000E+00 0. -1.
     999902    2    1    2    0    0  0.82820063768E-02 -0.92800657207E-03  0.21468644149E-01  0.10209005513E+01  0.10206407694E+01 0.  0.
     999903    2    3    3    0    0  0.11620784281E+00 -0.26091303470E-01  0.56270303018E-01  0.13326755668E+00  0.20220677881E-01 0.  0.
         14    1    1    2    0    0 -0.82820063768E-02  0.92800657207E-03 -0.21468644149E-01  0.23029448700E-01  0.00000000000E+00 0.  1.
     999901    1    3    3    0    0 -0.10792583643E+00  0.25163296898E-01 -0.34801658869E-01  0.88763299462E+00  0.88000000000E+00 0. -1.
        -11    1    4    4    0    0  0.62780010602E-01 -0.23989959083E-01  0.28330564464E-01  0.72936478334E-01  0.51100000000E-03 0. -1.
         11    1    4    4    0    0  0.53427832208E-01 -0.21013443871E-02  0.27939738554E-01  0.60331078344E-01  0.51100000000E-03 0.  1.
</event>
<event>
 8    1  0.1104109E+005  0.1043930E+01  0.7957747E-01            NaN
         13   -1    0    0    0    0  0.00000000000E+00  0.00000000000E+00  0.74505805969E-08  0.10566000000E+00  0.10566000000E+00 0.  1.
     999900   -1    0    0    0    0 -0.00000000000E+00 -0.00000000000E+00 -0.74505805969E-08  0.93827000000E+00  0.93827000000E+00 0. -1.
     999902    2    1    2    0    0  0.11878925081E-01 -0.13418843572E-01 -0.14659854171E-01  0.10207764787E+01  0.10205138578E+01 0.  0.
     999903    2    3    3    0    0  0.87450718612E-01 -0.47540963180E-01 -0.84810784471E-01  0.13409921609E+00  0.29697798360E-01 0.  0.
         14    1    1    2    0    0 -0.11878925081E-01  0.13418843572E-01  0.14659854171E-01  0.23153521291E-01  0.00000000000E+00 0. -1.
     999901    1    3    3    0    0 -0.75571793531E-01  0.34122119608E-01  0.70150930300E-01  0.88667726262E+00  0.88000000000E+00 0.  1.
        -11    1    4    4    0    0  0.28756619362E-01 -0.32249127684E-01 -0.36041943226E-01  0.56269282793E-01  0.51100000000E-03 0. -1.
         11    1    4    4    0    0  0.58694099249E-01 -0.15291835496E-01 -0.48768841245E-01  0.77829933296E-01  0.51100000000E-03 0.  1.
</event>
<event>
 8    1  0.1104109E+005  0.1043930E+01  0.7957747E-01            NaN
         13   -1    0    0    0    0  0.00000000000E+00  0.00000000000E+00  0.74505805969E-08  0.10566000000E+00  0.10566000000E+00 0.  1.
     999900   -1    0    0    0    0 -0.00000000000E+00 -0.00000000000E+00 -0.74505805969E-08  0.93827000000E+00  0.93827000000E+00 0.  1.
     999902    2    1    2    0    0 -0.18583803439E-01  0.34608616639E-02  0.14675596884E-01  0.10199986720E+01  0.10197178936E+01 0.  0.
     999903    2    3    3    0    0  0.77203635595E-01 -0.95256757110E-01 -0.31826930203E-01  0.12810019870E+00  0.19038285027E-01 0.  0.
         14    1    1    2    0    0  0.18583803439E-01 -0.34608616639E-02 -0.14675596884E-01  0.23931327953E-01  0.00000000000E+00 0. -1.
     999901    1    3    3    0    0 -0.95787439033E-01  0.98717618774E-01  0.46502527087E-01  0.89189847335E+00  0.88000000000E+00 0. -1.
        -11    1    4    4    0    0  0.55182512870E-01 -0.75630502047E-01 -0.17273163824E-01  0.95203497184E-01  0.51100000000E-03 0. -1.
         11    1    4    4    0    0  0.22021122725E-01 -0.19626255063E-01 -0.14553766379E-01  0.32896701516E-01  0.51100000000E-03 0.  1.
</event>
<event>
 8    1  0.1104109E+005  0.1043930E+01  0.7957747E-01            NaN
         13   -1    0    0    0    0  0.00000000000E+00  0.00000000000E+00  0.74505805969E-08  0.10566000000E+00  0.10566000000E+00 0. -1.
     999900   -1    0    0    0    0 -0.00000000000E+00 -0.00000000000E+00 -0.74505805969E-08  0.93827000000E+00  0.93827000000E+00 0.  1.
     999902    2    1    2    0    0 -0.20050587695E-01  0.13743349447E-01 -0.86545059882E-02  0.10181267794E+01  0.10177997508E+01 0.  0.
     999903    2    3    3    0    0  0.65776294199E-01  0.11160228454E-02  0.10598427172E+00  0.12646106152E+00  0.20783836106E-01 0.  0.
         14    1    1    2    0    0  0.20050587695E-01 -0.13743349447E-01  0.86545059882E-02  0.25803220629E-01  0.00000000000E+00 0. -1.
     999901    1    3    3    0    0 -0.85826881894E-01  0.12627326601E-01 -0.11463877771E+00  0.89166571785E+00  0.88000000000E+00 0.  1.
        -11    1    4    4    0    0  0.30480900920E-01  0.89333403337E-02  0.60741708532E-01  0.68547109106E-01  0.51100000000E-03 0. -1.
         11    1    4    4    0    0  0.35295393280E-01 -0.78173174883E-02  0.45242563190E-01  0.57913952416E-01  0.51100000000E-03 0.  1.
</event>
<event>
 8    1  0.1104109E+005  0.1043930E+01  0.7957747E-01            NaN
         13   -1    0    0    0    0  0.00000000000E+00  0.00000000000E+00  0.74505805969E-08  0.10566000000E+00  0.10566000000E+00 0. -1.
     999900   -1    0    0    0    0 -0.00000000000E+00 -0.00000000000E+00 -0.74505805969E-08  0.93827000000E+00  0.93827000000E+00 0. -1.
     999902    2    1    2    0    0  0.28246728160E-01 -0.14109339223E-01 -0.11787940569E-01  0.10102267858E+01  0.10096644255E+01 0.  0.
     999903    2    3    3    0    0 -0.44249452468E-01 -0.11058910152E+00  0.22077570086E-02  0.12188005152E+00  0.25727598967E-01 0.  0.
         14    1    1    2    0    0 -0.28246728160E-01  0.14109339223E-01  0.11787940569E-01  0.33703214208E-01  0.00000000000E+00 0. -1.
     999901    1    3    3    0    0  0.72496180629E-01  0.96479762299E-01 -0.13995697578E-01  0.88834673427E+00  0.88000000000E+00 0. -1.
        -11    1    4    4    0    0 -0.19261751446E-01 -0.29629186423E-01 -0.88418221900E-02  0.36432714659E-01  0.51100000000E-03 0. -1.
         11    1    4    4    0    0 -0.24987701023E-01 -0.80959915099E-01  0.11049579199E-01  0.85447336862E-01  0.51100000000E-03 0.  1.
</event>
<event>
 8    1  0.1104109E+005  0.1043930E+01  0.7957747E-01            NaN
         13   -1    0    0    0    0  0.00000000000E+00  0.00000000000E+00  0.74505805969E-08  0.10566000000E+00  0.10566000000E+00 0. -1.
     999900   -1    0    0    0    0 -0.00000000000E+00 -0.00000000000E+00 -0.74505805969E-08  0.93827000000E+00  0.93827000000E+00 0.  1.
     999902    2    1    2    0    0  0.23260247102E-01 -0.52701267626E-02 -0.37500940432E-02  0.10197871639E+01  0.10195013404E+01 0.  0.
     999903    2    3    3    0    0 -0.29328016475E-01  0.76161683615E-01 -0.98116440414E-01  0.12944920975E+00  0.21668581500E-01 0.  0.
         14    1    1    2    0    0 -0.23260247102E-01  0.52701267626E-02  0.37500940432E-02  0.24142836136E-01  0.00000000000E+00 0. -1.
     999901    1    3    3    0    0  0.52588263578E-01 -0.81431810378E-01  0.94366346370E-01  0.89033795411E+00  0.88000000000E+00 0. -1.
        -11    1    4    4    0    0 -0.15787666059E-01  0.61421008494E-01 -0.82488183676E-01  0.10404975854E+00  0.51100000000E-03 0. -1.
         11    1    4    4    0    0 -0.13540350416E-01  0.14740675121E-01 -0.15628256738E-01  0.25399451216E-01  0.51100000000E-03 0.  1.
</event>
<event>
 8    1  0.1104109E+005  0.1043930E+01  0.7957747E-01            NaN
         13   -1    0    0    0    0  0.00000000000E+00  0.00000000000E+00  0.74505805969E-08  0.10566000000E+00  0.10566000000E+00 0.  1.
     999900   -1    0    0    0    0 -0.00000000000E+00 -0.00000000000E+00 -0.74505805969E-08  0.93827000000E+00  0.93827000000E+00 0.  1.
     999902    2    1    2    0    0 -0.17213834338E-01 -0.38264171656E-02 -0.15768396098E-01  0.10202741365E+01  0.10199998597E+01 0.  0.
     999903    2    3    3    0    0  0.98218951989E-01  0.22678416766E-01  0.75886296885E-01  0.12762201105E+00  0.19167016794E-01 0.  0.
         14    1    1    2    0    0  0.17213834338E-01  0.38264171656E-02  0.15768396098E-01  0.23655863468E-01  0.00000000000E+00 0.  1.
     999901    1    3    3    0    0 -0.11543278633E+00 -0.26504833932E-01 -0.91654692983E-01  0.89265212548E+00  0.88000000000E+00 0.  1.
        -11    1    4    4    0    0  0.85477357931E-01  0.12828722672E-01  0.62342163990E-01  0.10657279848E+00  0.51100000000E-03 0. -1.
         11    1    4    4    0    0  0.12741594058E-01  0.98496940942E-02  0.13544132894E-01  0.21049212569E-01  0.51100000000E-03 0.  1.
</event>
<event>
 8    1  0.1104109E+005  0.1043930E+01  0.7957747E-01            NaN
         13   -1    0    0    0    0  0.00000000000E+00  0.00000000000E+00  0.74505805969E-08  0.10566000000E+00  0.10566000000E+00 0.  1.
     999900   -1    0    0    0    0 -0.00000000000E+00 -0.00000000000E+00 -0.74505805969E-08  0.93827000000E+00  0.93827000000E+00 0. -1.
     999902    2    1    2    0    0 -0.26917388530E-02 -0.92869347657E-03  0.22777321142E-01  0.10209753863E+01  0.10207173092E+01 0.  0.
     999903    2    3    3    0    0  0.10725820211E+00 -0.66218450413E-01 -0.20405201950E-01  0.13068528072E+00  0.27804050705E-01 0.  0.
         14    1    1    2    0    0  0.26917388530E-02  0.92869347657E-03 -0.22777321142E-01  0.22954613655E-01  0.00000000000E+00 0. -1.
     999901    1    3    3    0    0 -0.10994994096E+00  0.65289756936E-01  0.43182523093E-01  0.89029010563E+00  0.88000000000E+00 0.  1.
        -11    1    4    4    0    0  0.69396056803E-01 -0.27198718353E-01 -0.84576322148E-02  0.75015835952E-01  0.51100000000E-03 0.  1.
         11    1    4    4    0    0  0.37862145302E-01 -0.39019732060E-01 -0.11947569736E-01  0.55669444766E-01  0.51100000000E-03 0. -1.
</event>
<event>
 7    1  0.1104109E+005  0.1043930E+01  0.7957747E-01            NaN
         13   -1    0    0    0    0  0.00000000000E+00  0.00000000000E+00  0.74505805969E-08  0.10566000000E+00  0.10566000000E+00 0.  1.
     999900   -1    0    0    0    0 -0.00000000000E+00 -0.00000000000E+00 -0.74505805969E-08  0.93827000000E+00  0.93827000000E+00 0. -1.
     999903    2    1    2    0    0  0.18031293200E-01  0.10152807595E+00  0.28663191777E-01  0.10882994865E+00  0.19730722709E-01 0.  0.
         14    1    1    2    0    0 -0.20104649433E-01 -0.28541881397E-01  0.35446013509E-01  0.49751942637E-01  0.00000000000E+00 0.  1.
     999901    1    1    2    0    0  0.20733562334E-02 -0.72986194557E-01 -0.64109205286E-01  0.88534810871E+00  0.88000000000E+00 0. -1.
        -11    1    3    3    0    0  0.17957637862E-02  0.49737465448E-01  0.20968495510E-01  0.54009065552E-01  0.51100000000E-03 0. -1.
         11    1    3    3    0    0  0.16235529414E-01  0.51790610505E-01  0.76946962671E-02  0.54820883097E-01  0.51100000000E-03 0.  1.
</event>
<event>
 8    1  0.1104109E+005  0.1043930E+01  0.7957747E-01            NaN
         13   -1    0    0    0    0  0.00000000000E+00  0.00000000000E+00  0.74505805969E-08  0.10566000000E+00  0.10566000000E+00 0. -1.
     999900   -1    0    0    0    0 -0.00000000000E+00 -0.00000000000E+00 -0.74505805969E-08  0.93827000000E+00  0.93827000000E+00 0.  1.
     999902    2    1    2    0    0  0.21437321287E-01 -0.87764698485E-02 -0.76694609168E-02  0.10195290615E+01  0.10192370193E+01 0.  0.
     999903    2    3    3    0    0  0.47152800778E-01 -0.93308463036E-01 -0.76867494258E-01  0.13240149936E+00  0.26299989820E-01 0.  0.
         14    1    1    2    0    0 -0.21437321287E-01  0.87764698485E-02  0.76694609168E-02  0.24400938460E-01  0.00000000000E+00 0. -1.
     999901    1    3    3    0    0 -0.25715479491E-01  0.84531993188E-01  0.69198033341E-01  0.88712756218E+00  0.88000000000E+00 0. -1.
        -11    1    4    4    0    0  0.50203215002E-01 -0.90136412017E-01 -0.71967184585E-01  0.12579535900E+00  0.51100000000E-03 0.  1.
         11    1    4    4    0    0 -0.30504142233E-02 -0.31720510194E-02 -0.49003096721E-02  0.66061403623E-02  0.51100000000E-03 0. -1.
</event>
<event>
 8    1  0.1104109E+005  0.1043930E+01  0.7957747E-01            NaN
         13   -1    0    0    0    0  0.00000000000E+00  0.00000000000E+00  0.74505805969E-08  0.10566000000E+00  0.10566000000E+00 0.  1.
     999900   -1    0    0    0    0 -0.00000000000E+00 -0.00000000000E+00 -0.74505805969E-08  0.93827000000E+00  0.93827000000E+00 0. -1.
     999902    2    1    2    0    0  0.13399030919E-01  0.36235565672E-02 -0.18898865292E-01  0.10204815181E+01  0.10202120846E+01 0.  0.
     999903    2    3    3    0    0  0.38946891068E-02 -0.12293016837E-01  0.12612775626E+00  0.12841852106E+00  0.20416140320E-01 0.  0.
         14    1    1    2    0    0 -0.13399030919E-01 -0.36235565672E-02  0.18898865292E-01  0.23448481850E-01  0.00000000000E+00 0.  1.
     999901    1    3    3    0    0  0.95043418126E-02  0.15916573405E-01 -0.14502662155E+00  0.89206299709E+00  0.88000000000E+00 0. -1.
        -11    1    4    4    0    0 -0.83521276633E-02 -0.56347005661E-02  0.59079391164E-01  0.59934493143E-01  0.51100000000E-03 0. -1.
         11    1    4    4    0    0  0.12246816770E-01 -0.66583162714E-02  0.67048365095E-01  0.68484027915E-01  0.51100000000E-03 0.  1.
</event>
<event>
 8    1  0.1104109E+005  0.1043930E+01  0.7957747E-01            NaN
         13   -1    0    0    0    0  0.00000000000E+00  0.00000000000E+00  0.74505805969E-08  0.10566000000E+00  0.10566000000E+00 0.  1.
     999900   -1    0    0    0    0 -0.00000000000E+00 -0.00000000000E+00 -0.74505805969E-08  0.93827000000E+00  0.93827000000E+00 0.  1.
     999902    2    1    2    0    0 -0.17980293675E-02  0.22235001286E-01  0.74187518546E-02  0.10204211491E+01  0.10201503102E+01 0.  0.
     999903    2    3    3    0    0  0.10347770026E+00  0.30512259931E-01 -0.70090250045E-01  0.13072505624E+00  0.23189754684E-01 0.  0.
         14    1    1    2    0    0  0.17980293675E-02 -0.22235001286E-01 -0.74187518546E-02  0.23508850905E-01  0.00000000000E+00 0. -1.
     999901    1    3    3    0    0 -0.10527572962E+00 -0.82772586448E-02  0.77509001900E-01  0.88969609285E+00  0.88000000000E+00 0. -1.
        -11    1    4    4    0    0  0.10346071942E+00  0.29420924032E-01 -0.65406564564E-01  0.12588880428E+00  0.51100000000E-03 0. -1.
         11    1    4    4    0    0  0.16980837233E-04  0.10913358986E-02 -0.46836854809E-02  0.48362519658E-02  0.51100000000E-03 0.  1.
</event>
<event>
 8    1  0.1104109E+005  0.1043930E+01  0.7957747E-01            NaN
         13   -1    0    0    0    0  0.00000000000E+00  0.00000000000E+00  0.74505805969E-08  0.10566000000E+00  0.10566000000E+00 0.  1.
     999900   -1    0    0    0    0 -0.00000000000E+00 -0.00000000000E+00 -0.74505805969E-08  0.93827000000E+00  0.93827000000E+00 0. -1.
     999902    2    1    2    0    0 -0.63127838240E-02  0.15317962542E-01 -0.26809721403E-01  0.10124140933E+01  0.10119234377E+01 0.  0.
     999903    2    3    3    0    0 -0.12104048130E+00 -0.32911622850E-02 -0.18413097487E-01  0.12473214155E+00  0.23610063825E-01 0.  0.
         14    1    1    2    0    0  0.63127838240E-02 -0.15317962542E-01  0.26809721403E-01  0.31515906742E-01  0.00000000000E+00 0.  1.
     999901    1    3    3    0    0  0.11472769748E+00  0.18609124827E-01 -0.83966239162E-02  0.88768195171E+00  0.88000000000E+00 0. -1.
        -11    1    4    4    0    0 -0.28409872013E-01 -0.13609694208E-03 -0.14652280707E-01  0.31970139210E-01  0.51100000000E-03 0. -1.
         11    1    4    4    0    0 -0.92630609287E-01 -0.31550653429E-02 -0.37608167806E-02  0.92762002340E-01  0.51100000000E-03 0.  1.
</event>
<event>
 8    1  0.1104109E+005  0.1043930E+01  0.7957747E-01            NaN
         13   -1    0    0    0    0  0.00000000000E+00  0.00000000000E+00  0.74505805969E-08  0.10566000000E+00  0.10566000000E+00 0.  1.
     999900   -1    0    0    0    0 -0.00000000000E+00 -0.00000000000E+00 -0.74505805969E-08  0.93827000000E+00  0.93827000000E+00 0.  1.
     999902    2    1    2    0    0  0.14083342358E-01  0.72799843874E-02 -0.11038660790E-01  0.10246118547E+01  0.10244297253E+01 0.  0.
     999903    2    3    3    0    0  0.92321693295E-01 -0.13225484282E-01  0.94900080843E-01  0.13457548986E+00  0.20157595119E-01 0.  0.
         14    1    1    2    0    0 -0.14083342358E-01 -0.72799843874E-02  0.11038660790E-01  0.19318145270E-01  0.00000000000E+00 0.  1.
     999901    1    3    3    0    0 -0.78238350938E-01  0.20505468670E-01 -0.10593874163E+00  0.89003636486E+00  0.88000000000E+00 0.  1.
        -11    1    4    4    0    0  0.29819791598E-01  0.20720126923E-02  0.20719482748E-01  0.36374046982E-01  0.51100000000E-03 0. -1.
         11    1    4    4    0    0  0.62501901698E-01 -0.15297496974E-01  0.74180598096E-01  0.98201442883E-01  0.51100000000E-03 0.  1.
</event>
<event>
 8    1  0.1104109E+005  0.1043930E+01  0.7957747E-01            NaN
         13   -1    0    0    0    0  0.00000000000E+00  0.00000000000E+00  0.74505805969E-08  0.10566000000E+00  0.10566000000E+00 0.  1.
     999900   -1    0    0    0    0 -0.00000000000E+00 -0.00000000000E+00 -0.74505805969E-08  0.93827000000E+00  0.93827000000E+00 0.  1.
     999902    2    1    2    0    0 -0.68781729259E-02 -0.22402007900E-01 -0.50754178179E-02  0.10199525296E+01  0.10196706545E+01 0.  0.
     999903    2    3    3    0    0  0.95822208558E-02  0.16331873516E-01  0.12642385570E+00  0.12918695041E+00  0.18647461385E-01 0.  0.
         14    1    1    2    0    0  0.68781729259E-02  0.22402007900E-01  0.50754178179E-02  0.23977470400E-01  0.00000000000E+00 0. -1.
     999901    1    3    3    0    0 -0.16460393782E-01 -0.38733881415E-01 -0.13149927352E+00  0.89076557919E+00  0.88000000000E+00 0.  1.
        -11    1    4    4    0    0  0.10678230209E-01  0.16346050098E-01  0.67969769105E-01  0.70720354831E-01  0.51100000000E-03 0. -1.
         11    1    4    4    0    0 -0.10960093537E-02 -0.14176582467E-04  0.58454086599E-01  0.58466595579E-01  0.51100000000E-03 0.  1.
</event>
<event>
 8    1  0.1104109E+005  0.1043930E+01  0.7957747E-01            NaN
         13   -1    0    0    0    0  0.00000000000E+00  0.00000000000E+00  0.74505805969E-08  0.10566000000E+00  0.10566000000E+00 0.  1.
     999900   -1    0    0    0    0 -0.00000000000E+00 -0.00000000000E+00 -0.74505805969E-08  0.93827000000E+00  0.93827000000E+00 0. -1.
     999902    2    1    2    0    0 -0.21510535829E-01  0.25293377611E-01  0.80844790759E-02  0.10097566638E+01  0.10091782317E+01 0.  0.
     999903    2    3    3    0    0 -0.15765865754E-01 -0.55725284668E-01 -0.10178698734E+00  0.11921258070E+00  0.22297505052E-01 0.  0.
         14    1    1    2    0    0  0.21510535829E-01 -0.25293377611E-01 -0.80844790759E-02  0.34173336164E-01  0.00000000000E+00 0.  1.
     999901    1    3    3    0    0 -0.57446700748E-02  0.81018662279E-01  0.10987146642E+00  0.89054408313E+00  0.88000000000E+00 0. -1.
        -11    1    4    4    0    0  0.28480563393E-02 -0.26042918931E-01 -0.34217405547E-01  0.43097993163E-01  0.51100000000E-03 0. -1.
         11    1    4    4    0    0 -0.18613922094E-01 -0.29682365737E-01 -0.67569581795E-01  0.76114587540E-01  0.51100000000E-03 0.  1.
</event>
<event>
 8    1  0.1104109E+005  0.1043930E+01  0.7957747E-01            NaN
         13   -1    0    0    0    0  0.00000000000E+00  0.00000000000E+00  0.74505805969E-08  0.10566000000E+00  0.10566000000E+00 0. -1.
     999900   -1    0    0    0    0 -0.00000000000E+00 -0.00000000000E+00 -0.74505805969E-08  0.93827000000E+00  0.93827000000E+00 0. -1.
     999902    2    1    2    0    0  0.16516019104E-01  0.83523529623E-02 -0.80969968328E-02  0.10237284643E+01  0.10235291235E+01 0.  0.
     999903    2    3    3    0    0  0.11965332459E+00  0.61164111800E-01 -0.94905614693E-02  0.13613152442E+00  0.19589653558E-01 0.  0.
         14    1    1    2    0    0 -0.16516019104E-01 -0.83523529623E-02  0.80969968328E-02  0.20201535703E-01  0.00000000000E+00 0. -1.
     999901    1    3    3    0    0 -0.10313730549E+00 -0.52811758838E-01  0.13935646366E-02  0.88759693988E+00  0.88000000000E+00 0. -1.
        -11    1    4    4    0    0  0.62048463364E-01  0.40226346569E-01 -0.11319101563E-01  0.74810119271E-01  0.51100000000E-03 0. -1.
         11    1    4    4    0    0  0.57604861226E-01  0.20937765231E-01  0.18285400938E-02  0.61321405151E-01  0.51100000000E-03 0.  1.
</event>
<event>
 8    1  0.1104109E+005  0.1043930E+01  0.7957747E-01            NaN
         13   -1    0    0    0    0  0.00000000000E+00  0.00000000000E+00  0.74505805969E-08  0.10566000000E+00  0.10566000000E+00 0.  1.
     999900   -1    0    0    0    0 -0.00000000000E+00 -0.00000000000E+00 -0.74505805969E-08  0.93827000000E+00  0.93827000000E+00 0.  1.
     999902    2    1    2    0    0 -0.76362940759E-02 -0.22448503064E-01 -0.15875398025E-02  0.10201651402E+01  0.10198883002E+01 0.  0.
     999903    2    3    3    0    0 -0.58515892831E-01  0.10218085339E+00  0.47510166205E-01  0.12857566363E+00  0.20234843027E-01 0.  0.
         14    1    1    2    0    0  0.76362940759E-02  0.22448503064E-01  0.15875398025E-02  0.23764859765E-01  0.00000000000E+00 0.  1.
     999901    1    3    3    0    0  0.50879598755E-01 -0.12462935645E+00 -0.49097706007E-01  0.89158947661E+00  0.88000000000E+00 0. -1.
        -11    1    4    4    0    0 -0.37338929298E-02  0.13547942909E-01  0.12021331783E-01  0.18500331141E-01  0.51100000000E-03 0. -1.
         11    1    4    4    0    0 -0.54781999901E-01  0.88632910478E-01  0.35488834421E-01  0.11007533249E+00  0.51100000000E-03 0.  1.
</event>
<event>
 8    1  0.1104109E+005  0.1043930E+01  0.7957747E-01            NaN
         13   -1    0    0    0    0  0.00000000000E+00  0.00000000000E+00  0.74505805969E-08  0.10566000000E+00  0.10566000000E+00 0. -1.
     999900   -1    0    0    0    0 -0.00000000000E+00 -0.00000000000E+00 -0.74505805969E-08  0.93827000000E+00  0.93827000000E+00 0.  1.
     999902    2    1    2    0    0 -0.13805166855E-01  0.24394227642E-02  0.18348831133E-01  0.10208385943E+01  0.10205773966E+01 0.  0.
     999903    2    3    3    0    0 -0.47207509634E-01  0.36652341311E-01  0.11820310894E+00  0.13390166465E+00  0.19640207301E-01 0.  0.
         14    1    1    2    0    0  0.13805166855E-01 -0.24394227642E-02 -0.18348831133E-01  0.23091405745E-01  0.00000000000E+00 0.  1.
     999901    1    3    3    0    0  0.33402342779E-01 -0.34212918547E-01 -0.99854277811E-01  0.88693692960E+00  0.88000000000E+00 0.  1.
        -11    1    4    4    0    0 -0.13240304885E-01  0.22433400715E-01  0.50991373387E-01  0.57262067916E-01  0.51100000000E-03 0. -1.
         11    1    4    4    0    0 -0.33967204750E-01  0.14218940596E-01  0.67211735557E-01  0.76639596735E-01  0.51100000000E-03 0.  1.
</event>
<event>
 8    1  0.1104109E+005  0.1043930E+01  0.7957747E-01            NaN
         13   -1    0    0    0    0  0.00000000000E+00  0.00000000000E+00  0.74505805969E-08  0.10566000000E+00  0.10566000000E+00 0.  1.
     999900   -1    0    0    0    0 -0.00000000000E+00 -0.00000000000E+00 -0.74505805969E-08  0.93827000000E+00  0.93827000000E+00 0.  1.
     999902    2    1    2    0    0 -0.17876923341E-01  0.20030720384E-01 -0.18417478449E-01  0.10113720876E+01  0.10108479025E+01 0.  0.
     999903    2    3    3    0    0 -0.86231096722E-01  0.21418936138E-01  0.82696887785E-01  0.12294745083E+00  0.19563423776E-01 0.  0.
         14    1    1    2    0    0  0.17876923341E-01 -0.20030720384E-01  0.18417478449E-01  0.32557912397E-01  0.00000000000E+00 0.  1.
     999901    1    3    3    0    0  0.68354173381E-01 -0.13882157542E-02 -0.10111436623E+00  0.88842463677E+00  0.88000000000E+00 0.  1.
        -11    1    4    4    0    0 -0.41082302217E-01  0.15907806731E-01  0.51584034959E-01  0.67837951429E-01  0.51100000000E-03 0.  1.
         11    1    4    4    0    0 -0.45148794505E-01  0.55111294068E-02  0.31112852826E-01  0.55109499404E-01  0.51100000000E-03 0. -1.
</event>
<event>
 8    1  0.1104109E+005  0.1043930E+01  0.7957747E-01            NaN
         13   -1    0    0    0    0  0.00000000000E+00  0.00000000000E+00  0.74505805969E-08  0.10566000000E+00  0.10566000000E+00 0.  1.
     999900   -1    0    0    0    0 -0.00000000000E+00 -0.00000000000E+00 -0.74505805969E-08  0.93827000000E+00  0.93827000000E+00 0.  1.
     999902    2    1    2    0    0  0.79042662156E-02  0.16730763936E-01 -0.15126110862E-01  0.10200303114E+01  0.10197502837E+01 0.  0.
     999903    2    3    3    0    0  0.79362230107E-01 -0.64151246810E-01 -0.79799789353E-01  0.13108102995E+00  0.20012096272E-01 0.  0.
         14    1    1    2    0    0 -0.79042662156E-02 -0.16730763936E-01  0.15126110862E-01  0.23899688619E-01  0.00000000000E+00 0. -1.
     999901    1    3    3    0    0 -0.71457963891E-01  0.80882010746E-01  0.64673678491E-01  0.88894928143E+00  0.88000000000E+00 0.  1.
        -11    1    4    4    0    0  0.10650564189E-01 -0.97552890633E-02 -0.21195363070E-01  0.25653551780E-01  0.51100000000E-03 0.  1.
         11    1    4    4    0    0  0.68711665918E-01 -0.54395957747E-01 -0.58604426283E-01  0.10542747817E+00  0.51100000000E-03 0. -1.
</event>
<event>
 8    1  0.1104109E+005  0.1043930E+01  0.7957747E-01            NaN
         13   -1    0    0    0    0  0.00000000000E+00  0.00000000000E+00  0.74505805969E-08  0.10566000000E+00  0.10566000000E+00 0. -1.
     999900   -1    0    0    0    0 -0.00000000000E+00 -0.00000000000E+00 -0.74505805969E-08  0.93827000000E+00  0.93827000000E+00 0.  1.
     999902    2    1    2    0    0 -0.61744943933E-02 -0.17383365628E-01  0.12764884747E-02  0.10254385099E+01  0.10252717701E+01 0.  0.
     999903    2    3    3    0    0  0.54686947630E-01  0.65098549171E-01  0.10137996785E+00  0.13385111211E+00  0.20242010427E-01 0.  0.
         14    1    1    2    0    0  0.61744943933E-02  0.17383365628E-01 -0.12764884747E-02  0.18491490053E-01  0.00000000000E+00 0. -1.
     999901    1    3    3    0    0 -0.60861442024E-01 -0.82481914798E-01 -0.10010347938E+00  0.89158739783E+00  0.88000000000E+00 0.  1.
        -11    1    4    4    0    0  0.17119560402E-01  0.23260348920E-01  0.49666060369E-01  0.57455216071E-01  0.51100000000E-03 0. -1.
         11    1    4    4    0    0  0.37567387229E-01  0.41838200251E-01  0.51713907486E-01  0.76395896041E-01  0.51100000000E-03 0.  1.
</event>
<event>
 8    1  0.1104109E+005  0.1043930E+01  0.7957747E-01            NaN
         13   -1    0    0    0    0  0.00000000000E+00  0.00000000000E+00  0.74505805969E-08  0.10566000000E+00  0.10566000000E+00 0.  1.
     999900   -1    0    0    0    0 -0.00000000000E+00 -0.00000000000E+00 -0.74505805969E-08  0.93827000000E+00  0.93827000000E+00 0.  1.
     999902    2    1    2    0    0  0.10998313340E-02  0.21645858088E-01 -0.74235560027E-02  0.10210201335E+01  0.10207630729E+01 0.  0.
     999903    2    3    3    0    0  0.34102609784E-01  0.12657703890E+00  0.22404409069E-01  0.13367045966E+00  0.13457320218E-01 0.  0.
         14    1    1    2    0    0 -0.10998313340E-02 -0.21645858088E-01  0.74235560027E-02  0.22909866544E-01  0.00000000000E+00 0.  1.
     999901    1    3    3    0    0 -0.33002778450E-01 -0.10493118081E+00 -0.29827965072E-01  0.88734967380E+00  0.88000000000E+00 0.  1.
        -11    1    4    4    0    0  0.25768179382E-01  0.71908368194E-01  0.10567042823E-01  0.77115082831E-01  0.51100000000E-03 0. -1.
         11    1    4    4    0    0  0.83344304017E-02  0.54668670708E-01  0.11837366246E-01  0.56555376825E-01  0.51100000000E-03 0.  1.
</event>
<event>
 8    1  0.1104109E+005  0.1043930E+01  0.7957747E-01            NaN
         13   -1    0    0    0    0  0.00000000000E+00  0.00000000000E+00  0.74505805969E-08  0.10566000000E+00  0.10566000000E+00 0.  1.
     999900   -1    0    0    0    0 -0.00000000000E+00 -0.00000000000E+00 -0.74505805969E-08  0.93827000000E+00  0.93827000000E+00 0. -1.
     999902    2    1    2    0    0  0.11534603425E-01 -0.20118295307E-01 -0.16011920532E-02  0.10206844263E+01  0.10204196888E+01 0.  0.
     999903    2    3    3    0    0  0.30159282253E-02  0.40751731881E-01  0.12203815234E+00  0.12991823050E+00  0.17766162063E-01 0.  0.
         14    1    1    2    0    0 -0.11534603425E-01  0.20118295307E-01  0.16011920532E-02  0.23245573734E-01  0.00000000000E+00 0. -1.
     999901    1    3    3    0    0  0.85186752000E-02 -0.60870027188E-01 -0.12363934440E+00  0.89076619577E+00  0.88000000000E+00 0. -1.
        -11    1    4    4    0    0  0.45810471351E-02  0.13905243831E-01  0.67953806622E-01  0.69514910302E-01  0.51100000000E-03 0.  1.
         11    1    4    4    0    0 -0.15651189098E-02  0.26846488050E-01  0.54084345721E-01  0.60403320198E-01  0.51100000000E-03 0. -1.
</event>
<event>
 8    1  0.1104109E+005  0.1043930E+01  0.7957747E-01            NaN
         13   -1    0    0    0    0  0.00000000000E+00  0.00000000000E+00  0.74505805969E-08  0.10566000000E+00  0.10566000000E+00 0.  1.
     999900   -1    0    0    0    0 -0.00000000000E+00 -0.00000000000E+00 -0.74505805969E-08  0.93827000000E+00  0.93827000000E+00 0. -1.
     999902    2    1    2    0    0  0.54342469576E-02 -0.15267665884E-01 -0.18287302606E-01  0.10194952277E+01  0.10192023652E+01 0.  0.
     999903    2    3    3    0    0  0.67877977078E-01 -0.85404060079E-01 -0.73023618952E-01  0.13280791101E+00  0.20105199623E-01 0.  0.
         14    1    1    2    0    0 -0.54342469576E-02  0.15267665884E-01  0.18287302606E-01  0.24434772316E-01  0.00000000000E+00 0.  1.
     999901    1    3    3    0    0 -0.62443730121E-01  0.70136394195E-01  0.54736316346E-01  0.88668731667E+00  0.88000000000E+00 0.  1.
        -11    1    4    4    0    0  0.50164498429E-01 -0.47537760669E-01 -0.46346123140E-01  0.83213820025E-01  0.51100000000E-03 0. -1.
         11    1    4    4    0    0  0.17713478649E-01 -0.37866299410E-01 -0.26677495812E-01  0.49594090986E-01  0.51100000000E-03 0.  1.
</event>
<event>
 8    1  0.1104109E+005  0.1043930E+01  0.7957747E-01            NaN
         13   -1    0    0    0    0  0.00000000000E+00  0.00000000000E+00  0.74505805969E-08  0.10566000000E+00  0.10566000000E+00 0.  1.
     999900   -1    0    0    0    0 -0.00000000000E+00 -0.00000000000E+00 -0.74505805969E-08  0.93827000000E+00  0.93827000000E+00 0. -1.
     999902    2    1    2    0    0 -0.68438319725E-02  0.25905848510E-01 -0.34087547460E-02  0.10169194348E+01  0.10165606555E+01 0.  0.
     999903    2    3    3    0    0 -0.10640524941E+00  0.59501634106E-01 -0.40357594318E-01  0.12989837001E+00  0.19553249051E-01 0.  0.
         14    1    1    2    0    0  0.68438319725E-02 -0.25905848510E-01  0.34087547460E-02  0.27010565192E-01  0.00000000000E+00 0.  1.
     999901    1    3    3    0    0  0.99561417437E-01 -0.33595785596E-01  0.36948839572E-01  0.88702106480E+00  0.88000000000E+00 0.  1.
        -11    1    4    4    0    0 -0.49502774739E-01  0.24962728665E-01 -0.28302622602E-01  0.62249193540E-01  0.51100000000E-03 0. -1.
         11    1    4    4    0    0 -0.56902474671E-01  0.34538905441E-01 -0.12054971715E-01  0.67649176468E-01  0.51100000000E-03 0.  1.
</event>
<event>
 8    1  0.1104109E+005  0.1043930E+01  0.7957747E-01            NaN
         13   -1    0    0    0    0  0.00000000000E+00  0.00000000000E+00  0.74505805969E-08  0.10566000000E+00  0.10566000000E+00 0.  1.
     999900   -1    0    0    0    0 -0.00000000000E+00 -0.00000000000E+00 -0.74505805969E-08  0.93827000000E+00  0.93827000000E+00 0.  1.
     999902    2    1    2    0    0  0.17767594346E-01 -0.11348544457E-01 -0.10008275242E-01  0.10205924242E+01  0.10203255627E+01 0.  0.
     999903    2    3    3    0    0  0.33626833313E-01  0.87677356875E-01 -0.89634865839E-01  0.13132416406E+00  0.19837945063E-01 0.  0.
         14    1    1    2    0    0 -0.17767594346E-01  0.11348544457E-01  0.10008275242E-01  0.23337575783E-01  0.00000000000E+00 0.  1.
     999901    1    3    3    0    0 -0.15859238967E-01 -0.99025901332E-01  0.79626590597E-01  0.88926826016E+00  0.88000000000E+00 0.  1.
        -11    1    4    4    0    0  0.10807114130E-01  0.19104888869E-01 -0.32379222468E-01  0.39121166434E-01  0.51100000000E-03 0.  1.
         11    1    4    4    0    0  0.22819719183E-01  0.68572468007E-01 -0.57255643371E-01  0.92202997624E-01  0.51100000000E-03 0. -1.
</event>
<event>
 8    1  0.1104109E+005  0.1043930E+01  0.7957747E-01            NaN
         13   -1    0    0    0    0  0.00000000000E+00  0.00000000000E+00  0.74505805969E-08  0.10566000000E+00  0.10566000000E+00 0.  1.
     999900   -1    0    0    0    0 -0.00000000000E+00 -0.00000000000E+00 -0.74505805969E-08  0.93827000000E+00  0.93827000000E+00 0. -1.
     999902    2    1    2    0    0 -0.21265367723E-01 -0.11003197905E-01 -0.17060429241E-02  0.10199259001E+01  0.10196433911E+01 0.  0.
     999903    2    3    3    0    0 -0.60661875392E-01 -0.23681584276E-01  0.11255332663E+00  0.13157460146E+00  0.20073461476E-01 0.  0.
         14    1    1    2    0    0  0.21265367723E-01  0.11003197905E-01  0.17060429241E-02  0.24004099878E-01  0.00000000000E+00 0. -1.
     999901    1    3    3    0    0  0.39396507669E-01  0.12678386371E-01 -0.11425936955E+00  0.88835129866E+00  0.88000000000E+00 0. -1.
        -11    1    4    4    0    0 -0.34484043456E-01 -0.21039638514E-01  0.54548764854E-01  0.67879632512E-01  0.51100000000E-03 0.  1.
         11    1    4    4    0    0 -0.26177831936E-01 -0.26419457618E-02  0.58004561772E-01  0.63694968951E-01  0.51100000000E-03 0. -1.
</event>
<event>
 8    1  0.1104109E+005  0.1043930E+01  0.7957747E-01            NaN
         13   -1    0    0    0    0  0.00000000000E+00  0.00000000000E+00  0.74505805969E-08  0.10566000000E+00  0.10566000000E+00 0. -1.
     999900   -1    0    0    0    0 -0.00000000000E+00 -0.00000000000E+00 -0.74505805969E-08  0.93827000000E+00  0.93827000000E+00 0. -1.
     999902    2    1    2    0    0  0.16160528675E-01  0.14367836292E-01  0.10770073778E-01  0.10197723533E+01  0.10194861748E+01 0.  0.
     999903    2    3    3    0    0  0.11581590672E+00 -0.29408644073E-01  0.52360582091E-01  0.13209147311E+00  0.20696234342E-01 0.  0.
         14    1    1    2    0    0 -0.16160528675E-01 -0.14367836292E-01 -0.10770073778E-01  0.24157646739E-01  0.00000000000E+00 0.  1.
     999901    1    3    3    0    0 -0.99655378044E-01  0.43776480365E-01 -0.41590508312E-01  0.88768088015E+00  0.88000000000E+00 0.  1.
        -11    1    4    4    0    0  0.91984653590E-01 -0.30901434339E-01  0.37932857520E-01  0.10418847317E+00  0.51100000000E-03 0. -1.
         11    1    4    4    0    0  0.23831253129E-01  0.14927902661E-02  0.14427724570E-01  0.27902999942E-01  0.51100000000E-03 0.  1.
</event>
<event>
 8    1  0.1104109E+005  0.1043930E+01  0.7957747E-01            NaN
         13   -1    0    0    0    0  0.00000000000E+00  0.00000000000E+00  0.74505805969E-08  0.10566000000E+00  0.10566000000E+00 0.  1.
     999900   -1    0    0    0    0 -0.00000000000E+00 -0.00000000000E+00 -0.74505805969E-08  0.93827000000E+00  0.93827000000E+00 0.  1.
     999902    2    1    2    0    0  0.11758527405E-01 -0.10844028475E-01 -0.17307871827E-01  0.10203626848E+01  0.10200904813E+01 0.  0.
     999903    2    3    3    0    0  0.66121314836E-03 -0.11950682983E+00 -0.54211399458E-01  0.13284219197E+00  0.20636195283E-01 0.  0.
         14    1    1    2    0    0 -0.11758527405E-01  0.10844028475E-01  0.17307871827E-01  0.23567315237E-01  0.00000000000E+00 0. -1.
     999901    1    3    3    0    0  0.11097314256E-01  0.10866280136E+00  0.36903527631E-01  0.88752049280E+00  0.88000000000E+00 0.  1.
        -11    1    4    4    0    0 -0.24507747578E-02 -0.14681213182E-01 -0.14253641956E-01  0.20614842891E-01  0.51100000000E-03 0.  1.
         11    1    4    4    0    0  0.31119879062E-02 -0.10482561665E+00 -0.39957757502E-01  0.11222734908E+00  0.51100000000E-03 0. -1.
</event>
<event>
 8    1  0.1104109E+005  0.1043930E+01  0.7957747E-01            NaN
         13   -1    0    0    0    0  0.00000000000E+00  0.00000000000E+00  0.74505805969E-08  0.10566000000E+00  0.10566000000E+00 0.  1.
     999900   -1    0    0    0    0 -0.00000000000E+00 -0.00000000000E+00 -0.74505805969E-08  0.93827000000E+00  0.93827000000E+00 0. -1.
     999902    2    1    2    0    0  0.13013799070E-01  0.18491821930E-01  0.58570747850E-02  0.10205716660E+01  0.10203043240E+01 0.  0.
     999903    2    3    3    0    0 -0.80342866003E-01  0.68804172893E-01  0.75469943825E-01  0.13147507327E+00  0.20024788301E-01 0.  0.
         14    1    1    2    0    0 -0.13013799070E-01 -0.18491821930E-01 -0.58570747850E-02  0.23358334049E-01  0.00000000000E+00 0. -1.
     999901    1    3    3    0    0  0.93356665073E-01 -0.50312350963E-01 -0.69612869040E-01  0.88909659268E+00  0.88000000000E+00 0. -1.
        -11    1    4    4    0    0 -0.45537302516E-01  0.32511290733E-01  0.50302129752E-01  0.75240915227E-01  0.51100000000E-03 0. -1.
         11    1    4    4    0    0 -0.34805563487E-01  0.36292882160E-01  0.25167814073E-01  0.56234158048E-01  0.51100000000E-03 0.  1.
</event>
<event>
 8    1  0.1104109E+005  0.1043930E+01  0.7957747E-01            NaN
         13   -1    0    0    0    0  0.00000000000E+00  0.00000000000E+00  0.74505805969E-08  0.10566000000E+00  0.10566000000E+00 0. -1.
     999900   -1    0    0    0    0 -0.00000000000E+00 -0.00000000000E+00 -0.74505805969E-08  0.93827000000E+00  0.93827000000E+00 0. -1.
     999902    2    1    2    0    0  0.22566986865E-01 -0.25865250270E-02 -0.53645050184E-02  0.10205904001E+01  0.10203234918E+01 0.  0.
     999903    2    3    3    0    0 -0.11299166064E+00  0.55821893738E-01 -0.11311871081E-01  0.12827707990E+00  0.21067785976E-01 0.  0.
         14    1    1    2    0    0 -0.22566986865E-01  0.25865250270E-02  0.53645050184E-02  0.23339599867E-01  0.00000000000E+00 0. -1.
     999901    1    3    3    0    0  0.13555864751E+00 -0.58408418765E-01  0.59473660631E-02  0.89231332023E+00  0.88000000000E+00 0.  1.
        -11    1    4    4    0    0 -0.81211976378E-02  0.30615039372E-03 -0.47703484635E-02  0.94374215016E-02  0.51100000000E-03 0.  1.
         11    1    4    4    0    0 -0.10487046300E+00  0.55515743344E-01 -0.65415226180E-02  0.11883965840E+00  0.51100000000E-03 0. -1.
</event>
<event>
 8    1  0.1104109E+005  0.1043930E+01  0.7957747E-01            NaN
         13   -1    0    0    0    0  0.00000000000E+00  0.00000000000E+00  0.74505805969E-08  0.10566000000E+00  0.10566000000E+00 0.  1.
     999900   -1    0    0    0    0 -0.00000000000E+00 -0.00000000000E+00 -0.74505805969E-08  0.93827000000E+00  0.93827000000E+00 0. -1.
     999902    2    1    2    0    0  0.35093542554E-02  0.13648462329E-01  0.18103537483E-01  0.10209880262E+01  0.10207302364E+01 0.  0.
     999903    2    3    3    0    0 -0.11898339789E+00 -0.42604886635E-01 -0.22011429750E-01  0.12982130546E+00  0.19920917977E-01 0.  0.
         14    1    1    2    0    0 -0.35093542554E-02 -0.13648462329E-01 -0.18103537483E-01  0.22941973773E-01  0.00000000000E+00 0.  1.
     999901    1    3    3    0    0  0.12249275215E+00  0.56253348964E-01  0.40114967233E-01  0.89116672076E+00  0.88000000000E+00 0.  1.
        -11    1    4    4    0    0 -0.22220128076E-01 -0.12816522598E-01  0.21050632083E-02  0.25742761222E-01  0.51100000000E-03 0. -1.
         11    1    4    4    0    0 -0.96763269818E-01 -0.29788364037E-01 -0.24116492958E-01  0.10407854424E+00  0.51100000000E-03 0.  1.
</event>
<event>
 8    1  0.1104109E+005  0.1043930E+01  0.7957747E-01            NaN
         13   -1    0    0    0    0  0.00000000000E+00  0.00000000000E+00  0.74505805969E-08  0.10566000000E+00  0.10566000000E+00 0. -1.
     999900   -1    0    0    0    0 -0.00000000000E+00 -0.00000000000E+00 -0.74505805969E-08  0.93827000000E+00  0.93827000000E+00 0. -1.
     999902    2    1    2    0    0  0.19310097064E-01  0.13668804221E-01 -0.33034101626E-02  0.10200421668E+01  0.10197624201E+01 0.  0.
     999903    2    3    3    0    0 -0.34514710246E-01 -0.11797025114E+00 -0.30851722389E-01  0.12819864895E+00  0.19360254176E-01 0.  0.
         14    1    1    2    0    0 -0.19310097064E-01 -0.13668804221E-01  0.33034101626E-02  0.23887833225E-01  0.00000000000E+00 0. -1.
     999901    1    3    3    0    0  0.53824807310E-01  0.13163905536E+00  0.27548312226E-01  0.89184351782E+00  0.88000000000E+00 0.  1.
        -11    1    4    4    0    0 -0.30451011525E-01 -0.70705320818E-01 -0.19549159881E-01  0.79428818875E-01  0.51100000000E-03 0. -1.
         11    1    4    4    0    0 -0.40636987212E-02 -0.47264930320E-01 -0.11302562508E-01  0.48769830077E-01  0.51100000000E-03 0.  1.
</event>
<event>
 8    1  0.1104109E+005  0.1043930E+01  0.7957747E-01            NaN
         13   -1    0    0    0    0  0.00000000000E+00  0.00000000000E+00  0.74505805969E-08  0.10566000000E+00  0.10566000000E+00 0.  1.
     999900   -1    0    0    0    0 -0.00000000000E+00 -0.00000000000E+00 -0.74505805969E-08  0.93827000000E+00  0.93827000000E+00 0.  1.
     999902    2    1    2    0    0 -0.10332912920E-01 -0.10185186376E-01 -0.17928747623E-01  0.10208660215E+01  0.10206054511E+01 0.  0.
     999903    2    3    3    0    0 -0.88821258202E-01  0.94494996341E-01  0.12986209522E-02  0.13098510103E+00  0.18354564340E-01 0.  0.
         14    1    1    2    0    0  0.10332912920E-01  0.10185186376E-01  0.17928747623E-01  0.23063978457E-01  0.00000000000E+00 0.  1.
     999901    1    3    3    0    0  0.78488345282E-01 -0.10468018272E+00 -0.19227368575E-01  0.88988092052E+00  0.88000000000E+00 0. -1.
        -11    1    4    4    0    0 -0.20300350727E-01  0.31136624391E-01 -0.46879053160E-02  0.37467735391E-01  0.51100000000E-03 0. -1.
         11    1    4    4    0    0 -0.68520907475E-01  0.63358371951E-01  0.59865262683E-02  0.93517365634E-01  0.51100000000E-03 0.  1.
</event>
<event>
 8    1  0.1104109E+005  0.1043930E+01  0.7957747E-01            NaN
         13   -1    0    0    0    0  0.00000000000E+00  0.00000000000E+00  0.74505805969E-08  0.10566000000E+00  0.10566000000E+00 0. -1.
     999900   -1    0    0    0    0 -0.00000000000E+00 -0.00000000000E+00 -0.74505805969E-08  0.93827000000E+00  0.93827000000E+00 0.  1.
     999902    2    1    2    0    0 -0.10285729910E-01 -0.67022544618E-02 -0.20445927996E-01  0.10200814691E+01  0.10198026530E+01 0.  0.
     999903    2    3    3    0    0 -0.22624719343E-01 -0.12723370991E+00  0.11652469143E-01  0.13119993058E+00  0.19425418531E-01 0.  0.
         14    1    1    2    0    0  0.10285729910E-01  0.67022544618E-02  0.20445927996E-01  0.23848530904E-01  0.00000000000E+00 0. -1.
     999901    1    3    3    0    0  0.12338989432E-01  0.12053145545E+00 -0.32098397139E-01  0.88888153851E+00  0.88000000000E+00 0. -1.
        -11    1    4    4    0    0 -0.64802094113E-02 -0.79892388922E-01  0.12765225544E-01  0.81166489550E-01  0.51100000000E-03 0. -1.
         11    1    4    4    0    0 -0.16144509931E-01 -0.47341320987E-01 -0.11127564010E-02  0.50033441032E-01  0.51100000000E-03 0.  1.
</event>
<event>
 8    1  0.1104109E+005  0.1043930E+01  0.7957747E-01            NaN
         13   -1    0    0    0    0  0.00000000000E+00  0.00000000000E+00  0.74505805969E-08  0.10566000000E+00  0.10566000000E+00 0. -1.
     999900   -1    0    0    0    0 -0.00000000000E+00 -0.00000000000E+00 -0.74505805969E-08  0.93827000000E+00  0.93827000000E+00 0.  1.
     999902    2    1    2    0    0  0.96170104960E-02 -0.85013558975E-02  0.20608969477E-01  0.10196505938E+01  0.10193614883E+01 0.  0.
     999903    2    3    3    0    0  0.51753127703E-01 -0.76685583294E-02  0.12061686501E+00  0.13298395683E+00  0.19977778558E-01 0.  0.
         14    1    1    2    0    0 -0.96170104960E-02  0.85013558975E-02 -0.20608969477E-01  0.24279406209E-01  0.00000000000E+00 0.  1.
     999901    1    3    3    0    0 -0.42136117207E-01 -0.83279756810E-03 -0.10000789553E+00  0.88666663696E+00  0.88000000000E+00 0. -1.
        -11    1    4    4    0    0  0.16521885327E-01 -0.91545240496E-02  0.59428445579E-01  0.62360077536E-01  0.51100000000E-03 0.  1.
         11    1    4    4    0    0  0.35231242376E-01  0.14859657202E-02  0.61188419432E-01  0.70623879297E-01  0.51100000000E-03 0. -1.
</event>
<event>
 8    1  0.1104109E+005  0.1043930E+01  0.7957747E-01            NaN
         13   -1    0    0    0    0  0.00000000000E+00  0.00000000000E+00  0.74505805969E-08  0.10566000000E+00  0.10566000000E+00 0. -1.
     999900   -1    0    0    0    0 -0.00000000000E+00 -0.00000000000E+00 -0.74505805969E-08  0.93827000000E+00  0.93827000000E+00 0. -1.
     999902    2    1    2    0    0  0.10778739149E-01 -0.20585354123E-01  0.52246476942E-02  0.10201133049E+01  0.10198352415E+01 0.  0.
     999903    2    3    3    0    0  0.14878783592E-01 -0.41936352905E-02  0.12895678582E+00  0.13129659668E+00  0.19234835873E-01 0.  0.
         14    1    1    2    0    0 -0.10778739149E-01  0.20585354123E-01 -0.52246476942E-02  0.23816695101E-01  0.00000000000E+00 0.  1.
     999901    1    3    3    0    0 -0.41000444431E-02 -0.16391718833E-01 -0.12373213813E+00  0.88881670822E+00  0.88000000000E+00 0. -1.
        -11    1    4    4    0    0  0.93353184634E-02  0.66585764434E-02  0.81185366858E-01  0.81992741898E-01  0.51100000000E-03 0. -1.
         11    1    4    4    0    0  0.55434651289E-02 -0.10852211734E-01  0.47771418964E-01  0.49303854778E-01  0.51100000000E-03 0.  1.
</event>
<event>
 8    1  0.1104109E+005  0.1043930E+01  0.7957747E-01            NaN
         13   -1    0    0    0    0  0.00000000000E+00  0.00000000000E+00  0.74505805969E-08  0.10566000000E+00  0.10566000000E+00 0. -1.
     999900   -1    0    0    0    0 -0.00000000000E+00 -0.00000000000E+00 -0.74505805969E-08  0.93827000000E+00  0.93827000000E+00 0. -1.
     999902    2    1    2    0    0  0.55386994272E-02  0.23268019148E-01 -0.15374296659E-02  0.10199624887E+01  0.10196808505E+01 0.  0.
     999903    2    3    3    0    0  0.33515035990E-01 -0.87790055743E-01  0.84935933405E-01  0.12833800840E+00  0.20644129723E-01 0.  0.
         14    1    1    2    0    0 -0.55386994272E-02 -0.23268019148E-01  0.15374296659E-02  0.23967511268E-01  0.00000000000E+00 0.  1.
     999901    1    3    3    0    0 -0.27976336562E-01  0.11105807489E+00 -0.86473363071E-01  0.89162448033E+00  0.88000000000E+00 0. -1.
        -11    1    4    4    0    0  0.26707242269E-01 -0.47140272106E-01  0.39912167305E-01  0.67295796777E-01  0.51100000000E-03 0. -1.
         11    1    4    4    0    0  0.68077937211E-02 -0.40649783636E-01  0.45023766100E-01  0.61042211623E-01  0.51100000000E-03 0.  1.
</event>
<event>
 8    1  0.1104109E+005  0.1043930E+01  0.7957747E-01            NaN
         13   -1    0    0    0    0  0.00000000000E+00  0.00000000000E+00  0.74505805969E-08  0.10566000000E+00  0.10566000000E+00 0. -1.
     999900   -1    0    0    0    0 -0.00000000000E+00 -0.00000000000E+00 -0.74505805969E-08  0.93827000000E+00  0.93827000000E+00 0.  1.
     999902    2    1    2    0    0 -0.75116181878E-02 -0.47609583118E-02 -0.20498194849E-01  0.10215857138E+01  0.10213413257E+01 0.  0.
     999903    2    3    3    0    0  0.87415257133E-01 -0.52980530311E-01 -0.82817974306E-01  0.13298006807E+00  0.19404068249E-01 0.  0.
         14    1    1    2    0    0  0.75116181878E-02  0.47609583118E-02  0.20498194849E-01  0.22344286158E-01  0.00000000000E+00 0. -1.
     999901    1    3    3    0    0 -0.94926875321E-01  0.48219572000E-01  0.62319779457E-01  0.88860564577E+00  0.88000000000E+00 0.  1.
        -11    1    4    4    0    0  0.49009834466E-01 -0.39971377622E-01 -0.45964338269E-01  0.78183479182E-01  0.51100000000E-03 0.  1.
         11    1    4    4    0    0  0.38405422666E-01 -0.13009152689E-01 -0.36853636037E-01  0.54796588891E-01  0.51100000000E-03 0. -1.
</event>
<event>
 8    1  0.1104109E+005  0.1043930E+01  0.7957747E-01            NaN
         13   -1    0    0    0    0  0.00000000000E+00  0.00000000000E+00  0.74505805969E-08  0.10566000000E+00  0.10566000000E+00 0.  1.
     999900   -1    0    0    0    0 -0.00000000000E+00 -0.00000000000E+00 -0.74505805969E-08  0.93827000000E+00  0.93827000000E+00 0. -1.
     999902    2    1    2    0    0 -0.14098174866E-01 -0.21022678018E-02  0.18301491161E-01  0.10207325294E+01  0.10204688990E+01 0.  0.
     999903    2    3    3    0    0 -0.11948277817E-01  0.40550422366E-01 -0.12007908149E+00  0.12889562898E+00  0.20198991582E-01 0.  0.
         14    1    1    2    0    0  0.14098174866E-01  0.21022678018E-02 -0.18301491161E-01  0.23197470620E-01  0.00000000000E+00 0. -1.
     999901    1    3    3    0    0 -0.21498970488E-02 -0.42652690168E-01  0.13838057265E+00  0.89183690040E+00  0.88000000000E+00 0.  1.
        -11    1    4    4    0    0  0.49770896860E-02  0.17745614863E-01 -0.48597182924E-01  0.51977164002E-01  0.51100000000E-03 0.  1.
         11    1    4    4    0    0 -0.16925367503E-01  0.22804807503E-01 -0.71481898565E-01  0.76918464973E-01  0.51100000000E-03 0. -1.
</event>
<event>
 8    1  0.1104109E+005  0.1043930E+01  0.7957747E-01            NaN
         13   -1    0    0    0    0  0.00000000000E+00  0.00000000000E+00  0.74505805969E-08  0.10566000000E+00  0.10566000000E+00 0.  1.
     999900   -1    0    0    0    0 -0.00000000000E+00 -0.00000000000E+00 -0.74505805969E-08  0.93827000000E+00  0.93827000000E+00 0.  1.
     999902    2    1    2    0    0 -0.15245070044E-01 -0.15070775385E-01  0.10039704262E-01  0.10202585807E+01  0.10199839388E+01 0.  0.
     999903    2    3    3    0    0 -0.41737131720E-02  0.90252864097E-01 -0.89015679325E-01  0.12839109444E+00  0.19936965841E-01 0.  0.
         14    1    1    2    0    0  0.15245070044E-01  0.15070775385E-01 -0.10039704262E-01  0.23671419328E-01  0.00000000000E+00 0.  1.
     999901    1    3    3    0    0 -0.11071356872E-01 -0.10532363948E+00  0.99055383587E-01  0.89186748623E+00  0.88000000000E+00 0. -1.
        -11    1    4    4    0    0  0.18450985777E-02  0.71037643093E-01 -0.77666317679E-01  0.10527140708E+00  0.51100000000E-03 0.  1.
         11    1    4    4    0    0 -0.60188117497E-02  0.19215221004E-01 -0.11349361646E-01  0.23119687366E-01  0.51100000000E-03 0. -1.
</event>
<event>
 8    1  0.1104109E+005  0.1043930E+01  0.7957747E-01            NaN
         13   -1    0    0    0    0  0.00000000000E+00  0.00000000000E+00  0.74505805969E-08  0.10566000000E+00  0.10566000000E+00 0.  1.
     999900   -1    0    0    0    0 -0.00000000000E+00 -0.00000000000E+00 -0.74505805969E-08  0.93827000000E+00  0.93827000000E+00 0.  1.
     999902    2    1    2    0    0  0.13890059084E-01 -0.58985268178E-04 -0.17930396774E-01  0.10212488107E+01  0.10209969133E+01 0.  0.
     999903    2    3    3    0    0  0.42745452274E-01 -0.96099221787E-01 -0.80056707976E-01  0.13337717621E+00  0.17837054793E-01 0.  0.
         14    1    1    2    0    0 -0.13890059084E-01  0.58985268178E-04  0.17930396774E-01  0.22681189323E-01  0.00000000000E+00 0.  1.
     999901    1    3    3    0    0 -0.28855393190E-01  0.96040236519E-01  0.62126311202E-01  0.88787163447E+00  0.88000000000E+00 0.  1.
        -11    1    4    4    0    0  0.23402969083E-01 -0.53166324210E-01 -0.33028722423E-01  0.66824506118E-01  0.51100000000E-03 0.  1.
         11    1    4    4    0    0  0.19342483191E-01 -0.42932897577E-01 -0.47027985553E-01  0.66552670093E-01  0.51100000000E-03 0. -1.
</event>
<event>
 8    1  0.1104109E+005  0.1043930E+01  0.7957747E-01            NaN
         13   -1    0    0    0    0  0.00000000000E+00  0.00000000000E+00  0.74505805969E-08  0.10566000000E+00  0.10566000000E+00 0.  1.
     999900   -1    0    0    0    0 -0.00000000000E+00 -0.00000000000E+00 -0.74505805969E-08  0.93827000000E+00  0.93827000000E+00 0.  1.
     999902    2    1    2    0    0  0.15975651687E-01  0.11370286214E-01 -0.14752084746E-01  0.10193916859E+01  0.10190963057E+01 0.  0.
     999903    2    3    3    0    0  0.82804932353E-01  0.17115588068E-01  0.96513941869E-01  0.12985287845E+00  0.19930601848E-01 0.  0.
         14    1    1    2    0    0 -0.15975651687E-01 -0.11370286214E-01  0.14752084746E-01  0.24538314118E-01  0.00000000000E+00 0.  1.
     999901    1    3    3    0    0 -0.66829280666E-01 -0.57453018533E-02 -0.11126602661E+00  0.88953880743E+00  0.88000000000E+00 0.  1.
        -11    1    4    4    0    0  0.26411684273E-01  0.13960249838E-01  0.40253386808E-01  0.50130448953E-01  0.51100000000E-03 0. -1.
         11    1    4    4    0    0  0.56393248079E-01  0.31553382301E-02  0.56260555061E-01  0.79722429498E-01  0.51100000000E-03 0.  1.
</event>
<event>
 8    1  0.1104109E+005  0.1043930E+01  0.7957747E-01            NaN
         13   -1    0    0    0    0  0.00000000000E+00  0.00000000000E+00  0.74505805969E-08  0.10566000000E+00  0.10566000000E+00 0.  1.
     999900   -1    0    0    0    0 -0.00000000000E+00 -0.00000000000E+00 -0.74505805969E-08  0.93827000000E+00  0.93827000000E+00 0.  1.
     999902    2    1    2    0    0  0.33352666024E-02  0.21527841514E-01 -0.77560411652E-02  0.10208058105E+01  0.10205438622E+01 0.  0.
     999903    2    3    3    0    0  0.32728703964E-01 -0.31928282833E-01 -0.12151693553E+00  0.13138854487E+00  0.20149461362E-01 0.  0.
         14    1    1    2    0    0 -0.33352666024E-02 -0.21527841514E-01  0.77560411652E-02  0.23124189459E-01  0.00000000000E+00 0.  1.
     999901    1    3    3    0    0 -0.29393437362E-01  0.53456124347E-01  0.11376089437E+00  0.88941726567E+00  0.88000000000E+00 0. -1.
        -11    1    4    4    0    0  0.31321625130E-01 -0.18465281660E-01 -0.91258425187E-01  0.98236307525E-01  0.51100000000E-03 0.  1.
         11    1    4    4    0    0  0.14070788345E-02 -0.13463001173E-01 -0.30258510347E-01  0.33152237343E-01  0.51100000000E-03 0. -1.
</event>
<event>
 8    1  0.1104109E+005  0.1043930E+01  0.7957747E-01            NaN
         13   -1    0    0    0    0  0.00000000000E+00  0.00000000000E+00  0.74505805969E-08  0.10566000000E+00  0.10566000000E+00 0.  1.
     999900   -1    0    0    0    0 -0.00000000000E+00 -0.00000000000E+00 -0.74505805969E-08  0.93827000000E+00  0.93827000000E+00 0.  1.
     999902    2    1    2    0    0 -0.22170108322E-01 -0.73278506559E-02 -0.42650213254E-03  0.10205763493E+01  0.10203091158E+01 0.  0.
     999903    2    3    3    0    0  0.93915465050E-02 -0.53104122767E-01 -0.11782432392E+00  0.13104059749E+00  0.19514555653E-01 0.  0.
         14    1    1    2    0    0  0.22170108322E-01  0.73278506559E-02  0.42650213254E-03  0.23353650727E-01  0.00000000000E+00 0.  1.
     999901    1    3    3    0    0 -0.31561654826E-01  0.45776272111E-01  0.11739782179E+00  0.88953575179E+00  0.88000000000E+00 0. -1.
        -11    1    4    4    0    0  0.51321504112E-02 -0.26535735478E-01 -0.36785985363E-01  0.45650345731E-01  0.51100000000E-03 0. -1.
         11    1    4    4    0    0  0.42593960937E-02 -0.26568387290E-01 -0.81038338556E-01  0.85390251757E-01  0.51100000000E-03 0.  1.
</event>
<event>
 8    1  0.1104109E+005  0.1043930E+01  0.7957747E-01            NaN
         13   -1    0    0    0    0  0.00000000000E+00  0.00000000000E+00  0.74505805969E-08  0.10566000000E+00  0.10566000000E+00 0. -1.
     999900   -1    0    0    0    0 -0.00000000000E+00 -0.00000000000E+00 -0.74505805969E-08  0.93827000000E+00  0.93827000000E+00 0.  1.
     999902    2    1    2    0    0 -0.13368567183E-01 -0.16468990851E-01 -0.10100779086E-01  0.10204359159E+01  0.10201654212E+01 0.  0.
     999903    2    3    3    0    0  0.61332109329E-01  0.77277478968E-01 -0.81400612020E-01  0.12945204523E+00  0.19958356295E-01 0.  0.
         14    1    1    2    0    0  0.13368567183E-01  0.16468990851E-01  0.10100779086E-01  0.23494084071E-01  0.00000000000E+00 0. -1.
     999901    1    3    3    0    0 -0.74700676512E-01 -0.93746469819E-01  0.71299832934E-01  0.89098387070E+00  0.88000000000E+00 0. -1.
        -11    1    4    4    0    0  0.38940011350E-01  0.49936367708E-01 -0.39500963204E-01  0.74636134136E-01  0.51100000000E-03 0.  1.
         11    1    4    4    0    0  0.22392097978E-01  0.27341111260E-01 -0.41899648816E-01  0.54815911091E-01  0.51100000000E-03 0. -1.
</event>
<event>
 7    1  0.1104109E+005  0.1043930E+01  0.7957747E-01            NaN
         13   -1    0    0    0    0  0.00000000000E+00  0.00000000000E+00  0.74505805969E-08  0.10566000000E+00  0.10566000000E+00 0.  1.
     999900   -1    0    0    0    0 -0.00000000000E+00 -0.00000000000E+00 -0.74505805969E-08  0.93827000000E+00  0.93827000000E+00 0.  1.
     999903    2    1    2    0    0  0.97877029407E-01  0.36891212096E-01 -0.26220424382E-01  0.10966624263E+00  0.19957447310E-01 0.  0.
         14    1    1    2    0    0  0.39410954670E-01 -0.61910277567E-02 -0.13741505230E-01  0.42194562904E-01  0.00000000000E+00 0.  1.
     999901    1    1    2    0    0 -0.13728798408E+00 -0.30700184339E-01  0.39961929612E-01  0.89206919446E+00  0.88000000000E+00 0. -1.
        -11    1    3    3    0    0  0.75596929295E-01  0.30573563838E-01 -0.11841572298E-01  0.82402199486E-01  0.51100000000E-03 0. -1.
         11    1    3    3    0    0  0.22280100112E-01  0.63176482582E-02 -0.14378852084E-01  0.27264043148E-01  0.51100000000E-03 0.  1.
</event>
<event>
 8    1  0.1104109E+005  0.1043930E+01  0.7957747E-01            NaN
         13   -1    0    0    0    0  0.00000000000E+00  0.00000000000E+00  0.74505805969E-08  0.10566000000E+00  0.10566000000E+00 0.  1.
     999900   -1    0    0    0    0 -0.00000000000E+00 -0.00000000000E+00 -0.74505805969E-08  0.93827000000E+00  0.93827000000E+00 0.  1.
     999902    2    1    2    0    0  0.78404652754E-02  0.13308510500E-02 -0.21411845919E-01  0.10210890016E+01  0.10208335016E+01 0.  0.
     999903    2    3    3    0    0 -0.34761410574E-01  0.16128469374E-01  0.12102024163E+00  0.12849682775E+00  0.19926180473E-01 0.  0.
         14    1    1    2    0    0 -0.78404652754E-02 -0.13308510500E-02  0.21411845919E-01  0.22840998357E-01  0.00000000000E+00 0.  1.
     999901    1    3    3    0    0  0.42601875849E-01 -0.14797618324E-01 -0.14243208755E+00  0.89259217389E+00  0.88000000000E+00 0.  1.
        -11    1    4    4    0    0 -0.15157789019E-01 -0.18898270445E-02  0.30120417779E-01  0.33776185433E-01  0.51100000000E-03 0. -1.
         11    1    4    4    0    0 -0.19603621555E-01  0.18018296418E-01  0.90899823850E-01  0.94720642316E-01  0.51100000000E-03 0.  1.
</event>
<event>
 8    1  0.1104109E+005  0.1043930E+01  0.7957747E-01            NaN
         13   -1    0    0    0    0  0.00000000000E+00  0.00000000000E+00  0.74505805969E-08  0.10566000000E+00  0.10566000000E+00 0.  1.
     999900   -1    0    0    0    0 -0.00000000000E+00 -0.00000000000E+00 -0.74505805969E-08  0.93827000000E+00  0.93827000000E+00 0. -1.
     999902    2    1    2    0    0  0.16142718837E-01  0.13927709963E-01  0.90097704290E-03  0.10225903600E+01  0.10223676756E+01 0.  0.
     999903    2    3    3    0    0  0.11671677396E+00 -0.51432383188E-01  0.35507842475E-01  0.13377951539E+00  0.19184798605E-01 0.  0.
         14    1    1    2    0    0 -0.16142718837E-01 -0.13927709963E-01 -0.90097704290E-03  0.21339640013E-01  0.00000000000E+00 0. -1.
     999901    1    3    3    0    0 -0.10057405512E+00  0.65360093150E-01 -0.34606865432E-01  0.88881084460E+00  0.88000000000E+00 0. -1.
        -11    1    4    4    0    0  0.12409632683E-01 -0.10625588845E-01  0.90786971210E-02  0.18697218618E-01  0.51100000000E-03 0.  1.
         11    1    4    4    0    0  0.10430714127E+00 -0.40806794343E-01  0.26429145354E-01  0.11508229677E+00  0.51100000000E-03 0. -1.
</event>
<event>
 8    1  0.1104109E+005  0.1043930E+01  0.7957747E-01            NaN
         13   -1    0    0    0    0  0.00000000000E+00  0.00000000000E+00  0.74505805969E-08  0.10566000000E+00  0.10566000000E+00 0.  1.
     999900   -1    0    0    0    0 -0.00000000000E+00 -0.00000000000E+00 -0.74505805969E-08  0.93827000000E+00  0.93827000000E+00 0. -1.
     999902    2    1    2    0    0 -0.30194398403E-02 -0.22580170609E-01  0.65030738457E-02  0.10202388394E+01  0.10199637338E+01 0.  0.
     999903    2    3    3    0    0  0.67869503425E-01  0.99763532366E-01 -0.37974477989E-01  0.12784235993E+00  0.18508812182E-01 0.  0.
         14    1    1    2    0    0  0.30194398403E-02  0.22580170609E-01 -0.65030738457E-02  0.23691160612E-01  0.00000000000E+00 0.  1.
     999901    1    3    3    0    0 -0.70888943265E-01 -0.12234370297E+00  0.44477551835E-01  0.89239647946E+00  0.88000000000E+00 0. -1.
        -11    1    4    4    0    0  0.29089277192E-01  0.58411433217E-01 -0.23174446888E-01  0.69248810008E-01  0.51100000000E-03 0.  1.
         11    1    4    4    0    0  0.38780226233E-01  0.41352099149E-01 -0.14800031101E-01  0.58593549921E-01  0.51100000000E-03 0. -1.
</event>
<event>
 8    1  0.1104109E+005  0.1043930E+01  0.7957747E-01            NaN
         13   -1    0    0    0    0  0.00000000000E+00  0.00000000000E+00  0.74505805969E-08  0.10566000000E+00  0.10566000000E+00 0. -1.
     999900   -1    0    0    0    0 -0.00000000000E+00 -0.00000000000E+00 -0.74505805969E-08  0.93827000000E+00  0.93827000000E+00 0. -1.
     999902    2    1    2    0    0  0.73279684181E-02 -0.10847206730E-01 -0.19530784499E-01  0.10204180337E+01  0.10201471222E+01 0.  0.
     999903    2    3    3    0    0 -0.17342624037E-01 -0.48885633598E-01 -0.12131706317E+00  0.13339153661E+00  0.19618879738E-01 0.  0.
         14    1    1    2    0    0 -0.73279684181E-02  0.10847206730E-01  0.19530784499E-01  0.23511966275E-01  0.00000000000E+00 0. -1.
     999901    1    3    3    0    0  0.24670592455E-01  0.38038426868E-01  0.10178627867E+00  0.88702649711E+00  0.88000000000E+00 0.  1.
        -11    1    4    4    0    0  0.88074010836E-03 -0.20504292821E-01 -0.33152125004E-01  0.38993925687E-01  0.51100000000E-03 0.  1.
         11    1    4    4    0    0 -0.18223364145E-01 -0.28381340778E-01 -0.88164938170E-01  0.94397610927E-01  0.51100000000E-03 0. -1.
</event>
<event>
 8    1  0.1104109E+005  0.1043930E+01  0.7957747E-01            NaN
         13   -1    0    0    0    0  0.00000000000E+00  0.00000000000E+00  0.74505805969E-08  0.10566000000E+00  0.10566000000E+00 0.  1.
     999900   -1    0    0    0    0 -0.00000000000E+00 -0.00000000000E+00 -0.74505805969E-08  0.93827000000E+00  0.93827000000E+00 0.  1.
     999902    2    1    2    0    0  0.77801998666E-02  0.18207352968E-01 -0.11508498550E-01  0.10210283679E+01  0.10207714942E+01 0.  0.
     999903    2    3    3    0    0  0.38216443311E-01  0.71616184193E-01  0.10172553035E+00  0.13164610284E+00  0.19830241829E-01 0.  0.
         14    1    1    2    0    0 -0.77801998666E-02 -0.18207352968E-01  0.11508498550E-01  0.22901632058E-01  0.00000000000E+00 0. -1.
     999901    1    3    3    0    0 -0.30436243445E-01 -0.53408831225E-01 -0.11323402890E+00  0.88938226510E+00  0.88000000000E+00 0.  1.
        -11    1    4    4    0    0  0.61338190767E-02  0.29068456748E-01  0.43897598689E-01  0.53008105095E-01  0.51100000000E-03 0. -1.
         11    1    4    4    0    0  0.32082624235E-01  0.42547727445E-01  0.57827931664E-01  0.78637997749E-01  0.51100000000E-03 0.  1.
</event>
<event>
 8    1  0.1104109E+005  0.1043930E+01  0.7957747E-01            NaN
         13   -1    0    0    0    0  0.00000000000E+00  0.00000000000E+00  0.74505805969E-08  0.10566000000E+00  0.10566000000E+00 0.  1.
     999900   -1    0    0    0    0 -0.00000000000E+00 -0.00000000000E+00 -0.74505805969E-08  0.93827000000E+00  0.93827000000E+00 0. -1.
     999902    2    1    2    0    0 -0.19106007210E-01 -0.68513363872E-02  0.12862333937E-01  0.10199004358E+01  0.10196173199E+01 0.  0.
     999903    2    3    3    0    0  0.11791437229E+00  0.38851671045E-01  0.24146150863E-01  0.12805365870E+00  0.20036251376E-01 0.  0.
         14    1    1    2    0    0  0.19106007210E-01  0.68513363872E-02 -0.12862333937E-01  0.24029564210E-01  0.00000000000E+00 0. -1.
     999901    1    3    3    0    0 -0.13702037950E+00 -0.45703007432E-01 -0.11283816926E-01  0.89184677709E+00  0.88000000000E+00 0.  1.
        -11    1    4    4    0    0  0.82030194222E-02 -0.17789946823E-02  0.40954691430E-02  0.93535200979E-02  0.51100000000E-03 0. -1.
         11    1    4    4    0    0  0.10971135287E+00  0.40630665727E-01  0.20050681720E-01  0.11870013860E+00  0.51100000000E-03 0.  1.
</event>
<event>
 8    1  0.1104109E+005  0.1043930E+01  0.7957747E-01            NaN
         13   -1    0    0    0    0  0.00000000000E+00  0.00000000000E+00  0.74505805969E-08  0.10566000000E+00  0.10566000000E+00 0.  1.
     999900   -1    0    0    0    0 -0.00000000000E+00 -0.00000000000E+00 -0.74505805969E-08  0.93827000000E+00  0.93827000000E+00 0. -1.
     999902    2    1    2    0    0 -0.99367699636E-02 -0.20174815127E-01 -0.47854184265E-02  0.10209373318E+01  0.10206783884E+01 0.  0.
     999903    2    3    3    0    0 -0.92762694400E-01  0.88710497852E-01  0.96929182178E-02  0.13024896462E+00  0.19909048707E-01 0.  0.
         14    1    1    2    0    0  0.99367699636E-02  0.20174815127E-01  0.47854184265E-02  0.22992668228E-01  0.00000000000E+00 0.  1.
     999901    1    3    3    0    0  0.82825924436E-01 -0.10888531298E+00 -0.14478336644E-01  0.89068836715E+00  0.88000000000E+00 0. -1.
        -11    1    4    4    0    0 -0.28209742484E-01  0.15902625942E-01 -0.66220103493E-03  0.32394177163E-01  0.51100000000E-03 0.  1.
         11    1    4    4    0    0 -0.64552951915E-01  0.72807871911E-01  0.10355119253E-01  0.97854787460E-01  0.51100000000E-03 0. -1.
</event>
<event>
 8    1  0.1104109E+005  0.1043930E+01  0.7957747E-01            NaN
         13   -1    0    0    0    0  0.00000000000E+00  0.00000000000E+00  0.74505805969E-08  0.10566000000E+00  0.10566000000E+00 0.  1.
     999900   -1    0    0    0    0 -0.00000000000E+00 -0.00000000000E+00 -0.74505805969E-08  0.93827000000E+00  0.93827000000E+00 0. -1.
     999902    2    1    2    0    0 -0.72603607848E-02  0.17771022683E-01 -0.13556820368E-01  0.10204287348E+01  0.10201580728E+01 0.  0.
     999903    2    3    3    0    0 -0.30128702247E-01 -0.11544229076E+00  0.42775313755E-01  0.12832893254E+00  0.20097916914E-01 0.  0.
         14    1    1    2    0    0  0.72603607848E-02 -0.17771022683E-01  0.13556820368E-01  0.23501265167E-01  0.00000000000E+00 0.  1.
     999901    1    3    3    0    0  0.22868341462E-01  0.13321331344E+00 -0.56332134123E-01  0.89209980230E+00  0.88000000000E+00 0. -1.
        -11    1    4    4    0    0 -0.18516030753E-01 -0.39183767256E-01  0.21085575816E-01  0.48198274240E-01  0.51100000000E-03 0. -1.
         11    1    4    4    0    0 -0.11612671493E-01 -0.76258523505E-01  0.21689737938E-01  0.80130658298E-01  0.51100000000E-03 0.  1.
</event>
<event>
 8    1  0.1104109E+005  0.1043930E+01  0.7957747E-01            NaN
         13   -1    0    0    0    0  0.00000000000E+00  0.00000000000E+00  0.74505805969E-08  0.10566000000E+00  0.10566000000E+00 0. -1.
     999900   -1    0    0    0    0 -0.00000000000E+00 -0.00000000000E+00 -0.74505805969E-08  0.93827000000E+00  0.93827000000E+00 0. -1.
     999902    2    1    2    0    0  0.18364811378E-01  0.11624940030E-01 -0.93464671662E-02  0.10202707106E+01  0.10199963534E+01 0.  0.
     999903    2    3    3    0    0  0.14148390752E-01 -0.68109872060E-01  0.10679106573E+00  0.12905617691E+00  0.20298607015E-01 0.  0.
         14    1    1    2    0    0 -0.18364811378E-01 -0.11624940030E-01  0.93464671662E-02  0.23659289426E-01  0.00000000000E+00 0.  1.
     999901    1    3    3    0    0  0.42164206256E-02  0.79734812090E-01 -0.11613753290E+00  0.89121453366E+00  0.88000000000E+00 0. -1.
        -11    1    4    4    0    0  0.16157677314E-01 -0.57226499713E-01  0.77121017970E-01  0.97385087869E-01  0.51100000000E-03 0.  1.
         11    1    4    4    0    0 -0.20092865615E-02 -0.10883372347E-01  0.29670047761E-01  0.31671089044E-01  0.51100000000E-03 0. -1.
</event>
<event>
 8    1  0.1104109E+005  0.1043930E+01  0.7957747E-01            NaN
         13   -1    0    0    0    0  0.00000000000E+00  0.00000000000E+00  0.74505805969E-08  0.10566000000E+00  0.10566000000E+00 0. -1.
     999900   -1    0    0    0    0 -0.00000000000E+00 -0.00000000000E+00 -0.74505805969E-08  0.93827000000E+00  0.93827000000E+00 0. -1.
     999902    2    1    2    0    0  0.19044344508E-01  0.77092825367E-02 -0.11245085001E-01  0.10205083854E+01  0.10202395761E+01 0.  0.
     999903    2    3    3    0    0  0.49865535841E-01  0.94987332343E-01 -0.76564974873E-01  0.13324625284E+00  0.19575585532E-01 0.  0.
         14    1    1    2    0    0 -0.19044344508E-01 -0.77092825367E-02  0.11245085001E-01  0.23421614625E-01  0.00000000000E+00 0. -1.
     999901    1    3    3    0    0 -0.30821191333E-01 -0.87278049806E-01  0.65319889872E-01  0.88726213253E+00  0.88000000000E+00 0.  1.
        -11    1    4    4    0    0  0.13098190109E-01  0.14830019327E-01 -0.72552282377E-02  0.21080595702E-01  0.51100000000E-03 0.  1.
         11    1    4    4    0    0  0.36767345732E-01  0.80157313016E-01 -0.69309746635E-01  0.11216565714E+00  0.51100000000E-03 0. -1.
</event>
<event>
 8    1  0.1104109E+005  0.1043930E+01  0.7957747E-01            NaN
         13   -1    0    0    0    0  0.00000000000E+00  0.00000000000E+00  0.74505805969E-08  0.10566000000E+00  0.10566000000E+00 0.  1.
     999900   -1    0    0    0    0 -0.00000000000E+00 -0.00000000000E+00 -0.74505805969E-08  0.93827000000E+00  0.93827000000E+00 0.  1.
     999902    2    1    2    0    0 -0.10797196844E-01  0.20487383282E-01 -0.11021191019E-01  0.10182827977E+01  0.10179597620E+01 0.  0.
     999903    2    3    3    0    0  0.10362818911E+00  0.10100252698E-01  0.70102854423E-01  0.12711380579E+00  0.20067205622E-01 0.  0.
         14    1    1    2    0    0  0.10797196844E-01 -0.20487383282E-01  0.11021191019E-01  0.25647202282E-01  0.00000000000E+00 0.  1.
     999901    1    3    3    0    0 -0.11442538595E+00  0.10387130583E-01 -0.81124045442E-01  0.89116899193E+00  0.88000000000E+00 0. -1.
        -11    1    4    4    0    0  0.98860318970E-01  0.50770611582E-02  0.64087527382E-01  0.11792629691E+00  0.51100000000E-03 0.  1.
         11    1    4    4    0    0  0.47678701353E-02  0.50231915402E-02  0.60153270410E-02  0.91875088728E-02  0.51100000000E-03 0. -1.
</event>
<event>
 8    1  0.1104109E+005  0.1043930E+01  0.7957747E-01            NaN
         13   -1    0    0    0    0  0.00000000000E+00  0.00000000000E+00  0.74505805969E-08  0.10566000000E+00  0.10566000000E+00 0. -1.
     999900   -1    0    0    0    0 -0.00000000000E+00 -0.00000000000E+00 -0.74505805969E-08  0.93827000000E+00  0.93827000000E+00 0.  1.
     999902    2    1    2    0    0 -0.72733717685E-02 -0.56295371618E-02 -0.22113392627E-01  0.10199801407E+01  0.10196989221E+01 0.  0.
     999903    2    3    3    0    0 -0.85102643600E-01 -0.40000350745E-01  0.86633130023E-01  0.12921386691E+00  0.18666445240E-01 0.  0.
         14    1    1    2    0    0  0.72733717685E-02  0.56295371618E-02  0.22113392627E-01  0.23949859270E-01  0.00000000000E+00 0. -1.
     999901    1    3    3    0    0  0.77829271831E-01  0.34370813583E-01 -0.10874652265E+00  0.89076627382E+00  0.88000000000E+00 0.  1.
        -11    1    4    4    0    0 -0.27786086924E-01 -0.41338574505E-02  0.28860193138E-01  0.40278124000E-01  0.51100000000E-03 0. -1.
         11    1    4    4    0    0 -0.57316556676E-01 -0.35866493294E-01  0.57772936885E-01  0.88935742914E-01  0.51100000000E-03 0.  1.
</event>
<event>
 8    1  0.1104109E+005  0.1043930E+01  0.7957747E-01            NaN
         13   -1    0    0    0    0  0.00000000000E+00  0.00000000000E+00  0.74505805969E-08  0.10566000000E+00  0.10566000000E+00 0.  1.
     999900   -1    0    0    0    0 -0.00000000000E+00 -0.00000000000E+00 -0.74505805969E-08  0.93827000000E+00  0.93827000000E+00 0.  1.
     999902    2    1    2    0    0 -0.19033452244E-01 -0.10427923533E-01  0.96060950421E-02  0.10201962486E+01  0.10199201413E+01 0.  0.
     999903    2    3    3    0    0 -0.88422148506E-01  0.83244247917E-01  0.38623355433E-01  0.13203451318E+00  0.34543710380E-01 0.  0.
         14    1    1    2    0    0  0.19033452244E-01  0.10427923533E-01 -0.96060950421E-02  0.23733751400E-01  0.00000000000E+00 0. -1.
     999901    1    3    3    0    0  0.69388696262E-01 -0.93672171450E-01 -0.29017260391E-01  0.88816173543E+00  0.88000000000E+00 0.  1.
        -11    1    4    4    0    0 -0.24409718941E-01  0.18137263633E-01 -0.50333259383E-02  0.30828399275E-01  0.51100000000E-03 0. -1.
         11    1    4    4    0    0 -0.64012429565E-01  0.65106984284E-01  0.43656681372E-01  0.10120611390E+00  0.51100000000E-03 0.  1.
</event>
<event>
 8    1  0.1104109E+005  0.1043930E+01  0.7957747E-01            NaN
         13   -1    0    0    0    0  0.00000000000E+00  0.00000000000E+00  0.74505805969E-08  0.10566000000E+00  0.10566000000E+00 0.  1.
     999900   -1    0    0    0    0 -0.00000000000E+00 -0.00000000000E+00 -0.74505805969E-08  0.93827000000E+00  0.93827000000E+00 0. -1.
     999902    2    1    2    0    0  0.23192774634E-01 -0.54049922684E-02  0.23939800724E-02  0.10199957175E+01  0.10197148689E+01 0.  0.
     999903    2    3    3    0    0 -0.45971041028E-01 -0.10573776444E+00  0.56441143376E-01  0.12995560921E+00  0.20224892024E-01 0.  0.
         14    1    1    2    0    0 -0.23192774634E-01  0.54049922684E-02 -0.23939800724E-02  0.23934282468E-01  0.00000000000E+00 0.  1.
     999901    1    3    3    0    0  0.69163815662E-01  0.10033277217E+00 -0.54047163303E-01  0.89004010833E+00  0.88000000000E+00 0. -1.
        -11    1    4    4    0    0 -0.10615290920E-01 -0.32602279192E-01  0.74477284249E-02  0.35090209311E-01  0.51100000000E-03 0. -1.
         11    1    4    4    0    0 -0.35355750109E-01 -0.73135485245E-01  0.48993414951E-01  0.94865399895E-01  0.51100000000E-03 0.  1.
</event>
<event>
 8    1  0.1104109E+005  0.1043930E+01  0.7957747E-01            NaN
         13   -1    0    0    0    0  0.00000000000E+00  0.00000000000E+00  0.74505805969E-08  0.10566000000E+00  0.10566000000E+00 0. -1.
     999900   -1    0    0    0    0 -0.00000000000E+00 -0.00000000000E+00 -0.74505805969E-08  0.93827000000E+00  0.93827000000E+00 0. -1.
     999902    2    1    2    0    0 -0.29982482024E-01 -0.20670202082E-02  0.87030929344E-02  0.10126415736E+01  0.10121580859E+01 0.  0.
     999903    2    3    3    0    0  0.10178867192E+00  0.45421707666E-01 -0.40440325122E-01  0.12021012422E+00  0.19773436975E-01 0.  0.
         14    1    1    2    0    0  0.29982482024E-01  0.20670202082E-02 -0.87030929344E-02  0.31288426414E-01  0.00000000000E+00 0.  1.
     999901    1    3    3    0    0 -0.13177115394E+00 -0.47488727874E-01  0.49143418057E-01  0.89243144937E+00  0.88000000000E+00 0.  1.
        -11    1    4    4    0    0  0.54415422928E-01  0.34973278557E-01 -0.23457191785E-01  0.68808934252E-01  0.51100000000E-03 0.  1.
         11    1    4    4    0    0  0.47373248991E-01  0.10448429109E-01 -0.16983133337E-01  0.51401189964E-01  0.51100000000E-03 0. -1.
</event>
<event>
 8    1  0.1104109E+005  0.1043930E+01  0.7957747E-01            NaN
         13   -1    0    0    0    0  0.00000000000E+00  0.00000000000E+00  0.74505805969E-08  0.10566000000E+00  0.10566000000E+00 0.  1.
     999900   -1    0    0    0    0 -0.00000000000E+00 -0.00000000000E+00 -0.74505805969E-08  0.93827000000E+00  0.93827000000E+00 0.  1.
     999902    2    1    2    0    0  0.10864865009E-01  0.15569882242E-01 -0.14024495627E-01  0.10203259113E+01  0.10200528478E+01 0.  0.
     999903    2    3    3    0    0 -0.30629171824E-01 -0.93005947743E-01  0.79663892464E-01  0.12775211605E+00  0.19647262145E-01 0.  0.
         14    1    1    2    0    0 -0.10864865009E-01 -0.15569882242E-01  0.14024495627E-01  0.23604088678E-01  0.00000000000E+00 0.  1.
     999901    1    3    3    0    0  0.41494036833E-01  0.10857582998E+00 -0.93688388091E-01  0.89257379528E+00  0.88000000000E+00 0.  1.
        -11    1    4    4    0    0 -0.26177128420E-01 -0.79427622060E-01  0.57926854418E-01  0.10173382320E+00  0.51100000000E-03 0. -1.
         11    1    4    4    0    0 -0.44520434033E-02 -0.13578325682E-01  0.21737038046E-01  0.26018292850E-01  0.51100000000E-03 0.  1.
</event>
<event>
 8    1  0.1104109E+005  0.1043930E+01  0.7957747E-01            NaN
         13   -1    0    0    0    0  0.00000000000E+00  0.00000000000E+00  0.74505805969E-08  0.10566000000E+00  0.10566000000E+00 0. -1.
     999900   -1    0    0    0    0 -0.00000000000E+00 -0.00000000000E+00 -0.74505805969E-08  0.93827000000E+00  0.93827000000E+00 0.  1.
     999902    2    1    2    0    0 -0.22976050992E-02 -0.38555051293E-02  0.22746228382E-01  0.10207452029E+01  0.10204818639E+01 0.  0.
     999903    2    3    3    0    0 -0.39911097886E-01  0.94142730125E-01  0.81841539711E-01  0.13253876029E+00  0.20315904769E-01 0.  0.
         14    1    1    2    0    0  0.22976050992E-02  0.38555051293E-02 -0.22746228382E-01  0.23184797057E-01  0.00000000000E+00 0.  1.
     999901    1    3    3    0    0  0.37613492787E-01 -0.97998235254E-01 -0.59095311329E-01  0.88820644265E+00  0.88000000000E+00 0. -1.
        -11    1    4    4    0    0 -0.81237711113E-02  0.37564985463E-01  0.22140934651E-01  0.44357703932E-01  0.51100000000E-03 0. -1.
         11    1    4    4    0    0 -0.31787326775E-01  0.56577744662E-01  0.59700605060E-01  0.88181056356E-01  0.51100000000E-03 0.  1.
</event>
<event>
 8    1  0.1104109E+005  0.1043930E+01  0.7957747E-01            NaN
         13   -1    0    0    0    0  0.00000000000E+00  0.00000000000E+00  0.74505805969E-08  0.10566000000E+00  0.10566000000E+00 0. -1.
     999900   -1    0    0    0    0 -0.00000000000E+00 -0.00000000000E+00 -0.74505805969E-08  0.93827000000E+00  0.93827000000E+00 0. -1.
     999902    2    1    2    0    0 -0.37754122042E-02 -0.14420337917E-01  0.17938782278E-01  0.10206061969E+01  0.10203396539E+01 0.  0.
     999903    2    3    3    0    0 -0.75017386293E-01 -0.63380839351E-01 -0.83762153409E-01  0.13054123862E+00  0.19498143369E-01 0.  0.
         14    1    1    2    0    0  0.37754122042E-02  0.14420337917E-01 -0.17938782278E-01  0.23323803133E-01  0.00000000000E+00 0.  1.
     999901    1    3    3    0    0  0.71241974088E-01  0.48960501434E-01  0.10170093569E+00  0.89006495824E+00  0.88000000000E+00 0. -1.
        -11    1    4    4    0    0 -0.55576158738E-01 -0.48906223533E-01 -0.51490536690E-01  0.90177960777E-01  0.51100000000E-03 0. -1.
         11    1    4    4    0    0 -0.19441227554E-01 -0.14474615819E-01 -0.32271616718E-01  0.40363277847E-01  0.51100000000E-03 0.  1.
</event>
<event>
 8    1  0.1104109E+005  0.1043930E+01  0.7957747E-01            NaN
         13   -1    0    0    0    0  0.00000000000E+00  0.00000000000E+00  0.74505805969E-08  0.10566000000E+00  0.10566000000E+00 0.  1.
     999900   -1    0    0    0    0 -0.00000000000E+00 -0.00000000000E+00 -0.74505805969E-08  0.93827000000E+00  0.93827000000E+00 0.  1.
     999902    2    1    2    0    0  0.15899648624E-01  0.28793609589E-03 -0.21275119490E-01  0.10173685158E+01  0.10170217227E+01 0.  0.
     999903    2    3    3    0    0 -0.10093544776E+00  0.40526172236E-01  0.58688368219E-01  0.12514448857E+00  0.19659176091E-01 0.  0.
         14    1    1    2    0    0 -0.15899648624E-01 -0.28793609589E-03  0.21275119490E-01  0.26561484200E-01  0.00000000000E+00 0.  1.
     999901    1    3    3    0    0  0.11683509639E+00 -0.40238236141E-01 -0.79963487709E-01  0.89222402723E+00  0.88000000000E+00 0.  1.
        -11    1    4    4    0    0 -0.22077893089E-01  0.17732645053E-01  0.12535230712E-01  0.30972135765E-01  0.51100000000E-03 0. -1.
         11    1    4    4    0    0 -0.78857554674E-01  0.22793527184E-01  0.46153137507E-01  0.94172352808E-01  0.51100000000E-03 0.  1.
</event>
<event>
 8    1  0.1104109E+005  0.1043930E+01  0.7957747E-01            NaN
         13   -1    0    0    0    0  0.00000000000E+00  0.00000000000E+00  0.74505805969E-08  0.10566000000E+00  0.10566000000E+00 0.  1.
     999900   -1    0    0    0    0 -0.00000000000E+00 -0.00000000000E+00 -0.74505805969E-08  0.93827000000E+00  0.93827000000E+00 0.  1.
     999902    2    1    2    0    0  0.57665540707E-03 -0.18722026864E-01 -0.15094361627E-01  0.10198740948E+01  0.10195903504E+01 0.  0.
     999903    2    3    3    0    0 -0.11117438938E+00  0.36999458015E-01  0.48843050909E-01  0.12876177159E+00  0.21569549186E-01 0.  0.
         14    1    1    2    0    0 -0.57665540707E-03  0.18722026864E-01  0.15094361627E-01  0.24055905186E-01  0.00000000000E+00 0.  1.
     999901    1    3    3    0    0  0.11175104479E+00 -0.55721484879E-01 -0.63937412536E-01  0.89111232323E+00  0.88000000000E+00 0.  1.
        -11    1    4    4    0    0 -0.69192549509E-01  0.27870210865E-01  0.20756963009E-01  0.77430421641E-01  0.51100000000E-03 0.  1.
         11    1    4    4    0    0 -0.41981839872E-01  0.91292471501E-02  0.28086087900E-01  0.51331349944E-01  0.51100000000E-03 0. -1.
</event>
<event>
 8    1  0.1104109E+005  0.1043930E+01  0.7957747E-01            NaN
         13   -1    0    0    0    0  0.00000000000E+00  0.00000000000E+00  0.74505805969E-08  0.10566000000E+00  0.10566000000E+00 0. -1.
     999900   -1    0    0    0    0 -0.00000000000E+00 -0.00000000000E+00 -0.74505805969E-08  0.93827000000E+00  0.93827000000E+00 0.  1.
     999902    2    1    2    0    0 -0.78650676363E-03 -0.19972440044E-01 -0.13546710526E-01  0.10197839792E+01  0.10194980794E+01 0.  0.
     999903    2    3    3    0    0 -0.12819325872E+00 -0.16264798507E-02 -0.12787490374E-01  0.13041924462E+00  0.20236166637E-01 0.  0.
         14    1    1    2    0    0  0.78650676363E-03  0.19972440044E-01  0.13546710526E-01  0.24146020796E-01  0.00000000000E+00 0.  1.
     999901    1    3    3    0    0  0.12740675196E+00 -0.18345960193E-01 -0.75922015210E-03  0.88936473458E+00  0.88000000000E+00 0. -1.
        -11    1    4    4    0    0 -0.74653853249E-01 -0.77274986378E-02 -0.14772193584E-01  0.76494384529E-01  0.51100000000E-03 0.  1.
         11    1    4    4    0    0 -0.53539405471E-01  0.61010187871E-02  0.19847032104E-02  0.53924860095E-01  0.51100000000E-03 0. -1.
</event>
<event>
 8    1  0.1104109E+005  0.1043930E+01  0.7957747E-01            NaN
         13   -1    0    0    0    0  0.00000000000E+00  0.00000000000E+00  0.74505805969E-08  0.10566000000E+00  0.10566000000E+00 0. -1.
     999900   -1    0    0    0    0 -0.00000000000E+00 -0.00000000000E+00 -0.74505805969E-08  0.93827000000E+00  0.93827000000E+00 0.  1.
     999902    2    1    2    0    0  0.26383539270E-02 -0.18730553479E-01 -0.79652346667E-02  0.10234058798E+01  0.10232000564E+01 0.  0.
     999903    2    3    3    0    0  0.45424135304E-01 -0.11802143876E+00 -0.45803829155E-01  0.13598204524E+00  0.20017836700E-01 0.  0.
         14    1    1    2    0    0 -0.26383539270E-02  0.18730553479E-01  0.79652346667E-02  0.20524120161E-01  0.00000000000E+00 0. -1.
     999901    1    3    3    0    0 -0.42785781377E-01  0.99290885282E-01  0.37838594488E-01  0.88742383460E+00  0.88000000000E+00 0.  1.
        -11    1    4    4    0    0  0.13114262547E-01 -0.52921296823E-01 -0.12013610955E-01  0.55832208525E-01  0.51100000000E-03 0. -1.
         11    1    4    4    0    0  0.32309872757E-01 -0.65100141938E-01 -0.33790218199E-01  0.80149836711E-01  0.51100000000E-03 0.  1.
</event>
<event>
 8    1  0.1104109E+005  0.1043930E+01  0.7957747E-01            NaN
         13   -1    0    0    0    0  0.00000000000E+00  0.00000000000E+00  0.74505805969E-08  0.10566000000E+00  0.10566000000E+00 0. -1.
     999900   -1    0    0    0    0 -0.00000000000E+00 -0.00000000000E+00 -0.74505805969E-08  0.93827000000E+00  0.93827000000E+00 0. -1.
     999902    2    1    2    0    0  0.97197771729E-02 -0.17293659776E-01  0.10968773740E-01  0.10212615476E+01  0.10210099362E+01 0.  0.
     999903    2    3    3    0    0  0.13110393702E-01 -0.83167534218E-01 -0.99567968815E-01  0.13189703568E+00  0.19857654345E-01 0.  0.
         14    1    1    2    0    0 -0.97197771729E-02  0.17293659776E-01 -0.10968773740E-01  0.22668452397E-01  0.00000000000E+00 0.  1.
     999901    1    3    3    0    0 -0.33906165295E-02  0.65873874442E-01  0.11053674255E+00  0.88936451192E+00  0.88000000000E+00 0.  1.
        -11    1    4    4    0    0 -0.14821032016E-02 -0.33188300540E-01 -0.49822921279E-01  0.59885261362E-01  0.51100000000E-03 0. -1.
         11    1    4    4    0    0  0.14592496904E-01 -0.49979233678E-01 -0.49745047536E-01  0.72011774317E-01  0.51100000000E-03 0.  1.
</event>
<event>
 8    1  0.1104109E+005  0.1043930E+01  0.7957747E-01            NaN
         13   -1    0    0    0    0  0.00000000000E+00  0.00000000000E+00  0.74505805969E-08  0.10566000000E+00  0.10566000000E+00 0.  1.
     999900   -1    0    0    0    0 -0.00000000000E+00 -0.00000000000E+00 -0.74505805969E-08  0.93827000000E+00  0.93827000000E+00 0. -1.
     999902    2    1    2    0    0 -0.95816418785E-02  0.19364154427E-01  0.10065751456E-01  0.10200952000E+01  0.10198167087E+01 0.  0.
     999903    2    3    3    0    0  0.42912194941E-02  0.13043467448E+00  0.16163947934E-01  0.13298398675E+00  0.19795167270E-01 0.  0.
         14    1    1    2    0    0  0.95816418785E-02 -0.19364154427E-01 -0.10065751456E-01  0.23834799981E-01  0.00000000000E+00 0. -1.
     999901    1    3    3    0    0 -0.13872861373E-01 -0.11107052005E+00 -0.60981964783E-02  0.88711121327E+00  0.88000000000E+00 0.  1.
        -11    1    4    4    0    0  0.11320209455E-02  0.80989570540E-01  0.19533016103E-01  0.83321016837E-01  0.51100000000E-03 0.  1.
         11    1    4    4    0    0  0.31591985486E-02  0.49445103942E-01 -0.33690681684E-02  0.49662969913E-01  0.51100000000E-03 0. -1.
</event>
<event>
 8    1  0.1104109E+005  0.1043930E+01  0.7957747E-01            NaN
         13   -1    0    0    0    0  0.00000000000E+00  0.00000000000E+00  0.74505805969E-08  0.10566000000E+00  0.10566000000E+00 0. -1.
     999900   -1    0    0    0    0 -0.00000000000E+00 -0.00000000000E+00 -0.74505805969E-08  0.93827000000E+00  0.93827000000E+00 0. -1.
     999902    2    1    2    0    0 -0.18902304356E-01 -0.53817679224E-02 -0.12498362159E-01  0.10206390234E+01  0.10203732388E+01 0.  0.
     999903    2    3    3    0    0  0.12536620418E+00 -0.14429444374E-01 -0.15948960081E-01  0.12883906282E+00  0.20499774763E-01 0.  0.
         14    1    1    2    0    0  0.18902304356E-01  0.53817679224E-02  0.12498362159E-01  0.23290976635E-01  0.00000000000E+00 0. -1.
     999901    1    3    3    0    0 -0.14426850853E+00  0.90476764513E-02  0.34505979221E-02  0.89179996055E+00  0.88000000000E+00 0. -1.
        -11    1    4    4    0    0  0.46739589567E-01 -0.15356895099E-01 -0.52145702207E-02  0.49476017661E-01  0.51100000000E-03 0.  1.
         11    1    4    4    0    0  0.78626614611E-01  0.92745072520E-03 -0.10734389861E-01  0.79363045158E-01  0.51100000000E-03 0. -1.
</event>
<event>
 8    1  0.1104109E+005  0.1043930E+01  0.7957747E-01            NaN
         13   -1    0    0    0    0  0.00000000000E+00  0.00000000000E+00  0.74505805969E-08  0.10566000000E+00  0.10566000000E+00 0.  1.
     999900   -1    0    0    0    0 -0.00000000000E+00 -0.00000000000E+00 -0.74505805969E-08  0.93827000000E+00  0.93827000000E+00 0. -1.
     999902    2    1    2    0    0  0.17851286954E-01 -0.11357935050E-01 -0.12129263723E-01  0.10195416796E+01  0.10192499430E+01 0.  0.
     999903    2    3    3    0    0 -0.98318965373E-01  0.26492560919E-01 -0.76327126125E-01  0.12878382634E+00  0.19772936248E-01 0.  0.
         14    1    1    2    0    0 -0.17851286954E-01  0.11357935050E-01  0.12129263723E-01  0.24388320421E-01  0.00000000000E+00 0.  1.
     999901    1    3    3    0    0  0.11617025233E+00 -0.37850495969E-01  0.64197862402E-01  0.89075785324E+00  0.88000000000E+00 0. -1.
        -11    1    4    4    0    0 -0.61057086655E-01  0.20523739503E-01 -0.58618836941E-01  0.87095469913E-01  0.51100000000E-03 0.  1.
         11    1    4    4    0    0 -0.37261878718E-01  0.59688214161E-02 -0.17708289184E-01  0.41688356426E-01  0.51100000000E-03 0. -1.
</event>
<event>
 8    1  0.1104109E+005  0.1043930E+01  0.7957747E-01            NaN
         13   -1    0    0    0    0  0.00000000000E+00  0.00000000000E+00  0.74505805969E-08  0.10566000000E+00  0.10566000000E+00 0. -1.
     999900   -1    0    0    0    0 -0.00000000000E+00 -0.00000000000E+00 -0.74505805969E-08  0.93827000000E+00  0.93827000000E+00 0. -1.
     999902    2    1    2    0    0 -0.15673085904E-01  0.11574208560E-01  0.12667732331E-01  0.10206903923E+01  0.10204257922E+01 0.  0.
     999903    2    3    3    0    0 -0.29263678557E-01  0.31900763678E-01  0.12451683515E+00  0.13327386387E+00  0.19582107899E-01 0.  0.
         14    1    1    2    0    0  0.15673085904E-01 -0.11574208560E-01 -0.12667732331E-01  0.23239607741E-01  0.00000000000E+00 0.  1.
     999901    1    3    3    0    0  0.13590592653E-01 -0.20326555118E-01 -0.11184910282E+00  0.88741652839E+00  0.88000000000E+00 0. -1.
        -11    1    4    4    0    0  0.18221834486E-02  0.19283691121E-02  0.20075218269E-01  0.20256220513E-01  0.51100000000E-03 0.  1.
         11    1    4    4    0    0 -0.31085862006E-01  0.29972394566E-01  0.10444161688E+00  0.11301764336E+00  0.51100000000E-03 0. -1.
</event>
<event>
 8    1  0.1104109E+005  0.1043930E+01  0.7957747E-01            NaN
         13   -1    0    0    0    0  0.00000000000E+00  0.00000000000E+00  0.74505805969E-08  0.10566000000E+00  0.10566000000E+00 0. -1.
     999900   -1    0    0    0    0 -0.00000000000E+00 -0.00000000000E+00 -0.74505805969E-08  0.93827000000E+00  0.93827000000E+00 0.  1.
     999902    2    1    2    0    0  0.24114397476E-01 -0.90001060033E-02 -0.76418447343E-02  0.10170803470E+01  0.10167258866E+01 0.  0.
     999903    2    3    3    0    0 -0.38250833843E-01 -0.11286559239E+00  0.41353480053E-01  0.12742985206E+00  0.18068996914E-01 0.  0.
         14    1    1    2    0    0 -0.24114397476E-01  0.90001060033E-02  0.76418447343E-02  0.26849652970E-01  0.00000000000E+00 0.  1.
     999901    1    3    3    0    0  0.62365231319E-01  0.10386548639E+00 -0.48995324787E-01  0.88965049496E+00  0.88000000000E+00 0.  1.
        -11    1    4    4    0    0 -0.34635165045E-01 -0.96960942171E-01  0.29017469304E-01  0.10697333130E+00  0.51100000000E-03 0.  1.
         11    1    4    4    0    0 -0.36156687980E-02 -0.15904650219E-01  0.12336010749E-01  0.20456520761E-01  0.51100000000E-03 0. -1.
</event>
<event>
 8    1  0.1104109E+005  0.1043930E+01  0.7957747E-01            NaN
         13   -1    0    0    0    0  0.00000000000E+00  0.00000000000E+00  0.74505805969E-08  0.10566000000E+00  0.10566000000E+00 0.  1.
     999900   -1    0    0    0    0 -0.00000000000E+00 -0.00000000000E+00 -0.74505805969E-08  0.93827000000E+00  0.93827000000E+00 0.  1.
     999902    2    1    2    0    0 -0.15825160732E-01 -0.14004654658E-01 -0.13544734369E-01  0.10188296834E+01  0.10185204455E+01 0.  0.
     999903    2    3    3    0    0  0.71243327310E-01 -0.71244982162E-01 -0.79467351000E-01  0.13023350510E+00  0.22231662252E-01 0.  0.
         14    1    1    2    0    0  0.15825160732E-01  0.14004654658E-01  0.13544734369E-01  0.25100316600E-01  0.00000000000E+00 0.  1.
     999901    1    3    3    0    0 -0.87068488043E-01  0.57240327504E-01  0.65922616631E-01  0.88859617830E+00  0.88000000000E+00 0.  1.
        -11    1    4    4    0    0  0.25087071398E-01 -0.24620750621E-01 -0.14896843423E-01  0.38180093994E-01  0.51100000000E-03 0. -1.
         11    1    4    4    0    0  0.46156255913E-01 -0.46624231541E-01 -0.64570507577E-01  0.92053411107E-01  0.51100000000E-03 0.  1.
</event>
<event>
 8    1  0.1104109E+005  0.1043930E+01  0.7957747E-01            NaN
         13   -1    0    0    0    0  0.00000000000E+00  0.00000000000E+00  0.74505805969E-08  0.10566000000E+00  0.10566000000E+00 0.  1.
     999900   -1    0    0    0    0 -0.00000000000E+00 -0.00000000000E+00 -0.74505805969E-08  0.93827000000E+00  0.93827000000E+00 0.  1.
     999902    2    1    2    0    0 -0.21915592135E-01 -0.10260255997E-01 -0.47948005540E-02  0.10192610693E+01  0.10189624974E+01 0.  0.
     999903    2    3    3    0    0 -0.64089673501E-01  0.10290231360E+00  0.41784456683E-01  0.12979266200E+00  0.20095320231E-01 0.  0.
         14    1    1    2    0    0  0.21915592135E-01  0.10260255997E-01  0.47948005540E-02  0.24668930745E-01  0.00000000000E+00 0.  1.
     999901    1    3    3    0    0  0.42174081366E-01 -0.11316256960E+00 -0.46579257237E-01  0.88946840725E+00  0.88000000000E+00 0.  1.
        -11    1    4    4    0    0 -0.25156595056E-01  0.23438660995E-01  0.12237258730E-01  0.36499818168E-01  0.51100000000E-03 0.  1.
         11    1    4    4    0    0 -0.38933078445E-01  0.79463652606E-01  0.29547197953E-01  0.93292843834E-01  0.51100000000E-03 0. -1.
</event>
<event>
 8    1  0.1104109E+005  0.1043930E+01  0.7957747E-01            NaN
         13   -1    0    0    0    0  0.00000000000E+00  0.00000000000E+00  0.74505805969E-08  0.10566000000E+00  0.10566000000E+00 0. -1.
     999900   -1    0    0    0    0 -0.00000000000E+00 -0.00000000000E+00 -0.74505805969E-08  0.93827000000E+00  0.93827000000E+00 0.  1.
     999902    2    1    2    0    0  0.28629172390E-02 -0.19824461492E-01  0.11604652004E-01  0.10207810580E+01  0.10205185421E+01 0.  0.
     999903    2    3    3    0    0  0.29318664567E-01  0.30559694172E-01  0.12361596447E+00  0.13185754956E+00  0.17664305923E-01 0.  0.
         14    1    1    2    0    0 -0.28629172390E-02  0.19824461492E-01 -0.11604652004E-01  0.23148942021E-01  0.00000000000E+00 0.  1.
     999901    1    3    3    0    0 -0.26455747328E-01 -0.50384155664E-01 -0.11201131246E+00  0.88892350842E+00  0.88000000000E+00 0. -1.
        -11    1    4    4    0    0  0.23765420129E-01  0.15220855137E-01  0.62111702811E-01  0.68224587739E-01  0.51100000000E-03 0. -1.
         11    1    4    4    0    0  0.55532444382E-02  0.15338839035E-01  0.61504261655E-01  0.63632961816E-01  0.51100000000E-03 0.  1.
</event>
<event>
 8    1  0.1104109E+005  0.1043930E+01  0.7957747E-01            NaN
         13   -1    0    0    0    0  0.00000000000E+00  0.00000000000E+00  0.74505805969E-08  0.10566000000E+00  0.10566000000E+00 0. -1.
     999900   -1    0    0    0    0 -0.00000000000E+00 -0.00000000000E+00 -0.74505805969E-08  0.93827000000E+00  0.93827000000E+00 0. -1.
     999902    2    1    2    0    0 -0.57834626011E-02  0.12296877734E-01  0.18880921159E-01  0.10206673513E+01  0.10204022203E+01 0.  0.
     999903    2    3    3    0    0 -0.60058290222E-01 -0.11088498739E+00  0.26233764875E-01  0.13040132749E+00  0.20342495865E-01 0.  0.
         14    1    1    2    0    0  0.57834626011E-02 -0.12296877734E-01 -0.18880921159E-01  0.23262648720E-01  0.00000000000E+00 0.  1.
     999901    1    3    3    0    0  0.54274827621E-01  0.12318186512E+00 -0.73528437169E-02  0.89026602379E+00  0.88000000000E+00 0. -1.
        -11    1    4    4    0    0 -0.43523010707E-01 -0.63296778457E-01  0.21655753699E-01  0.79812075611E-01  0.51100000000E-03 0.  1.
         11    1    4    4    0    0 -0.16535279515E-01 -0.47588208933E-01  0.45780111764E-02  0.50589251876E-01  0.51100000000E-03 0. -1.
</event>
<event>
 8    1  0.1104109E+005  0.1043930E+01  0.7957747E-01            NaN
         13   -1    0    0    0    0  0.00000000000E+00  0.00000000000E+00  0.74505805969E-08  0.10566000000E+00  0.10566000000E+00 0.  1.
     999900   -1    0    0    0    0 -0.00000000000E+00 -0.00000000000E+00 -0.74505805969E-08  0.93827000000E+00  0.93827000000E+00 0. -1.
     999902    2    1    2    0    0 -0.22381201457E-02 -0.10517247225E-01 -0.21351287747E-01  0.10200239514E+01  0.10197437729E+01 0.  0.
     999903    2    3    3    0    0 -0.91706133834E-01 -0.91603185616E-01 -0.13135857218E-01  0.13174080501E+00  0.19543038679E-01 0.  0.
         14    1    1    2    0    0  0.22381201457E-02  0.10517247225E-01  0.21351287747E-01  0.23906048595E-01  0.00000000000E+00 0.  1.
     999901    1    3    3    0    0  0.89468013689E-01  0.81085938391E-01 -0.82154305292E-02  0.88828314640E+00  0.88000000000E+00 0.  1.
        -11    1    4    4    0    0 -0.14796650215E-02 -0.69385985138E-02 -0.25590765389E-02  0.75593353970E-02  0.51100000000E-03 0.  1.
         11    1    4    4    0    0 -0.90226468813E-01 -0.84664587102E-01 -0.10576780679E-01  0.12418146961E+00  0.51100000000E-03 0. -1.
</event>
<event>
 8    1  0.1104109E+005  0.1043930E+01  0.7957747E-01            NaN
         13   -1    0    0    0    0  0.00000000000E+00  0.00000000000E+00  0.74505805969E-08  0.10566000000E+00  0.10566000000E+00 0.  1.
     999900   -1    0    0    0    0 -0.00000000000E+00 -0.00000000000E+00 -0.74505805969E-08  0.93827000000E+00  0.93827000000E+00 0. -1.
     999902    2    1    2    0    0  0.10881390446E-01 -0.23732795112E-02 -0.20382496863E-01  0.10207032204E+01  0.10204389158E+01 0.  0.
     999903    2    3    3    0    0  0.45689785481E-01  0.66765650306E-01  0.98532208505E-01  0.12933768192E+00  0.21781443789E-01 0.  0.
         14    1    1    2    0    0 -0.10881390446E-01  0.23732795112E-02  0.20382496863E-01  0.23226779631E-01  0.00000000000E+00 0.  1.
     999901    1    3    3    0    0 -0.34808395035E-01 -0.69138929817E-01 -0.11891470537E+00  0.89136553845E+00  0.88000000000E+00 0. -1.
        -11    1    4    4    0    0  0.32558226728E-01  0.29076892366E-01  0.46845154149E-01  0.64033064784E-01  0.51100000000E-03 0. -1.
         11    1    4    4    0    0  0.13131558753E-01  0.37688757939E-01  0.51687054356E-01  0.65304617136E-01  0.51100000000E-03 0.  1.
</event>
<event>
 8    1  0.1104109E+005  0.1043930E+01  0.7957747E-01            NaN
         13   -1    0    0    0    0  0.00000000000E+00  0.00000000000E+00  0.74505805969E-08  0.10566000000E+00  0.10566000000E+00 0. -1.
     999900   -1    0    0    0    0 -0.00000000000E+00 -0.00000000000E+00 -0.74505805969E-08  0.93827000000E+00  0.93827000000E+00 0.  1.
     999902    2    1    2    0    0  0.16939922056E-02 -0.44467354293E-03 -0.22775490967E-01  0.10210872696E+01  0.10208317304E+01 0.  0.
     999903    2    3    3    0    0  0.26957608766E-03  0.36201137548E-01 -0.12770697663E+00  0.13409484508E+00  0.19020004388E-01 0.  0.
         14    1    1    2    0    0 -0.16939922056E-02  0.44467354293E-03  0.22775490967E-01  0.22842730418E-01  0.00000000000E+00 0. -1.
     999901    1    3    3    0    0  0.14244161179E-02 -0.36645811091E-01  0.10493148566E+00  0.88699242450E+00  0.88000000000E+00 0. -1.
        -11    1    4    4    0    0  0.36831959448E-02  0.19078393872E-01 -0.95481947142E-01  0.97440311966E-01  0.51100000000E-03 0. -1.
         11    1    4    4    0    0 -0.34136198572E-02  0.17122743676E-01 -0.32225029490E-01  0.36654533119E-01  0.51100000000E-03 0.  1.
</event>
<event>
 8    1  0.1104109E+005  0.1043930E+01  0.7957747E-01            NaN
         13   -1    0    0    0    0  0.00000000000E+00  0.00000000000E+00  0.74505805969E-08  0.10566000000E+00  0.10566000000E+00 0.  1.
     999900   -1    0    0    0    0 -0.00000000000E+00 -0.00000000000E+00 -0.74505805969E-08  0.93827000000E+00  0.93827000000E+00 0. -1.
     999902    2    1    2    0    0  0.11048888794E-01 -0.18862761180E-01 -0.68518013842E-02  0.10210208559E+01  0.10207638117E+01 0.  0.
     999903    2    3    3    0    0 -0.32361830764E-01  0.18265012971E-01  0.12265947671E+00  0.12970938766E+00  0.19956934432E-01 0.  0.
         14    1    1    2    0    0 -0.11048888794E-01  0.18862761180E-01  0.68518013842E-02  0.22909144138E-01  0.00000000000E+00 0.  1.
     999901    1    3    3    0    0  0.43410719558E-01 -0.37127774151E-01 -0.12951127810E+00  0.89131146820E+00  0.88000000000E+00 0. -1.
        -11    1    4    4    0    0 -0.28764788551E-01  0.62644482668E-02  0.80038088998E-01  0.85281962829E-01  0.51100000000E-03 0. -1.
         11    1    4    4    0    0 -0.35970422126E-02  0.12000564704E-01  0.42621387714E-01  0.44427424836E-01  0.51100000000E-03 0.  1.
</event>
<event>
 8    1  0.1104109E+005  0.1043930E+01  0.7957747E-01            NaN
         13   -1    0    0    0    0  0.00000000000E+00  0.00000000000E+00  0.74505805969E-08  0.10566000000E+00  0.10566000000E+00 0.  1.
     999900   -1    0    0    0    0 -0.00000000000E+00 -0.00000000000E+00 -0.74505805969E-08  0.93827000000E+00  0.93827000000E+00 0. -1.
     999902    2    1    2    0    0 -0.20905450760E-01 -0.12071232284E-01  0.74713224914E-03  0.10197781734E+01  0.10194921345E+01 0.  0.
     999903    2    3    3    0    0  0.63295117449E-01  0.90145692925E-01 -0.56571108597E-01  0.12802517162E+00  0.32521322170E-01 0.  0.
         14    1    1    2    0    0  0.20905450760E-01  0.12071232284E-01 -0.74713224914E-03  0.24151826575E-01  0.00000000000E+00 0. -1.
     999901    1    3    3    0    0 -0.84200568209E-01 -0.10221692521E+00  0.57318240847E-01  0.89175300180E+00  0.88000000000E+00 0.  1.
        -11    1    4    4    0    0  0.38341454324E-01  0.78085473334E-01 -0.40197752340E-01  0.95830729307E-01  0.51100000000E-03 0.  1.
         11    1    4    4    0    0  0.24953663126E-01  0.12060219591E-01 -0.16373356257E-01  0.32194442317E-01  0.51100000000E-03 0. -1.
</event>
<event>
 8    1  0.1104109E+005  0.1043930E+01  0.7957747E-01            NaN
         13   -1    0    0    0    0  0.00000000000E+00  0.00000000000E+00  0.74505805969E-08  0.10566000000E+00  0.10566000000E+00 0. -1.
     999900   -1    0    0    0    0 -0.00000000000E+00 -0.00000000000E+00 -0.74505805969E-08  0.93827000000E+00  0.93827000000E+00 0.  1.
     999902    2    1    2    0    0 -0.93267885900E-02  0.39473805544E-02 -0.22685801683E-01  0.10190861598E+01  0.10187832864E+01 0.  0.
     999903    2    3    3    0    0 -0.94448881988E-02  0.10678655204E+00  0.67804049599E-01  0.12848842662E+00  0.20477134146E-01 0.  0.
         14    1    1    2    0    0  0.93267885900E-02 -0.39473805544E-02  0.22685801683E-01  0.24843840215E-01  0.00000000000E+00 0. -1.
     999901    1    3    3    0    0  0.11809960879E-03 -0.10283917148E+00 -0.90489851282E-01  0.89059773317E+00  0.88000000000E+00 0.  1.
        -11    1    4    4    0    0  0.63024672869E-02  0.40782791576E-01  0.26617325027E-01  0.49109065306E-01  0.51100000000E-03 0.  1.
         11    1    4    4    0    0 -0.15747355486E-01  0.66003760463E-01  0.41186724572E-01  0.79379361310E-01  0.51100000000E-03 0. -1.
</event>
<event>
 8    1  0.1104109E+005  0.1043930E+01  0.7957747E-01            NaN
         13   -1    0    0    0    0  0.00000000000E+00  0.00000000000E+00  0.74505805969E-08  0.10566000000E+00  0.10566000000E+00 0. -1.
     999900   -1    0    0    0    0 -0.00000000000E+00 -0.00000000000E+00 -0.74505805969E-08  0.93827000000E+00  0.93827000000E+00 0. -1.
     999902    2    1    2    0    0 -0.23226724016E-01 -0.44798608134E-02 -0.39316351844E-02  0.10199506836E+01  0.10196687645E+01 0.  0.
     999903    2    3    3    0    0  0.11162279791E+00  0.58960987983E-01  0.33479774838E-02  0.12739137034E+00  0.16772154545E-01 0.  0.
         14    1    1    2    0    0  0.23226724016E-01  0.44798608134E-02  0.39316351844E-02  0.23979316434E-01  0.00000000000E+00 0.  1.
     999901    1    3    3    0    0 -0.13484952192E+00 -0.63440848797E-01 -0.72796126683E-02  0.89255931322E+00  0.88000000000E+00 0.  1.
        -11    1    4    4    0    0  0.42137996358E-01  0.27388400804E-01  0.81566316992E-02  0.50916863585E-01  0.51100000000E-03 0. -1.
         11    1    4    4    0    0  0.69484801549E-01  0.31572587179E-01 -0.48086542154E-02  0.76474506758E-01  0.51100000000E-03 0.  1.
</event>
<event>
 8    1  0.1104109E+005  0.1043930E+01  0.7957747E-01            NaN
         13   -1    0    0    0    0  0.00000000000E+00  0.00000000000E+00  0.74505805969E-08  0.10566000000E+00  0.10566000000E+00 0.  1.
     999900   -1    0    0    0    0 -0.00000000000E+00 -0.00000000000E+00 -0.74505805969E-08  0.93827000000E+00  0.93827000000E+00 0. -1.
     999902    2    1    2    0    0 -0.21010893996E-01 -0.46111479473E-02  0.12041772277E-01  0.10192779285E+01  0.10189797696E+01 0.  0.
     999903    2    3    3    0    0  0.10709457725E+00 -0.22025309191E-01 -0.61007205765E-01  0.12683722008E+00  0.20283947388E-01 0.  0.
         14    1    1    2    0    0  0.21010893996E-01  0.46111479473E-02 -0.12041772277E-01  0.24652071545E-01  0.00000000000E+00 0. -1.
     999901    1    3    3    0    0 -0.12810547124E+00  0.17414161244E-01  0.73048978041E-01  0.89244070838E+00  0.88000000000E+00 0.  1.
        -11    1    4    4    0    0  0.14883594514E-01 -0.91479509106E-02 -0.14762783925E-01  0.22878096549E-01  0.51100000000E-03 0.  1.
         11    1    4    4    0    0  0.92210982732E-01 -0.12877358281E-01 -0.46244421840E-01  0.10395912353E+00  0.51100000000E-03 0. -1.
</event>
<event>
 8    1  0.1104109E+005  0.1043930E+01  0.7957747E-01            NaN
         13   -1    0    0    0    0  0.00000000000E+00  0.00000000000E+00  0.74505805969E-08  0.10566000000E+00  0.10566000000E+00 0. -1.
     999900   -1    0    0    0    0 -0.00000000000E+00 -0.00000000000E+00 -0.74505805969E-08  0.93827000000E+00  0.93827000000E+00 0. -1.
     999902    2    1    2    0    0 -0.16690436482E-01  0.84005006177E-02 -0.14755851073E-01  0.10201208794E+01  0.10198429950E+01 0.  0.
     999903    2    3    3    0    0 -0.11707033045E+00 -0.81407538097E-03  0.56585456330E-01  0.13149800462E+00  0.19587913623E-01 0.  0.
         14    1    1    2    0    0  0.16690436482E-01 -0.84005006177E-02  0.14755851073E-01  0.23809120552E-01  0.00000000000E+00 0. -1.
     999901    1    3    3    0    0  0.10037989397E+00  0.92145759986E-02 -0.71341307403E-01  0.88862287483E+00  0.88000000000E+00 0. -1.
        -11    1    4    4    0    0 -0.44415342873E-01  0.53311261498E-02  0.13169985333E-01  0.46635321626E-01  0.51100000000E-03 0.  1.
         11    1    4    4    0    0 -0.72654987580E-01 -0.61452015307E-02  0.43415470997E-01  0.84862682994E-01  0.51100000000E-03 0. -1.
</event>
<event>
 8    1  0.1104109E+005  0.1043930E+01  0.7957747E-01            NaN
         13   -1    0    0    0    0  0.00000000000E+00  0.00000000000E+00  0.74505805969E-08  0.10566000000E+00  0.10566000000E+00 0. -1.
     999900   -1    0    0    0    0 -0.00000000000E+00 -0.00000000000E+00 -0.74505805969E-08  0.93827000000E+00  0.93827000000E+00 0.  1.
     999902    2    1    2    0    0  0.20936533731E-01 -0.87848657887E-02 -0.34892189520E-02  0.10209585621E+01  0.10207001021E+01 0.  0.
     999903    2    3    3    0    0 -0.87080333693E-01  0.78166712117E-01 -0.50012440178E-01  0.12888646260E+00  0.20431756381E-01 0.  0.
         14    1    1    2    0    0 -0.20936533731E-01  0.87848657887E-02  0.34892189520E-02  0.22971437928E-01  0.00000000000E+00 0.  1.
     999901    1    3    3    0    0  0.10801686742E+00 -0.86951577906E-01  0.46523221226E-01  0.89207209947E+00  0.88000000000E+00 0. -1.
        -11    1    4    4    0    0 -0.21447402213E-01  0.23570762304E-01 -0.46497981779E-02  0.32209527183E-01  0.51100000000E-03 0.  1.
         11    1    4    4    0    0 -0.65632931480E-01  0.54595949813E-01 -0.45362642000E-01  0.96676935413E-01  0.51100000000E-03 0. -1.
</event>
<event>
 8    1  0.1104109E+005  0.1043930E+01  0.7957747E-01            NaN
         13   -1    0    0    0    0  0.00000000000E+00  0.00000000000E+00  0.74505805969E-08  0.10566000000E+00  0.10566000000E+00 0. -1.
     999900   -1    0    0    0    0 -0.00000000000E+00 -0.00000000000E+00 -0.74505805969E-08  0.93827000000E+00  0.93827000000E+00 0. -1.
     999902    2    1    2    0    0  0.41001755435E-02 -0.18212500495E-01 -0.11712189471E-01  0.10218918060E+01  0.10216541397E+01 0.  0.
     999903    2    3    3    0    0  0.80689307405E-01 -0.10543069547E+00 -0.12714437580E-02  0.13420835010E+00  0.19592569820E-01 0.  0.
         14    1    1    2    0    0 -0.41001755435E-02  0.18212500495E-01  0.11712189471E-01  0.22038194027E-01  0.00000000000E+00 0. -1.
     999901    1    3    3    0    0 -0.76589131862E-01  0.87218194972E-01 -0.10440745713E-01  0.88768345587E+00  0.88000000000E+00 0.  1.
        -11    1    4    4    0    0  0.13868088470E-01 -0.31892338742E-01 -0.20499484786E-02  0.34841190537E-01  0.51100000000E-03 0.  1.
         11    1    4    4    0    0  0.66821218935E-01 -0.73538356724E-01  0.77850472060E-03  0.99367159567E-01  0.51100000000E-03 0. -1.
</event>
<event>
 8    1  0.1104109E+005  0.1043930E+01  0.7957747E-01            NaN
         13   -1    0    0    0    0  0.00000000000E+00  0.00000000000E+00  0.74505805969E-08  0.10566000000E+00  0.10566000000E+00 0. -1.
     999900   -1    0    0    0    0 -0.00000000000E+00 -0.00000000000E+00 -0.74505805969E-08  0.93827000000E+00  0.93827000000E+00 0. -1.
     999902    2    1    2    0    0  0.60198762777E-02  0.15439302170E-01  0.17195888591E-01  0.10200488454E+01  0.10197692569E+01 0.  0.
     999903    2    3    3    0    0  0.30220646327E-01  0.10127548840E+00 -0.74346416357E-01  0.13081686117E+00  0.20387484528E-01 0.  0.
         14    1    1    2    0    0 -0.60198762777E-02 -0.15439302170E-01 -0.17195888591E-01  0.23881154628E-01  0.00000000000E+00 0.  1.
     999901    1    3    3    0    0 -0.24200770049E-01 -0.85836186230E-01  0.91542304949E-01  0.88923198420E+00  0.88000000000E+00 0.  1.
        -11    1    4    4    0    0  0.21597174687E-01  0.37936553124E-01 -0.28123520423E-01  0.51930853444E-01  0.51100000000E-03 0. -1.
         11    1    4    4    0    0  0.86234716402E-02  0.63338935276E-01 -0.46222895934E-01  0.78886007724E-01  0.51100000000E-03 0.  1.
</event>
<event>
 8    1  0.1104109E+005  0.1043930E+01  0.7957747E-01            NaN
         13   -1    0    0    0    0  0.00000000000E+00  0.00000000000E+00  0.74505805969E-08  0.10566000000E+00  0.10566000000E+00 0. -1.
     999900   -1    0    0    0    0 -0.00000000000E+00 -0.00000000000E+00 -0.74505805969E-08  0.93827000000E+00  0.93827000000E+00 0. -1.
     999902    2    1    2    0    0 -0.19647591663E-01 -0.70359086412E-02 -0.10739959695E-01  0.10204591968E+01  0.10201892441E+01 0.  0.
     999903    2    3    3    0    0  0.68013084826E-01 -0.62242694969E-01 -0.91005675842E-01  0.13075431953E+00  0.17740525774E-01 0.  0.
         14    1    1    2    0    0  0.19647591663E-01  0.70359086412E-02  0.10739959695E-01  0.23470803199E-01  0.00000000000E+00 0. -1.
     999901    1    3    3    0    0 -0.87660676488E-01  0.55206786327E-01  0.80265716148E-01  0.88970487728E+00  0.88000000000E+00 0.  1.
        -11    1    4    4    0    0  0.14433994212E-01 -0.21781654802E-01 -0.19068832736E-01  0.32352158780E-01  0.51100000000E-03 0.  1.
         11    1    4    4    0    0  0.53579090614E-01 -0.40461040167E-01 -0.71936843106E-01  0.98402160746E-01  0.51100000000E-03 0. -1.
</event>
<event>
 8    1  0.1104109E+005  0.1043930E+01  0.7957747E-01            NaN
         13   -1    0    0    0    0  0.00000000000E+00  0.00000000000E+00  0.74505805969E-08  0.10566000000E+00  0.10566000000E+00 0.  1.
     999900   -1    0    0    0    0 -0.00000000000E+00 -0.00000000000E+00 -0.74505805969E-08  0.93827000000E+00  0.93827000000E+00 0.  1.
     999902    2    1    2    0    0 -0.13694993105E-01 -0.53601990024E-02 -0.17989462812E-01  0.10206941367E+01  0.10204296230E+01 0.  0.
     999903    2    3    3    0    0 -0.17753339725E-01 -0.12723368628E+00 -0.25058350586E-01  0.13225754009E+00  0.18987995681E-01 0.  0.
         14    1    1    2    0    0  0.13694993105E-01  0.53601990024E-02  0.17989462812E-01  0.23235863267E-01  0.00000000000E+00 0.  1.
     999901    1    3    3    0    0  0.40583466195E-02  0.12187348728E+00  0.70688877748E-02  0.88843659664E+00  0.88000000000E+00 0.  1.
        -11    1    4    4    0    0 -0.18926039861E-01 -0.10835473771E+00 -0.15580545400E-01  0.11109436837E+00  0.51100000000E-03 0. -1.
         11    1    4    4    0    0  0.11727001358E-02 -0.18878948576E-01 -0.94778051868E-02  0.21163171717E-01  0.51100000000E-03 0.  1.
</event>
<event>
 8    1  0.1104109E+005  0.1043930E+01  0.7957747E-01            NaN
         13   -1    0    0    0    0  0.00000000000E+00  0.00000000000E+00  0.74505805969E-08  0.10566000000E+00  0.10566000000E+00 0. -1.
     999900   -1    0    0    0    0 -0.00000000000E+00 -0.00000000000E+00 -0.74505805969E-08  0.93827000000E+00  0.93827000000E+00 0.  1.
     999902    2    1    2    0    0  0.10112266413E-01  0.24621303019E-01  0.13698084901E-01  0.10139950034E+01  0.10135530390E+01 0.  0.
     999903    2    3    3    0    0  0.43722871550E-01 -0.97652552551E-01 -0.55419250762E-01  0.12222273723E+00  0.20479102150E-01 0.  0.
         14    1    1    2    0    0 -0.10112266413E-01 -0.24621303019E-01 -0.13698084901E-01  0.29934996648E-01  0.00000000000E+00 0.  1.
     999901    1    3    3    0    0 -0.33610605137E-01  0.12227385557E+00  0.69117335663E-01  0.89177226612E+00  0.88000000000E+00 0. -1.
        -11    1    4    4    0    0  0.86173834368E-02 -0.10186242126E-01 -0.99787536074E-03  0.13389387670E-01  0.51100000000E-03 0.  1.
         11    1    4    4    0    0  0.35105488113E-01 -0.87466310425E-01 -0.54421375401E-01  0.10883334956E+00  0.51100000000E-03 0. -1.
</event>
<event>
 8    1  0.1104109E+005  0.1043930E+01  0.7957747E-01            NaN
         13   -1    0    0    0    0  0.00000000000E+00  0.00000000000E+00  0.74505805969E-08  0.10566000000E+00  0.10566000000E+00 0. -1.
     999900   -1    0    0    0    0 -0.00000000000E+00 -0.00000000000E+00 -0.74505805969E-08  0.93827000000E+00  0.93827000000E+00 0. -1.
     999902    2    1    2    0    0  0.17233942629E-01 -0.20083225493E-02 -0.18330233796E-01  0.10186903564E+01  0.10183776326E+01 0.  0.
     999903    2    3    3    0    0  0.93182271248E-01 -0.52482448379E-01  0.69910869449E-01  0.12958840595E+00  0.21639829621E-01 0.  0.
         14    1    1    2    0    0 -0.17233942629E-01  0.20083225493E-02  0.18330233796E-01  0.25239643599E-01  0.00000000000E+00 0. -1.
     999901    1    3    3    0    0 -0.75948328619E-01  0.50474125830E-01 -0.88241103245E-01  0.88910195045E+00  0.88000000000E+00 0.  1.
        -11    1    4    4    0    0  0.31815542933E-01 -0.83015622451E-02  0.15046004525E-01  0.36163352735E-01  0.51100000000E-03 0.  1.
         11    1    4    4    0    0  0.61366728314E-01 -0.44180886134E-01  0.54864864923E-01  0.93425053212E-01  0.51100000000E-03 0. -1.
</event>
<event>
 8    1  0.1104109E+005  0.1043930E+01  0.7957747E-01            NaN
         13   -1    0    0    0    0  0.00000000000E+00  0.00000000000E+00  0.74505805969E-08  0.10566000000E+00  0.10566000000E+00 0.  1.
     999900   -1    0    0    0    0 -0.00000000000E+00 -0.00000000000E+00 -0.74505805969E-08  0.93827000000E+00  0.93827000000E+00 0.  1.
     999902    2    1    2    0    0  0.34228095555E-02  0.20336786727E-01 -0.12049135931E-01  0.10200452309E+01  0.10197655568E+01 0.  0.
     999903    2    3    3    0    0 -0.11515839647E+00 -0.40023854347E-01  0.36323953852E-01  0.12872886435E+00  0.19705981286E-01 0.  0.
         14    1    1    2    0    0 -0.34228095555E-02 -0.20336786727E-01  0.12049135931E-01  0.23884769128E-01  0.00000000000E+00 0. -1.
     999901    1    3    3    0    0  0.11858120603E+00  0.60360641073E-01 -0.48373089783E-01  0.89131636652E+00  0.88000000000E+00 0.  1.
        -11    1    4    4    0    0 -0.43731184369E-01 -0.16210321325E-01  0.23927555587E-01  0.52421179319E-01  0.51100000000E-03 0. -1.
         11    1    4    4    0    0 -0.71427212104E-01 -0.23813533022E-01  0.12396398265E-01  0.76307685032E-01  0.51100000000E-03 0.  1.
</event>
<event>
 8    1  0.1104109E+005  0.1043930E+01  0.7957747E-01            NaN
         13   -1    0    0    0    0  0.00000000000E+00  0.00000000000E+00  0.74505805969E-08  0.10566000000E+00  0.10566000000E+00 0. -1.
     999900   -1    0    0    0    0 -0.00000000000E+00 -0.00000000000E+00 -0.74505805969E-08  0.93827000000E+00  0.93827000000E+00 0. -1.
     999902    2    1    2    0    0 -0.13537910279E-02  0.22161119176E-01 -0.47446110747E-02  0.10212262715E+01  0.10209738676E+01 0.  0.
     999903    2    3    3    0    0  0.64072608006E-01  0.10105062813E+00 -0.56378557995E-01  0.13377473323E+00  0.20015216864E-01 0.  0.
         14    1    1    2    0    0  0.13537910279E-02 -0.22161119176E-01  0.47446110747E-02  0.22703728494E-01  0.00000000000E+00 0. -1.
     999901    1    3    3    0    0 -0.65426399034E-01 -0.78889508958E-01  0.51633946920E-01  0.88745153828E+00  0.88000000000E+00 0.  1.
        -11    1    4    4    0    0  0.30574197113E-01  0.53424131464E-01 -0.39532143988E-01  0.73157165617E-01  0.51100000000E-03 0. -1.
         11    1    4    4    0    0  0.33498410893E-01  0.47626496670E-01 -0.16846414007E-01  0.60617567613E-01  0.51100000000E-03 0.  1.
</event>
<event>
 8    1  0.1104109E+005  0.1043930E+01  0.7957747E-01            NaN
         13   -1    0    0    0    0  0.00000000000E+00  0.00000000000E+00  0.74505805969E-08  0.10566000000E+00  0.10566000000E+00 0. -1.
     999900   -1    0    0    0    0 -0.00000000000E+00 -0.00000000000E+00 -0.74505805969E-08  0.93827000000E+00  0.93827000000E+00 0.  1.
     999902    2    1    2    0    0 -0.15260119253E-01 -0.14564715383E-01 -0.96041729758E-02  0.10207515119E+01  0.10204883177E+01 0.  0.
     999903    2    3    3    0    0 -0.12859915445E-01  0.33867411518E-01  0.12213257678E+00  0.12962525642E+00  0.23957499941E-01 0.  0.
         14    1    1    2    0    0  0.15260119253E-01  0.14564715383E-01  0.96041729758E-02  0.23178488138E-01  0.00000000000E+00 0. -1.
     999901    1    3    3    0    0 -0.24002038079E-02 -0.48432126901E-01 -0.13173674976E+00  0.89112625544E+00  0.88000000000E+00 0.  1.
        -11    1    4    4    0    0  0.70043863754E-02  0.72397202081E-02  0.24535469868E-01  0.26527822749E-01  0.51100000000E-03 0.  1.
         11    1    4    4    0    0 -0.19864301821E-01  0.26627691310E-01  0.97597106914E-01  0.10309743367E+00  0.51100000000E-03 0. -1.
</event>
<event>
 8    1  0.1225445E+005  0.1043930E+01  0.7957747E-01            NaN
         13   -1    0    0    0    0  0.00000000000E+00  0.00000000000E+00  0.74505805969E-08  0.10566000000E+00  0.10566000000E+00 0.  1.
     999900   -1    0    0    0    0 -0.00000000000E+00 -0.00000000000E+00 -0.74505805969E-08  0.93827000000E+00  0.93827000000E+00 0.  1.
     999902    2    1    2    0    0  0.23282837397E-01  0.86928058976E-03  0.17066976690E-02  0.10205685150E+01  0.10203011000E+01 0.  0.
     999903    2    3    3    0    0  0.29471291935E-01 -0.10499626722E+00 -0.70353534040E-01  0.13127751188E+00  0.19783634504E-01 0.  0.
         14    1    1    2    0    0 -0.23282837397E-01 -0.86928058976E-03 -0.17066976690E-02  0.23361485032E-01  0.00000000000E+00 0. -1.
     999901    1    3    3    0    0 -0.61884545382E-02  0.10586554781E+00  0.72060231709E-01  0.88929100309E+00  0.88000000000E+00 0. -1.
        -11    1    4    4    0    0  0.19510765943E-01 -0.37206383658E-01 -0.31469436064E-01  0.52493537695E-01  0.51100000000E-03 0. -1.
         11    1    4    4    0    0  0.99605259920E-02 -0.67789883564E-01 -0.38884097976E-01  0.78783974183E-01  0.51100000000E-03 0.  1.
</event>
<event>
 8    1  0.1104109E+005  0.1043930E+01  0.7957747E-01            NaN
         13   -1    0    0    0    0  0.00000000000E+00  0.00000000000E+00  0.74505805969E-08  0.10566000000E+00  0.10566000000E+00 0.  1.
     999900   -1    0    0    0    0 -0.00000000000E+00 -0.00000000000E+00 -0.74505805969E-08  0.93827000000E+00  0.93827000000E+00 0.  1.
     999902    2    1    2    0    0  0.14245919973E-01 -0.11518036257E-01 -0.14053114825E-01  0.10208410106E+01  0.10205798683E+01 0.  0.
     999903    2    3    3    0    0 -0.12225085720E+00 -0.34520688067E-01 -0.19308951507E-01  0.13000538267E+00  0.19789237629E-01 0.  0.
         14    1    1    2    0    0 -0.14245919973E-01  0.11518036257E-01  0.14053114825E-01  0.23088989397E-01  0.00000000000E+00 0.  1.
     999901    1    3    3    0    0  0.13649677717E+00  0.23002651811E-01  0.52558366824E-02  0.89083562793E+00  0.88000000000E+00 0.  1.
        -11    1    4    4    0    0 -0.53433298561E-01 -0.20154356461E-01 -0.42549388870E-04  0.57110230352E-01  0.51100000000E-03 0.  1.
         11    1    4    4    0    0 -0.68817558636E-01 -0.14366331607E-01 -0.19266402119E-01  0.72895152322E-01  0.51100000000E-03 0. -1.
</event>
<event>
 8    1  0.1104109E+005  0.1043930E+01  0.7957747E-01            NaN
         13   -1    0    0    0    0  0.00000000000E+00  0.00000000000E+00  0.74505805969E-08  0.10566000000E+00  0.10566000000E+00 0.  1.
     999900   -1    0    0    0    0 -0.00000000000E+00 -0.00000000000E+00 -0.74505805969E-08  0.93827000000E+00  0.93827000000E+00 0. -1.
     999902    2    1    2    0    0  0.10950826648E-01 -0.15686449829E-01  0.14822719824E-01  0.10197287948E+01  0.10194415709E+01 0.  0.
     999903    2    3    3    0    0 -0.74839225758E-01 -0.10004590600E+00  0.34239238884E-01  0.13132941826E+00  0.21563803059E-01 0.  0.
         14    1    1    2    0    0 -0.10950826648E-01  0.15686449829E-01 -0.14822719824E-01  0.24201205248E-01  0.00000000000E+00 0.  1.
     999901    1    3    3    0    0  0.85790052406E-01  0.84359456169E-01 -0.19416519060E-01  0.88839937649E+00  0.88000000000E+00 0. -1.
        -11    1    4    4    0    0 -0.51792262713E-01 -0.56346047949E-01  0.13363631293E-01  0.77692749718E-01  0.51100000000E-03 0.  1.
         11    1    4    4    0    0 -0.23046963045E-01 -0.43699858049E-01  0.20875607591E-01  0.53636668543E-01  0.51100000000E-03 0. -1.
</event>
<event>
 8    1  0.1104109E+005  0.1043930E+01  0.7957747E-01            NaN
         13   -1    0    0    0    0  0.00000000000E+00  0.00000000000E+00  0.74505805969E-08  0.10566000000E+00  0.10566000000E+00 0.  1.
     999900   -1    0    0    0    0 -0.00000000000E+00 -0.00000000000E+00 -0.74505805969E-08  0.93827000000E+00  0.93827000000E+00 0. -1.
     999902    2    1    2    0    0 -0.17650390585E-01 -0.54346454582E-02 -0.14470750923E-01  0.10204678115E+01  0.10201980592E+01 0.  0.
     999903    2    3    3    0    0 -0.29154007098E-01  0.11784842034E+00  0.43036284004E-01  0.12994094124E+00  0.17155761812E-01 0.  0.
         14    1    1    2    0    0  0.17650390585E-01  0.54346454582E-02  0.14470750923E-01  0.23462188545E-01  0.00000000000E+00 0.  1.
     999901    1    3    3    0    0  0.11503616513E-01 -0.12328306580E+00 -0.57507034927E-01  0.89052687021E+00  0.88000000000E+00 0. -1.
        -11    1    4    4    0    0 -0.85462590805E-02  0.17713237205E-01  0.19913246311E-02  0.19774322019E-01  0.51100000000E-03 0.  1.
         11    1    4    4    0    0 -0.20607748017E-01  0.10013518314E+00  0.41044959373E-01  0.11016661922E+00  0.51100000000E-03 0. -1.
</event>
<event>
 8    1  0.1104109E+005  0.1043930E+01  0.7957747E-01            NaN
         13   -1    0    0    0    0  0.00000000000E+00  0.00000000000E+00  0.74505805969E-08  0.10566000000E+00  0.10566000000E+00 0. -1.
     999900   -1    0    0    0    0 -0.00000000000E+00 -0.00000000000E+00 -0.74505805969E-08  0.93827000000E+00  0.93827000000E+00 0. -1.
     999902    2    1    2    0    0  0.23353633506E-01 -0.10232133843E-02 -0.21346193835E-02  0.10204567011E+01  0.10201866902E+01 0.  0.
     999903    2    3    3    0    0 -0.89524473888E-01  0.11112964790E-01 -0.90558981793E-01  0.12876862677E+00  0.15566009302E-01 0.  0.
         14    1    1    2    0    0 -0.23353633506E-01  0.10232133843E-02  0.21346193835E-02  0.23473298948E-01  0.00000000000E+00 0. -1.
     999901    1    3    3    0    0  0.11287810739E+00 -0.12136178174E-01  0.88424362409E-01  0.89168807428E+00  0.88000000000E+00 0.  1.
        -11    1    4    4    0    0 -0.39171795601E-01 -0.28785317049E-02 -0.38559912495E-01  0.55044014098E-01  0.51100000000E-03 0. -1.
         11    1    4    4    0    0 -0.50352678287E-01  0.13991496495E-01 -0.51999069298E-01  0.73724612672E-01  0.51100000000E-03 0.  1.
</event>
<event>
 8    1  0.1104109E+005  0.1043930E+01  0.7957747E-01            NaN
         13   -1    0    0    0    0  0.00000000000E+00  0.00000000000E+00  0.74505805969E-08  0.10566000000E+00  0.10566000000E+00 0.  1.
     999900   -1    0    0    0    0 -0.00000000000E+00 -0.00000000000E+00 -0.74505805969E-08  0.93827000000E+00  0.93827000000E+00 0.  1.
     999902    2    1    2    0    0 -0.18873428760E-01 -0.93050756755E-02 -0.10743191861E-01  0.10203035970E+01  0.10200300109E+01 0.  0.
     999903    2    3    3    0    0 -0.12131257012E+00 -0.31825901697E-02  0.48922854427E-01  0.13233327117E+00  0.19793443968E-01 0.  0.
         14    1    1    2    0    0  0.18873428760E-01  0.93050756755E-02  0.10743191861E-01  0.23626402981E-01  0.00000000000E+00 0.  1.
     999901    1    3    3    0    0  0.10243914136E+00 -0.61224855058E-02 -0.59666046288E-01  0.88797032585E+00  0.88000000000E+00 0.  1.
        -11    1    4    4    0    0 -0.69823986173E-01  0.45960879832E-02  0.20066250607E-01  0.72797174425E-01  0.51100000000E-03 0. -1.
         11    1    4    4    0    0 -0.51488583945E-01 -0.77786781528E-02  0.28856603820E-01  0.59536096744E-01  0.51100000000E-03 0.  1.
</event>
<event>
 8    1  0.1104109E+005  0.1043930E+01  0.7957747E-01            NaN
         13   -1    0    0    0    0  0.00000000000E+00  0.00000000000E+00  0.74505805969E-08  0.10566000000E+00  0.10566000000E+00 0. -1.
     999900   -1    0    0    0    0 -0.00000000000E+00 -0.00000000000E+00 -0.74505805969E-08  0.93827000000E+00  0.93827000000E+00 0. -1.
     999902    2    1    2    0    0 -0.29936031424E-02 -0.12770175475E-01  0.19650437940E-01  0.10203041931E+01  0.10200306209E+01 0.  0.
     999903    2    3    3    0    0 -0.16416230999E-01 -0.11371207173E+00  0.64327976425E-01  0.13330615712E+00  0.20796996836E-01 0.  0.
         14    1    1    2    0    0  0.29936031424E-02  0.12770175475E-01 -0.19650437940E-01  0.23625806921E-01  0.00000000000E+00 0.  1.
     999901    1    3    3    0    0  0.13422627856E-01  0.10094189625E+00 -0.44677538486E-01  0.88699803596E+00  0.88000000000E+00 0. -1.
        -11    1    4    4    0    0 -0.59758764986E-02 -0.56211287702E-01  0.20037811946E-01  0.59976620392E-01  0.51100000000E-03 0. -1.
         11    1    4    4    0    0 -0.10440354500E-01 -0.57500784024E-01  0.44290164479E-01  0.73329536723E-01  0.51100000000E-03 0.  1.
</event>
<event>
 8    1  0.1104109E+005  0.1043930E+01  0.7957747E-01            NaN
         13   -1    0    0    0    0  0.00000000000E+00  0.00000000000E+00  0.74505805969E-08  0.10566000000E+00  0.10566000000E+00 0. -1.
     999900   -1    0    0    0    0 -0.00000000000E+00 -0.00000000000E+00 -0.74505805969E-08  0.93827000000E+00  0.93827000000E+00 0.  1.
     999902    2    1    2    0    0  0.61537947624E-02  0.59168311093E-02  0.21254524617E-01  0.10210251338E+01  0.10207681867E+01 0.  0.
     999903    2    3    3    0    0 -0.10319804307E+00  0.68977817558E-01  0.39385582552E-01  0.13183266433E+00  0.20514674318E-01 0.  0.
         14    1    1    2    0    0 -0.61537947624E-02 -0.59168311093E-02 -0.21254524617E-01  0.22904866231E-01  0.00000000000E+00 0.  1.
     999901    1    3    3    0    0  0.10935183783E+00 -0.63060986449E-01 -0.18131057935E-01  0.88919246944E+00  0.88000000000E+00 0. -1.
        -11    1    4    4    0    0 -0.72949777793E-01  0.56767996304E-01  0.35328538481E-01  0.98957780071E-01  0.51100000000E-03 0. -1.
         11    1    4    4    0    0 -0.30248265277E-01  0.12209821254E-01  0.40570440715E-02  0.32874884257E-01  0.51100000000E-03 0.  1.
</event>
<event>
 8    1  0.1104109E+005  0.1043930E+01  0.7957747E-01            NaN
         13   -1    0    0    0    0  0.00000000000E+00  0.00000000000E+00  0.74505805969E-08  0.10566000000E+00  0.10566000000E+00 0.  1.
     999900   -1    0    0    0    0 -0.00000000000E+00 -0.00000000000E+00 -0.74505805969E-08  0.93827000000E+00  0.93827000000E+00 0.  1.
     999902    2    1    2    0    0 -0.46800456443E-02 -0.21804001227E-01  0.71458845535E-02  0.10205124646E+01  0.10202437500E+01 0.  0.
     999903    2    3    3    0    0  0.21634460415E-01 -0.11625188235E+00  0.59841044607E-01  0.13350083259E+00  0.16092596273E-01 0.  0.
         14    1    1    2    0    0  0.46800456443E-02  0.21804001227E-01 -0.71458845535E-02  0.23417535370E-01  0.00000000000E+00 0. -1.
     999901    1    3    3    0    0 -0.26314506059E-01  0.94447881127E-01 -0.52695160054E-01  0.88701163204E+00  0.88000000000E+00 0.  1.
        -11    1    4    4    0    0  0.45536544556E-02 -0.43580942725E-01  0.29989966297E-01  0.53100786597E-01  0.51100000000E-03 0.  1.
         11    1    4    4    0    0  0.17080805959E-01 -0.72670939629E-01  0.29851078310E-01  0.80400045995E-01  0.51100000000E-03 0. -1.
</event>
<event>
 7    1  0.1104109E+005  0.1043930E+01  0.7957747E-01            NaN
         13   -1    0    0    0    0  0.00000000000E+00  0.00000000000E+00  0.74505805969E-08  0.10566000000E+00  0.10566000000E+00 0.  1.
     999900   -1    0    0    0    0 -0.00000000000E+00 -0.00000000000E+00 -0.74505805969E-08  0.93827000000E+00  0.93827000000E+00 0. -1.
     999903    2    1    2    0    0  0.92987803283E-02  0.62993288754E-01  0.75267085723E-01  0.10055914189E+00  0.19808712240E-01 0.  0.
         14    1    1    2    0    0  0.15840414026E-01  0.47820456616E-01 -0.20465882763E-01  0.54374324315E-01  0.00000000000E+00 0. -1.
     999901    1    1    2    0    0 -0.25139194355E-01 -0.11081374537E+00 -0.54801202960E-01  0.88899653380E+00  0.88000000000E+00 0. -1.
        -11    1    3    3    0    0  0.10839892335E-01  0.30028105820E-01  0.25594489381E-01  0.40921014316E-01  0.51100000000E-03 0. -1.
         11    1    3    3    0    0 -0.15411120070E-02  0.32965182934E-01  0.49672596342E-01  0.59638127573E-01  0.51100000000E-03 0.  1.
</event>
<event>
 8    1  0.1104109E+005  0.1043930E+01  0.7957747E-01            NaN
         13   -1    0    0    0    0  0.00000000000E+00  0.00000000000E+00  0.74505805969E-08  0.10566000000E+00  0.10566000000E+00 0. -1.
     999900   -1    0    0    0    0 -0.00000000000E+00 -0.00000000000E+00 -0.74505805969E-08  0.93827000000E+00  0.93827000000E+00 0.  1.
     999902    2    1    2    0    0 -0.88055860570E-02 -0.19175617819E-01  0.10331781380E-01  0.10204355672E+01  0.10201650643E+01 0.  0.
     999903    2    3    3    0    0 -0.18450186217E-01 -0.89853240044E-01 -0.92191860546E-01  0.13161643954E+00  0.20236943664E-01 0.  0.
         14    1    1    2    0    0  0.88055860570E-02  0.19175617819E-01 -0.10331781380E-01  0.23494432767E-01  0.00000000000E+00 0.  1.
     999901    1    3    3    0    0  0.96446001597E-02  0.70677622225E-01  0.10252364193E+00  0.88881912769E+00  0.88000000000E+00 0. -1.
        -11    1    4    4    0    0  0.28547131915E-02 -0.24131513866E-01 -0.30426888850E-01  0.38942727626E-01  0.51100000000E-03 0.  1.
         11    1    4    4    0    0 -0.21304899408E-01 -0.65721726178E-01 -0.61764971696E-01  0.92673711916E-01  0.51100000000E-03 0. -1.
</event>
<event>
 8    1  0.1104109E+005  0.1043930E+01  0.7957747E-01            NaN
         13   -1    0    0    0    0  0.00000000000E+00  0.00000000000E+00  0.74505805969E-08  0.10566000000E+00  0.10566000000E+00 0.  1.
     999900   -1    0    0    0    0 -0.00000000000E+00 -0.00000000000E+00 -0.74505805969E-08  0.93827000000E+00  0.93827000000E+00 0. -1.
     999902    2    1    2    0    0  0.99992192248E-02 -0.54196054097E-02 -0.20861569720E-01  0.10201694950E+01  0.10198927575E+01 0.  0.
     999903    2    3    3    0    0  0.69055675286E-01  0.79227966777E-01 -0.78378865645E-01  0.13227247628E+00  0.17521540805E-01 0.  0.
         14    1    1    2    0    0 -0.99992192248E-02  0.54196054097E-02  0.20861569720E-01  0.23760505025E-01  0.00000000000E+00 0.  1.
     999901    1    3    3    0    0 -0.59056456061E-01 -0.84647572187E-01  0.57517295925E-01  0.88789701870E+00  0.88000000000E+00 0.  1.
        -11    1    4    4    0    0  0.17637165130E-01  0.32752192620E-01 -0.25769023560E-01  0.45255711368E-01  0.51100000000E-03 0. -1.
         11    1    4    4    0    0  0.51418510156E-01  0.46475774157E-01 -0.52609842084E-01  0.87016764910E-01  0.51100000000E-03 0.  1.
</event>
<event>
 8    1  0.1104109E+005  0.1043930E+01  0.7957747E-01            NaN
         13   -1    0    0    0    0  0.00000000000E+00  0.00000000000E+00  0.74505805969E-08  0.10566000000E+00  0.10566000000E+00 0.  1.
     999900   -1    0    0    0    0 -0.00000000000E+00 -0.00000000000E+00 -0.74505805969E-08  0.93827000000E+00  0.93827000000E+00 0.  1.
     999902    2    1    2    0    0  0.26993508694E-02  0.23282613175E-01  0.21464698563E-03  0.10204904470E+01  0.10202212210E+01 0.  0.
     999903    2    3    3    0    0  0.11063232437E+00  0.48318693197E-01  0.50530917882E-01  0.13211661849E+00  0.18089220863E-01 0.  0.
         14    1    1    2    0    0 -0.26993508694E-02 -0.23282613175E-01 -0.21464698563E-03  0.23439552997E-01  0.00000000000E+00 0.  1.
     999901    1    3    3    0    0 -0.10793297350E+00 -0.25036080022E-01 -0.50316270897E-01  0.88837382851E+00  0.88000000000E+00 0.  1.
        -11    1    4    4    0    0  0.43587435351E-01  0.11019415804E-01  0.23781319873E-01  0.50863585609E-01  0.51100000000E-03 0.  1.
         11    1    4    4    0    0  0.67044889018E-01  0.37299277394E-01  0.26749598009E-01  0.81253032879E-01  0.51100000000E-03 0. -1.
</event>
<event>
 8    1  0.1104109E+005  0.1043930E+01  0.7957747E-01            NaN
         13   -1    0    0    0    0  0.00000000000E+00  0.00000000000E+00  0.74505805969E-08  0.10566000000E+00  0.10566000000E+00 0.  1.
     999900   -1    0    0    0    0 -0.00000000000E+00 -0.00000000000E+00 -0.74505805969E-08  0.93827000000E+00  0.93827000000E+00 0.  1.
     999902    2    1    2    0    0 -0.28212213672E-01 -0.10014485685E-01 -0.14395897822E-02  0.10139584912E+01  0.10135154318E+01 0.  0.
     999903    2    3    3    0    0 -0.10485788430E+00  0.68350670477E-01 -0.91689325085E-02  0.12712400870E+00  0.20234974908E-01 0.  0.
         14    1    1    2    0    0  0.28212213672E-01  0.10014485685E-01  0.14395897822E-02  0.29971508847E-01  0.00000000000E+00 0.  1.
     999901    1    3    3    0    0  0.76645670631E-01 -0.78365156162E-01  0.77293427263E-02  0.88683448245E+00  0.88000000000E+00 0. -1.
        -11    1    4    4    0    0 -0.10591309015E-01  0.71896934623E-02  0.52243028620E-02  0.13835533244E-01  0.51100000000E-03 0.  1.
         11    1    4    4    0    0 -0.94266575289E-01  0.61160977015E-01 -0.14393235371E-01  0.11328847546E+00  0.51100000000E-03 0. -1.
</event>
<event>
 8    1  0.1104109E+005  0.1043930E+01  0.7957747E-01            NaN
         13   -1    0    0    0    0  0.00000000000E+00  0.00000000000E+00  0.74505805969E-08  0.10566000000E+00  0.10566000000E+00 0.  1.
     999900   -1    0    0    0    0 -0.00000000000E+00 -0.00000000000E+00 -0.74505805969E-08  0.93827000000E+00  0.93827000000E+00 0. -1.
     999902    2    1    2    0    0  0.14738042137E-02 -0.52973900494E-03 -0.22621280161E-01  0.10212545719E+01  0.10210028039E+01 0.  0.
     999903    2    3    3    0    0  0.78857204427E-01  0.99498887643E-01  0.24837896198E-01  0.13094772022E+00  0.20295245998E-01 0.  0.
         14    1    1    2    0    0 -0.14738042137E-02  0.52973900494E-03  0.22621280161E-01  0.22675428075E-01  0.00000000000E+00 0.  1.
     999901    1    3    3    0    0 -0.77383400214E-01 -0.10002862665E+00 -0.47459176359E-01  0.89030685171E+00  0.88000000000E+00 0.  1.
        -11    1    4    4    0    0  0.10433254915E-01  0.55646496421E-02  0.58151329341E-02  0.13186926321E-01  0.51100000000E-03 0.  1.
         11    1    4    4    0    0  0.68423949512E-01  0.93934238001E-01  0.19022763264E-01  0.11776079390E+00  0.51100000000E-03 0. -1.
</event>
<event>
 8    1  0.1104109E+005  0.1043930E+01  0.7957747E-01            NaN
         13   -1    0    0    0    0  0.00000000000E+00  0.00000000000E+00  0.74505805969E-08  0.10566000000E+00  0.10566000000E+00 0.  1.
     999900   -1    0    0    0    0 -0.00000000000E+00 -0.00000000000E+00 -0.74505805969E-08  0.93827000000E+00  0.93827000000E+00 0. -1.
     999902    2    1    2    0    0  0.23280565803E-01 -0.30191356151E-02  0.59308750116E-02  0.10197168795E+01  0.10194293694E+01 0.  0.
     999903    2    3    3    0    0  0.48846205001E-01 -0.10044398583E+00  0.67176835403E-01  0.13185637754E+00  0.19960737756E-01 0.  0.
         14    1    1    2    0    0 -0.23280565803E-01  0.30191356151E-02 -0.59308750116E-02  0.24213120459E-01  0.00000000000E+00 0. -1.
     999901    1    3    3    0    0 -0.25565639198E-01  0.97424850213E-01 -0.61245960391E-01  0.88786050200E+00  0.88000000000E+00 0. -1.
        -11    1    4    4    0    0  0.35633849330E-01 -0.50930754862E-01  0.34835888286E-01  0.71256671566E-01  0.51100000000E-03 0. -1.
         11    1    4    4    0    0  0.13212355671E-01 -0.49513230965E-01  0.32340947116E-01  0.60599705976E-01  0.51100000000E-03 0.  1.
</event>
<event>
 8    1  0.1104109E+005  0.1043930E+01  0.7957747E-01            NaN
         13   -1    0    0    0    0  0.00000000000E+00  0.00000000000E+00  0.74505805969E-08  0.10566000000E+00  0.10566000000E+00 0.  1.
     999900   -1    0    0    0    0 -0.00000000000E+00 -0.00000000000E+00 -0.74505805969E-08  0.93827000000E+00  0.93827000000E+00 0. -1.
     999902    2    1    2    0    0  0.17067164249E-01  0.55350013691E-02 -0.15255351642E-01  0.10203789896E+01  0.10201071671E+01 0.  0.
     999903    2    3    3    0    0 -0.41398515346E-01  0.11961065093E+00 -0.27859265266E-01  0.13100260803E+00  0.19104966925E-01 0.  0.
         14    1    1    2    0    0 -0.17067164249E-01 -0.55350013691E-02  0.15255351642E-01  0.23551010369E-01  0.00000000000E+00 0. -1.
     999901    1    3    3    0    0  0.58465679595E-01 -0.11407564956E+00  0.12603913624E-01  0.88937638160E+00  0.88000000000E+00 0. -1.
        -11    1    4    4    0    0 -0.15250582125E-01  0.30100005270E-01 -0.14761874343E-01  0.36834286033E-01  0.51100000000E-03 0.  1.
         11    1    4    4    0    0 -0.26147933221E-01  0.89510645657E-01 -0.13097390923E-01  0.94168321997E-01  0.51100000000E-03 0. -1.
</event>
<event>
 7    1  0.1104109E+005  0.1043930E+01  0.7957747E-01            NaN
         13   -1    0    0    0    0  0.00000000000E+00  0.00000000000E+00  0.74505805969E-08  0.10566000000E+00  0.10566000000E+00 0. -1.
     999900   -1    0    0    0    0 -0.00000000000E+00 -0.00000000000E+00 -0.74505805969E-08  0.93827000000E+00  0.93827000000E+00 0.  1.
     999903    2    1    2    0    0  0.22306570866E-01 -0.92813662432E-01  0.18133021199E-01  0.99060532850E-01  0.19293099100E-01 0.  0.
         14    1    1    2    0    0 -0.83046158183E-02 -0.78664933919E-02 -0.57028752084E-01  0.58164653583E-01  0.00000000000E+00 0.  1.
     999901    1    1    2    0    0 -0.14001955048E-01  0.10068015582E+00  0.38895730885E-01  0.88670481357E+00  0.88000000000E+00 0. -1.
        -11    1    3    3    0    0  0.22186825615E-02 -0.81979958994E-03  0.27266398229E-02  0.36455876619E-02  0.51100000000E-03 0.  1.
         11    1    3    3    0    0  0.20087888305E-01 -0.91993862842E-01  0.15406381376E-01  0.95414945188E-01  0.51100000000E-03 0. -1.
</event>
<event>
 8    1  0.1104109E+005  0.1043930E+01  0.7957747E-01            NaN
         13   -1    0    0    0    0  0.00000000000E+00  0.00000000000E+00  0.74505805969E-08  0.10566000000E+00  0.10566000000E+00 0. -1.
     999900   -1    0    0    0    0 -0.00000000000E+00 -0.00000000000E+00 -0.74505805969E-08  0.93827000000E+00  0.93827000000E+00 0. -1.
     999902    2    1    2    0    0  0.90767187462E-03  0.21148489611E-01  0.11600330674E-01  0.10197918527E+01  0.10195061416E+01 0.  0.
     999903    2    3    3    0    0  0.10693918973E+00 -0.72578702125E-02 -0.69320090486E-01  0.12928765926E+00  0.20526980092E-01 0.  0.
         14    1    1    2    0    0 -0.90767187462E-03 -0.21148489611E-01 -0.11600330674E-01  0.24138147253E-01  0.00000000000E+00 0. -1.
     999901    1    3    3    0    0 -0.10603151786E+00  0.28406359823E-01  0.80920421160E-01  0.89050419349E+00  0.88000000000E+00 0.  1.
        -11    1    4    4    0    0  0.13874343269E-01 -0.75375964231E-02 -0.13380457362E-01  0.20702910935E-01  0.51100000000E-03 0. -1.
         11    1    4    4    0    0  0.93064846462E-01  0.27972621066E-03 -0.55939633124E-01  0.10858474833E+00  0.51100000000E-03 0.  1.
</event>
<event>
 8    1  0.1104109E+005  0.1043930E+01  0.7957747E-01            NaN
         13   -1    0    0    0    0  0.00000000000E+00  0.00000000000E+00  0.74505805969E-08  0.10566000000E+00  0.10566000000E+00 0. -1.
     999900   -1    0    0    0    0 -0.00000000000E+00 -0.00000000000E+00 -0.74505805969E-08  0.93827000000E+00  0.93827000000E+00 0.  1.
     999902    2    1    2    0    0 -0.18151221631E-01  0.14893160914E-01 -0.35383552370E-02  0.10201856734E+01  0.10199093171E+01 0.  0.
     999903    2    3    3    0    0 -0.89316558338E-01  0.54249782245E-01 -0.80137144955E-01  0.13312264102E+00  0.19472778048E-01 0.  0.
         14    1    1    2    0    0  0.18151221631E-01 -0.14893160914E-01  0.35383552370E-02  0.23744326616E-01  0.00000000000E+00 0.  1.
     999901    1    3    3    0    0  0.71165336708E-01 -0.39356621331E-01  0.76598789718E-01  0.88706303236E+00  0.88000000000E+00 0. -1.
        -11    1    4    4    0    0 -0.45800182716E-02  0.92009755781E-02 -0.88792305660E-02  0.13591776021E-01  0.51100000000E-03 0.  1.
         11    1    4    4    0    0 -0.84736540067E-01  0.45048806667E-01 -0.71257914389E-01  0.11953086500E+00  0.51100000000E-03 0. -1.
</event>
<event>
 8    1  0.1104109E+005  0.1043930E+01  0.7957747E-01            NaN
         13   -1    0    0    0    0  0.00000000000E+00  0.00000000000E+00  0.74505805969E-08  0.10566000000E+00  0.10566000000E+00 0. -1.
     999900   -1    0    0    0    0 -0.00000000000E+00 -0.00000000000E+00 -0.74505805969E-08  0.93827000000E+00  0.93827000000E+00 0. -1.
     999902    2    1    2    0    0 -0.30079234714E-01  0.90715360267E-02  0.14510504678E-01  0.10093235285E+01  0.10087300814E+01 0.  0.
     999903    2    3    3    0    0  0.35852048873E-02 -0.10364959821E+00 -0.48651335616E-01  0.11925119057E+00  0.33133081521E-01 0.  0.
         14    1    1    2    0    0  0.30079234714E-01 -0.90715360267E-02 -0.14510504678E-01  0.34606471546E-01  0.00000000000E+00 0.  1.
     999901    1    3    3    0    0 -0.33664439601E-01  0.11272113424E+00  0.63161840294E-01  0.89007233788E+00  0.88000000000E+00 0.  1.
        -11    1    4    4    0    0 -0.12066393137E-01 -0.46026305949E-01 -0.31706377483E-01  0.57180190422E-01  0.51100000000E-03 0. -1.
         11    1    4    4    0    0  0.15651598024E-01 -0.57623292265E-01 -0.16944958133E-01  0.62071000147E-01  0.51100000000E-03 0.  1.
</event>
<event>
 8    1  0.1104109E+005  0.1043930E+01  0.7957747E-01            NaN
         13   -1    0    0    0    0  0.00000000000E+00  0.00000000000E+00  0.74505805969E-08  0.10566000000E+00  0.10566000000E+00 0.  1.
     999900   -1    0    0    0    0 -0.00000000000E+00 -0.00000000000E+00 -0.74505805969E-08  0.93827000000E+00  0.93827000000E+00 0.  1.
     999902    2    1    2    0    0 -0.11413993941E-01  0.18813117235E-01  0.79071045712E-02  0.10205476361E+01  0.10202797375E+01 0.  0.
     999903    2    3    3    0    0  0.27828908911E-01 -0.93415071646E-01  0.83055979135E-01  0.12937844615E+00  0.18429945121E-01 0.  0.
         14    1    1    2    0    0  0.11413993941E-01 -0.18813117235E-01 -0.79071045712E-02  0.23382363877E-01  0.00000000000E+00 0. -1.
     999901    1    3    3    0    0 -0.39242902852E-01  0.11222818888E+00 -0.75148874564E-01  0.89116918997E+00  0.88000000000E+00 0.  1.
        -11    1    4    4    0    0  0.15713260375E-02 -0.27643959170E-01  0.16762407013E-01  0.32371236523E-01  0.51100000000E-03 0. -1.
         11    1    4    4    0    0  0.26257582873E-01 -0.65771112475E-01  0.66293572122E-01  0.97007209630E-01  0.51100000000E-03 0.  1.
</event>
<event>
 8    1  0.1104109E+005  0.1043930E+01  0.7957747E-01            NaN
         13   -1    0    0    0    0  0.00000000000E+00  0.00000000000E+00  0.74505805969E-08  0.10566000000E+00  0.10566000000E+00 0.  1.
     999900   -1    0    0    0    0 -0.00000000000E+00 -0.00000000000E+00 -0.74505805969E-08  0.93827000000E+00  0.93827000000E+00 0. -1.
     999902    2    1    2    0    0 -0.25102815589E-01 -0.12262157887E-02  0.12725285126E-01  0.10157593089E+01  0.10153685960E+01 0.  0.
     999903    2    3    3    0    0 -0.87772834345E-01 -0.77182935691E-02  0.93245861042E-01  0.12983987606E+00  0.19999007736E-01 0.  0.
         14    1    1    2    0    0  0.25102815589E-01  0.12262157887E-02 -0.12725285126E-01  0.28170691103E-01  0.00000000000E+00 0. -1.
     999901    1    3    3    0    0  0.62670018756E-01  0.64920777805E-02 -0.80520575916E-01  0.88591943283E+00  0.88000000000E+00 0. -1.
        -11    1    4    4    0    0 -0.17172892766E-01  0.37992233064E-02  0.27702931799E-01  0.32818529750E-01  0.51100000000E-03 0.  1.
         11    1    4    4    0    0 -0.70599941579E-01 -0.11517516876E-01  0.65542929243E-01  0.97021346314E-01  0.51100000000E-03 0. -1.
</event>
<event>
 8    1  0.1104109E+005  0.1043930E+01  0.7957747E-01            NaN
         13   -1    0    0    0    0  0.00000000000E+00  0.00000000000E+00  0.74505805969E-08  0.10566000000E+00  0.10566000000E+00 0.  1.
     999900   -1    0    0    0    0 -0.00000000000E+00 -0.00000000000E+00 -0.74505805969E-08  0.93827000000E+00  0.93827000000E+00 0. -1.
     999902    2    1    2    0    0 -0.13300021405E-01  0.88966724873E-02 -0.18005123335E-01  0.10198421230E+01  0.10195576149E+01 0.  0.
     999903    2    3    3    0    0  0.11980635918E+00 -0.22526374983E-01 -0.38398209257E-01  0.12904439379E+00  0.17805387533E-01 0.  0.
         14    1    1    2    0    0  0.13300021405E-01 -0.88966724873E-02  0.18005123335E-01  0.24087876972E-01  0.00000000000E+00 0.  1.
     999901    1    3    3    0    0 -0.13310638058E+00  0.31423047470E-01  0.20393085922E-01  0.89079772924E+00  0.88000000000E+00 0. -1.
        -11    1    4    4    0    0  0.79323666650E-02 -0.22535008296E-02 -0.76571457145E-02  0.11264710755E-01  0.51100000000E-03 0. -1.
         11    1    4    4    0    0  0.11187399251E+00 -0.20272874153E-01 -0.30741063543E-01  0.11777968303E+00  0.51100000000E-03 0.  1.
</event>
<event>
 7    1  0.1104109E+005  0.1043930E+01  0.7957747E-01            NaN
         13   -1    0    0    0    0  0.00000000000E+00  0.00000000000E+00  0.74505805969E-08  0.10566000000E+00  0.10566000000E+00 0. -1.
     999900   -1    0    0    0    0 -0.00000000000E+00 -0.00000000000E+00 -0.74505805969E-08  0.93827000000E+00  0.93827000000E+00 0.  1.
     999903    2    1    2    0    0  0.22543162439E-01  0.97417963159E-01  0.17098620100E-01  0.10351603628E+00  0.20609542421E-01 0.  0.
         14    1    1    2    0    0 -0.32212058650E-02 -0.55425253648E-01 -0.20532942516E-01  0.59194059141E-01  0.00000000000E+00 0.  1.
     999901    1    1    2    0    0 -0.19321956574E-01 -0.41992709511E-01  0.34343224160E-02  0.88121990458E+00  0.88000000000E+00 0.  1.
        -11    1    3    3    0    0  0.12146534932E-01  0.17141352693E-01  0.56553320362E-02  0.21762540854E-01  0.51100000000E-03 0. -1.
         11    1    3    3    0    0  0.10396627507E-01  0.80276610466E-01  0.11443288064E-01  0.81753495425E-01  0.51100000000E-03 0.  1.
</event>
<event>
 8    1  0.1104109E+005  0.1043930E+01  0.7957747E-01            NaN
         13   -1    0    0    0    0  0.00000000000E+00  0.00000000000E+00  0.74505805969E-08  0.10566000000E+00  0.10566000000E+00 0.  1.
     999900   -1    0    0    0    0 -0.00000000000E+00 -0.00000000000E+00 -0.74505805969E-08  0.93827000000E+00  0.93827000000E+00 0.  1.
     999902    2    1    2    0    0 -0.16588684917E-01 -0.15795391116E-01 -0.40422682354E-02  0.10206701896E+01  0.10204051240E+01 0.  0.
     999903    2    3    3    0    0 -0.38189359822E-01 -0.11959540761E+00 -0.41021135594E-01  0.13353521158E+00  0.19683252830E-01 0.  0.
         14    1    1    2    0    0  0.16588684917E-01  0.15795391116E-01  0.40422682354E-02  0.23259810409E-01  0.00000000000E+00 0. -1.
     999901    1    3    3    0    0  0.21600674904E-01  0.10380001649E+00  0.36978867358E-01  0.88713497801E+00  0.88000000000E+00 0. -1.
        -11    1    4    4    0    0 -0.36102951098E-03 -0.94382004889E-02  0.14325703298E-02  0.95667836563E-02  0.51100000000E-03 0. -1.
         11    1    4    4    0    0 -0.37828330311E-01 -0.11015720712E+00 -0.42453705923E-01  0.12396842792E+00  0.51100000000E-03 0.  1.
</event>
<event>
 8    1  0.1104109E+005  0.1043930E+01  0.7957747E-01            NaN
         13   -1    0    0    0    0  0.00000000000E+00  0.00000000000E+00  0.74505805969E-08  0.10566000000E+00  0.10566000000E+00 0.  1.
     999900   -1    0    0    0    0 -0.00000000000E+00 -0.00000000000E+00 -0.74505805969E-08  0.93827000000E+00  0.93827000000E+00 0. -1.
     999902    2    1    2    0    0  0.75637949557E-02 -0.94724383316E-02  0.21038105296E-01  0.10196495561E+01  0.10193604256E+01 0.  0.
     999903    2    3    3    0    0 -0.11513744729E+00  0.23648570215E-01 -0.46260469807E-01  0.12797602039E+00  0.20541277615E-01 0.  0.
         14    1    1    2    0    0 -0.75637949557E-02  0.94724383316E-02 -0.21038105296E-01  0.24280443911E-01  0.00000000000E+00 0. -1.
     999901    1    3    3    0    0  0.12270124225E+00 -0.33121008547E-01  0.67298575102E-01  0.89167353570E+00  0.88000000000E+00 0.  1.
        -11    1    4    4    0    0 -0.63186618227E-01  0.54675060226E-02 -0.17116476649E-01  0.65693814313E-01  0.51100000000E-03 0. -1.
         11    1    4    4    0    0 -0.51950829064E-01  0.18181064193E-01 -0.29143993158E-01  0.62282206077E-01  0.51100000000E-03 0.  1.
</event>
<event>
 8    1  0.1104109E+005  0.1043930E+01  0.7957747E-01            NaN
         13   -1    0    0    0    0  0.00000000000E+00  0.00000000000E+00  0.74505805969E-08  0.10566000000E+00  0.10566000000E+00 0. -1.
     999900   -1    0    0    0    0 -0.00000000000E+00 -0.00000000000E+00 -0.74505805969E-08  0.93827000000E+00  0.93827000000E+00 0.  1.
     999902    2    1    2    0    0  0.18277782133E-01 -0.13275361886E-01 -0.44892808616E-02  0.10208981482E+01  0.10206383115E+01 0.  0.
     999903    2    3    3    0    0  0.95945347811E-01 -0.73836801410E-01  0.52968382235E-01  0.13354178140E+00  0.19245125473E-01 0.  0.
         14    1    1    2    0    0 -0.18277782133E-01  0.13275361886E-01  0.44892808616E-02  0.23031851761E-01  0.00000000000E+00 0. -1.
     999901    1    3    3    0    0 -0.77667565678E-01  0.60561439524E-01 -0.57457663097E-01  0.88735636684E+00  0.88000000000E+00 0.  1.
        -11    1    4    4    0    0  0.82662325367E-01 -0.71057956725E-01  0.47211120167E-01  0.11879160003E+00  0.51100000000E-03 0. -1.
         11    1    4    4    0    0  0.13283022444E-01 -0.27788446854E-02  0.57572620686E-02  0.14750181374E-01  0.51100000000E-03 0.  1.
</event>
<event>
 8    1  0.1104109E+005  0.1043930E+01  0.7957747E-01            NaN
         13   -1    0    0    0    0  0.00000000000E+00  0.00000000000E+00  0.74505805969E-08  0.10566000000E+00  0.10566000000E+00 0.  1.
     999900   -1    0    0    0    0 -0.00000000000E+00 -0.00000000000E+00 -0.74505805969E-08  0.93827000000E+00  0.93827000000E+00 0.  1.
     999902    2    1    2    0    0 -0.82065944439E-02  0.21967507589E-01 -0.63897766613E-02  0.10196246749E+01  0.10193349444E+01 0.  0.
     999903    2    3    3    0    0  0.11727428879E+00  0.93690383695E-02 -0.50490409514E-01  0.12954094890E+00  0.19762041832E-01 0.  0.
         14    1    1    2    0    0  0.82065944439E-02 -0.21967507589E-01  0.63897766613E-02  0.24305325092E-01  0.00000000000E+00 0.  1.
     999901    1    3    3    0    0 -0.12548088324E+00  0.12598469219E-01  0.44100632853E-01  0.89008372601E+00  0.88000000000E+00 0. -1.
        -11    1    4    4    0    0  0.10811645225E+00  0.36073663744E-02 -0.43201625440E-01  0.11648528620E+00  0.51100000000E-03 0.  1.
         11    1    4    4    0    0  0.91578365478E-02  0.57616719951E-02 -0.72887840738E-02  0.13055662706E-01  0.51100000000E-03 0. -1.
</event>
<event>
 8    1  0.1104109E+005  0.1043930E+01  0.7957747E-01            NaN
         13   -1    0    0    0    0  0.00000000000E+00  0.00000000000E+00  0.74505805969E-08  0.10566000000E+00  0.10566000000E+00 0.  1.
     999900   -1    0    0    0    0 -0.00000000000E+00 -0.00000000000E+00 -0.74505805969E-08  0.93827000000E+00  0.93827000000E+00 0. -1.
     999902    2    1    2    0    0  0.21960946947E-01  0.83971143944E-02 -0.17334533370E-02  0.10203545980E+01  0.10200822055E+01 0.  0.
     999903    2    3    3    0    0  0.80147020605E-01 -0.45115209684E-02 -0.10364351848E+00  0.13247064529E+00  0.19041906568E-01 0.  0.
         14    1    1    2    0    0 -0.21960946947E-01 -0.83971143944E-02  0.17334533370E-02  0.23575402042E-01  0.00000000000E+00 0.  1.
     999901    1    3    3    0    0 -0.58186073658E-01  0.12908635363E-01  0.10191006515E+00  0.88788395267E+00  0.88000000000E+00 0.  1.
        -11    1    4    4    0    0  0.18383624984E-01  0.55070332853E-02 -0.17333428015E-01  0.25864916990E-01  0.51100000000E-03 0. -1.
         11    1    4    4    0    0  0.61763395621E-01 -0.10018554254E-01 -0.86310090468E-01  0.10660572830E+00  0.51100000000E-03 0.  1.
</event>
<event>
 8    1  0.1104109E+005  0.1043930E+01  0.7957747E-01            NaN
         13   -1    0    0    0    0  0.00000000000E+00  0.00000000000E+00  0.74505805969E-08  0.10566000000E+00  0.10566000000E+00 0.  1.
     999900   -1    0    0    0    0 -0.00000000000E+00 -0.00000000000E+00 -0.74505805969E-08  0.93827000000E+00  0.93827000000E+00 0. -1.
     999902    2    1    2    0    0 -0.23596685039E-02  0.17271667477E-01 -0.15688677511E-01  0.10204776412E+01  0.10202081175E+01 0.  0.
     999903    2    3    3    0    0  0.12471692359E+00  0.32223626694E-01 -0.15225236809E-01  0.13122388879E+00  0.19880342180E-01 0.  0.
         14    1    1    2    0    0  0.23596685039E-02 -0.17271667477E-01  0.15688677511E-01  0.23452358835E-01  0.00000000000E+00 0.  1.
     999901    1    3    3    0    0 -0.12707659209E+00 -0.14951959217E-01 -0.46344070200E-03  0.88925375238E+00  0.88000000000E+00 0. -1.
        -11    1    4    4    0    0  0.62115617783E-01  0.82943353280E-02 -0.83011350787E-03  0.62674525771E-01  0.51100000000E-03 0. -1.
         11    1    4    4    0    0  0.62601305806E-01  0.23929291366E-01 -0.14395123301E-01  0.68549363015E-01  0.51100000000E-03 0.  1.
</event>
<event>
 8    1  0.1104109E+005  0.1043930E+01  0.7957747E-01            NaN
         13   -1    0    0    0    0  0.00000000000E+00  0.00000000000E+00  0.74505805969E-08  0.10566000000E+00  0.10566000000E+00 0. -1.
     999900   -1    0    0    0    0 -0.00000000000E+00 -0.00000000000E+00 -0.74505805969E-08  0.93827000000E+00  0.93827000000E+00 0.  1.
     999902    2    1    2    0    0  0.10175282850E-01 -0.15246691346E-02  0.23367528289E-01  0.10183976210E+01  0.10180775079E+01 0.  0.
     999903    2    3    3    0    0  0.19463076861E-01 -0.24384704598E-01  0.12660512136E+00  0.13201912121E+00  0.20658325965E-01 0.  0.
         14    1    1    2    0    0 -0.10175282850E-01  0.15246691346E-02 -0.23367528289E-01  0.25532378960E-01  0.00000000000E+00 0.  1.
     999901    1    3    3    0    0 -0.92877940116E-02  0.22860035464E-01 -0.10323759307E+00  0.88637849983E+00  0.88000000000E+00 0.  1.
        -11    1    4    4    0    0  0.77467614758E-02 -0.24267421844E-01  0.79906945485E-01  0.83870740632E-01  0.51100000000E-03 0. -1.
         11    1    4    4    0    0  0.11716315385E-01 -0.11728275421E-03  0.46698175872E-01  0.48148380578E-01  0.51100000000E-03 0.  1.
</event>
<event>
 8    1  0.1104109E+005  0.1043930E+01  0.7957747E-01            NaN
         13   -1    0    0    0    0  0.00000000000E+00  0.00000000000E+00  0.74505805969E-08  0.10566000000E+00  0.10566000000E+00 0. -1.
     999900   -1    0    0    0    0 -0.00000000000E+00 -0.00000000000E+00 -0.74505805969E-08  0.93827000000E+00  0.93827000000E+00 0.  1.
     999902    2    1    2    0    0 -0.17788794758E-01 -0.76875088766E-02 -0.13305429994E-01  0.10204231185E+01  0.10201523255E+01 0.  0.
     999903    2    3    3    0    0  0.84776581980E-01 -0.95633638947E-01  0.10699019598E-01  0.12978829325E+00  0.19941672309E-01 0.  0.
         14    1    1    2    0    0  0.17788794758E-01  0.76875088766E-02  0.13305429994E-01  0.23506881525E-01  0.00000000000E+00 0. -1.
     999901    1    3    3    0    0 -0.10256537674E+00  0.87946130071E-01 -0.24004449592E-01  0.89063482522E+00  0.88000000000E+00 0. -1.
        -11    1    4    4    0    0  0.44528971487E-01 -0.59269446988E-01  0.13992686486E-01  0.75443707783E-01  0.51100000000E-03 0.  1.
         11    1    4    4    0    0  0.40247610493E-01 -0.36364191959E-01 -0.32936668881E-02  0.54344585469E-01  0.51100000000E-03 0. -1.
</event>
<event>
 8    1  0.1104109E+005  0.1043930E+01  0.7957747E-01            NaN
         13   -1    0    0    0    0  0.00000000000E+00  0.00000000000E+00  0.74505805969E-08  0.10566000000E+00  0.10566000000E+00 0. -1.
     999900   -1    0    0    0    0 -0.00000000000E+00 -0.00000000000E+00 -0.74505805969E-08  0.93827000000E+00  0.93827000000E+00 0. -1.
     999902    2    1    2    0    0  0.10051216202E-01  0.14106931103E-01 -0.16485924787E-01  0.10200172802E+01  0.10197369434E+01 0.  0.
     999903    2    3    3    0    0  0.72511678341E-01  0.10623506140E+00 -0.26575233928E-01  0.13294868314E+00  0.20622257985E-01 0.  0.
         14    1    1    2    0    0 -0.10051216202E-01 -0.14106931103E-01  0.16485924787E-01  0.23912719803E-01  0.00000000000E+00 0.  1.
     999901    1    3    3    0    0 -0.62460462138E-01 -0.92128130297E-01  0.10089309140E-01  0.88706859706E+00  0.88000000000E+00 0.  1.
        -11    1    4    4    0    0  0.49007157411E-01  0.69848495267E-01 -0.76353205347E-02  0.85668389790E-01  0.51100000000E-03 0. -1.
         11    1    4    4    0    0  0.23504520930E-01  0.36386566133E-01 -0.18939913393E-01  0.47280293352E-01  0.51100000000E-03 0.  1.
</event>
<event>
 8    1  0.1104109E+005  0.1043930E+01  0.7957747E-01            NaN
         13   -1    0    0    0    0  0.00000000000E+00  0.00000000000E+00  0.74505805969E-08  0.10566000000E+00  0.10566000000E+00 0. -1.
     999900   -1    0    0    0    0 -0.00000000000E+00 -0.00000000000E+00 -0.74505805969E-08  0.93827000000E+00  0.93827000000E+00 0.  1.
     999902    2    1    2    0    0  0.12275683175E-01  0.16762782529E-01 -0.10699002328E-01  0.10205601064E+01  0.10202924967E+01 0.  0.
     999903    2    3    3    0    0  0.13024552173E+00  0.13803164064E-01  0.46060986023E-02  0.13255116036E+00  0.19853732621E-01 0.  0.
         14    1    1    2    0    0 -0.12275683175E-01 -0.16762782529E-01  0.10699002328E-01  0.23369893588E-01  0.00000000000E+00 0. -1.
     999901    1    3    3    0    0 -0.11796983856E+00  0.29596184653E-02 -0.15305100930E-01  0.88800894605E+00  0.88000000000E+00 0.  1.
        -11    1    4    4    0    0  0.94019591666E-01  0.14225023180E-01  0.11117651779E-01  0.95738697524E-01  0.51100000000E-03 0.  1.
         11    1    4    4    0    0  0.36225930067E-01 -0.42185911593E-03 -0.65115531769E-02  0.36812462837E-01  0.51100000000E-03 0. -1.
</event>
<event>
 8    1  0.1104109E+005  0.1043930E+01  0.7957747E-01            NaN
         13   -1    0    0    0    0  0.00000000000E+00  0.00000000000E+00  0.74505805969E-08  0.10566000000E+00  0.10566000000E+00 0. -1.
     999900   -1    0    0    0    0 -0.00000000000E+00 -0.00000000000E+00 -0.74505805969E-08  0.93827000000E+00  0.93827000000E+00 0. -1.
     999902    2    1    2    0    0 -0.66622454943E-02  0.22062512848E-01  0.42081659851E-02  0.10205024809E+01  0.10202335345E+01 0.  0.
     999903    2    3    3    0    0 -0.26741761349E-01 -0.55993672916E-01 -0.11164218575E+00  0.12925770026E+00  0.19828318957E-01 0.  0.
         14    1    1    2    0    0  0.66622454943E-02 -0.22062512848E-01 -0.42081659851E-02  0.23427519056E-01  0.00000000000E+00 0.  1.
     999901    1    3    3    0    0  0.20079515855E-01  0.78056185763E-01  0.11585035173E+00  0.89124478068E+00  0.88000000000E+00 0.  1.
        -11    1    4    4    0    0 -0.52239313040E-02 -0.14342044657E-01 -0.46887259546E-01  0.49311864008E-01  0.51100000000E-03 0. -1.
         11    1    4    4    0    0 -0.21517830045E-01 -0.41651628259E-01 -0.64754926200E-01  0.79945836256E-01  0.51100000000E-03 0.  1.
</event>
<event>
 8    1  0.1104109E+005  0.1043930E+01  0.7957747E-01            NaN
         13   -1    0    0    0    0  0.00000000000E+00  0.00000000000E+00  0.74505805969E-08  0.10566000000E+00  0.10566000000E+00 0.  1.
     999900   -1    0    0    0    0 -0.00000000000E+00 -0.00000000000E+00 -0.74505805969E-08  0.93827000000E+00  0.93827000000E+00 0.  1.
     999902    2    1    2    0    0 -0.37480074892E-02  0.22261188275E-01  0.71393357232E-02  0.10202534678E+01  0.10199787058E+01 0.  0.
     999903    2    3    3    0    0 -0.31562815269E-01  0.95873571189E-01 -0.82992565789E-01  0.13215651016E+00  0.19738901753E-01 0.  0.
         14    1    1    2    0    0  0.37480074892E-02 -0.22261188275E-01 -0.71393357232E-02  0.23676532223E-01  0.00000000000E+00 0.  1.
     999901    1    3    3    0    0  0.27814807780E-01 -0.73612382914E-01  0.90131901513E-01  0.88809695761E+00  0.88000000000E+00 0.  1.
        -11    1    4    4    0    0 -0.19589391295E-01  0.69970963457E-01 -0.48386155962E-01  0.87299262243E-01  0.51100000000E-03 0. -1.
         11    1    4    4    0    0 -0.11973423975E-01  0.25902607732E-01 -0.34606409827E-01  0.44857247922E-01  0.51100000000E-03 0.  1.
</event>
<event>
 8    1  0.1104109E+005  0.1043930E+01  0.7957747E-01            NaN
         13   -1    0    0    0    0  0.00000000000E+00  0.00000000000E+00  0.74505805969E-08  0.10566000000E+00  0.10566000000E+00 0. -1.
     999900   -1    0    0    0    0 -0.00000000000E+00 -0.00000000000E+00 -0.74505805969E-08  0.93827000000E+00  0.93827000000E+00 0. -1.
     999902    2    1    2    0    0 -0.18665463875E-01 -0.60529456573E-02  0.87301863319E-02  0.10224531789E+01  0.10222275916E+01 0.  0.
     999903    2    3    3    0    0  0.76675306519E-01 -0.77603050250E-01  0.71445697813E-01  0.13220460945E+00  0.21730968343E-01 0.  0.
         14    1    1    2    0    0  0.18665463875E-01  0.60529456573E-02 -0.87301863319E-02  0.21476821137E-01  0.00000000000E+00 0.  1.
     999901    1    3    3    0    0 -0.95340770394E-01  0.71550104593E-01 -0.62715511481E-01  0.89024856942E+00  0.88000000000E+00 0. -1.
        -11    1    4    4    0    0  0.64829495532E-01 -0.53538886896E-01  0.58413253295E-01  0.10237990615E+00  0.51100000000E-03 0.  1.
         11    1    4    4    0    0  0.11845810988E-01 -0.24064163354E-01  0.13032444518E-01  0.29824703301E-01  0.51100000000E-03 0. -1.
</event>
<event>
 8    1  0.1104109E+005  0.1043930E+01  0.7957747E-01            NaN
         13   -1    0    0    0    0  0.00000000000E+00  0.00000000000E+00  0.74505805969E-08  0.10566000000E+00  0.10566000000E+00 0.  1.
     999900   -1    0    0    0    0 -0.00000000000E+00 -0.00000000000E+00 -0.74505805969E-08  0.93827000000E+00  0.93827000000E+00 0.  1.
     999902    2    1    2    0    0  0.19482275732E-01  0.68371775272E-02  0.10074376002E-01  0.10209561210E+01  0.10206976055E+01 0.  0.
     999903    2    3    3    0    0  0.10528308519E+00 -0.76842477607E-01  0.15703433031E-01  0.13281438126E+00  0.20093970986E-01 0.  0.
         14    1    1    2    0    0 -0.19482275732E-01 -0.68371775272E-02 -0.10074376002E-01  0.22973878995E-01  0.00000000000E+00 0.  1.
     999901    1    3    3    0    0 -0.85800809457E-01  0.83679655134E-01 -0.56290570292E-02  0.88814173974E+00  0.88000000000E+00 0.  1.
        -11    1    4    4    0    0  0.80131055471E-01 -0.64939878182E-01  0.18694366936E-01  0.10482325269E+00  0.51100000000E-03 0. -1.
         11    1    4    4    0    0  0.25152029718E-01 -0.11902599424E-01 -0.29909339054E-02  0.27991128570E-01  0.51100000000E-03 0.  1.
</event>
<event>
 8    1  0.1104109E+005  0.1043930E+01  0.7957747E-01            NaN
         13   -1    0    0    0    0  0.00000000000E+00  0.00000000000E+00  0.74505805969E-08  0.10566000000E+00  0.10566000000E+00 0.  1.
     999900   -1    0    0    0    0 -0.00000000000E+00 -0.00000000000E+00 -0.74505805969E-08  0.93827000000E+00  0.93827000000E+00 0. -1.
     999902    2    1    2    0    0  0.78780194316E-02 -0.78767094562E-03  0.25218262387E-01  0.10174981182E+01  0.10171547455E+01 0.  0.
     999903    2    3    3    0    0  0.12082624532E+00  0.22486861096E-01 -0.30756501301E-01  0.12821066204E+00  0.19681743060E-01 0.  0.
         14    1    1    2    0    0 -0.78780194316E-02  0.78767094562E-03 -0.25218262387E-01  0.26431881762E-01  0.00000000000E+00 0. -1.
     999901    1    3    3    0    0 -0.11294822589E+00 -0.23274532042E-01  0.55974763688E-01  0.88928745619E+00  0.88000000000E+00 0.  1.
        -11    1    4    4    0    0  0.32610479802E-01  0.14939670722E-01 -0.71624882020E-02  0.36581409383E-01  0.51100000000E-03 0.  1.
         11    1    4    4    0    0  0.88215765516E-01  0.75471903744E-02 -0.23594013099E-01  0.91629252662E-01  0.51100000000E-03 0. -1.
</event>
<event>
 8    1  0.1104109E+005  0.1043930E+01  0.7957747E-01            NaN
         13   -1    0    0    0    0  0.00000000000E+00  0.00000000000E+00  0.74505805969E-08  0.10566000000E+00  0.10566000000E+00 0. -1.
     999900   -1    0    0    0    0 -0.00000000000E+00 -0.00000000000E+00 -0.74505805969E-08  0.93827000000E+00  0.93827000000E+00 0. -1.
     999902    2    1    2    0    0 -0.14312879726E-03  0.13606037337E-01 -0.19117471514E-01  0.10204646542E+01  0.10201948284E+01 0.  0.
     999903    2    3    3    0    0 -0.41113050395E-01  0.12027370203E+00 -0.33234622619E-01  0.13296489692E+00  0.20471379000E-01 0.  0.
         14    1    1    2    0    0  0.14312879726E-03 -0.13606037337E-01  0.19117471514E-01  0.23465345831E-01  0.00000000000E+00 0. -1.
     999901    1    3    3    0    0  0.40969921598E-01 -0.10666766469E+00  0.14117151105E-01  0.88749975725E+00  0.88000000000E+00 0. -1.
        -11    1    4    4    0    0 -0.11461375442E-01  0.58759160201E-01 -0.92144677234E-02  0.60573670609E-01  0.51100000000E-03 0. -1.
         11    1    4    4    0    0 -0.29651674953E-01  0.61514541831E-01 -0.24020154896E-01  0.72391226308E-01  0.51100000000E-03 0.  1.
</event>
<event>
 8    1  0.1104109E+005  0.1043930E+01  0.7957747E-01            NaN
         13   -1    0    0    0    0  0.00000000000E+00  0.00000000000E+00  0.74505805969E-08  0.10566000000E+00  0.10566000000E+00 0.  1.
     999900   -1    0    0    0    0 -0.00000000000E+00 -0.00000000000E+00 -0.74505805969E-08  0.93827000000E+00  0.93827000000E+00 0.  1.
     999902    2    1    2    0    0  0.14417341112E-01  0.74179643036E-02 -0.16884981207E-01  0.10205208456E+01  0.10202523256E+01 0.  0.
     999903    2    3    3    0    0  0.78183356824E-02 -0.12785125431E+00 -0.12609196951E-01  0.13015036614E+00  0.19314666893E-01 0.  0.
         14    1    1    2    0    0 -0.14417341112E-01 -0.74179643036E-02  0.16884981207E-01  0.23409154396E-01  0.00000000000E+00 0.  1.
     999901    1    3    3    0    0  0.65990054292E-02  0.13526921861E+00 -0.42757842562E-02  0.89037047947E+00  0.88000000000E+00 0. -1.
        -11    1    4    4    0    0 -0.22078438533E-02 -0.40936839292E-01 -0.11764481214E-01  0.42653997760E-01  0.51100000000E-03 0.  1.
         11    1    4    4    0    0  0.10026179536E-01 -0.86914415015E-01 -0.84471573718E-03  0.87496368377E-01  0.51100000000E-03 0. -1.
</event>
<event>
 8    1  0.1104109E+005  0.1043930E+01  0.7957747E-01            NaN
         13   -1    0    0    0    0  0.00000000000E+00  0.00000000000E+00  0.74505805969E-08  0.10566000000E+00  0.10566000000E+00 0. -1.
     999900   -1    0    0    0    0 -0.00000000000E+00 -0.00000000000E+00 -0.74505805969E-08  0.93827000000E+00  0.93827000000E+00 0. -1.
     999902    2    1    2    0    0 -0.16232159498E-01  0.31868457755E-02  0.16274930352E-01  0.10207241312E+01  0.10204603078E+01 0.  0.
     999903    2    3    3    0    0 -0.11961990517E+00  0.14862577897E-01  0.54424024937E-01  0.13377390596E+00  0.20091428286E-01 0.  0.
         14    1    1    2    0    0  0.16232159498E-01 -0.31868457755E-02 -0.16274930352E-01  0.23205868782E-01  0.00000000000E+00 0.  1.
     999901    1    3    3    0    0  0.10338774567E+00 -0.11675732121E-01 -0.38149094584E-01  0.88695022526E+00  0.88000000000E+00 0. -1.
        -11    1    4    4    0    0 -0.10929780966E-01  0.59927634786E-02  0.10125379454E-01  0.16067288389E-01  0.51100000000E-03 0. -1.
         11    1    4    4    0    0 -0.10869012420E+00  0.88698144182E-02  0.44298645483E-01  0.11770661757E+00  0.51100000000E-03 0.  1.
</event>
<event>
 8    1  0.1104109E+005  0.1043930E+01  0.7957747E-01            NaN
         13   -1    0    0    0    0  0.00000000000E+00  0.00000000000E+00  0.74505805969E-08  0.10566000000E+00  0.10566000000E+00 0.  1.
     999900   -1    0    0    0    0 -0.00000000000E+00 -0.00000000000E+00 -0.74505805969E-08  0.93827000000E+00  0.93827000000E+00 0. -1.
     999902    2    1    2    0    0  0.42292259257E-03 -0.59188009154E-02 -0.21722305420E-01  0.10214117936E+01  0.10211635434E+01 0.  0.
     999903    2    3    3    0    0  0.97922013903E-01  0.56970082787E-01 -0.65945356090E-01  0.13269543685E+00  0.20614990460E-01 0.  0.
         14    1    1    2    0    0 -0.42292259257E-03  0.59188009154E-02  0.21722305420E-01  0.22518206424E-01  0.00000000000E+00 0.  1.
     999901    1    3    3    0    0 -0.97499091311E-01 -0.62888883702E-01  0.44223050669E-01  0.88871635672E+00  0.88000000000E+00 0.  1.
        -11    1    4    4    0    0  0.54961034015E-01  0.37053069247E-01 -0.48873787973E-01  0.82356259461E-01  0.51100000000E-03 0. -1.
         11    1    4    4    0    0  0.42960979888E-01  0.19917013540E-01 -0.17071568117E-01  0.50339177390E-01  0.51100000000E-03 0.  1.
</event>
<event>
 8    1  0.1104109E+005  0.1043930E+01  0.7957747E-01            NaN
         13   -1    0    0    0    0  0.00000000000E+00  0.00000000000E+00  0.74505805969E-08  0.10566000000E+00  0.10566000000E+00 0.  1.
     999900   -1    0    0    0    0 -0.00000000000E+00 -0.00000000000E+00 -0.74505805969E-08  0.93827000000E+00  0.93827000000E+00 0. -1.
     999902    2    1    2    0    0  0.20741674939E-01  0.65409436093E-02 -0.10481135058E-01  0.10197876054E+01  0.10195017925E+01 0.  0.
     999903    2    3    3    0    0  0.66710263928E-01  0.75410511511E-01 -0.84261195738E-01  0.13282671234E+00  0.20148991119E-01 0.  0.
         14    1    1    2    0    0 -0.20741674939E-01 -0.65409436093E-02  0.10481135058E-01  0.24142394552E-01  0.00000000000E+00 0. -1.
     999901    1    3    3    0    0 -0.45968588989E-01 -0.68869567902E-01  0.73780060680E-01  0.88696089311E+00  0.88000000000E+00 0.  1.
        -11    1    4    4    0    0  0.88696617271E-02  0.92050385860E-02 -0.20728384016E-01  0.24358379656E-01  0.51100000000E-03 0. -1.
         11    1    4    4    0    0  0.57840602201E-01  0.66205472925E-01 -0.63532811721E-01  0.10846833268E+00  0.51100000000E-03 0.  1.
</event>
<event>
 8    1  0.1104109E+005  0.1043930E+01  0.7957747E-01            NaN
         13   -1    0    0    0    0  0.00000000000E+00  0.00000000000E+00  0.74505805969E-08  0.10566000000E+00  0.10566000000E+00 0.  1.
     999900   -1    0    0    0    0 -0.00000000000E+00 -0.00000000000E+00 -0.74505805969E-08  0.93827000000E+00  0.93827000000E+00 0. -1.
     999902    2    1    2    0    0  0.40066127962E-02 -0.90831001301E-02 -0.21770492195E-01  0.10200028191E+01  0.10197221391E+01 0.  0.
     999903    2    3    3    0    0  0.10433346609E-01 -0.12853698743E+00 -0.17666287937E-02  0.13168379499E+00  0.26587384736E-01 0.  0.
         14    1    1    2    0    0 -0.40066127962E-02  0.90831001301E-02  0.21770492195E-01  0.23927180872E-01  0.00000000000E+00 0.  1.
     999901    1    3    3    0    0 -0.64267338130E-02  0.11945388730E+00 -0.20003863401E-01  0.88831902414E+00  0.88000000000E+00 0. -1.
        -11    1    4    4    0    0  0.33261982777E-03 -0.61357217404E-01 -0.13273239351E-01  0.62779445421E-01  0.51100000000E-03 0.  1.
         11    1    4    4    0    0  0.10100726781E-01 -0.67179770023E-01  0.11506610557E-01  0.68904349568E-01  0.51100000000E-03 0. -1.
</event>
<event>
 8    1  0.1104109E+005  0.1043930E+01  0.7957747E-01            NaN
         13   -1    0    0    0    0  0.00000000000E+00  0.00000000000E+00  0.74505805969E-08  0.10566000000E+00  0.10566000000E+00 0. -1.
     999900   -1    0    0    0    0 -0.00000000000E+00 -0.00000000000E+00 -0.74505805969E-08  0.93827000000E+00  0.93827000000E+00 0.  1.
     999902    2    1    2    0    0  0.68935788028E-02  0.22320319375E-01 -0.61794448328E-03  0.10205612187E+01  0.10202936347E+01 0.  0.
     999903    2    3    3    0    0 -0.91565016332E-01 -0.81607911923E-01 -0.32191561681E-01  0.12843338841E+00  0.20367501318E-01 0.  0.
         14    1    1    2    0    0 -0.68935788028E-02 -0.22320319375E-01  0.61794448328E-03  0.23368781336E-01  0.00000000000E+00 0. -1.
     999901    1    3    3    0    0  0.98458595135E-01  0.10392823130E+00  0.31573617197E-01  0.89212783026E+00  0.88000000000E+00 0. -1.
        -11    1    4    4    0    0 -0.44276628933E-01 -0.43727723366E-01 -0.26282556354E-01  0.67554182328E-01  0.51100000000E-03 0.  1.
         11    1    4    4    0    0 -0.47288387399E-01 -0.37880188556E-01 -0.59090053271E-02  0.60879206079E-01  0.51100000000E-03 0. -1.
</event>
<event>
 8    1  0.1104109E+005  0.1043930E+01  0.7957747E-01            NaN
         13   -1    0    0    0    0  0.00000000000E+00  0.00000000000E+00  0.74505805969E-08  0.10566000000E+00  0.10566000000E+00 0.  1.
     999900   -1    0    0    0    0 -0.00000000000E+00 -0.00000000000E+00 -0.74505805969E-08  0.93827000000E+00  0.93827000000E+00 0. -1.
     999902    2    1    2    0    0 -0.36361627833E-02 -0.16506388076E-01 -0.16307700066E-01  0.10204433313E+01  0.10201730092E+01 0.  0.
     999903    2    3    3    0    0  0.94608018831E-01 -0.48154344880E-01 -0.76662696124E-01  0.13235761584E+00  0.19283447173E-01 0.  0.
         14    1    1    2    0    0  0.36361627833E-02  0.16506388076E-01  0.16307700066E-01  0.23486668741E-01  0.00000000000E+00 0.  1.
     999901    1    3    3    0    0 -0.98244181614E-01  0.31647956804E-01  0.60354996057E-01  0.88808571542E+00  0.88000000000E+00 0.  1.
        -11    1    4    4    0    0  0.23288849852E-01 -0.93053463523E-02 -0.28368717130E-01  0.37868261522E-01  0.51100000000E-03 0.  1.
         11    1    4    4    0    0  0.71319168979E-01 -0.38848998527E-01 -0.48293978994E-01  0.94489354313E-01  0.51100000000E-03 0. -1.
</event>
<event>
 8    1  0.1104109E+005  0.1043930E+01  0.7957747E-01            NaN
         13   -1    0    0    0    0  0.00000000000E+00  0.00000000000E+00  0.74505805969E-08  0.10566000000E+00  0.10566000000E+00 0.  1.
     999900   -1    0    0    0    0 -0.00000000000E+00 -0.00000000000E+00 -0.74505805969E-08  0.93827000000E+00  0.93827000000E+00 0.  1.
     999902    2    1    2    0    0 -0.13751570822E-01  0.22379138833E-01 -0.62015950772E-02  0.10169412739E+01  0.10165830823E+01 0.  0.
     999903    2    3    3    0    0 -0.10333408987E+00  0.27309794312E-01 -0.71013065172E-01  0.13000843217E+00  0.20870505857E-01 0.  0.
         14    1    1    2    0    0  0.13751570822E-01 -0.22379138833E-01  0.62015950772E-02  0.26988726099E-01  0.00000000000E+00 0.  1.
     999901    1    3    3    0    0  0.89582519052E-01 -0.49306554798E-02  0.64811470095E-01  0.88693284173E+00  0.88000000000E+00 0. -1.
        -11    1    4    4    0    0 -0.84263783817E-01  0.29668708098E-01 -0.54353735659E-01  0.10457154108E+00  0.51100000000E-03 0. -1.
         11    1    4    4    0    0 -0.19070306058E-01 -0.23589137856E-02 -0.16659329514E-01  0.25436891088E-01  0.51100000000E-03 0.  1.
</event>
<event>
 8    1  0.1104109E+005  0.1043930E+01  0.7957747E-01            NaN
         13   -1    0    0    0    0  0.00000000000E+00  0.00000000000E+00  0.74505805969E-08  0.10566000000E+00  0.10566000000E+00 0.  1.
     999900   -1    0    0    0    0 -0.00000000000E+00 -0.00000000000E+00 -0.74505805969E-08  0.93827000000E+00  0.93827000000E+00 0.  1.
     999902    2    1    2    0    0 -0.11231541858E-01  0.20056443998E-01  0.70580194311E-03  0.10209320298E+01  0.10206729656E+01 0.  0.
     999903    2    3    3    0    0  0.69453391682E-01  0.81856752070E-01  0.74244307732E-01  0.13203538313E+00  0.19920434011E-01 0.  0.
         14    1    1    2    0    0  0.11231541858E-01 -0.20056443998E-01 -0.70580194311E-03  0.22997970231E-01  0.00000000000E+00 0.  1.
     999901    1    3    3    0    0 -0.80684933540E-01 -0.61800308072E-01 -0.73538505789E-01  0.88889664664E+00  0.88000000000E+00 0.  1.
        -11    1    4    4    0    0  0.32602505880E-01  0.34806335529E-01  0.44697119017E-01  0.65364347714E-01  0.51100000000E-03 0.  1.
         11    1    4    4    0    0  0.36850885802E-01  0.47050416541E-01  0.29547188715E-01  0.66671035413E-01  0.51100000000E-03 0. -1.
</event>
<event>
 8    1  0.1104109E+005  0.1043930E+01  0.7957747E-01            NaN
         13   -1    0    0    0    0  0.00000000000E+00  0.00000000000E+00  0.74505805969E-08  0.10566000000E+00  0.10566000000E+00 0. -1.
     999900   -1    0    0    0    0 -0.00000000000E+00 -0.00000000000E+00 -0.74505805969E-08  0.93827000000E+00  0.93827000000E+00 0. -1.
     999902    2    1    2    0    0 -0.13143812659E-01 -0.75420622616E-02  0.20745601153E-01  0.10182390973E+01  0.10179149458E+01 0.  0.
     999903    2    3    3    0    0 -0.12678482353E+00  0.22398390158E-01 -0.21789104875E-02  0.13013085881E+00  0.18793972571E-01 0.  0.
         14    1    1    2    0    0  0.13143812659E-01  0.75420622616E-02 -0.20745601153E-01  0.25690902701E-01  0.00000000000E+00 0.  1.
     999901    1    3    3    0    0  0.11364101087E+00 -0.29940452420E-01  0.22924511641E-01  0.88810823849E+00  0.88000000000E+00 0.  1.
        -11    1    4    4    0    0 -0.68370249108E-01  0.14866068749E-01  0.77568383637E-02  0.70398299877E-01  0.51100000000E-03 0. -1.
         11    1    4    4    0    0 -0.58414574418E-01  0.75323214096E-02 -0.99357488512E-02  0.59732558931E-01  0.51100000000E-03 0.  1.
</event>
<event>
 8    1  0.1104109E+005  0.1043930E+01  0.7957747E-01            NaN
         13   -1    0    0    0    0  0.00000000000E+00  0.00000000000E+00  0.74505805969E-08  0.10566000000E+00  0.10566000000E+00 0.  1.
     999900   -1    0    0    0    0 -0.00000000000E+00 -0.00000000000E+00 -0.74505805969E-08  0.93827000000E+00  0.93827000000E+00 0.  1.
     999902    2    1    2    0    0  0.22967229633E-01  0.33881707040E-02 -0.69635919800E-02  0.10196923237E+01  0.10194042231E+01 0.  0.
     999903    2    3    3    0    0 -0.10896594565E+00  0.48762824164E-01 -0.41600692524E-01  0.12802817695E+00  0.20228844330E-01 0.  0.
         14    1    1    2    0    0 -0.22967229633E-01 -0.33881707040E-02  0.69635919800E-02  0.24237676271E-01  0.00000000000E+00 0. -1.
     999901    1    3    3    0    0  0.13193317528E+00 -0.45374653460E-01  0.34637100544E-01  0.89166414678E+00  0.88000000000E+00 0. -1.
        -11    1    4    4    0    0 -0.22214129472E-01  0.17305895171E-02 -0.98194016459E-02  0.24354553126E-01  0.51100000000E-03 0. -1.
         11    1    4    4    0    0 -0.86751816177E-01  0.47032234647E-01 -0.31781290878E-01  0.10367362382E+00  0.51100000000E-03 0.  1.
</event>
<event>
 8    1  0.1104109E+005  0.1043930E+01  0.7957747E-01            NaN
         13   -1    0    0    0    0  0.00000000000E+00  0.00000000000E+00  0.74505805969E-08  0.10566000000E+00  0.10566000000E+00 0.  1.
     999900   -1    0    0    0    0 -0.00000000000E+00 -0.00000000000E+00 -0.74505805969E-08  0.93827000000E+00  0.93827000000E+00 0.  1.
     999902    2    1    2    0    0  0.21679187570E-01  0.11460666362E-01 -0.19313933972E-01  0.10127152264E+01  0.10122340479E+01 0.  0.
     999903    2    3    3    0    0  0.55639345271E-02  0.59958808534E-01  0.10493416029E+00  0.12251897829E+00  0.19331475839E-01 0.  0.
         14    1    1    2    0    0 -0.21679187570E-01 -0.11460666362E-01  0.19313933972E-01  0.31214773627E-01  0.00000000000E+00 0.  1.
     999901    1    3    3    0    0  0.16115253042E-01 -0.48498142172E-01 -0.12424809426E+00  0.89019624808E+00  0.88000000000E+00 0.  1.
        -11    1    4    4    0    0  0.10927872745E-01  0.50668282499E-01  0.79453073872E-01  0.94866987529E-01  0.51100000000E-03 0.  1.
         11    1    4    4    0    0 -0.53639382182E-02  0.92905260347E-02  0.25481086413E-01  0.27651990760E-01  0.51100000000E-03 0. -1.
</event>
<event>
 8    1  0.1104109E+005  0.1043930E+01  0.7957747E-01            NaN
         13   -1    0    0    0    0  0.00000000000E+00  0.00000000000E+00  0.74505805969E-08  0.10566000000E+00  0.10566000000E+00 0. -1.
     999900   -1    0    0    0    0 -0.00000000000E+00 -0.00000000000E+00 -0.74505805969E-08  0.93827000000E+00  0.93827000000E+00 0.  1.
     999902    2    1    2    0    0  0.18118496545E-01  0.60870818123E-02 -0.12902963670E-01  0.10208687998E+01  0.10206082929E+01 0.  0.
     999903    2    3    3    0    0 -0.37714354720E-01 -0.11014625751E+00 -0.55455500469E-01  0.13045416897E+00  0.19708045930E-01 0.  0.
         14    1    1    2    0    0 -0.18118496545E-01 -0.60870818123E-02  0.12902963670E-01  0.23061200174E-01  0.00000000000E+00 0. -1.
     999901    1    3    3    0    0  0.55832851264E-01  0.11623333932E+00  0.42552536799E-01  0.89041463085E+00  0.88000000000E+00 0. -1.
        -11    1    4    4    0    0 -0.14490989941E-01 -0.66086363912E-01 -0.38463097487E-01  0.77827162828E-01  0.51100000000E-03 0.  1.
         11    1    4    4    0    0 -0.23223364778E-01 -0.44059893599E-01 -0.16992402982E-01  0.52627006144E-01  0.51100000000E-03 0. -1.
</event>
<event>
 7    1  0.1104109E+005  0.1043930E+01  0.7957747E-01            NaN
         13   -1    0    0    0    0  0.00000000000E+00  0.00000000000E+00  0.74505805969E-08  0.10566000000E+00  0.10566000000E+00 0. -1.
     999900   -1    0    0    0    0 -0.00000000000E+00 -0.00000000000E+00 -0.74505805969E-08  0.93827000000E+00  0.93827000000E+00 0.  1.
     999903    2    1    2    0    0 -0.11769531738E+00  0.85181645156E-02 -0.10121199921E-01  0.12013030030E+00  0.20102325808E-01 0.  0.
         14    1    1    2    0    0  0.34156427042E-01 -0.35041882771E-02 -0.19207127701E-01  0.39342783306E-01  0.00000000000E+00 0.  1.
     999901    1    1    2    0    0  0.83538890337E-01 -0.50139762385E-02  0.29328327622E-01  0.88445691639E+00  0.88000000000E+00 0.  1.
        -11    1    3    3    0    0 -0.10157270323E+00  0.81768127076E-02 -0.16692576171E-02  0.10191624919E+00  0.51100000000E-03 0. -1.
         11    1    3    3    0    0 -0.16122614146E-01  0.34135180799E-03 -0.84519423040E-02  0.18214051105E-01  0.51100000000E-03 0.  1.
</event>
<event>
 8    1  0.1104109E+005  0.1043930E+01  0.7957747E-01            NaN
         13   -1    0    0    0    0  0.00000000000E+00  0.00000000000E+00  0.74505805969E-08  0.10566000000E+00  0.10566000000E+00 0.  1.
     999900   -1    0    0    0    0 -0.00000000000E+00 -0.00000000000E+00 -0.74505805969E-08  0.93827000000E+00  0.93827000000E+00 0. -1.
     999902    2    1    2    0    0 -0.10171389709E-01 -0.75272336529E-02  0.20922955120E-01  0.10194782830E+01  0.10191850092E+01 0.  0.
     999903    2    3    3    0    0  0.42433589052E-01  0.53512983050E-01  0.11044219873E+00  0.13127397830E+00  0.19264716008E-01 0.  0.
         14    1    1    2    0    0  0.10171389709E-01  0.75272336529E-02 -0.20922955120E-01  0.24451717036E-01  0.00000000000E+00 0. -1.
     999901    1    3    3    0    0 -0.52604978761E-01 -0.61040216703E-01 -0.89519243614E-01  0.88820430466E+00  0.88000000000E+00 0. -1.
        -11    1    4    4    0    0  0.39000716338E-02  0.14196420418E-01  0.34153222283E-01  0.37194792979E-01  0.51100000000E-03 0. -1.
         11    1    4    4    0    0  0.38533517419E-01  0.39316562632E-01  0.76288976451E-01  0.94079185322E-01  0.51100000000E-03 0.  1.
</event>
<event>
 8    1  0.1104109E+005  0.1043930E+01  0.7957747E-01            NaN
         13   -1    0    0    0    0  0.00000000000E+00  0.00000000000E+00  0.74505805969E-08  0.10566000000E+00  0.10566000000E+00 0. -1.
     999900   -1    0    0    0    0 -0.00000000000E+00 -0.00000000000E+00 -0.74505805969E-08  0.93827000000E+00  0.93827000000E+00 0.  1.
     999902    2    1    2    0    0  0.21278272890E-01 -0.63551204889E-02 -0.76357354793E-02  0.10204468803E+01  0.10201766409E+01 0.  0.
     999903    2    3    3    0    0  0.97642605736E-01 -0.65065912291E-02 -0.88511476086E-01  0.13344495265E+00  0.19921340417E-01 0.  0.
         14    1    1    2    0    0 -0.21278272890E-01  0.63551204889E-02  0.76357354793E-02  0.23483119680E-01  0.00000000000E+00 0.  1.
     999901    1    3    3    0    0 -0.76364332847E-01  0.15147074018E-03  0.80875740607E-01  0.88700192767E+00  0.88000000000E+00 0. -1.
        -11    1    4    4    0    0  0.73010574646E-01  0.38591669604E-02 -0.66070723982E-01  0.98544603445E-01  0.51100000000E-03 0. -1.
         11    1    4    4    0    0  0.24632031090E-01 -0.10365758189E-01 -0.22440752104E-01  0.34900349203E-01  0.51100000000E-03 0.  1.
</event>
<event>
 8    1  0.1104109E+005  0.1043930E+01  0.7957747E-01            NaN
         13   -1    0    0    0    0  0.00000000000E+00  0.00000000000E+00  0.74505805969E-08  0.10566000000E+00  0.10566000000E+00 0. -1.
     999900   -1    0    0    0    0 -0.00000000000E+00 -0.00000000000E+00 -0.74505805969E-08  0.93827000000E+00  0.93827000000E+00 0. -1.
     999902    2    1    2    0    0  0.15977984411E-01 -0.11816404998E-01 -0.13496267291E-01  0.10199076637E+01  0.10196247200E+01 0.  0.
     999903    2    3    3    0    0  0.40655325125E-01  0.82937033955E-01  0.87426347940E-01  0.12874406498E+00  0.20006521187E-01 0.  0.
         14    1    1    2    0    0 -0.15977984411E-01  0.11816404998E-01  0.13496267291E-01  0.24022336350E-01  0.00000000000E+00 0. -1.
     999901    1    3    3    0    0 -0.24677340714E-01 -0.94753438953E-01 -0.10092261523E+00  0.89116359867E+00  0.88000000000E+00 0. -1.
        -11    1    4    4    0    0  0.23570824454E-01  0.50673425186E-01  0.65704855356E-01  0.86259891745E-01  0.51100000000E-03 0. -1.
         11    1    4    4    0    0  0.17084500671E-01  0.32263608769E-01  0.21721492583E-01  0.42484173230E-01  0.51100000000E-03 0.  1.
</event>
<event>
 8    1  0.1104109E+005  0.1043930E+01  0.7957747E-01            NaN
         13   -1    0    0    0    0  0.00000000000E+00  0.00000000000E+00  0.74505805969E-08  0.10566000000E+00  0.10566000000E+00 0.  1.
     999900   -1    0    0    0    0 -0.00000000000E+00 -0.00000000000E+00 -0.74505805969E-08  0.93827000000E+00  0.93827000000E+00 0.  1.
     999902    2    1    2    0    0  0.95297755177E-02  0.20993007356E-01 -0.15803655446E-02  0.10208211157E+01  0.10205595180E+01 0.  0.
     999903    2    3    3    0    0 -0.23102716417E-01 -0.12379867267E+00  0.14216239432E-01  0.12825232681E+00  0.19664969048E-01 0.  0.
         14    1    1    2    0    0 -0.95297755177E-02 -0.20993007356E-01  0.15803655446E-02  0.23108884321E-01  0.00000000000E+00 0.  1.
     999901    1    3    3    0    0  0.32632491935E-01  0.14479168003E+00 -0.15796604976E-01  0.89256878887E+00  0.88000000000E+00 0. -1.
        -11    1    4    4    0    0 -0.12148020059E-03 -0.53418404371E-01  0.63085816059E-02  0.53792192797E-01  0.51100000000E-03 0. -1.
         11    1    4    4    0    0 -0.22981236216E-01 -0.70380268300E-01  0.79076578260E-02  0.74460134013E-01  0.51100000000E-03 0.  1.
</event>
<event>
 8    1  0.1104109E+005  0.1043930E+01  0.7957747E-01            NaN
         13   -1    0    0    0    0  0.00000000000E+00  0.00000000000E+00  0.74505805969E-08  0.10566000000E+00  0.10566000000E+00 0. -1.
     999900   -1    0    0    0    0 -0.00000000000E+00 -0.00000000000E+00 -0.74505805969E-08  0.93827000000E+00  0.93827000000E+00 0. -1.
     999902    2    1    2    0    0  0.11334027685E-01  0.16679107386E-01  0.12855213288E-01  0.10200153744E+01  0.10197349924E+01 0.  0.
     999903    2    3    3    0    0  0.66408471238E-01 -0.75154602827E-01  0.81766615697E-01  0.13084980716E+00  0.19431757841E-01 0.  0.
         14    1    1    2    0    0 -0.11334027685E-01 -0.16679107386E-01 -0.12855213288E-01  0.23914625555E-01  0.00000000000E+00 0.  1.
     999901    1    3    3    0    0 -0.55074443552E-01  0.91833710214E-01 -0.68911402409E-01  0.88916556729E+00  0.88000000000E+00 0. -1.
        -11    1    4    4    0    0  0.65725430129E-02 -0.18721211416E-01  0.14198832348E-01  0.24403893943E-01  0.51100000000E-03 0.  1.
         11    1    4    4    0    0  0.59835928225E-01 -0.56433391412E-01  0.67567783349E-01  0.10644591322E+00  0.51100000000E-03 0. -1.
</event>
<event>
 8    1  0.1104109E+005  0.1043930E+01  0.7957747E-01            NaN
         13   -1    0    0    0    0  0.00000000000E+00  0.00000000000E+00  0.74505805969E-08  0.10566000000E+00  0.10566000000E+00 0.  1.
     999900   -1    0    0    0    0 -0.00000000000E+00 -0.00000000000E+00 -0.74505805969E-08  0.93827000000E+00  0.93827000000E+00 0. -1.
     999902    2    1    2    0    0 -0.18563745951E-01 -0.14347158551E-01 -0.61908244688E-02  0.10196652121E+01  0.10193764589E+01 0.  0.
     999903    2    3    3    0    0  0.12501826682E+00  0.10792847039E-01  0.92471230545E-02  0.12754070037E+00  0.20858292833E-01 0.  0.
         14    1    1    2    0    0  0.18563745951E-01  0.14347158551E-01  0.61908244688E-02  0.24264787859E-01  0.00000000000E+00 0.  1.
     999901    1    3    3    0    0 -0.14358201278E+00 -0.25140005590E-01 -0.15437947523E-01  0.89212451177E+00  0.88000000000E+00 0. -1.
        -11    1    4    4    0    0  0.90088529880E-01  0.17926411182E-02  0.13878608386E-01  0.91170355214E-01  0.51100000000E-03 0. -1.
         11    1    4    4    0    0  0.34929736944E-01  0.90002059209E-02 -0.46314853315E-02  0.36370345159E-01  0.51100000000E-03 0.  1.
</event>
<event>
 8    1  0.1104109E+005  0.1043930E+01  0.7957747E-01            NaN
         13   -1    0    0    0    0  0.00000000000E+00  0.00000000000E+00  0.74505805969E-08  0.10566000000E+00  0.10566000000E+00 0. -1.
     999900   -1    0    0    0    0 -0.00000000000E+00 -0.00000000000E+00 -0.74505805969E-08  0.93827000000E+00  0.93827000000E+00 0.  1.
     999902    2    1    2    0    0 -0.81948503155E-02 -0.21064505798E-01  0.78636725438E-02  0.10199987167E+01  0.10197179393E+01 0.  0.
     999903    2    3    3    0    0  0.10093021185E+00 -0.82085962842E-01  0.19002943262E-02  0.13114132693E+00  0.16414126547E-01 0.  0.
         14    1    1    2    0    0  0.81948503155E-02  0.21064505798E-01 -0.78636725438E-02  0.23931283336E-01  0.00000000000E+00 0.  1.
     999901    1    3    3    0    0 -0.10912506216E+00  0.61021457044E-01  0.59633782176E-02  0.88885738974E+00  0.88000000000E+00 0.  1.
        -11    1    4    4    0    0  0.56312998114E-01 -0.45920053030E-01 -0.70761887931E-02  0.73007798185E-01  0.51100000000E-03 0.  1.
         11    1    4    4    0    0  0.44617213733E-01 -0.36165909811E-01  0.89764831193E-02  0.58133528742E-01  0.51100000000E-03 0. -1.
</event>
<event>
 8    1  0.1104109E+005  0.1043930E+01  0.7957747E-01            NaN
         13   -1    0    0    0    0  0.00000000000E+00  0.00000000000E+00  0.74505805969E-08  0.10566000000E+00  0.10566000000E+00 0. -1.
     999900   -1    0    0    0    0 -0.00000000000E+00 -0.00000000000E+00 -0.74505805969E-08  0.93827000000E+00  0.93827000000E+00 0.  1.
     999902    2    1    2    0    0  0.18800149715E-01 -0.79812207261E-02  0.10442217716E-01  0.10209912680E+01  0.10207335519E+01 0.  0.
     999903    2    3    3    0    0  0.11097819515E+00  0.69891305156E-01 -0.77402723379E-03  0.13268573135E+00  0.20098503675E-01 0.  0.
         14    1    1    2    0    0 -0.18800149715E-01  0.79812207261E-02 -0.10442217716E-01  0.22938731970E-01  0.00000000000E+00 0. -1.
     999901    1    3    3    0    0 -0.92178045436E-01 -0.77872525882E-01  0.11216244950E-01  0.88830553668E+00  0.88000000000E+00 0. -1.
        -11    1    4    4    0    0  0.91562520851E-01  0.55135472748E-01 -0.81778513372E-02  0.10719493436E+00  0.51100000000E-03 0. -1.
         11    1    4    4    0    0  0.19415674300E-01  0.14755832408E-01  0.74038241034E-02  0.25490796985E-01  0.51100000000E-03 0.  1.
</event>
<event>
 8    1  0.1104109E+005  0.1043930E+01  0.7957747E-01            NaN
         13   -1    0    0    0    0  0.00000000000E+00  0.00000000000E+00  0.74505805969E-08  0.10566000000E+00  0.10566000000E+00 0. -1.
     999900   -1    0    0    0    0 -0.00000000000E+00 -0.00000000000E+00 -0.74505805969E-08  0.93827000000E+00  0.93827000000E+00 0.  1.
     999902    2    1    2    0    0 -0.14863521038E-01 -0.86481759880E-02 -0.16368567045E-01  0.10201887870E+01  0.10199125041E+01 0.  0.
     999903    2    3    3    0    0 -0.77233156100E-01 -0.61365782126E-01  0.83087555347E-01  0.13082910859E+00  0.21954365946E-01 0.  0.
         14    1    1    2    0    0  0.14863521038E-01  0.86481759880E-02  0.16368567045E-01  0.23741212958E-01  0.00000000000E+00 0. -1.
     999901    1    3    3    0    0  0.62369635061E-01  0.52717606138E-01 -0.99456122392E-01  0.88935967845E+00  0.88000000000E+00 0. -1.
        -11    1    4    4    0    0 -0.59957915926E-01 -0.38095475327E-01  0.67138012951E-01  0.97744518141E-01  0.51100000000E-03 0.  1.
         11    1    4    4    0    0 -0.17275240173E-01 -0.23270306800E-01  0.15949542395E-01  0.33084590449E-01  0.51100000000E-03 0. -1.
</event>
<event>
 8    1  0.1104109E+005  0.1043930E+01  0.7957747E-01            NaN
         13   -1    0    0    0    0  0.00000000000E+00  0.00000000000E+00  0.74505805969E-08  0.10566000000E+00  0.10566000000E+00 0.  1.
     999900   -1    0    0    0    0 -0.00000000000E+00 -0.00000000000E+00 -0.74505805969E-08  0.93827000000E+00  0.93827000000E+00 0.  1.
     999902    2    1    2    0    0  0.19663372304E-01 -0.62921670098E-03 -0.16564168242E-01  0.10182119948E+01  0.10178871502E+01 0.  0.
     999903    2    3    3    0    0 -0.97128605881E-01 -0.62755853434E-02  0.76816364436E-01  0.12557983562E+00  0.19904577800E-01 0.  0.
         14    1    1    2    0    0 -0.19663372304E-01  0.62921670098E-03  0.16564168242E-01  0.25718005241E-01  0.00000000000E+00 0.  1.
     999901    1    3    3    0    0  0.11679197818E+00  0.56463686424E-02 -0.93380532678E-01  0.89263215914E+00  0.88000000000E+00 0. -1.
        -11    1    4    4    0    0 -0.62234718776E-01 -0.17055825589E-02  0.36944818819E-01  0.72396477757E-01  0.51100000000E-03 0.  1.
         11    1    4    4    0    0 -0.34893887105E-01 -0.45700027845E-02  0.39871545616E-01  0.53183357863E-01  0.51100000000E-03 0. -1.
</event>
<event>
 8    1  0.1104109E+005  0.1043930E+01  0.7957747E-01            NaN
         13   -1    0    0    0    0  0.00000000000E+00  0.00000000000E+00  0.74505805969E-08  0.10566000000E+00  0.10566000000E+00 0. -1.
     999900   -1    0    0    0    0 -0.00000000000E+00 -0.00000000000E+00 -0.74505805969E-08  0.93827000000E+00  0.93827000000E+00 0.  1.
     999902    2    1    2    0    0  0.88946856617E-03  0.20806524152E-01 -0.41270570659E-02  0.10226994748E+01  0.10224790856E+01 0.  0.
     999903    2    3    3    0    0  0.12338460779E+00  0.47070098598E-01 -0.81266338879E-02  0.13381768786E+00  0.20044345493E-01 0.  0.
         14    1    1    2    0    0 -0.88946856617E-03 -0.20806524152E-01  0.41270570659E-02  0.21230525232E-01  0.00000000000E+00 0. -1.
     999901    1    3    3    0    0 -0.12249513922E+00 -0.26263574446E-01  0.39995768220E-02  0.88888178690E+00  0.88000000000E+00 0.  1.
        -11    1    4    4    0    0  0.70102112688E-01  0.32392987541E-01 -0.13083186914E-01  0.78326513685E-01  0.51100000000E-03 0.  1.
         11    1    4    4    0    0  0.53282495098E-01  0.14677111057E-01  0.49565530263E-02  0.55491174179E-01  0.51100000000E-03 0. -1.
</event>
<event>
 8    1  0.1104109E+005  0.1043930E+01  0.7957747E-01            NaN
         13   -1    0    0    0    0  0.00000000000E+00  0.00000000000E+00  0.74505805969E-08  0.10566000000E+00  0.10566000000E+00 0. -1.
     999900   -1    0    0    0    0 -0.00000000000E+00 -0.00000000000E+00 -0.74505805969E-08  0.93827000000E+00  0.93827000000E+00 0. -1.
     999902    2    1    2    0    0  0.63328839154E-03 -0.23599842417E-01 -0.22534583922E-02  0.10202143577E+01  0.10199386765E+01 0.  0.
     999903    2    3    3    0    0 -0.90851808816E-01 -0.31339012092E-02 -0.91716799073E-01  0.13072457859E+00  0.20324165769E-01 0.  0.
         14    1    1    2    0    0 -0.63328839154E-03  0.23599842417E-01  0.22534583922E-02  0.23715642328E-01  0.00000000000E+00 0.  1.
     999901    1    3    3    0    0  0.91485097207E-01 -0.20465941208E-01  0.89463340681E-01  0.88948977908E+00  0.88000000000E+00 0.  1.
        -11    1    4    4    0    0 -0.43923982115E-01 -0.94200541296E-02 -0.53609599042E-01  0.69945005934E-01  0.51100000000E-03 0. -1.
         11    1    4    4    0    0 -0.46927826701E-01  0.62861529204E-02 -0.38107200031E-01  0.60779572659E-01  0.51100000000E-03 0.  1.
</event>
<event>
 8    1  0.1104109E+005  0.1043930E+01  0.7957747E-01            NaN
         13   -1    0    0    0    0  0.00000000000E+00  0.00000000000E+00  0.74505805969E-08  0.10566000000E+00  0.10566000000E+00 0. -1.
     999900   -1    0    0    0    0 -0.00000000000E+00 -0.00000000000E+00 -0.74505805969E-08  0.93827000000E+00  0.93827000000E+00 0.  1.
     999902    2    1    2    0    0 -0.98090875667E-02 -0.25003797648E-01 -0.95855916938E-02  0.10154117311E+01  0.10150111782E+01 0.  0.
     999903    2    3    3    0    0  0.62439568197E-01 -0.82469904980E-01 -0.73086588742E-01  0.12830711581E+00  0.20520273154E-01 0.  0.
         14    1    1    2    0    0  0.98090875667E-02  0.25003797648E-01  0.95855916938E-02  0.28518268949E-01  0.00000000000E+00 0.  1.
     999901    1    3    3    0    0 -0.72248655764E-01  0.57466107332E-01  0.63500997048E-01  0.88710461524E+00  0.88000000000E+00 0. -1.
        -11    1    4    4    0    0  0.10182074897E-01 -0.16687870107E-01 -0.24167836348E-01  0.31088665019E-01  0.51100000000E-03 0.  1.
         11    1    4    4    0    0  0.52257493300E-01 -0.65782034873E-01 -0.48918752393E-01  0.97218450794E-01  0.51100000000E-03 0. -1.
</event>
<event>
 7    1  0.1207216E+005  0.1043930E+01  0.7957747E-01            NaN
         13   -1    0    0    0    0  0.00000000000E+00  0.00000000000E+00  0.74505805969E-08  0.10566000000E+00  0.10566000000E+00 0. -1.
     999900   -1    0    0    0    0 -0.00000000000E+00 -0.00000000000E+00 -0.74505805969E-08  0.93827000000E+00  0.93827000000E+00 0. -1.
     999903    2    1    2    0    0  0.10646445105E+00  0.85127527820E-02 -0.45185772176E-01  0.11766702459E+00  0.19915530858E-01 0.  0.
         14    1    1    2    0    0 -0.14787113086E-01 -0.35275640787E-01 -0.94883015174E-02  0.39408849413E-01  0.00000000000E+00 0. -1.
     999901    1    1    2    0    0 -0.91677337969E-01  0.26762888005E-01  0.54674073694E-01  0.88685412600E+00  0.88000000000E+00 0.  1.
        -11    1    3    3    0    0  0.64049198857E-01  0.13765948014E-01 -0.22447802710E-01  0.69252914498E-01  0.51100000000E-03 0.  1.
         11    1    3    3    0    0  0.42415252197E-01 -0.52531952320E-02 -0.22737969466E-01  0.48414110087E-01  0.51100000000E-03 0. -1.
</event>
<event>
 8    1  0.1104109E+005  0.1043930E+01  0.7957747E-01            NaN
         13   -1    0    0    0    0  0.00000000000E+00  0.00000000000E+00  0.74505805969E-08  0.10566000000E+00  0.10566000000E+00 0. -1.
     999900   -1    0    0    0    0 -0.00000000000E+00 -0.00000000000E+00 -0.74505805969E-08  0.93827000000E+00  0.93827000000E+00 0. -1.
     999902    2    1    2    0    0 -0.16762306351E-01 -0.68432239920E-02 -0.15526100276E-01  0.10200791212E+01  0.10198002496E+01 0.  0.
     999903    2    3    3    0    0 -0.65129275071E-01 -0.69678971742E-01  0.86709840284E-01  0.13061867668E+00  0.21110677899E-01 0.  0.
         14    1    1    2    0    0  0.16762306351E-01  0.68432239920E-02  0.15526100276E-01  0.23850878780E-01  0.00000000000E+00 0. -1.
     999901    1    3    3    0    0  0.48366968720E-01  0.62835747750E-01 -0.10223594056E+00  0.88946044454E+00  0.88000000000E+00 0. -1.
        -11    1    4    4    0    0 -0.50413749534E-01 -0.64871128741E-01  0.71597856381E-01  0.10897854672E+00  0.51100000000E-03 0.  1.
         11    1    4    4    0    0 -0.14715525537E-01 -0.48078430011E-02  0.15111983902E-01  0.21640129958E-01  0.51100000000E-03 0. -1.
</event>
<event>
 8    1  0.1104109E+005  0.1043930E+01  0.7957747E-01            NaN
         13   -1    0    0    0    0  0.00000000000E+00  0.00000000000E+00  0.74505805969E-08  0.10566000000E+00  0.10566000000E+00 0. -1.
     999900   -1    0    0    0    0 -0.00000000000E+00 -0.00000000000E+00 -0.74505805969E-08  0.93827000000E+00  0.93827000000E+00 0.  1.
     999902    2    1    2    0    0  0.82833780723E-02 -0.11254192022E-01 -0.20961836115E-01  0.10187373470E+01  0.10184258012E+01 0.  0.
     999903    2    3    3    0    0  0.46845921892E-01  0.98043300734E-01 -0.68241513548E-01  0.12987943960E+00  0.20118037728E-01 0.  0.
         14    1    1    2    0    0 -0.82833780723E-02  0.11254192022E-01  0.20961836115E-01  0.25192652970E-01  0.00000000000E+00 0. -1.
     999901    1    3    3    0    0 -0.38562543819E-01 -0.10929749276E+00  0.47279677432E-01  0.88885790743E+00  0.88000000000E+00 0. -1.
        -11    1    4    4    0    0  0.20236502264E-01  0.32097881453E-01 -0.34000658467E-01  0.50951898050E-01  0.51100000000E-03 0. -1.
         11    1    4    4    0    0  0.26609419628E-01  0.65945419280E-01 -0.34240855081E-01  0.78927541547E-01  0.51100000000E-03 0.  1.
</event>
<event>
 8    1  0.1104109E+005  0.1043930E+01  0.7957747E-01            NaN
         13   -1    0    0    0    0  0.00000000000E+00  0.00000000000E+00  0.74505805969E-08  0.10566000000E+00  0.10566000000E+00 0.  1.
     999900   -1    0    0    0    0 -0.00000000000E+00 -0.00000000000E+00 -0.74505805969E-08  0.93827000000E+00  0.93827000000E+00 0. -1.
     999902    2    1    2    0    0  0.26229316450E-01  0.24836639137E-01  0.47314088828E-02  0.10074989430E+01  0.10068400559E+01 0.  0.
     999903    2    3    3    0    0  0.23441279613E-01 -0.11106168466E+00 -0.20016819506E-01  0.11671917090E+00  0.18398380443E-01 0.  0.
         14    1    1    2    0    0 -0.26229316450E-01 -0.24836639137E-01 -0.47314088828E-02  0.36431057013E-01  0.00000000000E+00 0. -1.
     999901    1    3    3    0    0  0.27880368371E-02  0.13589832379E+00  0.24748228389E-01  0.89077977209E+00  0.88000000000E+00 0. -1.
        -11    1    4    4    0    0  0.17032503131E-01 -0.89512559148E-01 -0.23148394119E-01  0.94014433357E-01  0.51100000000E-03 0. -1.
         11    1    4    4    0    0  0.64087764822E-02 -0.21549125508E-01  0.31315746125E-02  0.22704737539E-01  0.51100000000E-03 0.  1.
</event>
<event>
 8    1  0.1104109E+005  0.1043930E+01  0.7957747E-01            NaN
         13   -1    0    0    0    0  0.00000000000E+00  0.00000000000E+00  0.74505805969E-08  0.10566000000E+00  0.10566000000E+00 0.  1.
     999900   -1    0    0    0    0 -0.00000000000E+00 -0.00000000000E+00 -0.74505805969E-08  0.93827000000E+00  0.93827000000E+00 0. -1.
     999902    2    1    2    0    0 -0.11236440695E-01 -0.19819638610E-01  0.53815498266E-02  0.10205198152E+01  0.10202512712E+01 0.  0.
     999903    2    3    3    0    0 -0.76014477408E-02 -0.12969294273E+00 -0.19492255632E-01  0.13333096138E+00  0.22784991382E-01 0.  0.
         14    1    1    2    0    0  0.11236440695E-01  0.19819638610E-01 -0.53815498266E-02  0.23410184806E-01  0.00000000000E+00 0. -1.
     999901    1    3    3    0    0 -0.36349929542E-02  0.10987330412E+00  0.24873805459E-01  0.88718885381E+00  0.88000000000E+00 0.  1.
        -11    1    4    4    0    0 -0.49529428214E-02 -0.52770800612E-01  0.31545843548E-02  0.53098978929E-01  0.51100000000E-03 0. -1.
         11    1    4    4    0    0 -0.26485049194E-02 -0.76922142115E-01 -0.22646839987E-01  0.80231982453E-01  0.51100000000E-03 0.  1.
</event>
<event>
 8    1  0.1104109E+005  0.1043930E+01  0.7957747E-01            NaN
         13   -1    0    0    0    0  0.00000000000E+00  0.00000000000E+00  0.74505805969E-08  0.10566000000E+00  0.10566000000E+00 0.  1.
     999900   -1    0    0    0    0 -0.00000000000E+00 -0.00000000000E+00 -0.74505805969E-08  0.93827000000E+00  0.93827000000E+00 0.  1.
     999902    2    1    2    0    0 -0.20147235053E-01  0.62547710482E-02  0.12223752326E-01  0.10195485857E+01  0.10192570163E+01 0.  0.
     999903    2    3    3    0    0 -0.84071758491E-01  0.68617219457E-01 -0.70917074631E-01  0.13112986869E+00  0.19733920207E-01 0.  0.
         14    1    1    2    0    0  0.20147235053E-01 -0.62547710482E-02 -0.12223752326E-01  0.24381414276E-01  0.00000000000E+00 0. -1.
     999901    1    3    3    0    0  0.63924523438E-01 -0.62362448409E-01  0.83140826957E-01  0.88841871703E+00  0.88000000000E+00 0.  1.
        -11    1    4    4    0    0 -0.59848653688E-01  0.48480177479E-01 -0.60518673634E-01  0.97953866366E-01  0.51100000000E-03 0.  1.
         11    1    4    4    0    0 -0.24223104803E-01  0.20137041978E-01 -0.10398400997E-01  0.33176002325E-01  0.51100000000E-03 0. -1.
</event>
<event>
 8    1  0.1104109E+005  0.1043930E+01  0.7957747E-01            NaN
         13   -1    0    0    0    0  0.00000000000E+00  0.00000000000E+00  0.74505805969E-08  0.10566000000E+00  0.10566000000E+00 0. -1.
     999900   -1    0    0    0    0 -0.00000000000E+00 -0.00000000000E+00 -0.74505805969E-08  0.93827000000E+00  0.93827000000E+00 0.  1.
     999902    2    1    2    0    0  0.15768093915E-01 -0.15200700202E-01 -0.81618998729E-02  0.10205567101E+01  0.10202890217E+01 0.  0.
     999903    2    3    3    0    0 -0.29064523704E-02 -0.12429450755E+00 -0.43023188170E-01  0.13293882669E+00  0.19083103778E-01 0.  0.
         14    1    1    2    0    0 -0.15768093915E-01  0.15200700202E-01  0.81618998729E-02  0.23373289924E-01  0.00000000000E+00 0. -1.
     999901    1    3    3    0    0  0.18674546285E-01  0.10909380735E+00  0.34861288298E-01  0.88761788338E+00  0.88000000000E+00 0.  1.
        -11    1    4    4    0    0 -0.87898827918E-02 -0.50778946419E-01 -0.11925959935E-01  0.52898516806E-01  0.51100000000E-03 0. -1.
         11    1    4    4    0    0  0.58834304214E-02 -0.73515561130E-01 -0.31097228235E-01  0.80040309886E-01  0.51100000000E-03 0.  1.
</event>
<event>
 8    1  0.1104109E+005  0.1043930E+01  0.7957747E-01            NaN
         13   -1    0    0    0    0  0.00000000000E+00  0.00000000000E+00  0.74505805969E-08  0.10566000000E+00  0.10566000000E+00 0. -1.
     999900   -1    0    0    0    0 -0.00000000000E+00 -0.00000000000E+00 -0.74505805969E-08  0.93827000000E+00  0.93827000000E+00 0. -1.
     999902    2    1    2    0    0 -0.15944060991E-01 -0.13012397537E-01 -0.12354813090E-01  0.10199263133E+01  0.10196438140E+01 0.  0.
     999903    2    3    3    0    0  0.59047072163E-01  0.87077832653E-01  0.68901620147E-01  0.12737696887E+00  0.20207752698E-01 0.  0.
         14    1    1    2    0    0  0.15944060991E-01  0.13012397537E-01  0.12354813090E-01  0.24003686738E-01  0.00000000000E+00 0. -1.
     999901    1    3    3    0    0 -0.74991133154E-01 -0.10009023019E+00 -0.81256433237E-01  0.89254934439E+00  0.88000000000E+00 0. -1.
        -11    1    4    4    0    0  0.36582742493E-01  0.48236625692E-01  0.28169779944E-01  0.66774746196E-01  0.51100000000E-03 0. -1.
         11    1    4    4    0    0  0.22464329670E-01  0.38841206961E-01  0.40731840203E-01  0.60602222674E-01  0.51100000000E-03 0.  1.
</event>
<event>
 8    1  0.1104109E+005  0.1043930E+01  0.7957747E-01            NaN
         13   -1    0    0    0    0  0.00000000000E+00  0.00000000000E+00  0.74505805969E-08  0.10566000000E+00  0.10566000000E+00 0.  1.
     999900   -1    0    0    0    0 -0.00000000000E+00 -0.00000000000E+00 -0.74505805969E-08  0.93827000000E+00  0.93827000000E+00 0.  1.
     999902    2    1    2    0    0 -0.11186965813E-01  0.50478437162E-02  0.19147401364E-01  0.10211868272E+01  0.10209335356E+01 0.  0.
     999903    2    3    3    0    0 -0.12415335289E+00 -0.40544049756E-01  0.12520237001E-01  0.13277028938E+00  0.20330233723E-01 0.  0.
         14    1    1    2    0    0  0.11186965813E-01 -0.50478437162E-02 -0.19147401364E-01  0.22743172806E-01  0.00000000000E+00 0. -1.
     999901    1    3    3    0    0  0.11296638707E+00  0.45591893472E-01  0.66271643635E-02  0.88841653782E+00  0.88000000000E+00 0. -1.
        -11    1    4    4    0    0 -0.60778157882E-01 -0.10397874837E-01  0.11534917945E-02  0.61674078355E-01  0.51100000000E-03 0.  1.
         11    1    4    4    0    0 -0.63375195004E-01 -0.30146174919E-01  0.11366745206E-01  0.71096211022E-01  0.51100000000E-03 0. -1.
</event>
<event>
 8    1  0.1161611E+005  0.1043930E+01  0.7957747E-01            NaN
         13   -1    0    0    0    0  0.00000000000E+00  0.00000000000E+00  0.74505805969E-08  0.10566000000E+00  0.10566000000E+00 0. -1.
     999900   -1    0    0    0    0 -0.00000000000E+00 -0.00000000000E+00 -0.74505805969E-08  0.93827000000E+00  0.93827000000E+00 0.  1.
     999902    2    1    2    0    0  0.56475620782E-02  0.12923115262E-01  0.19283409025E-01  0.10200395892E+01  0.10197597814E+01 0.  0.
     999903    2    3    3    0    0  0.94572838819E-01 -0.72012370176E-01 -0.47051866709E-01  0.12901651971E+00  0.17366084627E-01 0.  0.
         14    1    1    2    0    0 -0.56475620782E-02 -0.12923115262E-01 -0.19283409025E-01  0.23890410820E-01  0.00000000000E+00 0.  1.
     999901    1    3    3    0    0 -0.88925276741E-01  0.84935485438E-01  0.66335275734E-01  0.89102306948E+00  0.88000000000E+00 0. -1.
        -11    1    4    4    0    0  0.39526864450E-01 -0.33132350795E-01 -0.11602691521E-01  0.52867847071E-01  0.51100000000E-03 0.  1.
         11    1    4    4    0    0  0.55045974369E-01 -0.38880019381E-01 -0.35449175188E-01  0.76148672634E-01  0.51100000000E-03 0. -1.
</event>
<event>
 8    1  0.1104109E+005  0.1043930E+01  0.7957747E-01            NaN
         13   -1    0    0    0    0  0.00000000000E+00  0.00000000000E+00  0.74505805969E-08  0.10566000000E+00  0.10566000000E+00 0.  1.
     999900   -1    0    0    0    0 -0.00000000000E+00 -0.00000000000E+00 -0.74505805969E-08  0.93827000000E+00  0.93827000000E+00 0. -1.
     999902    2    1    2    0    0 -0.13650531887E-01  0.14174686519E-01  0.10397912838E-01  0.10216729708E+01  0.10214305086E+01 0.  0.
     999903    2    3    3    0    0  0.44690779199E-01  0.28270107682E-01 -0.11718979054E+00  0.13044852568E+00  0.22065949142E-01 0.  0.
         14    1    1    2    0    0  0.13650531887E-01 -0.14174686519E-01 -0.10397912838E-01  0.22257029229E-01  0.00000000000E+00 0.  1.
     999901    1    3    3    0    0 -0.58341311086E-01 -0.14095421163E-01  0.12758770338E+00  0.89122444509E+00  0.88000000000E+00 0.  1.
        -11    1    4    4    0    0  0.31268997986E-01  0.13974843024E-01 -0.51171661950E-01  0.61577971551E-01  0.51100000000E-03 0. -1.
         11    1    4    4    0    0  0.13421781213E-01  0.14295264658E-01 -0.66018128589E-01  0.68870554128E-01  0.51100000000E-03 0.  1.
</event>
<event>
 8    1  0.1104109E+005  0.1043930E+01  0.7957747E-01            NaN
         13   -1    0    0    0    0  0.00000000000E+00  0.00000000000E+00  0.74505805969E-08  0.10566000000E+00  0.10566000000E+00 0. -1.
     999900   -1    0    0    0    0 -0.00000000000E+00 -0.00000000000E+00 -0.74505805969E-08  0.93827000000E+00  0.93827000000E+00 0. -1.
     999902    2    1    2    0    0 -0.73949062463E-03 -0.20655086887E-01 -0.11808169274E-01  0.10201263801E+01  0.10198486255E+01 0.  0.
     999903    2    3    3    0    0  0.34863967077E-01  0.10697517972E+00 -0.59443933025E-01  0.12893265413E+00  0.20757236118E-01 0.  0.
         14    1    1    2    0    0  0.73949062463E-03  0.20655086887E-01  0.11808169274E-01  0.23803619941E-01  0.00000000000E+00 0. -1.
     999901    1    3    3    0    0 -0.35603457701E-01 -0.12763026660E+00  0.47635763752E-01  0.89119372593E+00  0.88000000000E+00 0. -1.
        -11    1    4    4    0    0  0.51509758363E-02  0.35877461669E-01 -0.27570372445E-01  0.45542412822E-01  0.51100000000E-03 0. -1.
         11    1    4    4    0    0  0.29712991240E-01  0.71097718046E-01 -0.31873560580E-01  0.83390241305E-01  0.51100000000E-03 0.  1.
</event>
<event>
 8    1  0.1104109E+005  0.1043930E+01  0.7957747E-01            NaN
         13   -1    0    0    0    0  0.00000000000E+00  0.00000000000E+00  0.74505805969E-08  0.10566000000E+00  0.10566000000E+00 0. -1.
     999900   -1    0    0    0    0 -0.00000000000E+00 -0.00000000000E+00 -0.74505805969E-08  0.93827000000E+00  0.93827000000E+00 0.  1.
     999902    2    1    2    0    0  0.92536708748E-02  0.21074734805E-01 -0.54530338027E-02  0.10202760268E+01  0.10200017943E+01 0.  0.
     999903    2    3    3    0    0 -0.10293517917E+00  0.46399169402E-01  0.60272584742E-01  0.13036169270E+00  0.24755856241E-01 0.  0.
         14    1    1    2    0    0 -0.92536708748E-02 -0.21074734805E-01  0.54530338027E-02  0.23653973226E-01  0.00000000000E+00 0. -1.
     999901    1    3    3    0    0  0.11218885005E+00 -0.25324434598E-01 -0.65725618545E-01  0.88991433408E+00  0.88000000000E+00 0.  1.
        -11    1    4    4    0    0 -0.56686964945E-01  0.27297226272E-01  0.47161497432E-01  0.78632172283E-01  0.51100000000E-03 0. -1.
         11    1    4    4    0    0 -0.46248214230E-01  0.19101943130E-01  0.13111087310E-01  0.51729520414E-01  0.51100000000E-03 0.  1.
</event>
<event>
 8    1  0.1104109E+005  0.1043930E+01  0.7957747E-01            NaN
         13   -1    0    0    0    0  0.00000000000E+00  0.00000000000E+00  0.74505805969E-08  0.10566000000E+00  0.10566000000E+00 0. -1.
     999900   -1    0    0    0    0 -0.00000000000E+00 -0.00000000000E+00 -0.74505805969E-08  0.93827000000E+00  0.93827000000E+00 0. -1.
     999902    2    1    2    0    0 -0.28482787466E-01 -0.54813278798E-02  0.61826407864E-02  0.10142729741E+01  0.10138393003E+01 0.  0.
     999903    2    3    3    0    0 -0.81495759246E-01 -0.72042003793E-01 -0.63402409195E-01  0.12743433156E+00  0.19698585790E-01 0.  0.
         14    1    1    2    0    0  0.28482787466E-01  0.54813278798E-02 -0.61826407864E-02  0.29657025884E-01  0.00000000000E+00 0.  1.
     999901    1    3    3    0    0  0.53012971779E-01  0.66560675913E-01  0.69585049982E-01  0.88683864256E+00  0.88000000000E+00 0.  1.
        -11    1    4    4    0    0 -0.72242470011E-01 -0.66873164961E-01 -0.62875178875E-01  0.11680986219E+00  0.51100000000E-03 0. -1.
         11    1    4    4    0    0 -0.92532892351E-02 -0.51688388322E-02 -0.52723032047E-03  0.10624469368E-01  0.51100000000E-03 0.  1.
</event>
<event>
 8    1  0.1104109E+005  0.1043930E+01  0.7957747E-01            NaN
         13   -1    0    0    0    0  0.00000000000E+00  0.00000000000E+00  0.74505805969E-08  0.10566000000E+00  0.10566000000E+00 0. -1.
     999900   -1    0    0    0    0 -0.00000000000E+00 -0.00000000000E+00 -0.74505805969E-08  0.93827000000E+00  0.93827000000E+00 0.  1.
     999902    2    1    2    0    0  0.73613284211E-02 -0.13466236579E-02 -0.22806393648E-01  0.10199272055E+01  0.10196447276E+01 0.  0.
     999903    2    3    3    0    0  0.83521154589E-01 -0.14562623477E-01  0.94610739368E-01  0.12876966339E+00  0.21037607757E-01 0.  0.
         14    1    1    2    0    0 -0.73613284211E-02  0.13466236579E-02  0.22806393648E-01  0.24002794475E-01  0.00000000000E+00 0. -1.
     999901    1    3    3    0    0 -0.76159826168E-01  0.13215999819E-01 -0.11741713302E+00  0.89115754213E+00  0.88000000000E+00 0.  1.
        -11    1    4    4    0    0  0.18014513551E-01  0.28055212847E-02  0.30151800321E-01  0.35238981707E-01  0.51100000000E-03 0. -1.
         11    1    4    4    0    0  0.65506641038E-01 -0.17368144761E-01  0.64458939047E-01  0.93530681686E-01  0.51100000000E-03 0.  1.
</event>
<event>
 8    1  0.1104109E+005  0.1043930E+01  0.7957747E-01            NaN
         13   -1    0    0    0    0  0.00000000000E+00  0.00000000000E+00  0.74505805969E-08  0.10566000000E+00  0.10566000000E+00 0.  1.
     999900   -1    0    0    0    0 -0.00000000000E+00 -0.00000000000E+00 -0.74505805969E-08  0.93827000000E+00  0.93827000000E+00 0. -1.
     999902    2    1    2    0    0 -0.79809239424E-03 -0.23567347557E-01  0.10994815868E-01  0.10179118756E+01  0.10175793058E+01 0.  0.
     999903    2    3    3    0    0 -0.11928301068E+00 -0.10982248125E-01  0.44269452087E-01  0.12925881504E+00  0.19975246332E-01 0.  0.
         14    1    1    2    0    0  0.79809239424E-03  0.23567347557E-01 -0.10994815868E-01  0.26018124420E-01  0.00000000000E+00 0. -1.
     999901    1    3    3    0    0  0.11848491829E+00 -0.12585099432E-01 -0.33274636218E-01  0.88865306054E+00  0.88000000000E+00 0. -1.
        -11    1    4    4    0    0 -0.41180463170E-01  0.56977561353E-02  0.15041470668E-01  0.44213142081E-01  0.51100000000E-03 0.  1.
         11    1    4    4    0    0 -0.78102547514E-01 -0.16680004260E-01  0.29227981419E-01  0.85045672960E-01  0.51100000000E-03 0. -1.
</event>
<event>
 8    1  0.1104109E+005  0.1043930E+01  0.7957747E-01            NaN
         13   -1    0    0    0    0  0.00000000000E+00  0.00000000000E+00  0.74505805969E-08  0.10566000000E+00  0.10566000000E+00 0. -1.
     999900   -1    0    0    0    0 -0.00000000000E+00 -0.00000000000E+00 -0.74505805969E-08  0.93827000000E+00  0.93827000000E+00 0.  1.
     999902    2    1    2    0    0  0.18155162114E-01  0.10072908312E-01 -0.13515608491E-01  0.10191561213E+01  0.10188549723E+01 0.  0.
     999903    2    3    3    0    0 -0.56640617270E-01 -0.10754694745E+00  0.30905676224E-01  0.12707872016E+00  0.20477667448E-01 0.  0.
         14    1    1    2    0    0 -0.18155162114E-01 -0.10072908312E-01  0.13515608491E-01  0.24773878706E-01  0.00000000000E+00 0. -1.
     999901    1    3    3    0    0  0.74795779385E-01  0.11761985576E+00 -0.44421284715E-01  0.89207740114E+00  0.88000000000E+00 0. -1.
        -11    1    4    4    0    0 -0.36555049867E-01 -0.47599926664E-01  0.16188306573E-01  0.62163872787E-01  0.51100000000E-03 0. -1.
         11    1    4    4    0    0 -0.20085567403E-01 -0.59947020783E-01  0.14717369651E-01  0.64914847370E-01  0.51100000000E-03 0.  1.
</event>
<event>
 8    1  0.1104109E+005  0.1043930E+01  0.7957747E-01            NaN
         13   -1    0    0    0    0  0.00000000000E+00  0.00000000000E+00  0.74505805969E-08  0.10566000000E+00  0.10566000000E+00 0. -1.
     999900   -1    0    0    0    0 -0.00000000000E+00 -0.00000000000E+00 -0.74505805969E-08  0.93827000000E+00  0.93827000000E+00 0.  1.
     999902    2    1    2    0    0 -0.24223969396E-02 -0.22043085231E-01  0.75917384152E-02  0.10204907145E+01  0.10202214947E+01 0.  0.
     999903    2    3    3    0    0  0.49429930137E-01 -0.50421066769E-01 -0.10821600316E+00  0.13093722724E+00  0.21171966562E-01 0.  0.
         14    1    1    2    0    0  0.24223969396E-02  0.22043085231E-01 -0.75917384152E-02  0.23439285518E-01  0.00000000000E+00 0. -1.
     999901    1    3    3    0    0 -0.51852327077E-01  0.28377981538E-01  0.11580774158E+00  0.88955348724E+00  0.88000000000E+00 0. -1.
        -11    1    4    4    0    0  0.29620159139E-01 -0.32217958724E-01 -0.47862089168E-01  0.64856698900E-01  0.51100000000E-03 0. -1.
         11    1    4    4    0    0  0.19809770998E-01 -0.18203108046E-01 -0.60353913997E-01  0.66080528336E-01  0.51100000000E-03 0.  1.
</event>
<event>
 8    1  0.1104109E+005  0.1043930E+01  0.7957747E-01            NaN
         13   -1    0    0    0    0  0.00000000000E+00  0.00000000000E+00  0.74505805969E-08  0.10566000000E+00  0.10566000000E+00 0. -1.
     999900   -1    0    0    0    0 -0.00000000000E+00 -0.00000000000E+00 -0.74505805969E-08  0.93827000000E+00  0.93827000000E+00 0.  1.
     999902    2    1    2    0    0 -0.20812439044E-01 -0.13637698744E-01  0.14977272225E-01  0.10148875633E+01  0.10144719331E+01 0.  0.
     999903    2    3    3    0    0  0.40970505605E-01 -0.89720156895E-01 -0.74098668188E-01  0.12497734545E+00  0.20010881153E-01 0.  0.
         14    1    1    2    0    0  0.20812439044E-01  0.13637698744E-01 -0.14977272225E-01  0.29042436697E-01  0.00000000000E+00 0.  1.
     999901    1    3    3    0    0 -0.61782944648E-01  0.76082458151E-01  0.89075940413E-01  0.88991021786E+00  0.88000000000E+00 0. -1.
        -11    1    4    4    0    0  0.21709911686E-01 -0.26090028859E-01 -0.28943152389E-01  0.44609158953E-01  0.51100000000E-03 0. -1.
         11    1    4    4    0    0  0.19260593919E-01 -0.63630128036E-01 -0.45155515799E-01  0.80368186492E-01  0.51100000000E-03 0.  1.
</event>
<event>
 8    1  0.1104109E+005  0.1043930E+01  0.7957747E-01            NaN
         13   -1    0    0    0    0  0.00000000000E+00  0.00000000000E+00  0.74505805969E-08  0.10566000000E+00  0.10566000000E+00 0.  1.
     999900   -1    0    0    0    0 -0.00000000000E+00 -0.00000000000E+00 -0.74505805969E-08  0.93827000000E+00  0.93827000000E+00 0. -1.
     999902    2    1    2    0    0 -0.75557238857E-02 -0.21523300011E-01 -0.60889473476E-02  0.10203203264E+01  0.10200471322E+01 0.  0.
     999903    2    3    3    0    0  0.12065232523E+00  0.35387891562E-01  0.19085282529E-01  0.12885527975E+00  0.20740025504E-01 0.  0.
         14    1    1    2    0    0  0.75557238857E-02  0.21523300011E-01  0.60889473476E-02  0.23609673581E-01  0.00000000000E+00 0. -1.
     999901    1    3    3    0    0 -0.12820804911E+00 -0.56911191573E-01 -0.25174229877E-01  0.89146504667E+00  0.88000000000E+00 0.  1.
        -11    1    4    4    0    0  0.41637370065E-02 -0.22142672123E-02 -0.89475522075E-03  0.48271516500E-02  0.51100000000E-03 0. -1.
         11    1    4    4    0    0  0.11648858822E+00  0.37602158775E-01  0.19980037750E-01  0.12402812810E+00  0.51100000000E-03 0.  1.
</event>
<event>
 8    1  0.1104109E+005  0.1043930E+01  0.7957747E-01            NaN
         13   -1    0    0    0    0  0.00000000000E+00  0.00000000000E+00  0.74505805969E-08  0.10566000000E+00  0.10566000000E+00 0. -1.
     999900   -1    0    0    0    0 -0.00000000000E+00 -0.00000000000E+00 -0.74505805969E-08  0.93827000000E+00  0.93827000000E+00 0. -1.
     999902    2    1    2    0    0  0.13331693458E-01 -0.38877710515E-02 -0.18383220609E-01  0.10208910848E+01  0.10206310868E+01 0.  0.
     999903    2    3    3    0    0 -0.92047579960E-01 -0.89043128137E-01  0.98941585331E-02  0.13007357470E+00  0.20489139009E-01 0.  0.
         14    1    1    2    0    0 -0.13331693458E-01  0.38877710515E-02  0.18383220609E-01  0.23038915212E-01  0.00000000000E+00 0. -1.
     999901    1    3    3    0    0  0.10537927342E+00  0.85155357085E-01 -0.28277379142E-01  0.89081751009E+00  0.88000000000E+00 0.  1.
        -11    1    4    4    0    0 -0.47233955508E-01 -0.32221803338E-01  0.74565548419E-02  0.57664135252E-01  0.51100000000E-03 0. -1.
         11    1    4    4    0    0 -0.44813624452E-01 -0.56821324799E-01  0.24376036912E-02  0.72409439448E-01  0.51100000000E-03 0.  1.
</event>
<event>
 8    1  0.1104109E+005  0.1043930E+01  0.7957747E-01            NaN
         13   -1    0    0    0    0  0.00000000000E+00  0.00000000000E+00  0.74505805969E-08  0.10566000000E+00  0.10566000000E+00 0. -1.
     999900   -1    0    0    0    0 -0.00000000000E+00 -0.00000000000E+00 -0.74505805969E-08  0.93827000000E+00  0.93827000000E+00 0. -1.
     999902    2    1    2    0    0  0.36391651902E-02  0.14119854127E-01 -0.18945139269E-01  0.10200232623E+01  0.10197430674E+01 0.  0.
     999903    2    3    3    0    0 -0.46729669536E-01 -0.22316874231E-01  0.11504949498E+00  0.12771209649E+00  0.19806271833E-01 0.  0.
         14    1    1    2    0    0 -0.36391651902E-02 -0.14119854127E-01  0.18945139269E-01  0.23906737664E-01  0.00000000000E+00 0. -1.
     999901    1    3    3    0    0  0.50368834726E-01  0.36436728358E-01 -0.13399463425E+00  0.89231116585E+00  0.88000000000E+00 0. -1.
        -11    1    4    4    0    0 -0.21090447033E-01 -0.88150545759E-02  0.74079666426E-01  0.77527867519E-01  0.51100000000E-03 0.  1.
         11    1    4    4    0    0 -0.25639222503E-01 -0.13501819655E-01  0.40969828556E-01  0.50184228971E-01  0.51100000000E-03 0. -1.
</event>
<event>
 8    1  0.1104109E+005  0.1043930E+01  0.7957747E-01            NaN
         13   -1    0    0    0    0  0.00000000000E+00  0.00000000000E+00  0.74505805969E-08  0.10566000000E+00  0.10566000000E+00 0. -1.
     999900   -1    0    0    0    0 -0.00000000000E+00 -0.00000000000E+00 -0.74505805969E-08  0.93827000000E+00  0.93827000000E+00 0.  1.
     999902    2    1    2    0    0 -0.67393362834E-02 -0.19019822033E-01 -0.11495035322E-01  0.10207069916E+01  0.10204427738E+01 0.  0.
     999903    2    3    3    0    0  0.64621710186E-01 -0.75039773781E-01  0.83343923006E-01  0.13097385069E+00  0.20025158854E-01 0.  0.
         14    1    1    2    0    0  0.67393362834E-02  0.19019822033E-01  0.11495035322E-01  0.23223008435E-01  0.00000000000E+00 0. -1.
     999901    1    3    3    0    0 -0.71361046470E-01  0.56019951748E-01 -0.94838958328E-01  0.88973314087E+00  0.88000000000E+00 0.  1.
        -11    1    4    4    0    0  0.58046167264E-01 -0.55111683046E-01  0.66039836354E-01  0.10376982340E+00  0.51100000000E-03 0.  1.
         11    1    4    4    0    0  0.65755429224E-02 -0.19928090735E-01  0.17304086652E-01  0.27204027293E-01  0.51100000000E-03 0. -1.
</event>
<event>
 8    1  0.1104109E+005  0.1043930E+01  0.7957747E-01            NaN
         13   -1    0    0    0    0  0.00000000000E+00  0.00000000000E+00  0.74505805969E-08  0.10566000000E+00  0.10566000000E+00 0.  1.
     999900   -1    0    0    0    0 -0.00000000000E+00 -0.00000000000E+00 -0.74505805969E-08  0.93827000000E+00  0.93827000000E+00 0.  1.
     999902    2    1    2    0    0 -0.12411134186E-01  0.12587452172E-02  0.25769786730E-01  0.10152995512E+01  0.10148957957E+01 0.  0.
     999903    2    3    3    0    0  0.47783509679E-01  0.30860015425E-01  0.11335407289E+00  0.12841137473E+00  0.20117926593E-01 0.  0.
         14    1    1    2    0    0  0.12411134186E-01 -0.12587452172E-02 -0.25769786730E-01  0.28630448817E-01  0.00000000000E+00 0. -1.
     999901    1    3    3    0    0 -0.60194643865E-01 -0.29601270208E-01 -0.87584286159E-01  0.88688817645E+00  0.88000000000E+00 0.  1.
        -11    1    4    4    0    0  0.34765953269E-01  0.16386724937E-01  0.56671041185E-01  0.68476742700E-01  0.51100000000E-03 0.  1.
         11    1    4    4    0    0  0.13017556410E-01  0.14473290489E-01  0.56683031705E-01  0.59934632031E-01  0.51100000000E-03 0. -1.
</event>
<event>
 8    1  0.1104109E+005  0.1043930E+01  0.7957747E-01            NaN
         13   -1    0    0    0    0  0.00000000000E+00  0.00000000000E+00  0.74505805969E-08  0.10566000000E+00  0.10566000000E+00 0. -1.
     999900   -1    0    0    0    0 -0.00000000000E+00 -0.00000000000E+00 -0.74505805969E-08  0.93827000000E+00  0.93827000000E+00 0. -1.
     999902    2    1    2    0    0  0.10441271391E-01 -0.15308811848E-01 -0.14373534399E-01  0.10204783826E+01  0.10202088761E+01 0.  0.
     999903    2    3    3    0    0  0.74327529365E-01  0.67103105978E-01  0.79323884779E-01  0.12938221240E+00  0.20495602810E-01 0.  0.
         14    1    1    2    0    0 -0.10441271391E-01  0.15308811848E-01  0.14373534399E-01  0.23451617419E-01  0.00000000000E+00 0. -1.
     999901    1    3    3    0    0 -0.63886257974E-01 -0.82411917827E-01 -0.93697419178E-01  0.89109617019E+00  0.88000000000E+00 0. -1.
        -11    1    4    4    0    0  0.28268202290E-01  0.29174462332E-01  0.20155918617E-01  0.45351545612E-01  0.51100000000E-03 0. -1.
         11    1    4    4    0    0  0.46059327075E-01  0.37928643646E-01  0.59167966161E-01  0.84030666784E-01  0.51100000000E-03 0.  1.
</event>
<event>
 8    1  0.1104109E+005  0.1043930E+01  0.7957747E-01            NaN
         13   -1    0    0    0    0  0.00000000000E+00  0.00000000000E+00  0.74505805969E-08  0.10566000000E+00  0.10566000000E+00 0. -1.
     999900   -1    0    0    0    0 -0.00000000000E+00 -0.00000000000E+00 -0.74505805969E-08  0.93827000000E+00  0.93827000000E+00 0.  1.
     999902    2    1    2    0    0  0.36303707930E-03 -0.68315949109E-02  0.25424194098E-01  0.10176014579E+01  0.10172607999E+01 0.  0.
     999903    2    3    3    0    0 -0.21259264638E-01 -0.10763540589E+00  0.67888252597E-01  0.13056587318E+00  0.20032360449E-01 0.  0.
         14    1    1    2    0    0 -0.36303707930E-03  0.68315949109E-02 -0.25424194098E-01  0.26328542126E-01  0.00000000000E+00 0.  1.
     999901    1    3    3    0    0  0.21622301717E-01  0.10080381098E+00 -0.42464058499E-01  0.88703558469E+00  0.88000000000E+00 0.  1.
        -11    1    4    4    0    0 -0.15109246424E-01 -0.59339242536E-01  0.48673043656E-01  0.78222511670E-01  0.51100000000E-03 0.  1.
         11    1    4    4    0    0 -0.61500182137E-02 -0.48296163356E-01  0.19215208942E-01  0.52343361515E-01  0.51100000000E-03 0. -1.
</event>
<event>
 8    1  0.1104109E+005  0.1043930E+01  0.7957747E-01            NaN
         13   -1    0    0    0    0  0.00000000000E+00  0.00000000000E+00  0.74505805969E-08  0.10566000000E+00  0.10566000000E+00 0.  1.
     999900   -1    0    0    0    0 -0.00000000000E+00 -0.00000000000E+00 -0.74505805969E-08  0.93827000000E+00  0.93827000000E+00 0.  1.
     999902    2    1    2    0    0  0.16403452795E-01 -0.23787114805E-02  0.16722297714E-01  0.10203850054E+01  0.10201133233E+01 0.  0.
     999903    2    3    3    0    0 -0.11587412928E+00 -0.32939450192E-01  0.43568925029E-01  0.12956961546E+00  0.19447694179E-01 0.  0.
         14    1    1    2    0    0 -0.16403452795E-01  0.23787114805E-02 -0.16722297714E-01  0.23544994643E-01  0.00000000000E+00 0. -1.
     999901    1    3    3    0    0  0.13227758207E+00  0.30560738711E-01 -0.26846627315E-01  0.89081538989E+00  0.88000000000E+00 0.  1.
        -11    1    4    4    0    0 -0.25595657052E-01 -0.14681757905E-01  0.61182514703E-02  0.30139439231E-01  0.51100000000E-03 0. -1.
         11    1    4    4    0    0 -0.90278472225E-01 -0.18257692287E-01  0.37450673558E-01  0.99430176234E-01  0.51100000000E-03 0.  1.
</event>
<event>
 8    1  0.1104109E+005  0.1043930E+01  0.7957747E-01            NaN
         13   -1    0    0    0    0  0.00000000000E+00  0.00000000000E+00  0.74505805969E-08  0.10566000000E+00  0.10566000000E+00 0.  1.
     999900   -1    0    0    0    0 -0.00000000000E+00 -0.00000000000E+00 -0.74505805969E-08  0.93827000000E+00  0.93827000000E+00 0. -1.
     999902    2    1    2    0    0 -0.99366013881E-02 -0.23237938451E-01  0.12368591155E-02  0.10186264894E+01  0.10183121610E+01 0.  0.
     999903    2    3    3    0    0  0.27378698483E-01 -0.10306301995E-01  0.12418322910E+00  0.12920225496E+00  0.20394492079E-01 0.  0.
         14    1    1    2    0    0  0.99366013881E-02  0.23237938451E-01 -0.12368591155E-02  0.25303510647E-01  0.00000000000E+00 0. -1.
     999901    1    3    3    0    0 -0.37315299871E-01 -0.12931636456E-01 -0.12294636998E+00  0.88942423439E+00  0.88000000000E+00 0. -1.
        -11    1    4    4    0    0  0.22937520963E-01 -0.79144376260E-02  0.58650677665E-01  0.63473863144E-01  0.51100000000E-03 0. -1.
         11    1    4    4    0    0  0.44411775200E-02 -0.23918643687E-02  0.65532551433E-01  0.65728391820E-01  0.51100000000E-03 0.  1.
</event>
<event>
 8    1  0.1104109E+005  0.1043930E+01  0.7957747E-01            NaN
         13   -1    0    0    0    0  0.00000000000E+00  0.00000000000E+00  0.74505805969E-08  0.10566000000E+00  0.10566000000E+00 0. -1.
     999900   -1    0    0    0    0 -0.00000000000E+00 -0.00000000000E+00 -0.74505805969E-08  0.93827000000E+00  0.93827000000E+00 0. -1.
     999902    2    1    2    0    0 -0.29468793556E-01  0.17092976432E-02  0.94867060885E-02  0.10129246926E+01  0.10124500501E+01 0.  0.
     999903    2    3    3    0    0 -0.36837194617E-02 -0.71798757804E-01  0.99752952216E-01  0.12488398442E+00  0.21834071498E-01 0.  0.
         14    1    1    2    0    0  0.29468793556E-01 -0.17092976432E-02 -0.94867060885E-02  0.31005307360E-01  0.00000000000E+00 0.  1.
     999901    1    3    3    0    0 -0.25785074094E-01  0.73508055447E-01 -0.90266246128E-01  0.88804070822E+00  0.88000000000E+00 0. -1.
        -11    1    4    4    0    0 -0.10159911184E-01 -0.41883052343E-01  0.69931498773E-01  0.82146755934E-01  0.51100000000E-03 0.  1.
         11    1    4    4    0    0  0.64761917219E-02 -0.29915705461E-01  0.29821453443E-01  0.42737228489E-01  0.51100000000E-03 0. -1.
</event>
<event>
 8    1  0.1104109E+005  0.1043930E+01  0.7957747E-01            NaN
         13   -1    0    0    0    0  0.00000000000E+00  0.00000000000E+00  0.74505805969E-08  0.10566000000E+00  0.10566000000E+00 0. -1.
     999900   -1    0    0    0    0 -0.00000000000E+00 -0.00000000000E+00 -0.74505805969E-08  0.93827000000E+00  0.93827000000E+00 0. -1.
     999902    2    1    2    0    0 -0.17939565211E-01 -0.15092137723E-02 -0.14580788326E-01  0.10207631030E+01  0.10205001751E+01 0.  0.
     999903    2    3    3    0    0  0.75081709772E-01  0.10345228450E+00  0.41409489046E-02  0.12946047365E+00  0.20080549536E-01 0.  0.
         14    1    1    2    0    0  0.17939565211E-01  0.15092137723E-02  0.14580788326E-01  0.23166896952E-01  0.00000000000E+00 0. -1.
     999901    1    3    3    0    0 -0.93021274983E-01 -0.10496149828E+00 -0.18721737231E-01  0.89130262939E+00  0.88000000000E+00 0. -1.
        -11    1    4    4    0    0  0.43071013231E-01  0.71084316254E-01  0.93345563682E-02  0.83639029536E-01  0.51100000000E-03 0.  1.
         11    1    4    4    0    0  0.32010696541E-01  0.32367968249E-01 -0.51936074637E-02  0.45821444118E-01  0.51100000000E-03 0. -1.
</event>
<event>
 7    1  0.1104109E+005  0.1043930E+01  0.7957747E-01            NaN
         13   -1    0    0    0    0  0.00000000000E+00  0.00000000000E+00  0.74505805969E-08  0.10566000000E+00  0.10566000000E+00 0.  1.
     999900   -1    0    0    0    0 -0.00000000000E+00 -0.00000000000E+00 -0.74505805969E-08  0.93827000000E+00  0.93827000000E+00 0. -1.
     999903    2    1    2    0    0  0.10796561617E-01 -0.51801869420E-01 -0.51908631271E-01  0.76426153602E-01  0.18613208637E-01 0.  0.
         14    1    1    2    0    0 -0.17335787586E-01 -0.41808601646E-01 -0.60336142838E-01  0.75425054428E-01  0.00000000000E+00 0. -1.
     999901    1    1    2    0    0  0.65392259690E-02  0.93610471065E-01  0.11224477411E+00  0.89207879197E+00  0.88000000000E+00 0.  1.
        -11    1    3    3    0    0 -0.62232570151E-03 -0.14993986883E-01 -0.52485811812E-02  0.15906465897E-01  0.51100000000E-03 0.  1.
         11    1    3    3    0    0  0.11418887318E-01 -0.36807882537E-01 -0.46660050090E-01  0.60519687705E-01  0.51100000000E-03 0. -1.
</event>
<event>
 8    1  0.1104109E+005  0.1043930E+01  0.7957747E-01            NaN
         13   -1    0    0    0    0  0.00000000000E+00  0.00000000000E+00  0.74505805969E-08  0.10566000000E+00  0.10566000000E+00 0. -1.
     999900   -1    0    0    0    0 -0.00000000000E+00 -0.00000000000E+00 -0.74505805969E-08  0.93827000000E+00  0.93827000000E+00 0.  1.
     999902    2    1    2    0    0  0.14630402292E-01  0.91871600177E-02 -0.16288843240E-01  0.10201859693E+01  0.10199096200E+01 0.  0.
     999903    2    3    3    0    0 -0.97219158334E-01 -0.64564818448E-01  0.48138565706E-01  0.12771716335E+00  0.19343520323E-01 0.  0.
         14    1    1    2    0    0 -0.14630402292E-01 -0.91871600177E-02  0.16288843240E-01  0.23744030713E-01  0.00000000000E+00 0. -1.
     999901    1    3    3    0    0  0.11184956063E+00  0.73751978466E-01 -0.64427408946E-01  0.89246880593E+00  0.88000000000E+00 0.  1.
        -11    1    4    4    0    0 -0.24574341110E-01 -0.26131178329E-01  0.18376276651E-01  0.40307386251E-01  0.51100000000E-03 0.  1.
         11    1    4    4    0    0 -0.72644817225E-01 -0.38433640119E-01  0.29762289056E-01  0.87409777103E-01  0.51100000000E-03 0. -1.
</event>
<event>
 8    1  0.1104109E+005  0.1043930E+01  0.7957747E-01            NaN
         13   -1    0    0    0    0  0.00000000000E+00  0.00000000000E+00  0.74505805969E-08  0.10566000000E+00  0.10566000000E+00 0. -1.
     999900   -1    0    0    0    0 -0.00000000000E+00 -0.00000000000E+00 -0.74505805969E-08  0.93827000000E+00  0.93827000000E+00 0.  1.
     999902    2    1    2    0    0  0.82876546444E-02  0.12514209944E-01 -0.21637044297E-01  0.10175965164E+01  0.10172557289E+01 0.  0.
     999903    2    3    3    0    0  0.10014982013E+00 -0.72636710256E-01  0.23565812829E-01  0.12757818240E+00  0.20365827753E-01 0.  0.
         14    1    1    2    0    0 -0.82876546444E-02 -0.12514209944E-01  0.21637044297E-01  0.26333483551E-01  0.00000000000E+00 0. -1.
     999901    1    3    3    0    0 -0.91862165486E-01  0.85150920200E-01 -0.45202857126E-01  0.89001833405E+00  0.88000000000E+00 0.  1.
        -11    1    4    4    0    0  0.85257126546E-02 -0.89861001371E-02  0.84288506016E-02  0.14991478093E-01  0.51100000000E-03 0. -1.
         11    1    4    4    0    0  0.91624107476E-01 -0.63650610119E-01  0.15136962228E-01  0.11258670430E+00  0.51100000000E-03 0.  1.
</event>
<event>
 8    1  0.1104109E+005  0.1043930E+01  0.7957747E-01            NaN
         13   -1    0    0    0    0  0.00000000000E+00  0.00000000000E+00  0.74505805969E-08  0.10566000000E+00  0.10566000000E+00 0.  1.
     999900   -1    0    0    0    0 -0.00000000000E+00 -0.00000000000E+00 -0.74505805969E-08  0.93827000000E+00  0.93827000000E+00 0. -1.
     999902    2    1    2    0    0 -0.20583091847E-01  0.72172723491E-02 -0.39750531270E-02  0.10217589888E+01  0.10215184176E+01 0.  0.
     999903    2    3    3    0    0  0.59418531538E-02 -0.12209296094E+00  0.42559903487E-01  0.13069770509E+00  0.18125893105E-01 0.  0.
         14    1    1    2    0    0  0.20583091847E-01 -0.72172723491E-02  0.39750531270E-02  0.22171011197E-01  0.00000000000E+00 0.  1.
     999901    1    3    3    0    0 -0.26524945001E-01  0.12931023329E+00 -0.46534956614E-01  0.89106128371E+00  0.88000000000E+00 0. -1.
        -11    1    4    4    0    0  0.25829281826E-02 -0.53462093732E-01  0.91953773308E-02  0.54310984795E-01  0.51100000000E-03 0.  1.
         11    1    4    4    0    0  0.33589249712E-02 -0.68630867211E-01  0.33364526156E-01  0.76386720297E-01  0.51100000000E-03 0. -1.
</event>
<event>
 8    1  0.1104109E+005  0.1043930E+01  0.7957747E-01            NaN
         13   -1    0    0    0    0  0.00000000000E+00  0.00000000000E+00  0.74505805969E-08  0.10566000000E+00  0.10566000000E+00 0.  1.
     999900   -1    0    0    0    0 -0.00000000000E+00 -0.00000000000E+00 -0.74505805969E-08  0.93827000000E+00  0.93827000000E+00 0. -1.
     999902    2    1    2    0    0 -0.76455316563E-02  0.49740907020E-02  0.22016594225E-01  0.10200987987E+01  0.10198203925E+01 0.  0.
     999903    2    3    3    0    0 -0.33665959932E-02  0.78573943239E-01  0.10564448148E+00  0.13306505016E+00  0.18982954998E-01 0.  0.
         14    1    1    2    0    0  0.76455316563E-02 -0.49740907020E-02 -0.22016594225E-01  0.23831201269E-01  0.00000000000E+00 0. -1.
     999901    1    3    3    0    0 -0.42789356631E-02 -0.73599852537E-01 -0.83627887258E-01  0.88703374858E+00  0.88000000000E+00 0. -1.
        -11    1    4    4    0    0 -0.60023919712E-02  0.41974587157E-01  0.42535332447E-01  0.60061720786E-01  0.51100000000E-03 0. -1.
         11    1    4    4    0    0  0.26357959780E-02  0.36599356082E-01  0.63109149036E-01  0.73003329370E-01  0.51100000000E-03 0.  1.
</event>
<event>
 8    1  0.1104109E+005  0.1043930E+01  0.7957747E-01            NaN
         13   -1    0    0    0    0  0.00000000000E+00  0.00000000000E+00  0.74505805969E-08  0.10566000000E+00  0.10566000000E+00 0. -1.
     999900   -1    0    0    0    0 -0.00000000000E+00 -0.00000000000E+00 -0.74505805969E-08  0.93827000000E+00  0.93827000000E+00 0.  1.
     999902    2    1    2    0    0  0.33019621947E-02  0.20870548495E-01 -0.37875835481E-02  0.10224630827E+01  0.10222377057E+01 0.  0.
     999903    2    3    3    0    0 -0.11904373417E+00 -0.18040150592E-01  0.49339902766E-01  0.13156183020E+00  0.19422447872E-01 0.  0.
         14    1    1    2    0    0 -0.33019621947E-02 -0.20870548495E-01  0.37875835481E-02  0.21466917290E-01  0.00000000000E+00 0. -1.
     999901    1    3    3    0    0  0.12234569637E+00  0.38910699087E-01 -0.53127486315E-01  0.89090125251E+00  0.88000000000E+00 0.  1.
        -11    1    4    4    0    0 -0.10821317571E-01 -0.70363101591E-02  0.79732822176E-02  0.15180412542E-01  0.51100000000E-03 0.  1.
         11    1    4    4    0    0 -0.10822241660E+00 -0.11003840433E-01  0.41366620549E-01  0.11638141766E+00  0.51100000000E-03 0. -1.
</event>
<event>
 8    1  0.1104109E+005  0.1043930E+01  0.7957747E-01            NaN
         13   -1    0    0    0    0  0.00000000000E+00  0.00000000000E+00  0.74505805969E-08  0.10566000000E+00  0.10566000000E+00 0.  1.
     999900   -1    0    0    0    0 -0.00000000000E+00 -0.00000000000E+00 -0.74505805969E-08  0.93827000000E+00  0.93827000000E+00 0.  1.
     999902    2    1    2    0    0  0.20867485878E-01  0.43989111261E-02  0.10326419056E-01  0.10202353315E+01  0.10199601435E+01 0.  0.
     999903    2    3    3    0    0  0.78948787373E-01  0.10187800236E+00  0.25001094055E-01  0.13282845924E+00  0.20157045607E-01 0.  0.
         14    1    1    2    0    0 -0.20867485878E-01 -0.43989111261E-02 -0.10326419056E-01  0.23694668525E-01  0.00000000000E+00 0. -1.
     999901    1    3    3    0    0 -0.58081301495E-01 -0.97479091229E-01 -0.14674674999E-01  0.88740687224E+00  0.88000000000E+00 0. -1.
        -11    1    4    4    0    0  0.54475419295E-01  0.77678698081E-01  0.10427121996E-01  0.95449135339E-01  0.51100000000E-03 0. -1.
         11    1    4    4    0    0  0.24473368078E-01  0.24199304275E-01  0.14573972058E-01  0.37379323898E-01  0.51100000000E-03 0.  1.
</event>
<event>
 8    1  0.1104109E+005  0.1043930E+01  0.7957747E-01            NaN
         13   -1    0    0    0    0  0.00000000000E+00  0.00000000000E+00  0.74505805969E-08  0.10566000000E+00  0.10566000000E+00 0. -1.
     999900   -1    0    0    0    0 -0.00000000000E+00 -0.00000000000E+00 -0.74505805969E-08  0.93827000000E+00  0.93827000000E+00 0. -1.
     999902    2    1    2    0    0  0.20497905673E-01  0.13467353836E-01 -0.45410446143E-02  0.10189869681E+01  0.10186816413E+01 0.  0.
     999903    2    3    3    0    0 -0.11174155592E+00 -0.47825661838E-01 -0.29123326499E-01  0.12665945108E+00  0.20517776482E-01 0.  0.
         14    1    1    2    0    0 -0.20497905673E-01 -0.13467353836E-01  0.45410446143E-02  0.24943031944E-01  0.00000000000E+00 0.  1.
     999901    1    3    3    0    0  0.13223946159E+00  0.61293015675E-01  0.24582281885E-01  0.89232751698E+00  0.88000000000E+00 0.  1.
        -11    1    4    4    0    0 -0.60182714695E-01 -0.14726249515E-01 -0.13148264210E-01  0.63340031146E-01  0.51100000000E-03 0. -1.
         11    1    4    4    0    0 -0.51558841224E-01 -0.33099412323E-01 -0.15975062290E-01  0.63319419933E-01  0.51100000000E-03 0.  1.
</event>
<event>
 8    1  0.1104109E+005  0.1043930E+01  0.7957747E-01            NaN
         13   -1    0    0    0    0  0.00000000000E+00  0.00000000000E+00  0.74505805969E-08  0.10566000000E+00  0.10566000000E+00 0. -1.
     999900   -1    0    0    0    0 -0.00000000000E+00 -0.00000000000E+00 -0.74505805969E-08  0.93827000000E+00  0.93827000000E+00 0.  1.
     999902    2    1    2    0    0 -0.17787360338E-01 -0.10312346940E-02  0.15343850773E-01  0.10204164424E+01  0.10201454938E+01 0.  0.
     999903    2    3    3    0    0 -0.49412349930E-01 -0.52738868538E-02 -0.11817337614E+00  0.12977342195E+00  0.20169283745E-01 0.  0.
         14    1    1    2    0    0  0.17787360338E-01  0.10312346940E-02 -0.15343850773E-01  0.23513557564E-01  0.00000000000E+00 0. -1.
     999901    1    3    3    0    0  0.31624989592E-01  0.42426521598E-02  0.13351722691E+00  0.89064302049E+00  0.88000000000E+00 0. -1.
        -11    1    4    4    0    0 -0.28864594285E-01  0.35126704110E-02 -0.47969302602E-01  0.56096512991E-01  0.51100000000E-03 0.  1.
         11    1    4    4    0    0 -0.20547755645E-01 -0.87865572648E-02 -0.70204073539E-01  0.73676908955E-01  0.51100000000E-03 0. -1.
</event>
<event>
 8    1  0.1104109E+005  0.1043930E+01  0.7957747E-01            NaN
         13   -1    0    0    0    0  0.00000000000E+00  0.00000000000E+00  0.74505805969E-08  0.10566000000E+00  0.10566000000E+00 0. -1.
     999900   -1    0    0    0    0 -0.00000000000E+00 -0.00000000000E+00 -0.74505805969E-08  0.93827000000E+00  0.93827000000E+00 0. -1.
     999902    2    1    2    0    0 -0.16222987369E-01  0.13274329838E-01  0.10620501137E-01  0.10204313150E+01  0.10201607131E+01 0.  0.
     999903    2    3    3    0    0  0.74404501962E-01  0.10363909625E+00  0.18451659674E-01  0.13113920334E+00  0.24081833920E-01 0.  0.
         14    1    1    2    0    0  0.16222987369E-01 -0.13274329838E-01 -0.10620501137E-01  0.23498684989E-01  0.00000000000E+00 0.  1.
     999901    1    3    3    0    0 -0.90627489331E-01 -0.90364766412E-01 -0.78311585372E-02  0.88929211167E+00  0.88000000000E+00 0. -1.
        -11    1    4    4    0    0  0.42468387861E-01  0.44495178800E-01  0.17355330061E-01  0.63912858694E-01  0.51100000000E-03 0. -1.
         11    1    4    4    0    0  0.31936114101E-01  0.59143917450E-01  0.10963296137E-02  0.67226344648E-01  0.51100000000E-03 0.  1.
</event>
<event>
 8    1  0.1104109E+005  0.1043930E+01  0.7957747E-01            NaN
         13   -1    0    0    0    0  0.00000000000E+00  0.00000000000E+00  0.74505805969E-08  0.10566000000E+00  0.10566000000E+00 0. -1.
     999900   -1    0    0    0    0 -0.00000000000E+00 -0.00000000000E+00 -0.74505805969E-08  0.93827000000E+00  0.93827000000E+00 0.  1.
     999902    2    1    2    0    0  0.11373529687E-01 -0.19044022143E-01  0.38814806452E-02  0.10214111668E+01  0.10211629027E+01 0.  0.
     999903    2    3    3    0    0  0.62955190069E-01  0.14368095476E-01 -0.11290740649E+00  0.13157034876E+00  0.19821102571E-01 0.  0.
         14    1    1    2    0    0 -0.11373529687E-01  0.19044022143E-01 -0.38814806452E-02  0.22518833205E-01  0.00000000000E+00 0. -1.
     999901    1    3    3    0    0 -0.51581660382E-01 -0.33412117618E-01  0.11678888713E+00  0.88984081804E+00  0.88000000000E+00 0. -1.
        -11    1    4    4    0    0  0.13511058840E-01  0.10390456172E-01 -0.38925171692E-01  0.42496357523E-01  0.51100000000E-03 0. -1.
         11    1    4    4    0    0  0.49444131230E-01  0.39776393037E-02 -0.73982234798E-01  0.89073991233E-01  0.51100000000E-03 0.  1.
</event>
<event>
 8    1  0.1104109E+005  0.1043930E+01  0.7957747E-01            NaN
         13   -1    0    0    0    0  0.00000000000E+00  0.00000000000E+00  0.74505805969E-08  0.10566000000E+00  0.10566000000E+00 0.  1.
     999900   -1    0    0    0    0 -0.00000000000E+00 -0.00000000000E+00 -0.74505805969E-08  0.93827000000E+00  0.93827000000E+00 0.  1.
     999902    2    1    2    0    0  0.18920463203E-01  0.13070153986E-01 -0.53010348373E-02  0.10203309783E+01  0.10200580334E+01 0.  0.
     999903    2    3    3    0    0 -0.10648317558E+00  0.18892119091E-01  0.66698349444E-01  0.12851043628E+00  0.19253144407E-01 0.  0.
         14    1    1    2    0    0 -0.18920463203E-01 -0.13070153986E-01  0.53010348373E-02  0.23599021661E-01  0.00000000000E+00 0. -1.
     999901    1    3    3    0    0  0.12540363878E+00 -0.58219651055E-02 -0.71999384281E-01  0.89182054206E+00  0.88000000000E+00 0.  1.
        -11    1    4    4    0    0 -0.69632143801E-01  0.89849408225E-02  0.52977334008E-01  0.87955805104E-01  0.51100000000E-03 0.  1.
         11    1    4    4    0    0 -0.36851031778E-01  0.99071782689E-02  0.13721015436E-01  0.40554631178E-01  0.51100000000E-03 0. -1.
</event>
<event>
 8    1  0.1104109E+005  0.1043930E+01  0.7957747E-01            NaN
         13   -1    0    0    0    0  0.00000000000E+00  0.00000000000E+00  0.74505805969E-08  0.10566000000E+00  0.10566000000E+00 0.  1.
     999900   -1    0    0    0    0 -0.00000000000E+00 -0.00000000000E+00 -0.74505805969E-08  0.93827000000E+00  0.93827000000E+00 0. -1.
     999902    2    1    2    0    0  0.39037014969E-02 -0.24442916525E-01 -0.26948114191E-02  0.10190310630E+01  0.10187268281E+01 0.  0.
     999903    2    3    3    0    0  0.57633469006E-01  0.41388295679E-01  0.10500446826E+00  0.12840220023E+00  0.20653786573E-01 0.  0.
         14    1    1    2    0    0 -0.39037014969E-02  0.24442916525E-01  0.26948114191E-02  0.24898936969E-01  0.00000000000E+00 0.  1.
     999901    1    3    3    0    0 -0.53729767510E-01 -0.65831212204E-01 -0.10769927968E+00  0.89062886280E+00  0.88000000000E+00 0. -1.
        -11    1    4    4    0    0  0.67470694781E-02  0.13924744831E-01  0.16015598531E-01  0.22275142703E-01  0.51100000000E-03 0.  1.
         11    1    4    4    0    0  0.50886399528E-01  0.27463550849E-01  0.88988869727E-01  0.10612705752E+00  0.51100000000E-03 0. -1.
</event>
<event>
 8    1  0.1104109E+005  0.1043930E+01  0.7957747E-01            NaN
         13   -1    0    0    0    0  0.00000000000E+00  0.00000000000E+00  0.74505805969E-08  0.10566000000E+00  0.10566000000E+00 0.  1.
     999900   -1    0    0    0    0 -0.00000000000E+00 -0.00000000000E+00 -0.74505805969E-08  0.93827000000E+00  0.93827000000E+00 0.  1.
     999902    2    1    2    0    0 -0.29903534672E-02 -0.10863851980E-01  0.24182807774E-01  0.10172509130E+01  0.10169010012E+01 0.  0.
     999903    2    3    3    0    0 -0.11702978399E+00 -0.64685061988E-02 -0.45445450739E-01  0.12715406139E+00  0.19106397438E-01 0.  0.
         14    1    1    2    0    0  0.29903534672E-02  0.10863851980E-01 -0.24182807774E-01  0.26679087045E-01  0.00000000000E+00 0. -1.
     999901    1    3    3    0    0  0.11403943052E+00 -0.43953457815E-02  0.69628258512E-01  0.89009685156E+00  0.88000000000E+00 0. -1.
        -11    1    4    4    0    0 -0.52320017433E-01 -0.15579705929E-02 -0.30407723073E-01  0.60536784190E-01  0.51100000000E-03 0.  1.
         11    1    4    4    0    0 -0.64709766556E-01 -0.49105356059E-02 -0.15037727665E-01  0.66617277203E-01  0.51100000000E-03 0. -1.
</event>
<event>
 8    1  0.1104109E+005  0.1043930E+01  0.7957747E-01            NaN
         13   -1    0    0    0    0  0.00000000000E+00  0.00000000000E+00  0.74505805969E-08  0.10566000000E+00  0.10566000000E+00 0.  1.
     999900   -1    0    0    0    0 -0.00000000000E+00 -0.00000000000E+00 -0.74505805969E-08  0.93827000000E+00  0.93827000000E+00 0. -1.
     999902    2    1    2    0    0  0.82882117874E-02  0.20395581273E-01 -0.87328912200E-02  0.10202458792E+01  0.10199709390E+01 0.  0.
     999903    2    3    3    0    0 -0.50583319933E-02 -0.78037559905E-01  0.99364368416E-01  0.12808432931E+00  0.20417400097E-01 0.  0.
         14    1    1    2    0    0 -0.82882117874E-02 -0.20395581273E-01  0.87328912200E-02  0.23684120823E-01  0.00000000000E+00 0.  1.
     999901    1    3    3    0    0  0.13346543781E-01  0.98433141178E-01 -0.10809725964E+00  0.89216154986E+00  0.88000000000E+00 0. -1.
        -11    1    4    4    0    0 -0.28769835942E-02 -0.51345072548E-01  0.48970895274E-01  0.71014105743E-01  0.51100000000E-03 0. -1.
         11    1    4    4    0    0 -0.21813483991E-02 -0.26692487357E-01  0.50393473142E-01  0.57070223571E-01  0.51100000000E-03 0.  1.
</event>
<event>
 8    1  0.1104109E+005  0.1043930E+01  0.7957747E-01            NaN
         13   -1    0    0    0    0  0.00000000000E+00  0.00000000000E+00  0.74505805969E-08  0.10566000000E+00  0.10566000000E+00 0. -1.
     999900   -1    0    0    0    0 -0.00000000000E+00 -0.00000000000E+00 -0.74505805969E-08  0.93827000000E+00  0.93827000000E+00 0.  1.
     999902    2    1    2    0    0 -0.10928381126E-01  0.14664152486E-01 -0.15815368615E-01  0.10197516467E+01  0.10194649716E+01 0.  0.
     999903    2    3    3    0    0  0.69495751910E-01 -0.32122104980E-01  0.99777287929E-01  0.12732873280E+00  0.19889943422E-01 0.  0.
         14    1    1    2    0    0  0.10928381126E-01 -0.14664152486E-01  0.15815368615E-01  0.24178353264E-01  0.00000000000E+00 0. -1.
     999901    1    3    3    0    0 -0.80424133036E-01  0.46786257466E-01 -0.11559265654E+00  0.89242291393E+00  0.88000000000E+00 0.  1.
        -11    1    4    4    0    0  0.93325985576E-02 -0.11965559601E-01  0.25095573041E-01  0.29331227722E-01  0.51100000000E-03 0.  1.
         11    1    4    4    0    0  0.60163153352E-01 -0.20156545379E-01  0.74681714888E-01  0.97997505083E-01  0.51100000000E-03 0. -1.
</event>
<event>
 8    1  0.1104109E+005  0.1043930E+01  0.7957747E-01            NaN
         13   -1    0    0    0    0  0.00000000000E+00  0.00000000000E+00  0.74505805969E-08  0.10566000000E+00  0.10566000000E+00 0. -1.
     999900   -1    0    0    0    0 -0.00000000000E+00 -0.00000000000E+00 -0.74505805969E-08  0.93827000000E+00  0.93827000000E+00 0.  1.
     999902    2    1    2    0    0  0.58651425429E-02 -0.13230758792E-01 -0.17337828639E-01  0.10213456431E+01  0.10210959159E+01 0.  0.
     999903    2    3    3    0    0  0.51478971082E-01 -0.10691515730E+00 -0.59355704977E-01  0.13420253749E+00  0.20156538145E-01 0.  0.
         14    1    1    2    0    0 -0.58651425429E-02  0.13230758792E-01  0.17337828639E-01  0.22584356913E-01  0.00000000000E+00 0. -1.
     999901    1    3    3    0    0 -0.45613828539E-01  0.93684398512E-01  0.42017876338E-01  0.88714310560E+00  0.88000000000E+00 0. -1.
        -11    1    4    4    0    0  0.31901783436E-01 -0.83934078657E-01 -0.39726402763E-01  0.98189111127E-01  0.51100000000E-03 0.  1.
         11    1    4    4    0    0  0.19577187645E-01 -0.22981078647E-01 -0.19629302213E-01  0.36013426361E-01  0.51100000000E-03 0. -1.
</event>
<event>
 8    1  0.1104109E+005  0.1043930E+01  0.7957747E-01            NaN
         13   -1    0    0    0    0  0.00000000000E+00  0.00000000000E+00  0.74505805969E-08  0.10566000000E+00  0.10566000000E+00 0. -1.
     999900   -1    0    0    0    0 -0.00000000000E+00 -0.00000000000E+00 -0.74505805969E-08  0.93827000000E+00  0.93827000000E+00 0.  1.
     999902    2    1    2    0    0  0.12863785239E-02 -0.21844171261E-01 -0.74699276703E-02  0.10208080968E+01  0.10205462009E+01 0.  0.
     999903    2    3    3    0    0 -0.35789199782E-01 -0.10958263847E+00  0.62961987475E-01  0.13287043469E+00  0.20027957315E-01 0.  0.
         14    1    1    2    0    0 -0.12863785239E-02  0.21844171261E-01  0.74699276703E-02  0.23121903192E-01  0.00000000000E+00 0. -1.
     999901    1    3    3    0    0  0.37075578306E-01  0.87738467204E-01 -0.70431915145E-01  0.88793766212E+00  0.88000000000E+00 0.  1.
        -11    1    4    4    0    0 -0.92933192683E-02 -0.30292301903E-01  0.75646400135E-02  0.32580273743E-01  0.51100000000E-03 0.  1.
         11    1    4    4    0    0 -0.26495880513E-01 -0.79290336563E-01  0.55397347462E-01  0.10029016095E+00  0.51100000000E-03 0. -1.
</event>
<event>
 8    1  0.1104109E+005  0.1043930E+01  0.7957747E-01            NaN
         13   -1    0    0    0    0  0.00000000000E+00  0.00000000000E+00  0.74505805969E-08  0.10566000000E+00  0.10566000000E+00 0. -1.
     999900   -1    0    0    0    0 -0.00000000000E+00 -0.00000000000E+00 -0.74505805969E-08  0.93827000000E+00  0.93827000000E+00 0. -1.
     999902    2    1    2    0    0 -0.62260867038E-02 -0.22742366553E-01  0.78535267353E-02  0.10190772884E+01  0.10187741960E+01 0.  0.
     999903    2    3    3    0    0  0.60991090124E-01 -0.11203675564E+00 -0.25427800376E-01  0.13138405111E+00  0.18521559444E-01 0.  0.
         14    1    1    2    0    0  0.62260867038E-02  0.22742366553E-01 -0.78535267353E-02  0.24852711608E-01  0.00000000000E+00 0.  1.
     999901    1    3    3    0    0 -0.67217176828E-01  0.89294389091E-01  0.33281327111E-01  0.88769323728E+00  0.88000000000E+00 0.  1.
        -11    1    4    4    0    0  0.44136478471E-01 -0.71562861656E-01 -0.89970827039E-02  0.84560513943E-01  0.51100000000E-03 0.  1.
         11    1    4    4    0    0  0.16854611654E-01 -0.40473893988E-01 -0.16430717672E-01  0.46823537166E-01  0.51100000000E-03 0. -1.
</event>
<event>
 8    1  0.1104109E+005  0.1043930E+01  0.7957747E-01            NaN
         13   -1    0    0    0    0  0.00000000000E+00  0.00000000000E+00  0.74505805969E-08  0.10566000000E+00  0.10566000000E+00 0.  1.
     999900   -1    0    0    0    0 -0.00000000000E+00 -0.00000000000E+00 -0.74505805969E-08  0.93827000000E+00  0.93827000000E+00 0.  1.
     999902    2    1    2    0    0  0.53671740893E-02 -0.90308883373E-02  0.21917521010E-01  0.10196248312E+01  0.10193351045E+01 0.  0.
     999903    2    3    3    0    0  0.39032462589E-01 -0.10653822675E+00 -0.53977900335E-01  0.13035482292E+00  0.34710794256E-01 0.  0.
         14    1    1    2    0    0 -0.53671740893E-02  0.90308883373E-02 -0.21917521010E-01  0.24305168773E-01  0.00000000000E+00 0. -1.
     999901    1    3    3    0    0 -0.33665288500E-01  0.97507338417E-01  0.75895421345E-01  0.88927000831E+00  0.88000000000E+00 0. -1.
        -11    1    4    4    0    0  0.20644514138E-01 -0.16012985032E-01 -0.14629239485E-01  0.29948078778E-01  0.51100000000E-03 0.  1.
         11    1    4    4    0    0  0.18387948452E-01 -0.90525241723E-01 -0.39348660851E-01  0.10040674414E+00  0.51100000000E-03 0. -1.
</event>
<event>
 8    1  0.1104109E+005  0.1043930E+01  0.7957747E-01            NaN
         13   -1    0    0    0    0  0.00000000000E+00  0.00000000000E+00  0.74505805969E-08  0.10566000000E+00  0.10566000000E+00 0.  1.
     999900   -1    0    0    0    0 -0.00000000000E+00 -0.00000000000E+00 -0.74505805969E-08  0.93827000000E+00  0.93827000000E+00 0. -1.
     999902    2    1    2    0    0  0.43960838379E-02  0.16759191732E-01  0.14850399072E-01  0.10211104817E+01  0.10208554675E+01 0.  0.
     999903    2    3    3    0    0  0.58490246043E-03 -0.78914762655E-01  0.10314126667E+00  0.13152444996E+00  0.20800917541E-01 0.  0.
         14    1    1    2    0    0 -0.43960838379E-02 -0.16759191732E-01 -0.14850399072E-01  0.22819518251E-01  0.00000000000E+00 0. -1.
     999901    1    3    3    0    0  0.38111813775E-02  0.95673954388E-01 -0.88290867601E-01  0.88958603179E+00  0.88000000000E+00 0.  1.
        -11    1    4    4    0    0 -0.23114642450E-02 -0.29884848035E-01  0.55599534458E-01  0.63166576304E-01  0.51100000000E-03 0.  1.
         11    1    4    4    0    0  0.28963667055E-02 -0.49029914621E-01  0.47541732215E-01  0.68357873656E-01  0.51100000000E-03 0. -1.
</event>
<event>
 8    1  0.1104109E+005  0.1043930E+01  0.7957747E-01            NaN
         13   -1    0    0    0    0  0.00000000000E+00  0.00000000000E+00  0.74505805969E-08  0.10566000000E+00  0.10566000000E+00 0. -1.
     999900   -1    0    0    0    0 -0.00000000000E+00 -0.00000000000E+00 -0.74505805969E-08  0.93827000000E+00  0.93827000000E+00 0. -1.
     999902    2    1    2    0    0  0.19503338045E-01  0.90747759895E-02 -0.59140325562E-02  0.10216206402E+01  0.10213770239E+01 0.  0.
     999903    2    3    3    0    0 -0.77087126581E-01  0.50803735185E-01 -0.90749855361E-01  0.13130151722E+00  0.21934164744E-01 0.  0.
         14    1    1    2    0    0 -0.19503338045E-01 -0.90747759895E-02  0.59140325562E-02  0.22309359812E-01  0.00000000000E+00 0.  1.
     999901    1    3    3    0    0  0.96590464625E-01 -0.41728959196E-01  0.84835822804E-01  0.89031912297E+00  0.88000000000E+00 0.  1.
        -11    1    4    4    0    0 -0.61531929674E-01  0.34844047192E-01 -0.56869420750E-01  0.90745127315E-01  0.51100000000E-03 0.  1.
         11    1    4    4    0    0 -0.15555196907E-01  0.15959687993E-01 -0.33880434611E-01  0.40556389904E-01  0.51100000000E-03 0. -1.
</event>
<event>
 8    1  0.1104109E+005  0.1043930E+01  0.7957747E-01            NaN
         13   -1    0    0    0    0  0.00000000000E+00  0.00000000000E+00  0.74505805969E-08  0.10566000000E+00  0.10566000000E+00 0. -1.
     999900   -1    0    0    0    0 -0.00000000000E+00 -0.00000000000E+00 -0.74505805969E-08  0.93827000000E+00  0.93827000000E+00 0. -1.
     999902    2    1    2    0    0 -0.59070046191E-02  0.15197702998E-03  0.22630022019E-01  0.10205412485E+01  0.10202732017E+01 0.  0.
     999903    2    3    3    0    0 -0.44312612341E-01  0.70954740822E-01  0.10190395506E+00  0.13331389402E+00  0.19748301813E-01 0.  0.
         14    1    1    2    0    0  0.59070046191E-02 -0.15197702998E-03 -0.22630022019E-01  0.23388751510E-01  0.00000000000E+00 0.  1.
     999901    1    3    3    0    0  0.38405607721E-01 -0.70802763792E-01 -0.79273933037E-01  0.88722735447E+00  0.88000000000E+00 0. -1.
        -11    1    4    4    0    0 -0.34086222358E-01  0.48831851682E-01  0.58195640394E-01  0.83267124216E-01  0.51100000000E-03 0. -1.
         11    1    4    4    0    0 -0.10226389983E-01  0.22122889140E-01  0.43708314662E-01  0.50046769802E-01  0.51100000000E-03 0.  1.
</event>
<event>
 8    1  0.1104109E+005  0.1043930E+01  0.7957747E-01            NaN
         13   -1    0    0    0    0  0.00000000000E+00  0.00000000000E+00  0.74505805969E-08  0.10566000000E+00  0.10566000000E+00 0.  1.
     999900   -1    0    0    0    0 -0.00000000000E+00 -0.00000000000E+00 -0.74505805969E-08  0.93827000000E+00  0.93827000000E+00 0. -1.
     999902    2    1    2    0    0  0.15705829209E-01  0.37857061882E-02  0.18631257865E-01  0.10192697402E+01  0.10189713808E+01 0.  0.
     999903    2    3    3    0    0  0.34894241930E-01 -0.26860364184E-01 -0.11851824030E+00  0.12791270645E+00  0.19390716926E-01 0.  0.
         14    1    1    2    0    0 -0.15705829209E-01 -0.37857061882E-02 -0.18631257865E-01  0.24660259774E-01  0.00000000000E+00 0. -1.
     999901    1    3    3    0    0 -0.19188412721E-01  0.30646070373E-01  0.13714949817E+00  0.89135703377E+00  0.88000000000E+00 0.  1.
        -11    1    4    4    0    0  0.36315286179E-01 -0.23224286738E-01 -0.98648679959E-01  0.10765681903E+00  0.51100000000E-03 0. -1.
         11    1    4    4    0    0 -0.14210442494E-02 -0.36360774468E-02 -0.19869560346E-01  0.20255887423E-01  0.51100000000E-03 0.  1.
</event>
<event>
 8    1  0.1104109E+005  0.1043930E+01  0.7957747E-01            NaN
         13   -1    0    0    0    0  0.00000000000E+00  0.00000000000E+00  0.74505805969E-08  0.10566000000E+00  0.10566000000E+00 0. -1.
     999900   -1    0    0    0    0 -0.00000000000E+00 -0.00000000000E+00 -0.74505805969E-08  0.93827000000E+00  0.93827000000E+00 0. -1.
     999902    2    1    2    0    0  0.15888283150E-01  0.39728117193E-02 -0.14848703270E-01  0.10218233322E+01  0.10215841705E+01 0.  0.
     999903    2    3    3    0    0  0.67820427153E-01  0.11305294136E+00 -0.11434956580E-02  0.13346346421E+00  0.20751163975E-01 0.  0.
         14    1    1    2    0    0 -0.15888283150E-01 -0.39728117193E-02  0.14848703270E-01  0.22106667845E-01  0.00000000000E+00 0.  1.
     999901    1    3    3    0    0 -0.51932144003E-01 -0.10908012964E+00 -0.13705207612E-01  0.88835986795E+00  0.88000000000E+00 0.  1.
        -11    1    4    4    0    0  0.78854946366E-02  0.23254239800E-01  0.59363134147E-02  0.25267402564E-01  0.51100000000E-03 0. -1.
         11    1    4    4    0    0  0.59934932516E-01  0.89798701562E-01 -0.70798090726E-02  0.10819606164E+00  0.51100000000E-03 0.  1.
</event>
<event>
 8    1  0.1104109E+005  0.1043930E+01  0.7957747E-01            NaN
         13   -1    0    0    0    0  0.00000000000E+00  0.00000000000E+00  0.74505805969E-08  0.10566000000E+00  0.10566000000E+00 0. -1.
     999900   -1    0    0    0    0 -0.00000000000E+00 -0.00000000000E+00 -0.74505805969E-08  0.93827000000E+00  0.93827000000E+00 0.  1.
     999902    2    1    2    0    0  0.21518647749E-01  0.42662668644E-03 -0.65969875545E-02  0.10214187927E+01  0.10211706985E+01 0.  0.
     999903    2    3    3    0    0 -0.23424401914E-01 -0.68169433724E-01 -0.10801077525E+00  0.13180648746E+00  0.22601952761E-01 0.  0.
         14    1    1    2    0    0 -0.21518647749E-01 -0.42662668644E-03  0.65969875545E-02  0.22511207344E-01  0.00000000000E+00 0.  1.
     999901    1    3    3    0    0  0.44943049663E-01  0.68596060410E-01  0.10141378769E+00  0.88961230519E+00  0.88000000000E+00 0. -1.
        -11    1    4    4    0    0 -0.25351077543E-01 -0.40509333470E-01 -0.66889647219E-01  0.82208085106E-01  0.51100000000E-03 0. -1.
         11    1    4    4    0    0  0.19266756293E-02 -0.27660100254E-01 -0.41121128029E-01  0.49598402357E-01  0.51100000000E-03 0.  1.
</event>
<event>
 8    1  0.1104109E+005  0.1043930E+01  0.7957747E-01            NaN
         13   -1    0    0    0    0  0.00000000000E+00  0.00000000000E+00  0.74505805969E-08  0.10566000000E+00  0.10566000000E+00 0.  1.
     999900   -1    0    0    0    0 -0.00000000000E+00 -0.00000000000E+00 -0.74505805969E-08  0.93827000000E+00  0.93827000000E+00 0.  1.
     999902    2    1    2    0    0 -0.47282612418E-03 -0.22111788757E-01  0.72077302116E-02  0.10206683117E+01  0.10204032029E+01 0.  0.
     999903    2    3    3    0    0  0.59459029658E-01  0.11159567269E+00 -0.11056106746E-01  0.12836618782E+00  0.19148637213E-01 0.  0.
         14    1    1    2    0    0  0.47282612418E-03  0.22111788757E-01 -0.72077302116E-02  0.23261688275E-01  0.00000000000E+00 0. -1.
     999901    1    3    3    0    0 -0.59931855783E-01 -0.13370746145E+00  0.18263836958E-01  0.89230212391E+00  0.88000000000E+00 0.  1.
        -11    1    4    4    0    0  0.40506613597E-01  0.85630630170E-01 -0.11923977156E-02  0.94736864533E-01  0.51100000000E-03 0. -1.
         11    1    4    4    0    0  0.18952416062E-01  0.25965042525E-01 -0.98637090305E-02  0.33629323287E-01  0.51100000000E-03 0.  1.
</event>
<event>
 8    1  0.1104109E+005  0.1043930E+01  0.7957747E-01            NaN
         13   -1    0    0    0    0  0.00000000000E+00  0.00000000000E+00  0.74505805969E-08  0.10566000000E+00  0.10566000000E+00 0.  1.
     999900   -1    0    0    0    0 -0.00000000000E+00 -0.00000000000E+00 -0.74505805969E-08  0.93827000000E+00  0.93827000000E+00 0. -1.
     999902    2    1    2    0    0 -0.25881699069E-02 -0.75843697710E-02  0.22210107368E-01  0.10203183470E+01  0.10200451064E+01 0.  0.
     999903    2    3    3    0    0 -0.55137743871E-01  0.11302531707E+00  0.11567134395E-01  0.13047486235E+00  0.32787162282E-01 0.  0.
         14    1    1    2    0    0  0.25881699069E-02  0.75843697710E-02 -0.22210107368E-01  0.23611653004E-01  0.00000000000E+00 0. -1.
     999901    1    3    3    0    0  0.52549573964E-01 -0.12060968684E+00  0.10642972973E-01  0.88984348464E+00  0.88000000000E+00 0. -1.
        -11    1    4    4    0    0 -0.13095501619E-03  0.30432374607E-01 -0.96081048291E-03  0.30452107501E-01  0.51100000000E-03 0.  1.
         11    1    4    4    0    0 -0.55006788855E-01  0.82592942462E-01  0.12527944878E-01  0.10002275485E+00  0.51100000000E-03 0. -1.
</event>
<event>
 8    1  0.1104109E+005  0.1043930E+01  0.7957747E-01            NaN
         13   -1    0    0    0    0  0.00000000000E+00  0.00000000000E+00  0.74505805969E-08  0.10566000000E+00  0.10566000000E+00 0. -1.
     999900   -1    0    0    0    0 -0.00000000000E+00 -0.00000000000E+00 -0.74505805969E-08  0.93827000000E+00  0.93827000000E+00 0.  1.
     999902    2    1    2    0    0  0.20848034873E-01 -0.78533056505E-02 -0.11040409263E-01  0.10190662592E+01  0.10187628945E+01 0.  0.
     999903    2    3    3    0    0 -0.10453111757E-01  0.68493568367E-01  0.10525776152E+00  0.12758778419E+00  0.19970224387E-01 0.  0.
         14    1    1    2    0    0 -0.20848034873E-01  0.78533056505E-02  0.11040409263E-01  0.24863740756E-01  0.00000000000E+00 0. -1.
     999901    1    3    3    0    0  0.31301146630E-01 -0.76346874017E-01 -0.11629817078E+00  0.89147847505E+00  0.88000000000E+00 0.  1.
        -11    1    4    4    0    0 -0.85796669125E-02  0.51176699410E-01  0.92244776505E-01  0.10583961999E+00  0.51100000000E-03 0.  1.
         11    1    4    4    0    0 -0.18734448443E-02  0.17316868957E-01  0.13012985014E-01  0.21748164199E-01  0.51100000000E-03 0. -1.
</event>
<event>
 8    1  0.1104109E+005  0.1043930E+01  0.7957747E-01            NaN
         13   -1    0    0    0    0  0.00000000000E+00  0.00000000000E+00  0.74505805969E-08  0.10566000000E+00  0.10566000000E+00 0. -1.
     999900   -1    0    0    0    0 -0.00000000000E+00 -0.00000000000E+00 -0.74505805969E-08  0.93827000000E+00  0.93827000000E+00 0.  1.
     999902    2    1    2    0    0  0.15857775587E-01 -0.48107924819E-02 -0.16541496696E-01  0.10205156052E+01  0.10202469635E+01 0.  0.
     999903    2    3    3    0    0 -0.25135535895E-01  0.38859070693E-01  0.11784969725E+00  0.12830010346E+00  0.20749526882E-01 0.  0.
         14    1    1    2    0    0 -0.15857775587E-01  0.48107924819E-02  0.16541496696E-01  0.23414394799E-01  0.00000000000E+00 0. -1.
     999901    1    3    3    0    0  0.40993311482E-01 -0.43669863175E-01 -0.13439119395E+00  0.89221550174E+00  0.88000000000E+00 0.  1.
        -11    1    4    4    0    0 -0.14732630179E-01  0.63168907498E-02  0.46567002161E-01  0.49251399086E-01  0.51100000000E-03 0. -1.
         11    1    4    4    0    0 -0.10402905716E-01  0.32542179943E-01  0.71282695090E-01  0.79048704374E-01  0.51100000000E-03 0.  1.
</event>
<event>
 8    1  0.1104109E+005  0.1043930E+01  0.7957747E-01            NaN
         13   -1    0    0    0    0  0.00000000000E+00  0.00000000000E+00  0.74505805969E-08  0.10566000000E+00  0.10566000000E+00 0. -1.
     999900   -1    0    0    0    0 -0.00000000000E+00 -0.00000000000E+00 -0.74505805969E-08  0.93827000000E+00  0.93827000000E+00 0. -1.
     999902    2    1    2    0    0  0.17147036174E-01 -0.13716189327E-01  0.93834286989E-02  0.10200510672E+01  0.10197715314E+01 0.  0.
     999903    2    3    3    0    0 -0.18998049605E-01 -0.80076463763E-01  0.10125646355E+00  0.13204723396E+00  0.20259186799E-01 0.  0.
         14    1    1    2    0    0 -0.17147036174E-01  0.13716189327E-01 -0.93834286989E-02  0.23878932835E-01  0.00000000000E+00 0. -1.
     999901    1    3    3    0    0  0.36145085779E-01  0.66360274436E-01 -0.91873034848E-01  0.88800383320E+00  0.88000000000E+00 0. -1.
        -11    1    4    4    0    0  0.16800996651E-02 -0.36084135609E-01  0.44472318175E-01  0.57296909013E-01  0.51100000000E-03 0.  1.
         11    1    4    4    0    0 -0.20678149270E-01 -0.43992328154E-01  0.56784145371E-01  0.74750324950E-01  0.51100000000E-03 0. -1.
</event>
<event>
 8    1  0.1104109E+005  0.1043930E+01  0.7957747E-01            NaN
         13   -1    0    0    0    0  0.00000000000E+00  0.00000000000E+00  0.74505805969E-08  0.10566000000E+00  0.10566000000E+00 0.  1.
     999900   -1    0    0    0    0 -0.00000000000E+00 -0.00000000000E+00 -0.74505805969E-08  0.93827000000E+00  0.93827000000E+00 0.  1.
     999902    2    1    2    0    0  0.10261745088E-01  0.15858921989E-02  0.14829371120E-01  0.10258267209E+01  0.10256669696E+01 0.  0.
     999903    2    3    3    0    0  0.33834694011E-01 -0.31232661582E-01  0.12838353432E+00  0.13761093103E+00  0.18280338761E-01 0.  0.
         14    1    1    2    0    0 -0.10261745088E-01 -0.15858921989E-02 -0.14829371120E-01  0.18103279099E-01  0.00000000000E+00 0. -1.
     999901    1    3    3    0    0 -0.23572948924E-01  0.32818553781E-01 -0.11355416320E+00  0.88821578987E+00  0.88000000000E+00 0.  1.
        -11    1    4    4    0    0  0.19678541628E-01 -0.27572841645E-01  0.75732106142E-01  0.82964568454E-01  0.51100000000E-03 0. -1.
         11    1    4    4    0    0  0.14156152383E-01 -0.36598199369E-02  0.52651428183E-01  0.54646362577E-01  0.51100000000E-03 0.  1.
</event>
<event>
 8    1  0.1104109E+005  0.1043930E+01  0.7957747E-01            NaN
         13   -1    0    0    0    0  0.00000000000E+00  0.00000000000E+00  0.74505805969E-08  0.10566000000E+00  0.10566000000E+00 0. -1.
     999900   -1    0    0    0    0 -0.00000000000E+00 -0.00000000000E+00 -0.74505805969E-08  0.93827000000E+00  0.93827000000E+00 0.  1.
     999902    2    1    2    0    0 -0.12325422967E-01 -0.87459817369E-03 -0.18653832338E-01  0.10215548702E+01  0.10213097994E+01 0.  0.
     999903    2    3    3    0    0  0.51197685636E-01  0.34894159333E-01 -0.11618064108E+00  0.13317090603E+00  0.19943507245E-01 0.  0.
         14    1    1    2    0    0  0.12325422967E-01  0.87459817369E-03  0.18653832338E-01  0.22375129814E-01  0.00000000000E+00 0. -1.
     999901    1    3    3    0    0 -0.63523108603E-01 -0.35768757507E-01  0.97526808745E-01  0.88838396415E+00  0.88000000000E+00 0. -1.
        -11    1    4    4    0    0  0.24785440782E-01  0.71419398292E-02 -0.35821717264E-01  0.44145010228E-01  0.51100000000E-03 0. -1.
         11    1    4    4    0    0  0.26412244854E-01  0.27752219504E-01 -0.80358923819E-01  0.89025895805E-01  0.51100000000E-03 0.  1.
</event>
<event>
 8    1  0.1104109E+005  0.1043930E+01  0.7957747E-01            NaN
         13   -1    0    0    0    0  0.00000000000E+00  0.00000000000E+00  0.74505805969E-08  0.10566000000E+00  0.10566000000E+00 0.  1.
     999900   -1    0    0    0    0 -0.00000000000E+00 -0.00000000000E+00 -0.74505805969E-08  0.93827000000E+00  0.93827000000E+00 0.  1.
     999902    2    1    2    0    0  0.97488178436E-02  0.16614851119E-01  0.13815429875E-01  0.10202243292E+01  0.10199488825E+01 0.  0.
     999903    2    3    3    0    0  0.79227103980E-01 -0.26052792977E-01 -0.96879395129E-01  0.12954980703E+00  0.21020306240E-01 0.  0.
         14    1    1    2    0    0 -0.97488178436E-02 -0.16614851119E-01 -0.13815429875E-01  0.23705670834E-01  0.00000000000E+00 0. -1.
     999901    1    3    3    0    0 -0.69478286136E-01  0.42667644096E-01  0.11069482500E+00  0.89067452213E+00  0.88000000000E+00 0. -1.
        -11    1    4    4    0    0  0.45730287940E-01 -0.99522781373E-02 -0.39813195059E-01  0.61446388803E-01  0.51100000000E-03 0. -1.
         11    1    4    4    0    0  0.33496816040E-01 -0.16100514839E-01 -0.57066200070E-01  0.68103418228E-01  0.51100000000E-03 0.  1.
</event>
<event>
 8    1  0.1104109E+005  0.1043930E+01  0.7957747E-01            NaN
         13   -1    0    0    0    0  0.00000000000E+00  0.00000000000E+00  0.74505805969E-08  0.10566000000E+00  0.10566000000E+00 0. -1.
     999900   -1    0    0    0    0 -0.00000000000E+00 -0.00000000000E+00 -0.74505805969E-08  0.93827000000E+00  0.93827000000E+00 0.  1.
     999902    2    1    2    0    0 -0.16197590207E-01 -0.10720276544E-01  0.12583796645E-01  0.10207861413E+01  0.10205237420E+01 0.  0.
     999903    2    3    3    0    0 -0.32091338346E-01 -0.96600331805E-01 -0.81029229833E-01  0.13152161718E+00  0.19254131957E-01 0.  0.
         14    1    1    2    0    0  0.16197590207E-01  0.10720276544E-01 -0.12583796645E-01  0.23143858704E-01  0.00000000000E+00 0.  1.
     999901    1    3    3    0    0  0.15893748139E-01  0.85880055261E-01  0.93613026478E-01  0.88926452411E+00  0.88000000000E+00 0. -1.
        -11    1    4    4    0    0 -0.31096027332E-01 -0.70187086004E-01 -0.55137832115E-01  0.94517890417E-01  0.51100000000E-03 0. -1.
         11    1    4    4    0    0 -0.99531101352E-03 -0.26413245801E-01 -0.25891397718E-01  0.37003726765E-01  0.51100000000E-03 0.  1.
</event>
<event>
 8    1  0.1104109E+005  0.1043930E+01  0.7957747E-01            NaN
         13   -1    0    0    0    0  0.00000000000E+00  0.00000000000E+00  0.74505805969E-08  0.10566000000E+00  0.10566000000E+00 0.  1.
     999900   -1    0    0    0    0 -0.00000000000E+00 -0.00000000000E+00 -0.74505805969E-08  0.93827000000E+00  0.93827000000E+00 0.  1.
     999902    2    1    2    0    0 -0.86545145260E-02  0.19339434643E-01  0.11442285953E-01  0.10198501275E+01  0.10195658106E+01 0.  0.
     999903    2    3    3    0    0 -0.49594394885E-01  0.12157974127E+00  0.67097893151E-03  0.13291993000E+00  0.20640254042E-01 0.  0.
         14    1    1    2    0    0  0.86545145260E-02 -0.19339434643E-01 -0.11442285953E-01  0.24079872546E-01  0.00000000000E+00 0. -1.
     999901    1    3    3    0    0  0.40939880359E-01 -0.10224030663E+00  0.10771307022E-01  0.88693019746E+00  0.88000000000E+00 0.  1.
        -11    1    4    4    0    0 -0.37580477746E-01  0.85894332204E-01 -0.85632536980E-02  0.94147326289E-01  0.51100000000E-03 0. -1.
         11    1    4    4    0    0 -0.12013917139E-01  0.35685409066E-01  0.92342326295E-02  0.38772603711E-01  0.51100000000E-03 0.  1.
</event>
<event>
 8    1  0.1104109E+005  0.1043930E+01  0.7957747E-01            NaN
         13   -1    0    0    0    0  0.00000000000E+00  0.00000000000E+00  0.74505805969E-08  0.10566000000E+00  0.10566000000E+00 0.  1.
     999900   -1    0    0    0    0 -0.00000000000E+00 -0.00000000000E+00 -0.74505805969E-08  0.93827000000E+00  0.93827000000E+00 0.  1.
     999902    2    1    2    0    0 -0.10107881467E-01 -0.17419952991E-01  0.12936662210E-01  0.10199929731E+01  0.10197120593E+01 0.  0.
     999903    2    3    3    0    0 -0.33155774625E-01 -0.80733979791E-01 -0.95447795236E-01  0.13078711276E+00  0.19434669121E-01 0.  0.
         14    1    1    2    0    0  0.10107881467E-01  0.17419952991E-01 -0.12936662210E-01  0.23937026948E-01  0.00000000000E+00 0. -1.
     999901    1    3    3    0    0  0.23047893159E-01  0.63314026801E-01  0.10838445745E+00  0.88920586030E+00  0.88000000000E+00 0. -1.
        -11    1    4    4    0    0 -0.29313668652E-01 -0.46795305774E-01 -0.60725344818E-01  0.82078745340E-01  0.51100000000E-03 0.  1.
         11    1    4    4    0    0 -0.38421059732E-02 -0.33938674017E-01 -0.34722450418E-01  0.48708367416E-01  0.51100000000E-03 0. -1.
</event>
<event>
 8    1  0.1232839E+005  0.1043930E+01  0.7957747E-01            NaN
         13   -1    0    0    0    0  0.00000000000E+00  0.00000000000E+00  0.74505805969E-08  0.10566000000E+00  0.10566000000E+00 0.  1.
     999900   -1    0    0    0    0 -0.00000000000E+00 -0.00000000000E+00 -0.74505805969E-08  0.93827000000E+00  0.93827000000E+00 0. -1.
     999902    2    1    2    0    0 -0.77794166108E-02  0.56378829923E-02  0.18436074175E-01  0.10231407268E+01  0.10229294956E+01 0.  0.
     999903    2    3    3    0    0 -0.77789553261E-01  0.98132402812E-01 -0.44887832008E-01  0.13327187554E+00  0.80803631380E-02 0.  0.
         14    1    1    2    0    0  0.77794166108E-02 -0.56378829923E-02 -0.18436074175E-01  0.20789273158E-01  0.00000000000E+00 0. -1.
     999901    1    3    3    0    0  0.70010136650E-01 -0.92494519820E-01  0.63323906183E-01  0.88986885131E+00  0.88000000000E+00 0.  1.
        -11    1    4    4    0    0 -0.39442934416E-01  0.52980920131E-01 -0.19980792151E-01  0.69008812113E-01  0.51100000000E-03 0. -1.
         11    1    4    4    0    0 -0.38346618845E-01  0.45151482681E-01 -0.24907039857E-01  0.64263063423E-01  0.51100000000E-03 0.  1.
</event>
<event>
 8    1  0.1104109E+005  0.1043930E+01  0.7957747E-01            NaN
         13   -1    0    0    0    0  0.00000000000E+00  0.00000000000E+00  0.74505805969E-08  0.10566000000E+00  0.10566000000E+00 0. -1.
     999900   -1    0    0    0    0 -0.00000000000E+00 -0.00000000000E+00 -0.74505805969E-08  0.93827000000E+00  0.93827000000E+00 0. -1.
     999902    2    1    2    0    0 -0.12616592160E-01 -0.12153786270E-01 -0.15514825422E-01  0.10205290871E+01  0.10202607582E+01 0.  0.
     999903    2    3    3    0    0 -0.39671059474E-01 -0.10519705151E+00  0.65335079677E-01  0.13152644333E+00  0.19756519259E-01 0.  0.
         14    1    1    2    0    0  0.12616592160E-01  0.12153786270E-01  0.15514825422E-01  0.23400912937E-01  0.00000000000E+00 0. -1.
     999901    1    3    3    0    0  0.27054467314E-01  0.93043265237E-01 -0.80849905099E-01  0.88900264373E+00  0.88000000000E+00 0. -1.
        -11    1    4    4    0    0 -0.14462769779E-01 -0.60247242205E-01  0.42622664593E-01  0.75205415769E-01  0.51100000000E-03 0.  1.
         11    1    4    4    0    0 -0.25208289696E-01 -0.44949809301E-01  0.22712415085E-01  0.56321027562E-01  0.51100000000E-03 0. -1.
</event>
<event>
 8    1  0.1104109E+005  0.1043930E+01  0.7957747E-01            NaN
         13   -1    0    0    0    0  0.00000000000E+00  0.00000000000E+00  0.74505805969E-08  0.10566000000E+00  0.10566000000E+00 0.  1.
     999900   -1    0    0    0    0 -0.00000000000E+00 -0.00000000000E+00 -0.74505805969E-08  0.93827000000E+00  0.93827000000E+00 0.  1.
     999902    2    1    2    0    0  0.19969643016E-01 -0.62807460726E-02  0.10875732024E-01  0.10203394095E+01  0.10200666618E+01 0.  0.
     999903    2    3    3    0    0  0.43638093528E-01 -0.12316221309E+00 -0.10862511966E-02  0.13221522790E+00  0.20161165861E-01 0.  0.
         14    1    1    2    0    0 -0.19969643016E-01  0.62807460726E-02 -0.10875732024E-01  0.23590590507E-01  0.00000000000E+00 0. -1.
     999901    1    3    3    0    0 -0.23668450512E-01  0.11688146701E+00  0.11961983221E-01  0.88812418159E+00  0.88000000000E+00 0. -1.
        -11    1    4    4    0    0  0.19684639221E-01 -0.55086111206E-01 -0.10500254888E-01  0.59434679631E-01  0.51100000000E-03 0. -1.
         11    1    4    4    0    0  0.23953454307E-01 -0.68076101880E-01  0.94140036910E-02  0.72780548273E-01  0.51100000000E-03 0.  1.
</event>
<event>
 8    1  0.1146317E+005  0.1043930E+01  0.7957747E-01            NaN
         13   -1    0    0    0    0  0.00000000000E+00  0.00000000000E+00  0.74505805969E-08  0.10566000000E+00  0.10566000000E+00 0. -1.
     999900   -1    0    0    0    0 -0.00000000000E+00 -0.00000000000E+00 -0.74505805969E-08  0.93827000000E+00  0.93827000000E+00 0.  1.
     999902    2    1    2    0    0 -0.10916362143E-01 -0.15748184110E-01 -0.13421356784E-01  0.10205354476E+01  0.10202672663E+01 0.  0.
     999903    2    3    3    0    0  0.96779182995E-01  0.81354740654E-01  0.89744679241E-02  0.12838698381E+00  0.20441928684E-01 0.  0.
         14    1    1    2    0    0  0.10916362143E-01  0.15748184110E-01  0.13421356784E-01  0.23394552424E-01  0.00000000000E+00 0.  1.
     999901    1    3    3    0    0 -0.10769554514E+00 -0.97102924764E-01 -0.22395824708E-01  0.89214846377E+00  0.88000000000E+00 0. -1.
        -11    1    4    4    0    0  0.58001926105E-01  0.38139462330E-01  0.11006288446E-01  0.70286851722E-01  0.51100000000E-03 0. -1.
         11    1    4    4    0    0  0.38777256890E-01  0.43215278325E-01 -0.20318205216E-02  0.58100132085E-01  0.51100000000E-03 0.  1.
</event>
<event>
 8    1  0.1104109E+005  0.1043930E+01  0.7957747E-01            NaN
         13   -1    0    0    0    0  0.00000000000E+00  0.00000000000E+00  0.74505805969E-08  0.10566000000E+00  0.10566000000E+00 0. -1.
     999900   -1    0    0    0    0 -0.00000000000E+00 -0.00000000000E+00 -0.74505805969E-08  0.93827000000E+00  0.93827000000E+00 0.  1.
     999902    2    1    2    0    0  0.20294444775E-02 -0.22438956630E-01  0.79912548986E-02  0.10200242355E+01  0.10197440637E+01 0.  0.
     999903    2    3    3    0    0  0.64084356950E-01  0.19054993166E-02  0.11288790327E+00  0.13129099573E+00  0.19575778981E-01 0.  0.
         14    1    1    2    0    0 -0.20294444775E-02  0.22438956630E-01 -0.79912548986E-02  0.23905764460E-01  0.00000000000E+00 0. -1.
     999901    1    3    3    0    0 -0.62054912472E-01 -0.24344455947E-01 -0.10489664837E+00  0.88873323981E+00  0.88000000000E+00 0.  1.
        -11    1    4    4    0    0  0.60308493553E-01  0.39417799438E-03  0.92015658615E-01  0.11002005418E+00  0.51100000000E-03 0.  1.
         11    1    4    4    0    0  0.37758633962E-02  0.15113213222E-02  0.20872244655E-01  0.21270941551E-01  0.51100000000E-03 0. -1.
</event>
<event>
 8    1  0.1104109E+005  0.1043930E+01  0.7957747E-01            NaN
         13   -1    0    0    0    0  0.00000000000E+00  0.00000000000E+00  0.74505805969E-08  0.10566000000E+00  0.10566000000E+00 0.  1.
     999900   -1    0    0    0    0 -0.00000000000E+00 -0.00000000000E+00 -0.74505805969E-08  0.93827000000E+00  0.93827000000E+00 0. -1.
     999902    2    1    2    0    0  0.21944020040E-01 -0.11228724279E-01  0.54123263785E-02  0.10186927747E+01  0.10183801116E+01 0.  0.
     999903    2    3    3    0    0 -0.97031419853E-01 -0.66216795352E-01 -0.47229448978E-01  0.12742962625E+00  0.14419721565E-01 0.  0.
         14    1    1    2    0    0 -0.21944020040E-01  0.11228724279E-01 -0.54123263785E-02  0.25237225309E-01  0.00000000000E+00 0. -1.
     999901    1    3    3    0    0  0.11897543989E+00  0.54988071073E-01  0.52641775357E-01  0.89126314844E+00  0.88000000000E+00 0.  1.
        -11    1    4    4    0    0 -0.24708974058E-01 -0.10387473532E-01 -0.78109303370E-02  0.27923193927E-01  0.51100000000E-03 0. -1.
         11    1    4    4    0    0 -0.72322445795E-01 -0.55829321820E-01 -0.39418518641E-01  0.99506432322E-01  0.51100000000E-03 0.  1.
</event>
<event>
 8    1  0.1104109E+005  0.1043930E+01  0.7957747E-01            NaN
         13   -1    0    0    0    0  0.00000000000E+00  0.00000000000E+00  0.74505805969E-08  0.10566000000E+00  0.10566000000E+00 0.  1.
     999900   -1    0    0    0    0 -0.00000000000E+00 -0.00000000000E+00 -0.74505805969E-08  0.93827000000E+00  0.93827000000E+00 0. -1.
     999902    2    1    2    0    0  0.53301123800E-02 -0.16691027593E-02  0.22440095800E-01  0.10208052535E+01  0.10205432924E+01 0.  0.
     999903    2    3    3    0    0  0.11909911643E+00 -0.42497927796E-01  0.34016569737E-01  0.13246725813E+00  0.19994350691E-01 0.  0.
         14    1    1    2    0    0 -0.53301123800E-02  0.16691027593E-02 -0.22440095800E-01  0.23124746518E-01  0.00000000000E+00 0. -1.
     999901    1    3    3    0    0 -0.11376900405E+00  0.40828825037E-01 -0.11576473936E-01  0.88833799535E+00  0.88000000000E+00 0.  1.
        -11    1    4    4    0    0  0.55353048312E-01 -0.96216084771E-02  0.12178722034E-01  0.57490153057E-01  0.51100000000E-03 0. -1.
         11    1    4    4    0    0  0.63746068114E-01 -0.32876319319E-01  0.21837847703E-01  0.74977105074E-01  0.51100000000E-03 0.  1.
</event>
<event>
 8    1  0.1104109E+005  0.1043930E+01  0.7957747E-01            NaN
         13   -1    0    0    0    0  0.00000000000E+00  0.00000000000E+00  0.74505805969E-08  0.10566000000E+00  0.10566000000E+00 0. -1.
     999900   -1    0    0    0    0 -0.00000000000E+00 -0.00000000000E+00 -0.74505805969E-08  0.93827000000E+00  0.93827000000E+00 0. -1.
     999902    2    1    2    0    0 -0.16243418302E-02 -0.21912772155E-01  0.87412289034E-02  0.10202822273E+01  0.10200081403E+01 0.  0.
     999903    2    3    3    0    0  0.25864626818E-01  0.14994722870E-01 -0.12395663949E+00  0.12914445410E+00  0.20474884999E-01 0.  0.
         14    1    1    2    0    0  0.16243418302E-02  0.21912772155E-01 -0.87412289034E-02  0.23647772679E-01  0.00000000000E+00 0. -1.
     999901    1    3    3    0    0 -0.27488968648E-01 -0.36907495025E-01  0.13269786840E+00  0.89113777322E+00  0.88000000000E+00 0.  1.
        -11    1    4    4    0    0  0.24022000916E-02  0.73415646445E-02 -0.61523900133E-01  0.62009035997E-01  0.51100000000E-03 0.  1.
         11    1    4    4    0    0  0.23462426727E-01  0.76531582251E-02 -0.62432739360E-01  0.67135418102E-01  0.51100000000E-03 0. -1.
</event>
<event>
 8    1  0.1104109E+005  0.1043930E+01  0.7957747E-01            NaN
         13   -1    0    0    0    0  0.00000000000E+00  0.00000000000E+00  0.74505805969E-08  0.10566000000E+00  0.10566000000E+00 0. -1.
     999900   -1    0    0    0    0 -0.00000000000E+00 -0.00000000000E+00 -0.74505805969E-08  0.93827000000E+00  0.93827000000E+00 0.  1.
     999902    2    1    2    0    0 -0.14953196762E-01 -0.14923684314E-01 -0.13696033332E-01  0.10187527131E+01  0.10184415519E+01 0.  0.
     999903    2    3    3    0    0 -0.83934557976E-01  0.81355586282E-01  0.49497801772E-01  0.12857206461E+00  0.20420626229E-01 0.  0.
         14    1    1    2    0    0  0.14953196762E-01  0.14923684314E-01  0.13696033332E-01  0.25177286906E-01  0.00000000000E+00 0. -1.
     999901    1    3    3    0    0  0.68981361215E-01 -0.96279270597E-01 -0.63193835104E-01  0.89018064848E+00  0.88000000000E+00 0. -1.
        -11    1    4    4    0    0 -0.58711609774E-01  0.45922786750E-01  0.24825357016E-01  0.78565354560E-01  0.51100000000E-03 0. -1.
         11    1    4    4    0    0 -0.25222948202E-01  0.35432799532E-01  0.24672444757E-01  0.50006710049E-01  0.51100000000E-03 0.  1.
</event>
<event>
 8    1  0.1104109E+005  0.1043930E+01  0.7957747E-01            NaN
         13   -1    0    0    0    0  0.00000000000E+00  0.00000000000E+00  0.74505805969E-08  0.10566000000E+00  0.10566000000E+00 0.  1.
     999900   -1    0    0    0    0 -0.00000000000E+00 -0.00000000000E+00 -0.74505805969E-08  0.93827000000E+00  0.93827000000E+00 0.  1.
     999902    2    1    2    0    0  0.67445526472E-02  0.19803162151E-01  0.32904551256E-02  0.10227526225E+01  0.10225333469E+01 0.  0.
     999903    2    3    3    0    0  0.11401005987E+00 -0.46918796644E-01  0.45043642565E-01  0.13275203967E+00  0.19862202077E-01 0.  0.
         14    1    1    2    0    0 -0.67445526472E-02 -0.19803162151E-01 -0.32904551256E-02  0.21177377470E-01  0.00000000000E+00 0.  1.
     999901    1    3    3    0    0 -0.10726550722E+00  0.66721958795E-01 -0.41753187440E-01  0.89000058286E+00  0.88000000000E+00 0. -1.
        -11    1    4    4    0    0  0.88296580719E-01 -0.34216507704E-01  0.42980855128E-01  0.10399360843E+00  0.51100000000E-03 0.  1.
         11    1    4    4    0    0  0.25713479151E-01 -0.12702288939E-01  0.20627874371E-02  0.28758431240E-01  0.51100000000E-03 0. -1.
</event>
<event>
 8    1  0.1104109E+005  0.1043930E+01  0.7957747E-01            NaN
         13   -1    0    0    0    0  0.00000000000E+00  0.00000000000E+00  0.74505805969E-08  0.10566000000E+00  0.10566000000E+00 0.  1.
     999900   -1    0    0    0    0 -0.00000000000E+00 -0.00000000000E+00 -0.74505805969E-08  0.93827000000E+00  0.93827000000E+00 0. -1.
     999902    2    1    2    0    0 -0.97896096857E-02 -0.10441372111E-01 -0.16620381348E-01  0.10219961042E+01  0.10217607064E+01 0.  0.
     999903    2    3    3    0    0  0.82776889538E-01 -0.51135334147E-01 -0.88895630033E-01  0.13326202309E+00  0.19735701662E-01 0.  0.
         14    1    1    2    0    0  0.97896096857E-02  0.10441372111E-01  0.16620381348E-01  0.21933895813E-01  0.00000000000E+00 0.  1.
     999901    1    3    3    0    0 -0.92566499223E-01  0.40693962036E-01  0.72275248685E-01  0.88873408109E+00  0.88000000000E+00 0. -1.
        -11    1    4    4    0    0  0.36268399354E-01 -0.19205053131E-01 -0.25144890044E-01  0.48132706903E-01  0.51100000000E-03 0. -1.
         11    1    4    4    0    0  0.46508490184E-01 -0.31930281016E-01 -0.63750739989E-01  0.85129316191E-01  0.51100000000E-03 0.  1.
</event>
<event>
 7    1  0.1104109E+005  0.1043930E+01  0.7957747E-01            NaN
         13   -1    0    0    0    0  0.00000000000E+00  0.00000000000E+00  0.74505805969E-08  0.10566000000E+00  0.10566000000E+00 0.  1.
     999900   -1    0    0    0    0 -0.00000000000E+00 -0.00000000000E+00 -0.74505805969E-08  0.93827000000E+00  0.93827000000E+00 0.  1.
     999902    2    1    2    0    0  0.71862922906E-02  0.19195419543E-01 -0.13174273711E-01  0.10195646883E+01  0.10192735085E+01 0.  0.
         14    1    1    2    0    0 -0.71862922906E-02 -0.19195419543E-01  0.13174273711E-01  0.24365311739E-01  0.00000000000E+00 0.  1.
     999901    1    3    3    0    0 -0.31304526963E-01 -0.27937341677E-01  0.94367018321E-01  0.88603927826E+00  0.88000000000E+00 0. -1.
        -11    1    3    3    0    0  0.15676227836E-01 -0.11652062520E-02 -0.59962332642E-01  0.61990678990E-01  0.51100000000E-03 0.  1.
         11    1    3    3    0    0  0.22814591418E-01  0.48297967472E-01 -0.47578959390E-01  0.71534731014E-01  0.51100000000E-03 0. -1.
</event>
<event>
 8    1  0.1104109E+005  0.1043930E+01  0.7957747E-01            NaN
         13   -1    0    0    0    0  0.00000000000E+00  0.00000000000E+00  0.74505805969E-08  0.10566000000E+00  0.10566000000E+00 0.  1.
     999900   -1    0    0    0    0 -0.00000000000E+00 -0.00000000000E+00 -0.74505805969E-08  0.93827000000E+00  0.93827000000E+00 0. -1.
     999902    2    1    2    0    0  0.17631047113E-01 -0.10700100045E-01  0.95003617918E-02  0.10212231104E+01  0.10209706354E+01 0.  0.
     999903    2    3    3    0    0  0.90979269563E-02  0.11729374691E+00  0.53311710271E-01  0.13084416111E+00  0.20915561331E-01 0.  0.
         14    1    1    2    0    0 -0.17631047113E-01  0.10700100045E-01 -0.95003617918E-02  0.22706889647E-01  0.00000000000E+00 0.  1.
     999901    1    3    3    0    0  0.85331201564E-02 -0.12799384695E+00 -0.43811348479E-01  0.89037894924E+00  0.88000000000E+00 0. -1.
        -11    1    4    4    0    0  0.33149070212E-03  0.19920470714E-01  0.98656834162E-03  0.19954184465E-01  0.51100000000E-03 0. -1.
         11    1    4    4    0    0  0.87664362542E-02  0.97373276195E-01  0.52325141930E-01  0.11088997665E+00  0.51100000000E-03 0.  1.
</event>
<event>
 8    1  0.1104109E+005  0.1043930E+01  0.7957747E-01            NaN
         13   -1    0    0    0    0  0.00000000000E+00  0.00000000000E+00  0.74505805969E-08  0.10566000000E+00  0.10566000000E+00 0.  1.
     999900   -1    0    0    0    0 -0.00000000000E+00 -0.00000000000E+00 -0.74505805969E-08  0.93827000000E+00  0.93827000000E+00 0.  1.
     999902    2    1    2    0    0 -0.12669238571E-01  0.14029114243E-01  0.12652422403E-01  0.10211833641E+01  0.10209299945E+01 0.  0.
     999903    2    3    3    0    0  0.95355334678E-01  0.35945656004E-01  0.80900891966E-01  0.13168491169E+00  0.20278846342E-01 0.  0.
         14    1    1    2    0    0  0.12669238571E-01 -0.14029114243E-01 -0.12652422403E-01  0.22746635907E-01  0.00000000000E+00 0. -1.
     999901    1    3    3    0    0 -0.10802457325E+00 -0.21916541761E-01 -0.68248469563E-01  0.88949845240E+00  0.88000000000E+00 0.  1.
        -11    1    4    4    0    0  0.33991052984E-01  0.28348223591E-02  0.28721044385E-01  0.44593580394E-01  0.51100000000E-03 0. -1.
         11    1    4    4    0    0  0.61364281694E-01  0.33110833645E-01  0.52179847581E-01  0.87091331297E-01  0.51100000000E-03 0.  1.
</event>
<event>
 8    1  0.1104109E+005  0.1043930E+01  0.7957747E-01            NaN
         13   -1    0    0    0    0  0.00000000000E+00  0.00000000000E+00  0.74505805969E-08  0.10566000000E+00  0.10566000000E+00 0. -1.
     999900   -1    0    0    0    0 -0.00000000000E+00 -0.00000000000E+00 -0.74505805969E-08  0.93827000000E+00  0.93827000000E+00 0.  1.
     999902    2    1    2    0    0  0.14796496709E-01 -0.61731476558E-02 -0.16837162647E-01  0.10206806105E+01  0.10204157851E+01 0.  0.
     999903    2    3    3    0    0 -0.54179253932E-01  0.10884904517E+00 -0.41858072675E-01  0.13016738489E+00  0.20197614967E-01 0.  0.
         14    1    1    2    0    0 -0.14796496709E-01  0.61731476558E-02  0.16837162647E-01  0.23249389515E-01  0.00000000000E+00 0. -1.
     999901    1    3    3    0    0  0.68975750640E-01 -0.11502219283E+00  0.25020910028E-01  0.89051322559E+00  0.88000000000E+00 0.  1.
        -11    1    4    4    0    0 -0.20421137437E-01  0.24684850365E-01 -0.16312935333E-01  0.35954661338E-01  0.51100000000E-03 0.  1.
         11    1    4    4    0    0 -0.33758116494E-01  0.84164194805E-01 -0.25545137342E-01  0.94212723553E-01  0.51100000000E-03 0. -1.
</event>
<event>
 8    1  0.1104109E+005  0.1043930E+01  0.7957747E-01            NaN
         13   -1    0    0    0    0  0.00000000000E+00  0.00000000000E+00  0.74505805969E-08  0.10566000000E+00  0.10566000000E+00 0. -1.
     999900   -1    0    0    0    0 -0.00000000000E+00 -0.00000000000E+00 -0.74505805969E-08  0.93827000000E+00  0.93827000000E+00 0.  1.
     999902    2    1    2    0    0  0.93434746549E-03  0.17573561670E-01 -0.15299804376E-01  0.10206107571E+01  0.10203443196E+01 0.  0.
     999903    2    3    3    0    0 -0.19970256214E-01 -0.33458122605E-01 -0.12451051876E+00  0.13214679308E+00  0.21015435680E-01 0.  0.
         14    1    1    2    0    0 -0.93434746549E-03 -0.17573561670E-01  0.15299804376E-01  0.23319242888E-01  0.00000000000E+00 0. -1.
     999901    1    3    3    0    0  0.20904603680E-01  0.51031684275E-01  0.10921071438E+00  0.88846396404E+00  0.88000000000E+00 0. -1.
        -11    1    4    4    0    0 -0.12117378295E-02 -0.11484991194E-01 -0.64668298812E-01  0.65693403958E-01  0.51100000000E-03 0.  1.
         11    1    4    4    0    0 -0.18758518385E-01 -0.21973131411E-01 -0.59842219947E-01  0.66453389118E-01  0.51100000000E-03 0. -1.
</event>
<event>
 8    1  0.1104109E+005  0.1043930E+01  0.7957747E-01            NaN
         13   -1    0    0    0    0  0.00000000000E+00  0.00000000000E+00  0.74505805969E-08  0.10566000000E+00  0.10566000000E+00 0.  1.
     999900   -1    0    0    0    0 -0.00000000000E+00 -0.00000000000E+00 -0.74505805969E-08  0.93827000000E+00  0.93827000000E+00 0.  1.
     999902    2    1    2    0    0 -0.60548083462E-03 -0.20204343740E-01 -0.10798802097E-01  0.10210128396E+01  0.10207556135E+01 0.  0.
     999903    2    3    3    0    0 -0.10762142178E+00  0.15862486865E-01  0.68777690103E-01  0.13023472696E+00  0.19917945038E-01 0.  0.
         14    1    1    2    0    0  0.60548083462E-03  0.20204343740E-01  0.10798802097E-01  0.22917160377E-01  0.00000000000E+00 0.  1.
     999901    1    3    3    0    0  0.10701594095E+00 -0.36066830606E-01 -0.79576492200E-01  0.89077811266E+00  0.88000000000E+00 0. -1.
        -11    1    4    4    0    0 -0.16479297873E-01  0.71284213181E-02  0.49822877304E-02  0.18640438861E-01  0.51100000000E-03 0.  1.
         11    1    4    4    0    0 -0.91142123910E-01  0.87340655473E-02  0.63795402373E-01  0.11159428810E+00  0.51100000000E-03 0. -1.
</event>
<event>
 8    1  0.1104109E+005  0.1043930E+01  0.7957747E-01            NaN
         13   -1    0    0    0    0  0.00000000000E+00  0.00000000000E+00  0.74505805969E-08  0.10566000000E+00  0.10566000000E+00 0.  1.
     999900   -1    0    0    0    0 -0.00000000000E+00 -0.00000000000E+00 -0.74505805969E-08  0.93827000000E+00  0.93827000000E+00 0. -1.
     999902    2    1    2    0    0 -0.21334995694E-01  0.38994953610E-02  0.10629777443E-01  0.10197767337E+01  0.10194906602E+01 0.  0.
     999903    2    3    3    0    0 -0.85397596560E-03  0.10242094940E+00 -0.77046765378E-01  0.12971318245E+00  0.19963103312E-01 0.  0.
         14    1    1    2    0    0  0.21334995694E-01 -0.38994953610E-02 -0.10629777443E-01  0.24153266318E-01  0.00000000000E+00 0. -1.
     999901    1    3    3    0    0 -0.20481019729E-01 -0.98521454042E-01  0.87676542821E-01  0.89006355123E+00  0.88000000000E+00 0.  1.
        -11    1    4    4    0    0 -0.20490936582E-02  0.13780089893E-01 -0.19690651140E-01  0.24126179258E-01  0.51100000000E-03 0.  1.
         11    1    4    4    0    0  0.11951176926E-02  0.88640859510E-01 -0.57356114238E-01  0.10558700319E+00  0.51100000000E-03 0. -1.
</event>
<event>
 8    1  0.1104109E+005  0.1043930E+01  0.7957747E-01            NaN
         13   -1    0    0    0    0  0.00000000000E+00  0.00000000000E+00  0.74505805969E-08  0.10566000000E+00  0.10566000000E+00 0.  1.
     999900   -1    0    0    0    0 -0.00000000000E+00 -0.00000000000E+00 -0.74505805969E-08  0.93827000000E+00  0.93827000000E+00 0.  1.
     999902    2    1    2    0    0  0.37267327000E-02  0.21522708699E-01 -0.91184946972E-02  0.10202601358E+01  0.10199855304E+01 0.  0.
     999903    2    3    3    0    0  0.96683391534E-01  0.18522371826E-01 -0.85690826956E-01  0.13205224092E+00  0.20102737368E-01 0.  0.
         14    1    1    2    0    0 -0.37267327000E-02 -0.21522708699E-01  0.91184946972E-02  0.23669864214E-01  0.00000000000E+00 0.  1.
     999901    1    3    3    0    0 -0.92956658834E-01  0.30003368724E-02  0.76572332259E-01  0.88820789487E+00  0.88000000000E+00 0. -1.
        -11    1    4    4    0    0  0.21834358772E-01  0.71528655506E-02 -0.10220663312E-01  0.25152053358E-01  0.51100000000E-03 0. -1.
         11    1    4    4    0    0  0.74849032763E-01  0.11369506276E-01 -0.75470163644E-01  0.10690018756E+00  0.51100000000E-03 0.  1.
</event>
<event>
 8    1  0.1104109E+005  0.1043930E+01  0.7957747E-01            NaN
         13   -1    0    0    0    0  0.00000000000E+00  0.00000000000E+00  0.74505805969E-08  0.10566000000E+00  0.10566000000E+00 0. -1.
     999900   -1    0    0    0    0 -0.00000000000E+00 -0.00000000000E+00 -0.74505805969E-08  0.93827000000E+00  0.93827000000E+00 0.  1.
     999902    2    1    2    0    0 -0.23401761517E-01 -0.31685463428E-02 -0.13301253972E-03  0.10203143310E+01  0.10200409964E+01 0.  0.
     999903    2    3    3    0    0  0.24055262585E-01 -0.12541395171E+00  0.17464984524E-01  0.13042344011E+00  0.19948260677E-01 0.  0.
         14    1    1    2    0    0  0.23401761517E-01  0.31685463428E-02  0.13301253972E-03  0.23615668958E-01  0.00000000000E+00 0. -1.
     999901    1    3    3    0    0 -0.47457024102E-01  0.12224540536E+00 -0.17597997064E-01  0.88989089094E+00  0.88000000000E+00 0.  1.
        -11    1    4    4    0    0  0.18290753653E-01 -0.82292986315E-01  0.20664316427E-01  0.86798400678E-01  0.51100000000E-03 0. -1.
         11    1    4    4    0    0  0.57645089323E-02 -0.43120965392E-01 -0.31993319023E-02  0.43625039429E-01  0.51100000000E-03 0.  1.
</event>
<event>
 8    1  0.1104109E+005  0.1043930E+01  0.7957747E-01            NaN
         13   -1    0    0    0    0  0.00000000000E+00  0.00000000000E+00  0.74505805969E-08  0.10566000000E+00  0.10566000000E+00 0. -1.
     999900   -1    0    0    0    0 -0.00000000000E+00 -0.00000000000E+00 -0.74505805969E-08  0.93827000000E+00  0.93827000000E+00 0.  1.
     999902    2    1    2    0    0 -0.24790194012E-02  0.15803266374E-01 -0.17245479291E-01  0.10204077696E+01  0.10201366188E+01 0.  0.
     999903    2    3    3    0    0 -0.10655663821E+00  0.45571309063E-01 -0.61614680651E-01  0.13266517568E+00  0.19303331557E-01 0.  0.
         14    1    1    2    0    0  0.24790194012E-02 -0.15803266374E-01  0.17245479291E-01  0.23522230363E-01  0.00000000000E+00 0. -1.
     999901    1    3    3    0    0  0.10407761881E+00 -0.29768042689E-01  0.44369201360E-01  0.88774259396E+00  0.88000000000E+00 0. -1.
        -11    1    4    4    0    0 -0.51393326638E-01  0.30023635780E-01 -0.24408025931E-01  0.64332772202E-01  0.51100000000E-03 0.  1.
         11    1    4    4    0    0 -0.55163311571E-01  0.15547673283E-01 -0.37206654720E-01  0.68332403474E-01  0.51100000000E-03 0. -1.
</event>
<event>
 8    1  0.1104109E+005  0.1043930E+01  0.7957747E-01            NaN
         13   -1    0    0    0    0  0.00000000000E+00  0.00000000000E+00  0.74505805969E-08  0.10566000000E+00  0.10566000000E+00 0.  1.
     999900   -1    0    0    0    0 -0.00000000000E+00 -0.00000000000E+00 -0.74505805969E-08  0.93827000000E+00  0.93827000000E+00 0.  1.
     999902    2    1    2    0    0  0.82727080155E-02 -0.16402642508E-01 -0.90583320664E-02  0.10234473791E+01  0.10232423955E+01 0.  0.
     999903    2    3    3    0    0 -0.14504903326E-01  0.11423658833E+00  0.59116960166E-01  0.13090421561E+00  0.19511749075E-01 0.  0.
         14    1    1    2    0    0 -0.82727080155E-02  0.16402642508E-01  0.90583320664E-02  0.20482620902E-01  0.00000000000E+00 0.  1.
     999901    1    3    3    0    0  0.22777611342E-01 -0.13063923084E+00 -0.68175292233E-01  0.89254316349E+00  0.88000000000E+00 0.  1.
        -11    1    4    4    0    0  0.50007481786E-04  0.72357478970E-01  0.34060241379E-01  0.79974798703E-01  0.51100000000E-03 0.  1.
         11    1    4    4    0    0 -0.14554910808E-01  0.41879109361E-01  0.25056718787E-01  0.50929416911E-01  0.51100000000E-03 0. -1.
</event>
<event>
 8    1  0.1104109E+005  0.1043930E+01  0.7957747E-01            NaN
         13   -1    0    0    0    0  0.00000000000E+00  0.00000000000E+00  0.74505805969E-08  0.10566000000E+00  0.10566000000E+00 0.  1.
     999900   -1    0    0    0    0 -0.00000000000E+00 -0.00000000000E+00 -0.74505805969E-08  0.93827000000E+00  0.93827000000E+00 0.  1.
     999902    2    1    2    0    0 -0.18490273228E-02 -0.13464453237E-01  0.17600583138E-01  0.10216928480E+01  0.10214508234E+01 0.  0.
     999903    2    3    3    0    0 -0.11407235371E+00  0.38648649993E-01 -0.46549247050E-01  0.13072424515E+00  0.20390582214E-01 0.  0.
         14    1    1    2    0    0  0.18490273228E-02  0.13464453237E-01 -0.17600583138E-01  0.22237152017E-01  0.00000000000E+00 0. -1.
     999901    1    3    3    0    0  0.11222332639E+00 -0.52113103231E-01  0.64149830188E-01  0.89096860283E+00  0.88000000000E+00 0.  1.
        -11    1    4    4    0    0 -0.72258668006E-01  0.29550556605E-01 -0.20849773173E-01  0.80805474196E-01  0.51100000000E-03 0.  1.
         11    1    4    4    0    0 -0.41813685703E-01  0.90980933888E-02 -0.25699473877E-01  0.49918770958E-01  0.51100000000E-03 0. -1.
</event>
<event>
 8    1  0.1104109E+005  0.1043930E+01  0.7957747E-01            NaN
         13   -1    0    0    0    0  0.00000000000E+00  0.00000000000E+00  0.74505805969E-08  0.10566000000E+00  0.10566000000E+00 0. -1.
     999900   -1    0    0    0    0 -0.00000000000E+00 -0.00000000000E+00 -0.74505805969E-08  0.93827000000E+00  0.93827000000E+00 0.  1.
     999902    2    1    2    0    0  0.15256825431E-01 -0.17039624636E-01  0.52476884324E-02  0.10204639018E+01  0.10201940586E+01 0.  0.
     999903    2    3    3    0    0  0.36845379845E-01  0.49850736922E-03  0.12519007638E+00  0.13189211058E+00  0.19108717453E-01 0.  0.
         14    1    1    2    0    0 -0.15256825431E-01  0.17039624636E-01 -0.52476884324E-02  0.23466098181E-01  0.00000000000E+00 0. -1.
     999901    1    3    3    0    0 -0.21588554413E-01 -0.17538132005E-01 -0.11994238795E+00  0.88857179124E+00  0.88000000000E+00 0.  1.
        -11    1    4    4    0    0  0.14830993841E-01  0.43679843482E-02  0.26352701940E-01  0.30557547122E-01  0.51100000000E-03 0.  1.
         11    1    4    4    0    0  0.22014386004E-01 -0.38694769790E-02  0.98837374445E-01  0.10133456346E+00  0.51100000000E-03 0. -1.
</event>
<event>
 8    1  0.1104109E+005  0.1043930E+01  0.7957747E-01            NaN
         13   -1    0    0    0    0  0.00000000000E+00  0.00000000000E+00  0.74505805969E-08  0.10566000000E+00  0.10566000000E+00 0.  1.
     999900   -1    0    0    0    0 -0.00000000000E+00 -0.00000000000E+00 -0.74505805969E-08  0.93827000000E+00  0.93827000000E+00 0. -1.
     999902    2    1    2    0    0 -0.17634519747E-01 -0.13064847830E-01  0.68425747899E-02  0.10209411469E+01  0.10206822905E+01 0.  0.
     999903    2    3    3    0    0 -0.44376046804E-02  0.50535540610E-01  0.11953773527E+00  0.13137981281E+00  0.19946224186E-01 0.  0.
         14    1    1    2    0    0  0.17634519747E-01  0.13064847830E-01 -0.68425747899E-02  0.22988853066E-01  0.00000000000E+00 0. -1.
     999901    1    3    3    0    0 -0.13196915067E-01 -0.63600388440E-01 -0.11269516048E+00  0.88956133413E+00  0.88000000000E+00 0. -1.
        -11    1    4    4    0    0  0.51785557132E-02  0.23314226845E-01  0.38043449052E-01  0.44921439753E-01  0.51100000000E-03 0. -1.
         11    1    4    4    0    0 -0.96161603935E-02  0.27221313765E-01  0.81494286220E-01  0.86458373055E-01  0.51100000000E-03 0.  1.
</event>
<event>
 8    1  0.1104109E+005  0.1043930E+01  0.7957747E-01            NaN
         13   -1    0    0    0    0  0.00000000000E+00  0.00000000000E+00  0.74505805969E-08  0.10566000000E+00  0.10566000000E+00 0.  1.
     999900   -1    0    0    0    0 -0.00000000000E+00 -0.00000000000E+00 -0.74505805969E-08  0.93827000000E+00  0.93827000000E+00 0.  1.
     999902    2    1    2    0    0  0.70728664811E-02 -0.16310972743E-01 -0.15729705579E-01  0.10201919102E+01  0.10199157007E+01 0.  0.
     999903    2    3    3    0    0 -0.60764845381E-01  0.22947224869E-01 -0.11248804446E+00  0.13142572190E+00  0.20005465951E-01 0.  0.
         14    1    1    2    0    0 -0.70728664811E-02  0.16310972743E-01  0.15729705579E-01  0.23738089849E-01  0.00000000000E+00 0.  1.
     999901    1    3    3    0    0  0.67837711862E-01 -0.39258197612E-01  0.96758338881E-01  0.88876618825E+00  0.88000000000E+00 0.  1.
        -11    1    4    4    0    0 -0.46116339170E-01  0.11838342531E-01 -0.65590304179E-01  0.81050676836E-01  0.51100000000E-03 0. -1.
         11    1    4    4    0    0 -0.14648506211E-01  0.11108882338E-01 -0.46897740281E-01  0.50375045067E-01  0.51100000000E-03 0.  1.
</event>
<event>
 8    1  0.1105375E+005  0.1043930E+01  0.7957747E-01            NaN
         13   -1    0    0    0    0  0.00000000000E+00  0.00000000000E+00  0.74505805969E-08  0.10566000000E+00  0.10566000000E+00 0.  1.
     999900   -1    0    0    0    0 -0.00000000000E+00 -0.00000000000E+00 -0.74505805969E-08  0.93827000000E+00  0.93827000000E+00 0.  1.
     999902    2    1    2    0    0 -0.22150968257E-01  0.22104608137E-02  0.51272576987E-02  0.10210861758E+01  0.10208306119E+01 0.  0.
     999903    2    3    3    0    0 -0.15835645534E-01 -0.87950049977E-01 -0.93586365446E-01  0.13096641960E+00  0.20194462264E-01 0.  0.
         14    1    1    2    0    0  0.22150968257E-01 -0.22104608137E-02 -0.51272576987E-02  0.22843824182E-01  0.00000000000E+00 0. -1.
     999901    1    3    3    0    0 -0.63153227232E-02  0.90160510791E-01  0.98713623145E-01  0.89011975621E+00  0.88000000000E+00 0. -1.
        -11    1    4    4    0    0 -0.10918891885E-01 -0.61014371743E-01 -0.50687281515E-01  0.80071451764E-01  0.51100000000E-03 0.  1.
         11    1    4    4    0    0 -0.49167536491E-02 -0.26935678234E-01 -0.42899083931E-01  0.50894967840E-01  0.51100000000E-03 0. -1.
</event>
<event>
 8    1  0.1168629E+005  0.1043930E+01  0.7957747E-01            NaN
         13   -1    0    0    0    0  0.00000000000E+00  0.00000000000E+00  0.74505805969E-08  0.10566000000E+00  0.10566000000E+00 0.  1.
     999900   -1    0    0    0    0 -0.00000000000E+00 -0.00000000000E+00 -0.74505805969E-08  0.93827000000E+00  0.93827000000E+00 0.  1.
     999902    2    1    2    0    0 -0.79271303186E-02 -0.13027333582E-01 -0.17406998781E-01  0.10207879512E+01  0.10205255935E+01 0.  0.
     999903    2    3    3    0    0  0.12693805726E+00 -0.99696162393E-02  0.15927141873E-01  0.12988440235E+00  0.20090308469E-01 0.  0.
         14    1    1    2    0    0  0.79271303186E-02  0.13027333582E-01  0.17406998781E-01  0.23142048784E-01  0.00000000000E+00 0. -1.
     999901    1    3    3    0    0 -0.13486518758E+00 -0.30577173423E-02 -0.33334140654E-01  0.89090354887E+00  0.88000000000E+00 0.  1.
        -11    1    4    4    0    0  0.86507157283E-01 -0.13970095586E-01  0.16886078952E-01  0.89241540861E-01  0.51100000000E-03 0. -1.
         11    1    4    4    0    0  0.40430899981E-01  0.40004793470E-02 -0.95893707965E-03  0.40642861484E-01  0.51100000000E-03 0.  1.
</event>
<event>
 8    1  0.1104109E+005  0.1043930E+01  0.7957747E-01            NaN
         13   -1    0    0    0    0  0.00000000000E+00  0.00000000000E+00  0.74505805969E-08  0.10566000000E+00  0.10566000000E+00 0.  1.
     999900   -1    0    0    0    0 -0.00000000000E+00 -0.00000000000E+00 -0.74505805969E-08  0.93827000000E+00  0.93827000000E+00 0.  1.
     999902    2    1    2    0    0  0.19253314096E-01 -0.12792979112E-01 -0.65661908737E-02  0.10198994927E+01  0.10196163543E+01 0.  0.
     999903    2    3    3    0    0  0.44619901674E-01  0.11513117555E+00  0.33131208337E-01  0.12940303757E+00  0.20033620648E-01 0.  0.
         14    1    1    2    0    0 -0.19253314096E-01  0.12792979112E-01  0.65661908737E-02  0.24030507295E-01  0.00000000000E+00 0. -1.
     999901    1    3    3    0    0 -0.25366587577E-01 -0.12792415466E+00 -0.39697399211E-01  0.89049645514E+00  0.88000000000E+00 0. -1.
        -11    1    4    4    0    0  0.15357668055E-01  0.27092289580E-01  0.16153952574E-01  0.35086484970E-01  0.51100000000E-03 0.  1.
         11    1    4    4    0    0  0.29262233619E-01  0.88038885971E-01  0.16977255763E-01  0.94316552596E-01  0.51100000000E-03 0. -1.
</event>
<event>
 8    1  0.1104109E+005  0.1043930E+01  0.7957747E-01            NaN
         13   -1    0    0    0    0  0.00000000000E+00  0.00000000000E+00  0.74505805969E-08  0.10566000000E+00  0.10566000000E+00 0.  1.
     999900   -1    0    0    0    0 -0.00000000000E+00 -0.00000000000E+00 -0.74505805969E-08  0.93827000000E+00  0.93827000000E+00 0.  1.
     999902    2    1    2    0    0  0.10216936739E-01  0.14535235810E-01  0.69560630706E-02  0.10248500186E+01  0.10246723940E+01 0.  0.
     999903    2    3    3    0    0  0.78881777144E-01  0.23317840933E-01  0.10724742923E+00  0.13645238659E+00  0.18739964168E-01 0.  0.
         14    1    1    2    0    0 -0.10216936739E-01 -0.14535235810E-01 -0.69560630706E-02  0.19079981389E-01  0.00000000000E+00 0. -1.
     999901    1    3    3    0    0 -0.68664840405E-01 -0.87826051233E-02 -0.10029136616E+00  0.88839763202E+00  0.88000000000E+00 0.  1.
        -11    1    4    4    0    0  0.33756902521E-01  0.99323375932E-02  0.61242108374E-01  0.70633113742E-01  0.51100000000E-03 0. -1.
         11    1    4    4    0    0  0.45124874624E-01  0.13385503340E-01  0.46005320858E-01  0.65819272844E-01  0.51100000000E-03 0.  1.
</event>
<event>
 8    1  0.1104109E+005  0.1043930E+01  0.7957747E-01            NaN
         13   -1    0    0    0    0  0.00000000000E+00  0.00000000000E+00  0.74505805969E-08  0.10566000000E+00  0.10566000000E+00 0.  1.
     999900   -1    0    0    0    0 -0.00000000000E+00 -0.00000000000E+00 -0.74505805969E-08  0.93827000000E+00  0.93827000000E+00 0. -1.
     999902    2    1    2    0    0 -0.44429894588E-02  0.18714477353E-01 -0.14064065701E-01  0.10201020802E+01  0.10198237516E+01 0.  0.
     999903    2    3    3    0    0 -0.68623303840E-01  0.33827362737E-01 -0.10670598040E+00  0.13278588153E+00  0.19811001510E-01 0.  0.
         14    1    1    2    0    0  0.44429894588E-02 -0.18714477353E-01  0.14064065701E-01  0.23827919799E-01  0.00000000000E+00 0.  1.
     999901    1    3    3    0    0  0.64180314381E-01 -0.15112885384E-01  0.92641914703E-01  0.88731619867E+00  0.88000000000E+00 0.  1.
        -11    1    4    4    0    0 -0.50525552327E-01  0.30961384865E-01 -0.91276849075E-01  0.10882629778E+00  0.51100000000E-03 0.  1.
         11    1    4    4    0    0 -0.18097751513E-01  0.28659778718E-02 -0.15429131329E-01  0.23959583751E-01  0.51100000000E-03 0. -1.
</event>
<event>
 8    1  0.1104109E+005  0.1043930E+01  0.7957747E-01            NaN
         13   -1    0    0    0    0  0.00000000000E+00  0.00000000000E+00  0.74505805969E-08  0.10566000000E+00  0.10566000000E+00 0.  1.
     999900   -1    0    0    0    0 -0.00000000000E+00 -0.00000000000E+00 -0.74505805969E-08  0.93827000000E+00  0.93827000000E+00 0. -1.
     999902    2    1    2    0    0  0.14859495392E-02 -0.89404321462E-02 -0.21472531949E-01  0.10206231555E+01  0.10203570044E+01 0.  0.
     999903    2    3    3    0    0 -0.10307566751E-01 -0.33598450416E-01 -0.12742052364E+00  0.13384692563E+00  0.21069120828E-01 0.  0.
         14    1    1    2    0    0 -0.14859495392E-02  0.89404321462E-02  0.21472531949E-01  0.23306844516E-01  0.00000000000E+00 0.  1.
     999901    1    3    3    0    0  0.11793516290E-01  0.24658018270E-01  0.10594799169E+00  0.88677622985E+00  0.88000000000E+00 0.  1.
        -11    1    4    4    0    0 -0.14158659403E-01 -0.27517359190E-01 -0.78232099236E-01  0.84132010346E-01  0.51100000000E-03 0.  1.
         11    1    4    4    0    0  0.38510926524E-02 -0.60810912262E-02 -0.49188424405E-01  0.49714915283E-01  0.51100000000E-03 0. -1.
</event>
<event>
 8    1  0.1104109E+005  0.1043930E+01  0.7957747E-01            NaN
         13   -1    0    0    0    0  0.00000000000E+00  0.00000000000E+00  0.74505805969E-08  0.10566000000E+00  0.10566000000E+00 0. -1.
     999900   -1    0    0    0    0 -0.00000000000E+00 -0.00000000000E+00 -0.74505805969E-08  0.93827000000E+00  0.93827000000E+00 0.  1.
     999902    2    1    2    0    0  0.96878185602E-02 -0.19649899475E-01 -0.57622233726E-02  0.10212766206E+01  0.10210253475E+01 0.  0.
     999903    2    3    3    0    0 -0.11377721226E+00  0.88532754753E-02  0.58425985667E-01  0.12988659883E+00  0.20815817045E-01 0.  0.
         14    1    1    2    0    0 -0.96878185602E-02  0.19649899475E-01  0.57622233726E-02  0.22653379352E-01  0.00000000000E+00 0.  1.
     999901    1    3    3    0    0  0.12346503082E+00 -0.28503174951E-01 -0.64188209040E-01  0.89139002182E+00  0.88000000000E+00 0.  1.
        -11    1    4    4    0    0 -0.55220784230E-01  0.13395398248E-01  0.34415372727E-01  0.66433806952E-01  0.51100000000E-03 0.  1.
         11    1    4    4    0    0 -0.58556428026E-01 -0.45421227730E-02  0.24010612940E-01  0.63452791879E-01  0.51100000000E-03 0. -1.
</event>
<event>
 8    1  0.1104109E+005  0.1043930E+01  0.7957747E-01            NaN
         13   -1    0    0    0    0  0.00000000000E+00  0.00000000000E+00  0.74505805969E-08  0.10566000000E+00  0.10566000000E+00 0.  1.
     999900   -1    0    0    0    0 -0.00000000000E+00 -0.00000000000E+00 -0.74505805969E-08  0.93827000000E+00  0.93827000000E+00 0.  1.
     999902    2    1    2    0    0 -0.17495003851E-01  0.53327003464E-02  0.15357776356E-01  0.10200474929E+01  0.10197678724E+01 0.  0.
     999903    2    3    3    0    0  0.70927272642E-01  0.10071939466E+00  0.36231392539E-01  0.13024255452E+00  0.21802172804E-01 0.  0.
         14    1    1    2    0    0  0.17495003851E-01 -0.53327003464E-02 -0.15357776356E-01  0.23882507140E-01  0.00000000000E+00 0. -1.
     999901    1    3    3    0    0 -0.88422276493E-01 -0.95386694312E-01 -0.20873616183E-01  0.88980493833E+00  0.88000000000E+00 0.  1.
        -11    1    4    4    0    0  0.43795973908E-01  0.69597990572E-01  0.33713313392E-01  0.88875284771E-01  0.51100000000E-03 0.  1.
         11    1    4    4    0    0  0.27131298734E-01  0.31121404086E-01  0.25180791473E-02  0.41367269754E-01  0.51100000000E-03 0. -1.
</event>
<event>
 8    1  0.1104109E+005  0.1043930E+01  0.7957747E-01            NaN
         13   -1    0    0    0    0  0.00000000000E+00  0.00000000000E+00  0.74505805969E-08  0.10566000000E+00  0.10566000000E+00 0. -1.
     999900   -1    0    0    0    0 -0.00000000000E+00 -0.00000000000E+00 -0.74505805969E-08  0.93827000000E+00  0.93827000000E+00 0. -1.
     999902    2    1    2    0    0 -0.20652065838E-01 -0.73003326601E-02  0.92466171892E-02  0.10201539068E+01  0.10198768018E+01 0.  0.
     999903    2    3    3    0    0  0.10366658288E+00 -0.73587914495E-01  0.84256138578E-02  0.12894694765E+00  0.19859072815E-01 0.  0.
         14    1    1    2    0    0  0.20652065838E-01  0.73003326601E-02 -0.92466171892E-02  0.23776093240E-01  0.00000000000E+00 0.  1.
     999901    1    3    3    0    0 -0.12431864872E+00  0.66287581835E-01  0.82100333140E-03  0.89120695911E+00  0.88000000000E+00 0. -1.
        -11    1    4    4    0    0  0.40615631103E-01 -0.25746774028E-01 -0.60999610311E-02  0.48476762560E-01  0.51100000000E-03 0. -1.
         11    1    4    4    0    0  0.63050951776E-01 -0.47841140467E-01  0.14525574889E-01  0.80470185086E-01  0.51100000000E-03 0.  1.
</event>
<event>
 8    1  0.1104109E+005  0.1043930E+01  0.7957747E-01            NaN
         13   -1    0    0    0    0  0.00000000000E+00  0.00000000000E+00  0.74505805969E-08  0.10566000000E+00  0.10566000000E+00 0.  1.
     999900   -1    0    0    0    0 -0.00000000000E+00 -0.00000000000E+00 -0.74505805969E-08  0.93827000000E+00  0.93827000000E+00 0. -1.
     999902    2    1    2    0    0  0.18540379603E-01  0.17734239739E-02 -0.14794341406E-01  0.10201442218E+01  0.10198668884E+01 0.  0.
     999903    2    3    3    0    0  0.10819937285E+00  0.73760268958E-01 -0.50716678729E-02  0.13261091462E+00  0.20303972490E-01 0.  0.
         14    1    1    2    0    0 -0.18540379603E-01 -0.17734239739E-02  0.14794341406E-01  0.23785778231E-01  0.00000000000E+00 0. -1.
     999901    1    3    3    0    0 -0.89658993247E-01 -0.71986844985E-01 -0.97226735331E-02  0.88753330715E+00  0.88000000000E+00 0. -1.
        -11    1    4    4    0    0  0.10888069495E-01  0.14200397145E-01 -0.47377365884E-02  0.18517791590E-01  0.51100000000E-03 0.  1.
         11    1    4    4    0    0  0.97311303356E-01  0.59559871813E-01 -0.33393128452E-03  0.11409312303E+00  0.51100000000E-03 0. -1.
</event>
<event>
 8    1  0.1104109E+005  0.1043930E+01  0.7957747E-01            NaN
         13   -1    0    0    0    0  0.00000000000E+00  0.00000000000E+00  0.74505805969E-08  0.10566000000E+00  0.10566000000E+00 0.  1.
     999900   -1    0    0    0    0 -0.00000000000E+00 -0.00000000000E+00 -0.74505805969E-08  0.93827000000E+00  0.93827000000E+00 0. -1.
     999902    2    1    2    0    0 -0.17187512876E-01 -0.15209640631E-01 -0.27928396480E-03  0.10209774017E+01  0.10207193704E+01 0.  0.
     999903    2    3    3    0    0  0.30285739567E-01  0.95680607743E-01 -0.79058782035E-01  0.12926188310E+00  0.19655500158E-01 0.  0.
         14    1    1    2    0    0  0.17187512876E-01  0.15209640631E-01  0.27928396480E-03  0.22952598252E-01  0.00000000000E+00 0. -1.
     999901    1    3    3    0    0 -0.47473252443E-01 -0.11089024837E+00  0.78779498070E-01  0.89171551865E+00  0.88000000000E+00 0. -1.
        -11    1    4    4    0    0  0.39466856181E-02  0.34170008693E-01 -0.18743417039E-01  0.39175791310E-01  0.51100000000E-03 0. -1.
         11    1    4    4    0    0  0.26339053949E-01  0.61510599050E-01 -0.60315364996E-01  0.90086091790E-01  0.51100000000E-03 0.  1.
</event>
<event>
 8    1  0.1104109E+005  0.1043930E+01  0.7957747E-01            NaN
         13   -1    0    0    0    0  0.00000000000E+00  0.00000000000E+00  0.74505805969E-08  0.10566000000E+00  0.10566000000E+00 0.  1.
     999900   -1    0    0    0    0 -0.00000000000E+00 -0.00000000000E+00 -0.74505805969E-08  0.93827000000E+00  0.93827000000E+00 0.  1.
     999902    2    1    2    0    0  0.21654409917E-01 -0.79196536668E-02 -0.17192669811E-02  0.10208087919E+01  0.10205469119E+01 0.  0.
     999903    2    3    3    0    0 -0.53241732711E-01  0.10174928681E+00 -0.54791041144E-01  0.12926332373E+00  0.22789234359E-01 0.  0.
         14    1    1    2    0    0 -0.21654409917E-01  0.79196536668E-02  0.17192669811E-02  0.23121208057E-01  0.00000000000E+00 0.  1.
     999901    1    3    3    0    0  0.74896142628E-01 -0.10966894048E+00  0.53071774163E-01  0.89154546822E+00  0.88000000000E+00 0.  1.
        -11    1    4    4    0    0 -0.48721386919E-01  0.72655232280E-01 -0.38129154164E-01  0.95428768405E-01  0.51100000000E-03 0.  1.
         11    1    4    4    0    0 -0.45203457922E-02  0.29094054529E-01 -0.16661886980E-01  0.33834555321E-01  0.51100000000E-03 0. -1.
</event>
<event>
 8    1  0.1104109E+005  0.1043930E+01  0.7957747E-01            NaN
         13   -1    0    0    0    0  0.00000000000E+00  0.00000000000E+00  0.74505805969E-08  0.10566000000E+00  0.10566000000E+00 0.  1.
     999900   -1    0    0    0    0 -0.00000000000E+00 -0.00000000000E+00 -0.74505805969E-08  0.93827000000E+00  0.93827000000E+00 0.  1.
     999902    2    1    2    0    0  0.11494212570E-01 -0.15941065699E-01  0.10473051356E-01  0.10216607543E+01  0.10214180230E+01 0.  0.
     999903    2    3    3    0    0 -0.94456274266E-01 -0.85525613147E-01 -0.26091972622E-01  0.13182677212E+00  0.21468315273E-01 0.  0.
         14    1    1    2    0    0 -0.11494212570E-01  0.15941065699E-01 -0.10473051356E-01  0.22269245675E-01  0.00000000000E+00 0. -1.
     999901    1    3    3    0    0  0.10595048684E+00  0.69584547448E-01  0.36565023978E-01  0.88983398220E+00  0.88000000000E+00 0.  1.
        -11    1    4    4    0    0 -0.22016271178E-01 -0.26997165425E-01 -0.15373030201E-01  0.38080891746E-01  0.51100000000E-03 0. -1.
         11    1    4    4    0    0 -0.72440003087E-01 -0.58528447722E-01 -0.10718942421E-01  0.93745880377E-01  0.51100000000E-03 0.  1.
</event>
<event>
 8    1  0.1104109E+005  0.1043930E+01  0.7957747E-01            NaN
         13   -1    0    0    0    0  0.00000000000E+00  0.00000000000E+00  0.74505805969E-08  0.10566000000E+00  0.10566000000E+00 0. -1.
     999900   -1    0    0    0    0 -0.00000000000E+00 -0.00000000000E+00 -0.74505805969E-08  0.93827000000E+00  0.93827000000E+00 0. -1.
     999902    2    1    2    0    0  0.84569917908E-02  0.42160607360E-02 -0.60378830188E-02  0.10327160841E+01  0.10326551982E+01 0.  0.
     999903    2    3    3    0    0  0.80698725657E-02  0.95817070748E-01 -0.10339883599E+00  0.14262055549E+00  0.20081575538E-01 0.  0.
         14    1    1    2    0    0 -0.84569917908E-02 -0.42160607360E-02  0.60378830188E-02  0.11213915892E-01  0.00000000000E+00 0. -1.
     999901    1    3    3    0    0  0.38711922504E-03 -0.91601010012E-01  0.97360952968E-01  0.89009552861E+00  0.88000000000E+00 0.  1.
        -11    1    4    4    0    0 -0.43193832884E-02  0.16717974334E-01 -0.26322727843E-01  0.31484835396E-01  0.51100000000E-03 0.  1.
         11    1    4    4    0    0  0.12389255854E-01  0.79099096414E-01 -0.77076108144E-01  0.11113572010E+00  0.51100000000E-03 0. -1.
</event>
<event>
 8    1  0.1104109E+005  0.1043930E+01  0.7957747E-01            NaN
         13   -1    0    0    0    0  0.00000000000E+00  0.00000000000E+00  0.74505805969E-08  0.10566000000E+00  0.10566000000E+00 0. -1.
     999900   -1    0    0    0    0 -0.00000000000E+00 -0.00000000000E+00 -0.74505805969E-08  0.93827000000E+00  0.93827000000E+00 0. -1.
     999902    2    1    2    0    0 -0.17012736579E-02 -0.73918263128E-02  0.22186100079E-01  0.10204831140E+01  0.10202137175E+01 0.  0.
     999903    2    3    3    0    0 -0.45828926037E-01  0.45859584183E-01  0.11440706727E+00  0.13296541317E+00  0.19683295862E-01 0.  0.
         14    1    1    2    0    0  0.17012736579E-02  0.73918263128E-02 -0.22186100079E-01  0.23446886040E-01  0.00000000000E+00 0.  1.
     999901    1    3    3    0    0  0.44127652379E-01 -0.53251410496E-01 -0.92220967188E-01  0.88751770079E+00  0.88000000000E+00 0.  1.
        -11    1    4    4    0    0 -0.20793996809E-01  0.34195353035E-01  0.71334632345E-01  0.81796108498E-01  0.51100000000E-03 0.  1.
         11    1    4    4    0    0 -0.25034929227E-01  0.11664231148E-01  0.43072434921E-01  0.51169304673E-01  0.51100000000E-03 0. -1.
</event>
<event>
 8    1  0.1104109E+005  0.1043930E+01  0.7957747E-01            NaN
         13   -1    0    0    0    0  0.00000000000E+00  0.00000000000E+00  0.74505805969E-08  0.10566000000E+00  0.10566000000E+00 0. -1.
     999900   -1    0    0    0    0 -0.00000000000E+00 -0.00000000000E+00 -0.74505805969E-08  0.93827000000E+00  0.93827000000E+00 0.  1.
     999902    2    1    2    0    0 -0.12840924612E-01  0.18880799415E-01  0.46197210612E-02  0.10206337395E+01  0.10203678329E+01 0.  0.
     999903    2    3    3    0    0 -0.10294535226E-01  0.11270420238E+00 -0.66478002504E-01  0.13279129775E+00  0.20149174941E-01 0.  0.
         14    1    1    2    0    0  0.12840924612E-01 -0.18880799415E-01 -0.46197210612E-02  0.23296260517E-01  0.00000000000E+00 0.  1.
     999901    1    3    3    0    0 -0.25463893858E-02 -0.93823402970E-01  0.71097723566E-01  0.88784244173E+00  0.88000000000E+00 0. -1.
        -11    1    4    4    0    0  0.48939745208E-02  0.11340209343E-01 -0.55276301019E-02  0.13541312717E-01  0.51100000000E-03 0.  1.
         11    1    4    4    0    0 -0.15188509747E-01  0.10136399304E+00 -0.60950372403E-01  0.11924998503E+00  0.51100000000E-03 0. -1.
</event>
<event>
 8    1  0.1104109E+005  0.1043930E+01  0.7957747E-01            NaN
         13   -1    0    0    0    0  0.00000000000E+00  0.00000000000E+00  0.74505805969E-08  0.10566000000E+00  0.10566000000E+00 0.  1.
     999900   -1    0    0    0    0 -0.00000000000E+00 -0.00000000000E+00 -0.74505805969E-08  0.93827000000E+00  0.93827000000E+00 0. -1.
     999902    2    1    2    0    0  0.12063996523E-01  0.18356304614E-01 -0.93087139786E-02  0.10200732172E+01  0.10197942059E+01 0.  0.
     999903    2    3    3    0    0 -0.83536103203E-02  0.11065922684E+00 -0.67816572194E-01  0.13307835946E+00  0.28204875511E-01 0.  0.
         14    1    1    2    0    0 -0.12063996523E-01 -0.18356304614E-01  0.93087139786E-02  0.23856782833E-01  0.00000000000E+00 0.  1.
     999901    1    3    3    0    0  0.20417606843E-01 -0.92302922228E-01  0.58507858215E-01  0.88699485770E+00  0.88000000000E+00 0.  1.
        -11    1    4    4    0    0  0.27840924250E-02  0.42105874984E-01 -0.40360719244E-01  0.58394388923E-01  0.51100000000E-03 0. -1.
         11    1    4    4    0    0 -0.11137702745E-01  0.68553351858E-01 -0.27455852950E-01  0.74683970540E-01  0.51100000000E-03 0.  1.
</event>
<event>
 8    1  0.1104109E+005  0.1043930E+01  0.7957747E-01            NaN
         13   -1    0    0    0    0  0.00000000000E+00  0.00000000000E+00  0.74505805969E-08  0.10566000000E+00  0.10566000000E+00 0.  1.
     999900   -1    0    0    0    0 -0.00000000000E+00 -0.00000000000E+00 -0.74505805969E-08  0.93827000000E+00  0.93827000000E+00 0. -1.
     999902    2    1    2    0    0 -0.14468760398E-01  0.73338728577E-02  0.18539164360E-01  0.10192960532E+01  0.10189983380E+01 0.  0.
     999903    2    3    3    0    0  0.87045573782E-01 -0.90875380083E-01  0.11584665049E-01  0.12800565023E+00  0.20395475156E-01 0.  0.
         14    1    1    2    0    0  0.14468760398E-01 -0.73338728577E-02 -0.18539164360E-01  0.24633946775E-01  0.00000000000E+00 0. -1.
     999901    1    3    3    0    0 -0.10151433418E+00  0.98209252940E-01  0.69544993111E-02  0.89129040299E+00  0.88000000000E+00 0.  1.
        -11    1    4    4    0    0  0.81311697866E-01 -0.86834665695E-01  0.61573940471E-02  0.11912189555E+00  0.51100000000E-03 0.  1.
         11    1    4    4    0    0  0.57338759155E-02 -0.40407143877E-02  0.54272710015E-02  0.88837546849E-02  0.51100000000E-03 0. -1.
</event>
<event>
 8    1  0.1104109E+005  0.1043930E+01  0.7957747E-01            NaN
         13   -1    0    0    0    0  0.00000000000E+00  0.00000000000E+00  0.74505805969E-08  0.10566000000E+00  0.10566000000E+00 0.  1.
     999900   -1    0    0    0    0 -0.00000000000E+00 -0.00000000000E+00 -0.74505805969E-08  0.93827000000E+00  0.93827000000E+00 0. -1.
     999902    2    1    2    0    0  0.50143426051E-02 -0.21270391267E-01 -0.64991372385E-02  0.10211306149E+01  0.10208760555E+01 0.  0.
     999903    2    3    3    0    0  0.12926090423E+00 -0.86078486543E-02  0.15795227506E-01  0.13203298990E+00  0.20018611103E-01 0.  0.
         14    1    1    2    0    0 -0.50143426051E-02  0.21270391267E-01  0.64991372385E-02  0.22799385107E-01  0.00000000000E+00 0.  1.
     999901    1    3    3    0    0 -0.12424656162E+00 -0.12662542613E-01 -0.22294364744E-01  0.88909762499E+00  0.88000000000E+00 0.  1.
        -11    1    4    4    0    0  0.56564520048E-01 -0.27813078592E-02 -0.30138360252E-02  0.56715297145E-01  0.51100000000E-03 0. -1.
         11    1    4    4    0    0  0.72696384181E-01 -0.58265407951E-02  0.18809063531E-01  0.75317692759E-01  0.51100000000E-03 0.  1.
</event>
<event>
 8    1  0.1104109E+005  0.1043930E+01  0.7957747E-01            NaN
         13   -1    0    0    0    0  0.00000000000E+00  0.00000000000E+00  0.74505805969E-08  0.10566000000E+00  0.10566000000E+00 0. -1.
     999900   -1    0    0    0    0 -0.00000000000E+00 -0.00000000000E+00 -0.74505805969E-08  0.93827000000E+00  0.93827000000E+00 0.  1.
     999902    2    1    2    0    0 -0.23107359414E-01 -0.12436846566E-02  0.44224814269E-02  0.10203703915E+01  0.10200983681E+01 0.  0.
     999903    2    3    3    0    0  0.40624667385E-01 -0.48765507488E-01  0.11201333343E+00  0.13026034981E+00  0.19807411369E-01 0.  0.
         14    1    1    2    0    0  0.23107359414E-01  0.12436846566E-02 -0.44224814269E-02  0.23559608498E-01  0.00000000000E+00 0. -1.
     999901    1    3    3    0    0 -0.63732026798E-01  0.47521822832E-01 -0.10759085201E+00  0.89011004169E+00  0.88000000000E+00 0.  1.
        -11    1    4    4    0    0  0.14844129010E-01 -0.33153802959E-01  0.62668441225E-01  0.72436989607E-01  0.51100000000E-03 0. -1.
         11    1    4    4    0    0  0.25780538374E-01 -0.15611704530E-01  0.49344892208E-01  0.57823360204E-01  0.51100000000E-03 0.  1.
</event>
<event>
 8    1  0.1104109E+005  0.1043930E+01  0.7957747E-01            NaN
         13   -1    0    0    0    0  0.00000000000E+00  0.00000000000E+00  0.74505805969E-08  0.10566000000E+00  0.10566000000E+00 0. -1.
     999900   -1    0    0    0    0 -0.00000000000E+00 -0.00000000000E+00 -0.74505805969E-08  0.93827000000E+00  0.93827000000E+00 0.  1.
     999902    2    1    2    0    0 -0.13549849670E-02  0.23403412148E-01 -0.16544832071E-02  0.10204290851E+01  0.10201584312E+01 0.  0.
     999903    2    3    3    0    0 -0.52496751777E-01 -0.46039481219E-01  0.10766606142E+00  0.12948083904E+00  0.17255843041E-01 0.  0.
         14    1    1    2    0    0  0.13549849670E-02 -0.23403412148E-01  0.16544832071E-02  0.23500914857E-01  0.00000000000E+00 0. -1.
     999901    1    3    3    0    0  0.51141766810E-01  0.69442893367E-01 -0.10932054463E+00  0.89094824610E+00  0.88000000000E+00 0.  1.
        -11    1    4    4    0    0 -0.17403589619E-01 -0.13156320681E-01  0.48860845101E-01  0.53512774274E-01  0.51100000000E-03 0.  1.
         11    1    4    4    0    0 -0.35093162158E-01 -0.32883160538E-01  0.58805216321E-01  0.75968064769E-01  0.51100000000E-03 0. -1.
</event>
<event>
 8    1  0.1104109E+005  0.1043930E+01  0.7957747E-01            NaN
         13   -1    0    0    0    0  0.00000000000E+00  0.00000000000E+00  0.74505805969E-08  0.10566000000E+00  0.10566000000E+00 0. -1.
     999900   -1    0    0    0    0 -0.00000000000E+00 -0.00000000000E+00 -0.74505805969E-08  0.93827000000E+00  0.93827000000E+00 0.  1.
     999902    2    1    2    0    0  0.14354641536E-01 -0.13917698692E-01  0.47309837312E-02  0.10233839474E+01  0.10231776793E+01 0.  0.
     999903    2    3    3    0    0  0.11384669401E+00  0.45498693299E-02 -0.68796434637E-01  0.13453862856E+00  0.19644900277E-01 0.  0.
         14    1    1    2    0    0 -0.14354641536E-01  0.13917698692E-01 -0.47309837312E-02  0.20546052603E-01  0.00000000000E+00 0. -1.
     999901    1    3    3    0    0 -0.99492052474E-01 -0.18467568022E-01  0.73527418369E-01  0.88884531884E+00  0.88000000000E+00 0. -1.
        -11    1    4    4    0    0  0.39045540624E-01 -0.56354050377E-03 -0.34418939807E-01  0.52055704385E-01  0.51100000000E-03 0. -1.
         11    1    4    4    0    0  0.74801153386E-01  0.51134098337E-02 -0.34377494830E-01  0.82482924171E-01  0.51100000000E-03 0.  1.
</event>
<event>
 8    1  0.1104109E+005  0.1043930E+01  0.7957747E-01            NaN
         13   -1    0    0    0    0  0.00000000000E+00  0.00000000000E+00  0.74505805969E-08  0.10566000000E+00  0.10566000000E+00 0. -1.
     999900   -1    0    0    0    0 -0.00000000000E+00 -0.00000000000E+00 -0.74505805969E-08  0.93827000000E+00  0.93827000000E+00 0.  1.
     999902    2    1    2    0    0  0.63370292281E-04  0.10295236074E-01 -0.23486735230E-01  0.10182858460E+01  0.10179628881E+01 0.  0.
     999903    2    3    3    0    0  0.11466842304E+00 -0.43458466257E-01 -0.35012496222E-01  0.12915333520E+00  0.20426051273E-01 0.  0.
         14    1    1    2    0    0 -0.63370292281E-04 -0.10295236074E-01  0.23486735230E-01  0.25644153980E-01  0.00000000000E+00 0. -1.
     999901    1    3    3    0    0 -0.11460505274E+00  0.53753702331E-01  0.11525760993E-01  0.88913251082E+00  0.88000000000E+00 0.  1.
        -11    1    4    4    0    0  0.91403022184E-01 -0.26416876413E-01 -0.30783945246E-01  0.10000138114E+00  0.51100000000E-03 0.  1.
         11    1    4    4    0    0  0.23265400853E-01 -0.17041589845E-01 -0.42285509763E-02  0.29151954062E-01  0.51100000000E-03 0. -1.
</event>
<event>
 8    1  0.1104109E+005  0.1043930E+01  0.7957747E-01            NaN
         13   -1    0    0    0    0  0.00000000000E+00  0.00000000000E+00  0.74505805969E-08  0.10566000000E+00  0.10566000000E+00 0.  1.
     999900   -1    0    0    0    0 -0.00000000000E+00 -0.00000000000E+00 -0.74505805969E-08  0.93827000000E+00  0.93827000000E+00 0. -1.
     999902    2    1    2    0    0  0.47128533403E-02 -0.19661240755E-01 -0.12873911796E-01  0.10199609996E+01  0.10196793259E+01 0.  0.
     999903    2    3    3    0    0  0.90571493103E-01  0.79075323149E-01  0.41252619674E-01  0.12864158634E+00  0.19768080614E-01 0.  0.
         14    1    1    2    0    0 -0.47128533403E-02  0.19661240755E-01  0.12873911796E-01  0.23969000387E-01  0.00000000000E+00 0. -1.
     999901    1    3    3    0    0 -0.85858639763E-01 -0.98736563905E-01 -0.54126531469E-01  0.89131941328E+00  0.88000000000E+00 0.  1.
        -11    1    4    4    0    0  0.45278878000E-01  0.36755247785E-01  0.98335264262E-02  0.59144605804E-01  0.51100000000E-03 0.  1.
         11    1    4    4    0    0  0.45292615103E-01  0.42320075364E-01  0.31419093248E-01  0.69496980533E-01  0.51100000000E-03 0. -1.
</event>
<event>
 8    1  0.1104109E+005  0.1043930E+01  0.7957747E-01            NaN
         13   -1    0    0    0    0  0.00000000000E+00  0.00000000000E+00  0.74505805969E-08  0.10566000000E+00  0.10566000000E+00 0.  1.
     999900   -1    0    0    0    0 -0.00000000000E+00 -0.00000000000E+00 -0.74505805969E-08  0.93827000000E+00  0.93827000000E+00 0. -1.
     999902    2    1    2    0    0  0.30303722147E-02  0.52830933068E-02 -0.26037935604E-01  0.10171892386E+01  0.10168376856E+01 0.  0.
     999903    2    3    3    0    0 -0.11188828642E+00  0.30610195775E-01  0.46099077120E-01  0.12643028756E+00  0.20087806683E-01 0.  0.
         14    1    1    2    0    0 -0.30303722147E-02 -0.52830933068E-02  0.26037935604E-01  0.26740761417E-01  0.00000000000E+00 0.  1.
     999901    1    3    3    0    0  0.11491865864E+00 -0.25327102469E-01 -0.72137012723E-01  0.89075895102E+00  0.88000000000E+00 0. -1.
        -11    1    4    4    0    0 -0.86906254772E-01  0.16898943013E-01  0.28860502843E-01  0.93120680511E-01  0.51100000000E-03 0. -1.
         11    1    4    4    0    0 -0.24982031650E-01  0.13711252762E-01  0.17238574277E-01  0.33309607049E-01  0.51100000000E-03 0.  1.
</event>
<event>
 8    1  0.1104109E+005  0.1043930E+01  0.7957747E-01            NaN
         13   -1    0    0    0    0  0.00000000000E+00  0.00000000000E+00  0.74505805969E-08  0.10566000000E+00  0.10566000000E+00 0.  1.
     999900   -1    0    0    0    0 -0.00000000000E+00 -0.00000000000E+00 -0.74505805969E-08  0.93827000000E+00  0.93827000000E+00 0. -1.
     999902    2    1    2    0    0  0.22659035097E-02  0.29147960304E-02 -0.25250316714E-01  0.10184112060E+01  0.10180914377E+01 0.  0.
     999903    2    3    3    0    0 -0.51873341280E-01  0.34997605280E-01  0.10769659921E+00  0.12620313218E+00  0.20322332079E-01 0.  0.
         14    1    1    2    0    0 -0.22659035096E-02 -0.29147960304E-02  0.25250316714E-01  0.25518794030E-01  0.00000000000E+00 0.  1.
     999901    1    3    3    0    0  0.54139244790E-01 -0.32082809249E-01 -0.13294691592E+00  0.89220807379E+00  0.88000000000E+00 0. -1.
        -11    1    4    4    0    0 -0.21725288291E-01  0.23596948925E-01  0.40423499328E-01  0.51605470338E-01  0.51100000000E-03 0.  1.
         11    1    4    4    0    0 -0.30148052990E-01  0.11400656354E-01  0.67273099880E-01  0.74597661846E-01  0.51100000000E-03 0. -1.
</event>
<event>
 8    1  0.1104109E+005  0.1043930E+01  0.7957747E-01            NaN
         13   -1    0    0    0    0  0.00000000000E+00  0.00000000000E+00  0.74505805969E-08  0.10566000000E+00  0.10566000000E+00 0.  1.
     999900   -1    0    0    0    0 -0.00000000000E+00 -0.00000000000E+00 -0.74505805969E-08  0.93827000000E+00  0.93827000000E+00 0. -1.
     999902    2    1    2    0    0 -0.95274512193E-02 -0.71496829424E-02 -0.20604789346E-01  0.10201298396E+01  0.10198521667E+01 0.  0.
     999903    2    3    3    0    0 -0.12868783874E+00  0.36815386249E-02 -0.18457580685E-01  0.13203011328E+00  0.22741041379E-01 0.  0.
         14    1    1    2    0    0  0.95274512193E-02  0.71496829424E-02  0.20604789346E-01  0.23800160439E-01  0.00000000000E+00 0. -1.
     999901    1    3    3    0    0  0.11916038752E+00 -0.10831221567E-01 -0.21472086612E-02  0.88809972628E+00  0.88000000000E+00 0.  1.
        -11    1    4    4    0    0 -0.64451196561E-01  0.12304918747E-02  0.22136786860E-02  0.64502963829E-01  0.51100000000E-03 0. -1.
         11    1    4    4    0    0 -0.64236642175E-01  0.24510467502E-02 -0.20671259371E-01  0.67527149452E-01  0.51100000000E-03 0.  1.
</event>
<event>
 8    1  0.1371403E+005  0.1043930E+01  0.7957747E-01            NaN
         13   -1    0    0    0    0  0.00000000000E+00  0.00000000000E+00  0.74505805969E-08  0.10566000000E+00  0.10566000000E+00 0. -1.
     999900   -1    0    0    0    0 -0.00000000000E+00 -0.00000000000E+00 -0.74505805969E-08  0.93827000000E+00  0.93827000000E+00 0. -1.
     999902    2    1    2    0    0 -0.10345876376E-01 -0.17742015931E-01 -0.11813671374E-01  0.10202365596E+01  0.10199614004E+01 0.  0.
     999903    2    3    3    0    0 -0.10851326781E+00 -0.62826013456E-01  0.38864054499E-01  0.13218383848E+00  0.15489195102E-01 0.  0.
         14    1    1    2    0    0  0.10345876376E-01  0.17742015931E-01  0.11813671374E-01  0.23693440413E-01  0.00000000000E+00 0. -1.
     999901    1    3    3    0    0  0.98167391432E-01  0.45083997524E-01 -0.50677725873E-01  0.88805272111E+00  0.88000000000E+00 0.  1.
        -11    1    4    4    0    0 -0.51242288200E-01 -0.31538468215E-01  0.26553734493E-01  0.65770882721E-01  0.51100000000E-03 0. -1.
         11    1    4    4    0    0 -0.57270979608E-01 -0.31287545240E-01  0.12310320006E-01  0.66412955755E-01  0.51100000000E-03 0.  1.
</event>
<event>
 8    1  0.1104109E+005  0.1043930E+01  0.7957747E-01            NaN
         13   -1    0    0    0    0  0.00000000000E+00  0.00000000000E+00  0.74505805969E-08  0.10566000000E+00  0.10566000000E+00 0. -1.
     999900   -1    0    0    0    0 -0.00000000000E+00 -0.00000000000E+00 -0.74505805969E-08  0.93827000000E+00  0.93827000000E+00 0.  1.
     999902    2    1    2    0    0 -0.22627278561E-01 -0.83057555763E-02  0.21753022225E-02  0.10197285279E+01  0.10194412977E+01 0.  0.
     999903    2    3    3    0    0 -0.86282381184E-01  0.69359771681E-01 -0.67583564499E-01  0.13127469924E+00  0.20250462725E-01 0.  0.
         14    1    1    2    0    0  0.22627278561E-01  0.83057555763E-02 -0.21753022225E-02  0.24201472074E-01  0.00000000000E+00 0.  1.
     999901    1    3    3    0    0  0.63655102623E-01 -0.77665527257E-01  0.69758866722E-01  0.88845382868E+00  0.88000000000E+00 0. -1.
        -11    1    4    4    0    0 -0.37024924315E-02  0.94183871789E-02 -0.32331168920E-02  0.10636194484E-01  0.51100000000E-03 0.  1.
         11    1    4    4    0    0 -0.82579888753E-01  0.59941384502E-01 -0.64350447607E-01  0.12063850476E+00  0.51100000000E-03 0. -1.
</event>
<event>
 8    1  0.1104109E+005  0.1043930E+01  0.7957747E-01            NaN
         13   -1    0    0    0    0  0.00000000000E+00  0.00000000000E+00  0.74505805969E-08  0.10566000000E+00  0.10566000000E+00 0.  1.
     999900   -1    0    0    0    0 -0.00000000000E+00 -0.00000000000E+00 -0.74505805969E-08  0.93827000000E+00  0.93827000000E+00 0. -1.
     999902    2    1    2    0    0 -0.21599103201E-02  0.15194163307E-01  0.21073904962E-01  0.10178601461E+01  0.10175262354E+01 0.  0.
     999903    2    3    3    0    0 -0.11007739164E+00 -0.56087073811E-01  0.28693190148E-01  0.12837419848E+00  0.19845495104E-01 0.  0.
         14    1    1    2    0    0  0.21599103201E-02 -0.15194163307E-01 -0.21073904962E-01  0.26069853884E-01  0.00000000000E+00 0. -1.
     999901    1    3    3    0    0  0.10791748132E+00  0.71281237118E-01 -0.76192851867E-02  0.88948594764E+00  0.88000000000E+00 0. -1.
        -11    1    4    4    0    0 -0.37682026084E-01 -0.17448556265E-01  0.19238546930E-01  0.45768657556E-01  0.51100000000E-03 0.  1.
         11    1    4    4    0    0 -0.72395365552E-01 -0.38638517546E-01  0.94546432181E-02  0.82605540922E-01  0.51100000000E-03 0. -1.
</event>
<event>
 8    1  0.1104109E+005  0.1043930E+01  0.7957747E-01            NaN
         13   -1    0    0    0    0  0.00000000000E+00  0.00000000000E+00  0.74505805969E-08  0.10566000000E+00  0.10566000000E+00 0.  1.
     999900   -1    0    0    0    0 -0.00000000000E+00 -0.00000000000E+00 -0.74505805969E-08  0.93827000000E+00  0.93827000000E+00 0.  1.
     999902    2    1    2    0    0 -0.67256877949E-02 -0.21847006421E-01 -0.68182084357E-02  0.10200759745E+01  0.10197970285E+01 0.  0.
     999903    2    3    3    0    0  0.12152052876E+00 -0.64883068112E-02 -0.41144456775E-01  0.12998537629E+00  0.19849299522E-01 0.  0.
         14    1    1    2    0    0  0.67256877949E-02  0.21847006421E-01  0.68182084357E-02  0.23854025491E-01  0.00000000000E+00 0.  1.
     999901    1    3    3    0    0 -0.12824621655E+00 -0.15358699609E-01  0.34326248339E-01  0.89009059822E+00  0.88000000000E+00 0.  1.
        -11    1    4    4    0    0  0.20900762354E-01  0.41059073014E-02 -0.13029162076E-01  0.24974397433E-01  0.51100000000E-03 0. -1.
         11    1    4    4    0    0  0.10061976640E+00 -0.10594214113E-01 -0.28115294699E-01  0.10501097886E+00  0.51100000000E-03 0.  1.
</event>
<event>
 8    1  0.1104109E+005  0.1043930E+01  0.7957747E-01            NaN
         13   -1    0    0    0    0  0.00000000000E+00  0.00000000000E+00  0.74505805969E-08  0.10566000000E+00  0.10566000000E+00 0.  1.
     999900   -1    0    0    0    0 -0.00000000000E+00 -0.00000000000E+00 -0.74505805969E-08  0.93827000000E+00  0.93827000000E+00 0. -1.
     999902    2    1    2    0    0  0.15112068182E-01  0.26434399933E-02 -0.18351822299E-01  0.10200103060E+01  0.10197298037E+01 0.  0.
     999903    2    3    3    0    0 -0.11935881898E+00 -0.41207206636E-01 -0.68484052759E-02  0.12864190443E+00  0.23606723074E-01 0.  0.
         14    1    1    2    0    0 -0.15112068182E-01 -0.26434399933E-02  0.18351822299E-01  0.23919694008E-01  0.00000000000E+00 0.  1.
     999901    1    3    3    0    0  0.13447088716E+00  0.43850646629E-01 -0.11503417023E-01  0.89136840156E+00  0.88000000000E+00 0. -1.
        -11    1    4    4    0    0 -0.34057817206E-01 -0.81087377529E-03 -0.13719111581E-02  0.34098910398E-01  0.51100000000E-03 0.  1.
         11    1    4    4    0    0 -0.85301001770E-01 -0.40396332861E-01 -0.54764941178E-02  0.94542994031E-01  0.51100000000E-03 0. -1.
</event>
<event>
 8    1  0.1104109E+005  0.1043930E+01  0.7957747E-01            NaN
         13   -1    0    0    0    0  0.00000000000E+00  0.00000000000E+00  0.74505805969E-08  0.10566000000E+00  0.10566000000E+00 0. -1.
     999900   -1    0    0    0    0 -0.00000000000E+00 -0.00000000000E+00 -0.74505805969E-08  0.93827000000E+00  0.93827000000E+00 0.  1.
     999902    2    1    2    0    0 -0.19540976275E-01 -0.16875566022E-01  0.16735508412E-02  0.10180565531E+01  0.10177277190E+01 0.  0.
     999903    2    3    3    0    0  0.25144467516E-01 -0.10246591029E-01  0.12394102502E+00  0.12845548102E+00  0.20054826006E-01 0.  0.
         14    1    1    2    0    0  0.19540976275E-01  0.16875566022E-01 -0.16735508412E-02  0.25873446906E-01  0.00000000000E+00 0.  1.
     999901    1    3    3    0    0 -0.44685443791E-01 -0.66289749935E-02 -0.12226747418E+00  0.88960107208E+00  0.88000000000E+00 0.  1.
        -11    1    4    4    0    0  0.10645738057E-01 -0.14863112164E-02  0.16586892992E-01  0.19771873962E-01  0.51100000000E-03 0.  1.
         11    1    4    4    0    0  0.14498729459E-01 -0.87602798123E-02  0.10735413203E+00  0.10868360706E+00  0.51100000000E-03 0. -1.
</event>
<event>
 8    1  0.1104109E+005  0.1043930E+01  0.7957747E-01            NaN
         13   -1    0    0    0    0  0.00000000000E+00  0.00000000000E+00  0.74505805969E-08  0.10566000000E+00  0.10566000000E+00 0. -1.
     999900   -1    0    0    0    0 -0.00000000000E+00 -0.00000000000E+00 -0.74505805969E-08  0.93827000000E+00  0.93827000000E+00 0. -1.
     999902    2    1    2    0    0  0.93037038905E-02  0.17595043339E-01  0.16419731261E-01  0.10181278290E+01  0.10178008273E+01 0.  0.
     999903    2    3    3    0    0 -0.50772558289E-01  0.74661634352E-01 -0.88773987392E-01  0.12799779826E+00  0.18719059898E-01 0.  0.
         14    1    1    2    0    0 -0.93037038905E-02 -0.17595043339E-01 -0.16419731261E-01  0.25802171050E-01  0.00000000000E+00 0.  1.
     999901    1    3    3    0    0  0.60076262179E-01 -0.57066591013E-01  0.10519371865E+00  0.89013003069E+00  0.88000000000E+00 0.  1.
        -11    1    4    4    0    0 -0.33069036620E-01  0.32260460339E-01 -0.42259473511E-01  0.62613278996E-01  0.51100000000E-03 0.  1.
         11    1    4    4    0    0 -0.17703521669E-01  0.42401174013E-01 -0.46514513881E-01  0.65384519267E-01  0.51100000000E-03 0. -1.
</event>
<event>
 8    1  0.1104109E+005  0.1043930E+01  0.7957747E-01            NaN
         13   -1    0    0    0    0  0.00000000000E+00  0.00000000000E+00  0.74505805969E-08  0.10566000000E+00  0.10566000000E+00 0. -1.
     999900   -1    0    0    0    0 -0.00000000000E+00 -0.00000000000E+00 -0.74505805969E-08  0.93827000000E+00  0.93827000000E+00 0.  1.
     999902    2    1    2    0    0  0.18612913653E-01  0.39816281139E-02 -0.10337624510E-01  0.10222698893E+01  0.10220403936E+01 0.  0.
     999903    2    3    3    0    0  0.73116062228E-01 -0.34967660148E-01 -0.10572280878E+00  0.13458414889E+00  0.19154242990E-01 0.  0.
         14    1    1    2    0    0 -0.18612913653E-01 -0.39816281139E-02  0.10337624510E-01  0.21660110748E-01  0.00000000000E+00 0. -1.
     999901    1    3    3    0    0 -0.54503148574E-01  0.38949288262E-01  0.95385184271E-01  0.88768574036E+00  0.88000000000E+00 0. -1.
        -11    1    4    4    0    0  0.31570080276E-01 -0.21326495890E-01 -0.36888626121E-01  0.53033208971E-01  0.51100000000E-03 0.  1.
         11    1    4    4    0    0  0.41545981952E-01 -0.13641164257E-01 -0.68834182660E-01  0.81550939921E-01  0.51100000000E-03 0. -1.
</event>
<event>
 8    1  0.1104109E+005  0.1043930E+01  0.7957747E-01            NaN
         13   -1    0    0    0    0  0.00000000000E+00  0.00000000000E+00  0.74505805969E-08  0.10566000000E+00  0.10566000000E+00 0. -1.
     999900   -1    0    0    0    0 -0.00000000000E+00 -0.00000000000E+00 -0.74505805969E-08  0.93827000000E+00  0.93827000000E+00 0. -1.
     999902    2    1    2    0    0  0.84973029337E-02  0.18694475823E-01  0.12648076350E-01  0.10198123422E+01  0.10195271217E+01 0.  0.
     999903    2    3    3    0    0 -0.10467538126E+00  0.60817966201E-02 -0.71549428597E-01  0.12848952975E+00  0.19907657575E-01 0.  0.
         14    1    1    2    0    0 -0.84973029337E-02 -0.18694475823E-01 -0.12648076350E-01  0.24117657821E-01  0.00000000000E+00 0.  1.
     999901    1    3    3    0    0  0.11317268419E+00  0.12612679202E-01  0.84197504946E-01  0.89132281243E+00  0.88000000000E+00 0. -1.
        -11    1    4    4    0    0 -0.22004617205E-01 -0.51970814504E-02 -0.21425812457E-01  0.31153481257E-01  0.51100000000E-03 0. -1.
         11    1    4    4    0    0 -0.82670764053E-01  0.11278878070E-01 -0.50123616139E-01  0.97336048489E-01  0.51100000000E-03 0.  1.
</event>
<event>
 8    1  0.1104109E+005  0.1043930E+01  0.7957747E-01            NaN
         13   -1    0    0    0    0  0.00000000000E+00  0.00000000000E+00  0.74505805969E-08  0.10566000000E+00  0.10566000000E+00 0.  1.
     999900   -1    0    0    0    0 -0.00000000000E+00 -0.00000000000E+00 -0.74505805969E-08  0.93827000000E+00  0.93827000000E+00 0. -1.
     999902    2    1    2    0    0 -0.22193084848E-01  0.40962343768E-02 -0.19764042995E-02  0.10212756776E+01  0.10210243833E+01 0.  0.
     999903    2    3    3    0    0 -0.21387927315E-01  0.12588962036E+00  0.22859590100E-01  0.13254000045E+00  0.27178132948E-01 0.  0.
         14    1    1    2    0    0  0.22193084848E-01 -0.40962343768E-02  0.19764042995E-02  0.22654322438E-01  0.00000000000E+00 0.  1.
     999901    1    3    3    0    0 -0.80515753342E-03 -0.12179338599E+00 -0.24835994399E-01  0.88873567711E+00  0.88000000000E+00 0. -1.
        -11    1    4    4    0    0 -0.26568286645E-01  0.11877369772E+00  0.21989653235E-01  0.12368052028E+00  0.51100000000E-03 0. -1.
         11    1    4    4    0    0  0.51803593300E-02  0.71159226412E-02  0.86993686449E-03  0.88594801750E-02  0.51100000000E-03 0.  1.
</event>
<event>
 8    1  0.1104109E+005  0.1043930E+01  0.7957747E-01            NaN
         13   -1    0    0    0    0  0.00000000000E+00  0.00000000000E+00  0.74505805969E-08  0.10566000000E+00  0.10566000000E+00 0.  1.
     999900   -1    0    0    0    0 -0.00000000000E+00 -0.00000000000E+00 -0.74505805969E-08  0.93827000000E+00  0.93827000000E+00 0.  1.
     999902    2    1    2    0    0 -0.11624542032E-01  0.14560111396E-01 -0.14811405644E-01  0.10201286438E+01  0.10198509427E+01 0.  0.
     999903    2    3    3    0    0 -0.12568811269E-01 -0.46776115055E-01 -0.12056319710E+00  0.13167691986E+00  0.21385667439E-01 0.  0.
         14    1    1    2    0    0  0.11624542032E-01 -0.14560111396E-01  0.14811405644E-01  0.23801356232E-01  0.00000000000E+00 0.  1.
     999901    1    3    3    0    0  0.94426923722E-03  0.61336226451E-01  0.10575179146E+00  0.88845172391E+00  0.88000000000E+00 0. -1.
        -11    1    4    4    0    0 -0.49284189534E-02 -0.26213859149E-01 -0.39270763187E-01  0.47475358737E-01  0.51100000000E-03 0. -1.
         11    1    4    4    0    0 -0.76403923154E-02 -0.20562255906E-01 -0.81292433915E-01  0.84201561123E-01  0.51100000000E-03 0.  1.
</event>
<event>
 8    1  0.1104109E+005  0.1043930E+01  0.7957747E-01            NaN
         13   -1    0    0    0    0  0.00000000000E+00  0.00000000000E+00  0.74505805969E-08  0.10566000000E+00  0.10566000000E+00 0. -1.
     999900   -1    0    0    0    0 -0.00000000000E+00 -0.00000000000E+00 -0.74505805969E-08  0.93827000000E+00  0.93827000000E+00 0.  1.
     999902    2    1    2    0    0 -0.36030091022E-02  0.15844016945E-01  0.10347793837E-01  0.10246662676E+01  0.10244851725E+01 0.  0.
     999903    2    3    3    0    0  0.85870103947E-02 -0.11187923587E+00  0.69243850203E-01  0.13341401863E+00  0.20344272163E-01 0.  0.
         14    1    1    2    0    0  0.36030091022E-02 -0.15844016945E-01 -0.10347793837E-01  0.19263732370E-01  0.00000000000E+00 0.  1.
     999901    1    3    3    0    0 -0.12190019497E-01  0.12772325282E+00 -0.58896056366E-01  0.89125224900E+00  0.88000000000E+00 0.  1.
        -11    1    4    4    0    0  0.13264358929E-01 -0.46122447334E-01  0.32181609060E-01  0.57785296127E-01  0.51100000000E-03 0. -1.
         11    1    4    4    0    0 -0.46773485339E-02 -0.65756788540E-01  0.37062241143E-01  0.75628722507E-01  0.51100000000E-03 0.  1.
</event>
<event>
 7    1  0.1499056E+005  0.1043930E+01  0.7957747E-01            NaN
         13   -1    0    0    0    0  0.00000000000E+00  0.00000000000E+00  0.74505805969E-08  0.10566000000E+00  0.10566000000E+00 0. -1.
     999900   -1    0    0    0    0 -0.00000000000E+00 -0.00000000000E+00 -0.74505805969E-08  0.93827000000E+00  0.93827000000E+00 0.  1.
     999903    2    1    2    0    0 -0.10113067090E+00  0.42699850396E-01  0.43539743202E-01  0.11907960152E+00  0.15282422560E-01 0.  0.
         14    1    1    2    0    0  0.35056920838E-01  0.32103130001E-02 -0.20796095917E-01  0.40887301373E-01  0.00000000000E+00 0. -1.
     999901    1    1    2    0    0  0.66073750065E-01 -0.45910163396E-01 -0.22743647285E-01  0.88396309710E+00  0.88000000000E+00 0. -1.
        -11    1    3    3    0    0 -0.31380828101E-01  0.19279103564E-01  0.19477755251E-01  0.41666344658E-01  0.51100000000E-03 0.  1.
         11    1    3    3    0    0 -0.69749842803E-01  0.23420746832E-01  0.24061987951E-01  0.77413256864E-01  0.51100000000E-03 0. -1.
</event>
<event>
 8    1  0.1104109E+005  0.1043930E+01  0.7957747E-01            NaN
         13   -1    0    0    0    0  0.00000000000E+00  0.00000000000E+00  0.74505805969E-08  0.10566000000E+00  0.10566000000E+00 0.  1.
     999900   -1    0    0    0    0 -0.00000000000E+00 -0.00000000000E+00 -0.74505805969E-08  0.93827000000E+00  0.93827000000E+00 0.  1.
     999902    2    1    2    0    0  0.12679935256E-01 -0.14395674011E-01 -0.14921787608E-01  0.10196261745E+01  0.10193364802E+01 0.  0.
     999903    2    3    3    0    0 -0.86596690585E-01 -0.87541338149E-01 -0.39046719563E-01  0.13070089701E+00  0.19889833239E-01 0.  0.
         14    1    1    2    0    0 -0.12679935256E-01  0.14395674011E-01  0.14921787608E-01  0.24303825496E-01  0.00000000000E+00 0.  1.
     999901    1    3    3    0    0  0.99276625841E-01  0.73145664138E-01  0.24124931955E-01  0.88892527749E+00  0.88000000000E+00 0.  1.
        -11    1    4    4    0    0 -0.33086817963E-01 -0.33815476174E-01 -0.49897863557E-02  0.47575025388E-01  0.51100000000E-03 0.  1.
         11    1    4    4    0    0 -0.53509872622E-01 -0.53725861974E-01 -0.34056933208E-01  0.83125871625E-01  0.51100000000E-03 0. -1.
</event>
<event>
 8    1  0.1104109E+005  0.1043930E+01  0.7957747E-01            NaN
         13   -1    0    0    0    0  0.00000000000E+00  0.00000000000E+00  0.74505805969E-08  0.10566000000E+00  0.10566000000E+00 0. -1.
     999900   -1    0    0    0    0 -0.00000000000E+00 -0.00000000000E+00 -0.74505805969E-08  0.93827000000E+00  0.93827000000E+00 0.  1.
     999902    2    1    2    0    0  0.23080167922E-01  0.18046755064E-02 -0.42784482856E-03  0.10207754312E+01  0.10205127862E+01 0.  0.
     999903    2    3    3    0    0 -0.67739257071E-01  0.10428806912E+00  0.30771575535E-01  0.12963884361E+00  0.19867853481E-01 0.  0.
         14    1    1    2    0    0 -0.23080167922E-01 -0.18046755064E-02  0.42784482856E-03  0.23154568798E-01  0.00000000000E+00 0. -1.
     999901    1    3    3    0    0  0.90819424994E-01 -0.10248339361E+00 -0.31199420363E-01  0.89113658760E+00  0.88000000000E+00 0.  1.
        -11    1    4    4    0    0 -0.17024289391E-01  0.38088293109E-01  0.17280354678E-01  0.45159896812E-01  0.51100000000E-03 0.  1.
         11    1    4    4    0    0 -0.50714967681E-01  0.66199776007E-01  0.13491220857E-01  0.84478946794E-01  0.51100000000E-03 0. -1.
</event>
<event>
 8    1  0.1104109E+005  0.1043930E+01  0.7957747E-01            NaN
         13   -1    0    0    0    0  0.00000000000E+00  0.00000000000E+00  0.74505805969E-08  0.10566000000E+00  0.10566000000E+00 0. -1.
     999900   -1    0    0    0    0 -0.00000000000E+00 -0.00000000000E+00 -0.74505805969E-08  0.93827000000E+00  0.93827000000E+00 0. -1.
     999902    2    1    2    0    0  0.40971945095E-02 -0.72102512766E-02  0.26202492239E-01  0.10164464535E+01  0.10160748238E+01 0.  0.
     999903    2    3    3    0    0 -0.10307174759E+00 -0.69584563934E-01 -0.13525850894E-01  0.12686560939E+00  0.21121967584E-01 0.  0.
         14    1    1    2    0    0 -0.40971945095E-02  0.72102512766E-02 -0.26202492239E-01  0.27483546457E-01  0.00000000000E+00 0.  1.
     999901    1    3    3    0    0  0.10716894210E+00  0.62374312657E-01  0.39728343134E-01  0.88958084415E+00  0.88000000000E+00 0.  1.
        -11    1    4    4    0    0 -0.83384987307E-03  0.11282377438E-02  0.86360627535E-03  0.17248660285E-02  0.51100000000E-03 0.  1.
         11    1    4    4    0    0 -0.10223789772E+00 -0.70712801678E-01 -0.14389457170E-01  0.12514074336E+00  0.51100000000E-03 0. -1.
</event>
<event>
 8    1  0.1104109E+005  0.1043930E+01  0.7957747E-01            NaN
         13   -1    0    0    0    0  0.00000000000E+00  0.00000000000E+00  0.74505805969E-08  0.10566000000E+00  0.10566000000E+00 0. -1.
     999900   -1    0    0    0    0 -0.00000000000E+00 -0.00000000000E+00 -0.74505805969E-08  0.93827000000E+00  0.93827000000E+00 0. -1.
     999902    2    1    2    0    0 -0.87526914739E-02 -0.15956687323E-01  0.15558321203E-01  0.10199865909E+01  0.10197055256E+01 0.  0.
     999903    2    3    3    0    0  0.11875421919E+00 -0.35554239632E-01  0.35039914012E-01  0.13036779125E+00  0.20032395998E-01 0.  0.
         14    1    1    2    0    0  0.87526914739E-02  0.15956687323E-01 -0.15558321203E-01  0.23943409052E-01  0.00000000000E+00 0. -1.
     999901    1    3    3    0    0 -0.12750691066E+00  0.19597552309E-01 -0.19481592809E-01  0.88961879970E+00  0.88000000000E+00 0.  1.
        -11    1    4    4    0    0  0.77173560099E-01 -0.16647114485E-01  0.14450900921E-01  0.80261911623E-01  0.51100000000E-03 0.  1.
         11    1    4    4    0    0  0.41580659091E-01 -0.18907125147E-01  0.20589013092E-01  0.50105879624E-01  0.51100000000E-03 0. -1.
</event>
<event>
 8    1  0.1104109E+005  0.1043930E+01  0.7957747E-01            NaN
         13   -1    0    0    0    0  0.00000000000E+00  0.00000000000E+00  0.74505805969E-08  0.10566000000E+00  0.10566000000E+00 0. -1.
     999900   -1    0    0    0    0 -0.00000000000E+00 -0.00000000000E+00 -0.74505805969E-08  0.93827000000E+00  0.93827000000E+00 0.  1.
     999902    2    1    2    0    0  0.34771094686E-02  0.17833748704E-01  0.15742751017E-01  0.10198890538E+01  0.10196056664E+01 0.  0.
     999903    2    3    3    0    0  0.37197149408E-01  0.97108927170E-03 -0.12127746071E+00  0.12848794950E+00  0.20404895289E-01 0.  0.
         14    1    1    2    0    0 -0.34771094686E-02 -0.17833748704E-01 -0.15742751017E-01  0.24040946169E-01  0.00000000000E+00 0.  1.
     999901    1    3    3    0    0 -0.33720039940E-01  0.16862659432E-01  0.13702021173E+00  0.89140110433E+00  0.88000000000E+00 0. -1.
        -11    1    4    4    0    0  0.37998833596E-02 -0.19100268894E-02 -0.44556625481E-01  0.44762052137E-01  0.51100000000E-03 0. -1.
         11    1    4    4    0    0  0.33397266049E-01  0.28811161611E-02 -0.76720835232E-01  0.83725897365E-01  0.51100000000E-03 0.  1.
</event>
<event>
 8    1  0.1104109E+005  0.1043930E+01  0.7957747E-01            NaN
         13   -1    0    0    0    0  0.00000000000E+00  0.00000000000E+00  0.74505805969E-08  0.10566000000E+00  0.10566000000E+00 0.  1.
     999900   -1    0    0    0    0 -0.00000000000E+00 -0.00000000000E+00 -0.74505805969E-08  0.93827000000E+00  0.93827000000E+00 0. -1.
     999902    2    1    2    0    0  0.16654524993E-03 -0.21178000548E-01  0.96430341364E-02  0.10206593414E+01  0.10203940257E+01 0.  0.
     999903    2    3    3    0    0 -0.96783530000E-01 -0.43063060647E-01  0.77054159307E-01  0.13250252374E+00  0.19952354746E-01 0.  0.
         14    1    1    2    0    0 -0.16654524993E-03  0.21178000548E-01 -0.96430341364E-02  0.23270658604E-01  0.00000000000E+00 0.  1.
     999901    1    3    3    0    0  0.96950075250E-01  0.21885060099E-01 -0.67411125171E-01  0.88815681765E+00  0.88000000000E+00 0. -1.
        -11    1    4    4    0    0 -0.62301004478E-01 -0.26350846463E-01  0.37147877409E-01  0.77175178556E-01  0.51100000000E-03 0. -1.
         11    1    4    4    0    0 -0.34482525523E-01 -0.16712214185E-01  0.39906281899E-01  0.55327345186E-01  0.51100000000E-03 0.  1.
</event>
<event>
 8    1  0.1104109E+005  0.1043930E+01  0.7957747E-01            NaN
         13   -1    0    0    0    0  0.00000000000E+00  0.00000000000E+00  0.74505805969E-08  0.10566000000E+00  0.10566000000E+00 0. -1.
     999900   -1    0    0    0    0 -0.00000000000E+00 -0.00000000000E+00 -0.74505805969E-08  0.93827000000E+00  0.93827000000E+00 0. -1.
     999902    2    1    2    0    0  0.22347602787E-01 -0.45828182496E-02 -0.70813386770E-02  0.10200435408E+01  0.10197638267E+01 0.  0.
     999903    2    3    3    0    0 -0.57089949990E-01 -0.10670341485E+00 -0.42577772546E-01  0.12987561407E+00  0.20246661093E-01 0.  0.
         14    1    1    2    0    0 -0.22347602787E-01  0.45828182496E-02  0.70813386770E-02  0.23886459154E-01  0.00000000000E+00 0.  1.
     999901    1    3    3    0    0  0.79437552777E-01  0.10212059660E+00  0.35496433869E-01  0.89016792677E+00  0.88000000000E+00 0.  1.
        -11    1    4    4    0    0 -0.85098111468E-02 -0.31842175909E-01 -0.64091687372E-02  0.33580941280E-01  0.51100000000E-03 0. -1.
         11    1    4    4    0    0 -0.48580138843E-01 -0.74861238940E-01 -0.36168603809E-01  0.96294672792E-01  0.51100000000E-03 0.  1.
</event>
<event>
 8    1  0.1104109E+005  0.1043930E+01  0.7957747E-01            NaN
         13   -1    0    0    0    0  0.00000000000E+00  0.00000000000E+00  0.74505805969E-08  0.10566000000E+00  0.10566000000E+00 0. -1.
     999900   -1    0    0    0    0 -0.00000000000E+00 -0.00000000000E+00 -0.74505805969E-08  0.93827000000E+00  0.93827000000E+00 0.  1.
     999902    2    1    2    0    0  0.19793763906E-01  0.61933380577E-03  0.11375964437E-02  0.10240939019E+01  0.10239017770E+01 0.  0.
     999903    2    3    3    0    0 -0.10127755696E+00  0.49122228150E-01 -0.65883266796E-01  0.13196017219E+00  0.20068516623E-01 0.  0.
         14    1    1    2    0    0 -0.19793763906E-01 -0.61933380577E-03 -0.11375964437E-02  0.19836098145E-01  0.00000000000E+00 0. -1.
     999901    1    3    3    0    0  0.12107132086E+00 -0.48502894344E-01  0.67020863240E-01  0.89213372966E+00  0.88000000000E+00 0. -1.
        -11    1    4    4    0    0 -0.61865464826E-01  0.31319966064E-01 -0.29168318779E-01  0.75228504928E-01  0.51100000000E-03 0.  1.
         11    1    4    4    0    0 -0.39412092131E-01  0.17802262086E-01 -0.36714948017E-01  0.56731667263E-01  0.51100000000E-03 0. -1.
</event>
<event>
 8    1  0.1104109E+005  0.1043930E+01  0.7957747E-01            NaN
         13   -1    0    0    0    0  0.00000000000E+00  0.00000000000E+00  0.74505805969E-08  0.10566000000E+00  0.10566000000E+00 0.  1.
     999900   -1    0    0    0    0 -0.00000000000E+00 -0.00000000000E+00 -0.74505805969E-08  0.93827000000E+00  0.93827000000E+00 0. -1.
     999902    2    1    2    0    0 -0.19349850432E-01 -0.11261676138E-01 -0.81067080074E-02  0.10201190618E+01  0.10198411345E+01 0.  0.
     999903    2    3    3    0    0  0.10381976960E+00  0.39893256199E-01  0.59249298603E-01  0.12752485728E+00  0.19547209240E-01 0.  0.
         14    1    1    2    0    0  0.19349850432E-01  0.11261676138E-01  0.81067080074E-02  0.23810938157E-01  0.00000000000E+00 0.  1.
     999901    1    3    3    0    0 -0.12316962003E+00 -0.51154932337E-01 -0.67356006610E-01  0.89259420457E+00  0.88000000000E+00 0. -1.
        -11    1    4    4    0    0  0.58444796947E-01  0.28184247231E-01  0.43354367266E-01  0.78038505650E-01  0.51100000000E-03 0.  1.
         11    1    4    4    0    0  0.45374972650E-01  0.11709008968E-01  0.15894931337E-01  0.49486351626E-01  0.51100000000E-03 0. -1.
</event>
<event>
 8    1  0.1104109E+005  0.1043930E+01  0.7957747E-01            NaN
         13   -1    0    0    0    0  0.00000000000E+00  0.00000000000E+00  0.74505805969E-08  0.10566000000E+00  0.10566000000E+00 0. -1.
     999900   -1    0    0    0    0 -0.00000000000E+00 -0.00000000000E+00 -0.74505805969E-08  0.93827000000E+00  0.93827000000E+00 0.  1.
     999902    2    1    2    0    0  0.43780867466E-03  0.11953022004E-02 -0.23322522735E-01  0.10205727636E+01  0.10203054471E+01 0.  0.
     999903    2    3    3    0    0  0.33489499970E-01 -0.61009044667E-01 -0.11197401553E+00  0.13331807515E+00  0.19795930634E-01 0.  0.
         14    1    1    2    0    0 -0.43780867466E-03 -0.11953022004E-02  0.23322522735E-01  0.23357236363E-01  0.00000000000E+00 0. -1.
     999901    1    3    3    0    0 -0.33051691295E-01  0.62204346867E-01  0.88651492790E-01  0.88725468849E+00  0.88000000000E+00 0.  1.
        -11    1    4    4    0    0  0.23031210322E-01 -0.33915795626E-01 -0.81423615244E-01  0.91163501920E-01  0.51100000000E-03 0.  1.
         11    1    4    4    0    0  0.10458289648E-01 -0.27093249041E-01 -0.30550400281E-01  0.42154573231E-01  0.51100000000E-03 0. -1.
</event>
<event>
 8    1  0.1104109E+005  0.1043930E+01  0.7957747E-01            NaN
         13   -1    0    0    0    0  0.00000000000E+00  0.00000000000E+00  0.74505805969E-08  0.10566000000E+00  0.10566000000E+00 0.  1.
     999900   -1    0    0    0    0 -0.00000000000E+00 -0.00000000000E+00 -0.74505805969E-08  0.93827000000E+00  0.93827000000E+00 0.  1.
     999902    2    1    2    0    0 -0.69368066012E-02 -0.22100514933E-01  0.34987898019E-02  0.10205036564E+01  0.10202347372E+01 0.  0.
     999903    2    3    3    0    0 -0.18256345364E-01  0.79720646606E-01  0.98432856163E-01  0.12948841640E+00  0.19736949295E-01 0.  0.
         14    1    1    2    0    0  0.69368066012E-02  0.22100514933E-01 -0.34987898019E-02  0.23426343637E-01  0.00000000000E+00 0. -1.
     999901    1    3    3    0    0  0.11319538763E-01 -0.10182116154E+00 -0.94934066361E-01  0.89101523997E+00  0.88000000000E+00 0.  1.
        -11    1    4    4    0    0  0.63896505978E-03  0.25673985804E-01  0.20957997581E-01  0.33152082997E-01  0.51100000000E-03 0.  1.
         11    1    4    4    0    0 -0.18895310424E-01  0.54046660801E-01  0.77474858582E-01  0.96336333401E-01  0.51100000000E-03 0. -1.
</event>
<event>
 8    1  0.1104109E+005  0.1043930E+01  0.7957747E-01            NaN
         13   -1    0    0    0    0  0.00000000000E+00  0.00000000000E+00  0.74505805969E-08  0.10566000000E+00  0.10566000000E+00 0.  1.
     999900   -1    0    0    0    0 -0.00000000000E+00 -0.00000000000E+00 -0.74505805969E-08  0.93827000000E+00  0.93827000000E+00 0. -1.
     999902    2    1    2    0    0 -0.72898995631E-02 -0.27205727315E-01  0.24563056949E-01  0.10065583797E+01  0.10058643715E+01 0.  0.
     999903    2    3    3    0    0  0.30891898335E-01  0.48288981339E-01 -0.96712002058E-01  0.11422159317E+00  0.20179839008E-01 0.  0.
         14    1    1    2    0    0  0.72898995631E-02  0.27205727315E-01 -0.24563056949E-01  0.37371620263E-01  0.00000000000E+00 0. -1.
     999901    1    3    3    0    0 -0.38181797898E-01 -0.75494708655E-01  0.12127505901E+00  0.89233678657E+00  0.88000000000E+00 0.  1.
        -11    1    4    4    0    0  0.18328348291E-01  0.11740026304E-01 -0.29125538372E-01  0.36363644965E-01  0.51100000000E-03 0.  1.
         11    1    4    4    0    0  0.12563550044E-01  0.36548955035E-01 -0.67586463686E-01  0.77857948204E-01  0.51100000000E-03 0. -1.
</event>
<event>
 8    1  0.1104109E+005  0.1043930E+01  0.7957747E-01            NaN
         13   -1    0    0    0    0  0.00000000000E+00  0.00000000000E+00  0.74505805969E-08  0.10566000000E+00  0.10566000000E+00 0. -1.
     999900   -1    0    0    0    0 -0.00000000000E+00 -0.00000000000E+00 -0.74505805969E-08  0.93827000000E+00  0.93827000000E+00 0. -1.
     999902    2    1    2    0    0 -0.33947026356E-02 -0.19114964507E-01 -0.10143867301E-01  0.10220255731E+01  0.10217908143E+01 0.  0.
     999903    2    3    3    0    0 -0.23511696528E-01  0.57152797325E-01 -0.11543531925E+00  0.13224596286E+00  0.18559085302E-01 0.  0.
         14    1    1    2    0    0  0.33947026356E-02  0.19114964507E-01  0.10143867301E-01  0.21904426902E-01  0.00000000000E+00 0. -1.
     999901    1    3    3    0    0  0.20116993892E-01 -0.76267761831E-01  0.10529145195E+00  0.88977961024E+00  0.88000000000E+00 0.  1.
        -11    1    4    4    0    0 -0.16365222090E-01  0.48165997775E-01 -0.78321432338E-01  0.93393210247E-01  0.51100000000E-03 0.  1.
         11    1    4    4    0    0 -0.71464744376E-02  0.89867995493E-02 -0.37113886912E-01  0.38852752615E-01  0.51100000000E-03 0. -1.
</event>
<event>
 8    1  0.1104109E+005  0.1043930E+01  0.7957747E-01            NaN
         13   -1    0    0    0    0  0.00000000000E+00  0.00000000000E+00  0.74505805969E-08  0.10566000000E+00  0.10566000000E+00 0. -1.
     999900   -1    0    0    0    0 -0.00000000000E+00 -0.00000000000E+00 -0.74505805969E-08  0.93827000000E+00  0.93827000000E+00 0. -1.
     999902    2    1    2    0    0 -0.23951464697E-01  0.21571957540E-02 -0.30051741280E-02  0.10196945461E+01  0.10194064989E+01 0.  0.
     999903    2    3    3    0    0 -0.20450572424E-01 -0.17865348138E-01  0.12623023384E+00  0.13002328704E+00  0.15316222117E-01 0.  0.
         14    1    1    2    0    0  0.23951464697E-01 -0.21571957540E-02  0.30051741280E-02  0.24235453909E-01  0.00000000000E+00 0.  1.
     999901    1    3    3    0    0 -0.35008922726E-02  0.20022543892E-01 -0.12923540797E+00  0.88967125905E+00  0.88000000000E+00 0. -1.
        -11    1    4    4    0    0 -0.17687430856E-01 -0.10898681159E-01  0.62788650425E-01  0.66138507728E-01  0.51100000000E-03 0. -1.
         11    1    4    4    0    0 -0.27631415686E-02 -0.69666669793E-02  0.63441583417E-01  0.63884779310E-01  0.51100000000E-03 0.  1.
</event>
<event>
 8    1  0.1104109E+005  0.1043930E+01  0.7957747E-01            NaN
         13   -1    0    0    0    0  0.00000000000E+00  0.00000000000E+00  0.74505805969E-08  0.10566000000E+00  0.10566000000E+00 0. -1.
     999900   -1    0    0    0    0 -0.00000000000E+00 -0.00000000000E+00 -0.74505805969E-08  0.93827000000E+00  0.93827000000E+00 0.  1.
     999902    2    1    2    0    0 -0.12933389987E-02 -0.30694735005E-02  0.23802300038E-01  0.10198957769E+01  0.10196125499E+01 0.  0.
     999903    2    3    3    0    0  0.10851753708E+00  0.66844403306E-01 -0.92151517318E-02  0.12970673472E+00  0.22241580521E-01 0.  0.
         14    1    1    2    0    0  0.12933389987E-02  0.30694735005E-02 -0.23802300038E-01  0.24034223109E-01  0.00000000000E+00 0.  1.
     999901    1    3    3    0    0 -0.10981087608E+00 -0.69913876806E-01  0.33017451770E-01  0.89018904217E+00  0.88000000000E+00 0.  1.
        -11    1    4    4    0    0  0.56884883909E-01  0.40392502286E-01  0.50849862779E-02  0.69954002492E-01  0.51100000000E-03 0. -1.
         11    1    4    4    0    0  0.51632653170E-01  0.26451901020E-01 -0.14300138010E-01  0.59752732231E-01  0.51100000000E-03 0.  1.
</event>
<event>
 8    1  0.1104109E+005  0.1043930E+01  0.7957747E-01            NaN
         13   -1    0    0    0    0  0.00000000000E+00  0.00000000000E+00  0.74505805969E-08  0.10566000000E+00  0.10566000000E+00 0. -1.
     999900   -1    0    0    0    0 -0.00000000000E+00 -0.00000000000E+00 -0.74505805969E-08  0.93827000000E+00  0.93827000000E+00 0. -1.
     999902    2    1    2    0    0 -0.17045036657E-01  0.94085125084E-02 -0.91351306821E-02  0.10224240940E+01  0.10221978888E+01 0.  0.
     999903    2    3    3    0    0  0.14990038546E-01  0.68650030844E-01 -0.11273672759E+00  0.13379082065E+00  0.15902388258E-01 0.  0.
         14    1    1    2    0    0  0.17045036657E-01 -0.94085125084E-02  0.91351306821E-02  0.21505906046E-01  0.00000000000E+00 0. -1.
     999901    1    3    3    0    0 -0.32035075203E-01 -0.59241518335E-01  0.10360159691E+00  0.88863327330E+00  0.88000000000E+00 0. -1.
        -11    1    4    4    0    0  0.14978149015E-01  0.52524288739E-01 -0.75287605867E-01  0.93014141793E-01  0.51100000000E-03 0. -1.
         11    1    4    4    0    0  0.11889531391E-04  0.16125742105E-01 -0.37449121725E-01  0.40776678859E-01  0.51100000000E-03 0.  1.
</event>
<event>
 8    1  0.1104109E+005  0.1043930E+01  0.7957747E-01            NaN
         13   -1    0    0    0    0  0.00000000000E+00  0.00000000000E+00  0.74505805969E-08  0.10566000000E+00  0.10566000000E+00 0.  1.
     999900   -1    0    0    0    0 -0.00000000000E+00 -0.00000000000E+00 -0.74505805969E-08  0.93827000000E+00  0.93827000000E+00 0. -1.
     999902    2    1    2    0    0 -0.29455742934E-02  0.13454603239E-01  0.19897143712E-01  0.10197308454E+01  0.10194436708E+01 0.  0.
     999903    2    3    3    0    0  0.10582522788E+00  0.61139856554E-01  0.43605373420E-01  0.13143638354E+00  0.20905344114E-01 0.  0.
         14    1    1    2    0    0  0.29455742934E-02 -0.13454603239E-01 -0.19897143712E-01  0.24199154616E-01  0.00000000000E+00 0.  1.
     999901    1    3    3    0    0 -0.10877080217E+00 -0.47685253314E-01 -0.23708229708E-01  0.88829446184E+00  0.88000000000E+00 0. -1.
        -11    1    4    4    0    0  0.32856874556E-01  0.25538994578E-01  0.63292373942E-02  0.42096731662E-01  0.51100000000E-03 0.  1.
         11    1    4    4    0    0  0.72968353320E-01  0.35600861976E-01  0.37276136025E-01  0.89339651878E-01  0.51100000000E-03 0. -1.
</event>
<event>
 8    1  0.1104109E+005  0.1043930E+01  0.7957747E-01            NaN
         13   -1    0    0    0    0  0.00000000000E+00  0.00000000000E+00  0.74505805969E-08  0.10566000000E+00  0.10566000000E+00 0. -1.
     999900   -1    0    0    0    0 -0.00000000000E+00 -0.00000000000E+00 -0.74505805969E-08  0.93827000000E+00  0.93827000000E+00 0.  1.
     999902    2    1    2    0    0  0.31518199330E-02 -0.24852303781E-01 -0.37467970364E-02  0.10185999889E+01  0.10182849935E+01 0.  0.
     999903    2    3    3    0    0 -0.75465293519E-01  0.98351080153E-01 -0.15412861072E-01  0.12647005368E+00  0.19727460514E-01 0.  0.
         14    1    1    2    0    0 -0.31518199330E-02  0.24852303781E-01  0.37467970364E-02  0.25330011057E-01  0.00000000000E+00 0. -1.
     999901    1    3    3    0    0  0.78617113452E-01 -0.12320338393E+00  0.11666064036E-01  0.89212993526E+00  0.88000000000E+00 0. -1.
        -11    1    4    4    0    0 -0.23894498650E-01  0.38052675373E-01  0.29329266589E-02  0.45031281889E-01  0.51100000000E-03 0. -1.
         11    1    4    4    0    0 -0.51570794869E-01  0.60298404781E-01 -0.18345787731E-01  0.81438771792E-01  0.51100000000E-03 0.  1.
</event>
<event>
 8    1  0.1104109E+005  0.1043930E+01  0.7957747E-01            NaN
         13   -1    0    0    0    0  0.00000000000E+00  0.00000000000E+00  0.74505805969E-08  0.10566000000E+00  0.10566000000E+00 0.  1.
     999900   -1    0    0    0    0 -0.00000000000E+00 -0.00000000000E+00 -0.74505805969E-08  0.93827000000E+00  0.93827000000E+00 0. -1.
     999902    2    1    2    0    0 -0.91523702076E-02  0.16289865089E-01  0.13788320364E-01  0.10207083859E+01  0.10204442001E+01 0.  0.
     999903    2    3    3    0    0 -0.73419268354E-01  0.20656801811E-01 -0.10405826856E+00  0.13051901114E+00  0.19748331247E-01 0.  0.
         14    1    1    2    0    0  0.91523702076E-02 -0.16289865089E-01 -0.13788320364E-01  0.23221614145E-01  0.00000000000E+00 0. -1.
     999901    1    3    3    0    0  0.64266898146E-01 -0.43669367215E-02  0.11784658892E+00  0.89018937471E+00  0.88000000000E+00 0.  1.
        -11    1    4    4    0    0 -0.11688797594E-01  0.10255973750E-01 -0.27781589941E-01  0.31841652712E-01  0.51100000000E-03 0.  1.
         11    1    4    4    0    0 -0.61730470760E-01  0.10400828060E-01 -0.76276678618E-01  0.98677358429E-01  0.51100000000E-03 0. -1.
</event>
<event>
 8    1  0.1104109E+005  0.1043930E+01  0.7957747E-01            NaN
         13   -1    0    0    0    0  0.00000000000E+00  0.00000000000E+00  0.74505805969E-08  0.10566000000E+00  0.10566000000E+00 0. -1.
     999900   -1    0    0    0    0 -0.00000000000E+00 -0.00000000000E+00 -0.74505805969E-08  0.93827000000E+00  0.93827000000E+00 0. -1.
     999902    2    1    2    0    0  0.22335612895E-01  0.63799492869E-02  0.46030975653E-02  0.10202493779E+01  0.10199745199E+01 0.  0.
     999903    2    3    3    0    0  0.49433382097E-01  0.52019970332E-01  0.10946204511E+00  0.13243594056E+00  0.20189166736E-01 0.  0.
         14    1    1    2    0    0 -0.22335612895E-01 -0.63799492869E-02 -0.46030975653E-02  0.23680622110E-01  0.00000000000E+00 0. -1.
     999901    1    3    3    0    0 -0.27097769202E-01 -0.45640021045E-01 -0.10485894755E+00  0.88781343733E+00  0.88000000000E+00 0. -1.
        -11    1    4    4    0    0  0.37704853262E-01  0.28909327245E-01  0.59445795852E-01  0.76101701208E-01  0.51100000000E-03 0.  1.
         11    1    4    4    0    0  0.11728528835E-01  0.23110643086E-01  0.50016249263E-01  0.56334239356E-01  0.51100000000E-03 0. -1.
</event>
<event>
 8    1  0.1104109E+005  0.1043930E+01  0.7957747E-01            NaN
         13   -1    0    0    0    0  0.00000000000E+00  0.00000000000E+00  0.74505805969E-08  0.10566000000E+00  0.10566000000E+00 0. -1.
     999900   -1    0    0    0    0 -0.00000000000E+00 -0.00000000000E+00 -0.74505805969E-08  0.93827000000E+00  0.93827000000E+00 0. -1.
     999902    2    1    2    0    0 -0.18429021347E-01  0.62075874587E-02  0.16137888989E-01  0.10186595740E+01  0.10183460773E+01 0.  0.
     999903    2    3    3    0    0 -0.35733751562E-02 -0.49344144426E-01 -0.11526355600E+00  0.12704697600E+00  0.20189927427E-01 0.  0.
         14    1    1    2    0    0  0.18429021347E-01 -0.62075874587E-02 -0.16137888989E-01  0.25270426013E-01  0.00000000000E+00 0.  1.
     999901    1    3    3    0    0 -0.14855646191E-01  0.55551731885E-01  0.13140144499E+00  0.89161259798E+00  0.88000000000E+00 0.  1.
        -11    1    4    4    0    0 -0.70160139752E-02 -0.25407033915E-01 -0.80416056490E-01  0.84627094284E-01  0.51100000000E-03 0. -1.
         11    1    4    4    0    0  0.34426388190E-02 -0.23937110511E-01 -0.34847499513E-01  0.42419881718E-01  0.51100000000E-03 0.  1.
</event>
<event>
 8    1  0.1104109E+005  0.1043930E+01  0.7957747E-01            NaN
         13   -1    0    0    0    0  0.00000000000E+00  0.00000000000E+00  0.74505805969E-08  0.10566000000E+00  0.10566000000E+00 0.  1.
     999900   -1    0    0    0    0 -0.00000000000E+00 -0.00000000000E+00 -0.74505805969E-08  0.93827000000E+00  0.93827000000E+00 0. -1.
     999902    2    1    2    0    0 -0.57138383773E-02  0.22432784097E-01  0.69914481396E-02  0.10197482280E+01  0.10194614708E+01 0.  0.
     999903    2    3    3    0    0 -0.87033384159E-01 -0.77490395853E-02  0.95533443205E-01  0.13106184015E+00  0.20388957814E-01 0.  0.
         14    1    1    2    0    0  0.57138383773E-02 -0.22432784097E-01 -0.69914481396E-02  0.24181772028E-01  0.00000000000E+00 0. -1.
     999901    1    3    3    0    0  0.81319545782E-01  0.30181823682E-01 -0.88541995065E-01  0.88868638782E+00  0.88000000000E+00 0.  1.
        -11    1    4    4    0    0 -0.52358260151E-01  0.47081739927E-02  0.50798188323E-01  0.73104523569E-01  0.51100000000E-03 0. -1.
         11    1    4    4    0    0 -0.34675124008E-01 -0.12457213578E-01  0.44735254882E-01  0.57957316583E-01  0.51100000000E-03 0.  1.
</event>
<event>
 8    1  0.1104109E+005  0.1043930E+01  0.7957747E-01            NaN
         13   -1    0    0    0    0  0.00000000000E+00  0.00000000000E+00  0.74505805969E-08  0.10566000000E+00  0.10566000000E+00 0. -1.
     999900   -1    0    0    0    0 -0.00000000000E+00 -0.00000000000E+00 -0.74505805969E-08  0.93827000000E+00  0.93827000000E+00 0.  1.
     999902    2    1    2    0    0 -0.16883583004E-01  0.17877705293E-01  0.56293482368E-02  0.10187038770E+01  0.10183914923E+01 0.  0.
     999903    2    3    3    0    0 -0.10131316257E+00 -0.78831155549E-01  0.15295714296E-02  0.12937954589E+00  0.16062979546E-01 0.  0.
         14    1    1    2    0    0  0.16883583004E-01 -0.17877705293E-01 -0.56293482368E-02  0.25226123031E-01  0.00000000000E+00 0.  1.
     999901    1    3    3    0    0  0.84429579568E-01  0.96708860842E-01  0.40997768072E-02  0.88932433107E+00  0.88000000000E+00 0.  1.
        -11    1    4    4    0    0 -0.46388162975E-01 -0.44416443904E-01 -0.38328224608E-02  0.64339986030E-01  0.51100000000E-03 0. -1.
         11    1    4    4    0    0 -0.54924999596E-01 -0.34414711644E-01  0.53623938903E-02  0.65039559865E-01  0.51100000000E-03 0.  1.
</event>
<event>
 8    1  0.1104109E+005  0.1043930E+01  0.7957747E-01            NaN
         13   -1    0    0    0    0  0.00000000000E+00  0.00000000000E+00  0.74505805969E-08  0.10566000000E+00  0.10566000000E+00 0. -1.
     999900   -1    0    0    0    0 -0.00000000000E+00 -0.00000000000E+00 -0.74505805969E-08  0.93827000000E+00  0.93827000000E+00 0. -1.
     999902    2    1    2    0    0 -0.19208048083E-01  0.10871469495E-01  0.55530255487E-02  0.10211709567E+01  0.10209173075E+01 0.  0.
     999903    2    3    3    0    0 -0.50056430597E-01 -0.50902663735E-01  0.10949166099E+00  0.13236788165E+00  0.20883123495E-01 0.  0.
         14    1    1    2    0    0  0.19208048083E-01 -0.10871469495E-01 -0.55530255487E-02  0.22759043321E-01  0.00000000000E+00 0.  1.
     999901    1    3    3    0    0  0.30848382514E-01  0.61774133229E-01 -0.10393863544E+00  0.88880307503E+00  0.88000000000E+00 0. -1.
        -11    1    4    4    0    0 -0.16677328249E-01 -0.27647396410E-01  0.35958016318E-01  0.48329616844E-01  0.51100000000E-03 0. -1.
         11    1    4    4    0    0 -0.33379102348E-01 -0.23255267325E-01  0.73533644673E-01  0.84038264807E-01  0.51100000000E-03 0.  1.
</event>
<event>
 8    1  0.1104109E+005  0.1043930E+01  0.7957747E-01            NaN
         13   -1    0    0    0    0  0.00000000000E+00  0.00000000000E+00  0.74505805969E-08  0.10566000000E+00  0.10566000000E+00 0.  1.
     999900   -1    0    0    0    0 -0.00000000000E+00 -0.00000000000E+00 -0.74505805969E-08  0.93827000000E+00  0.93827000000E+00 0. -1.
     999902    2    1    2    0    0 -0.64374739756E-03  0.61030824736E-02 -0.22946859296E-01  0.10201766765E+01  0.10199001083E+01 0.  0.
     999903    2    3    3    0    0 -0.76675419722E-01 -0.81959713890E-01  0.59493053316E-01  0.12869913303E+00  0.20676768580E-01 0.  0.
         14    1    1    2    0    0  0.64374739756E-03 -0.61030824736E-02  0.22946859296E-01  0.23753323513E-01  0.00000000000E+00 0.  1.
     999901    1    3    3    0    0  0.76031672324E-01  0.88062796363E-01 -0.82439912612E-01  0.89147754346E+00  0.88000000000E+00 0. -1.
        -11    1    4    4    0    0 -0.36725865564E-01 -0.25073023761E-01  0.20155865363E-01  0.48825871743E-01  0.51100000000E-03 0. -1.
         11    1    4    4    0    0 -0.39949554157E-01 -0.56886690129E-01  0.39337187953E-01  0.79873261285E-01  0.51100000000E-03 0.  1.
</event>
<event>
 8    1  0.1104109E+005  0.1043930E+01  0.7957747E-01            NaN
         13   -1    0    0    0    0  0.00000000000E+00  0.00000000000E+00  0.74505805969E-08  0.10566000000E+00  0.10566000000E+00 0. -1.
     999900   -1    0    0    0    0 -0.00000000000E+00 -0.00000000000E+00 -0.74505805969E-08  0.93827000000E+00  0.93827000000E+00 0.  1.
     999902    2    1    2    0    0  0.11325280669E-01  0.21243800940E-01 -0.36719056951E-02  0.10195775062E+01  0.10192866365E+01 0.  0.
     999903    2    3    3    0    0  0.53049522140E-01 -0.66797514946E-01 -0.95524308435E-01  0.12944883604E+00  0.18866580198E-01 0.  0.
         14    1    1    2    0    0 -0.11325280669E-01 -0.21243800940E-01  0.36719056951E-02  0.24352493755E-01  0.00000000000E+00 0. -1.
     999901    1    3    3    0    0 -0.41724241471E-01  0.88041315886E-01  0.91852402740E-01  0.89012867020E+00  0.88000000000E+00 0. -1.
        -11    1    4    4    0    0  0.50310571604E-01 -0.55280986634E-01 -0.75921539321E-01  0.10654333556E+00  0.51100000000E-03 0.  1.
         11    1    4    4    0    0  0.27389505363E-02 -0.11516528312E-01 -0.19602769113E-01  0.22905500481E-01  0.51100000000E-03 0. -1.
</event>
<event>
 8    1  0.1104109E+005  0.1043930E+01  0.7957747E-01            NaN
         13   -1    0    0    0    0  0.00000000000E+00  0.00000000000E+00  0.74505805969E-08  0.10566000000E+00  0.10566000000E+00 0. -1.
     999900   -1    0    0    0    0 -0.00000000000E+00 -0.00000000000E+00 -0.74505805969E-08  0.93827000000E+00  0.93827000000E+00 0. -1.
     999902    2    1    2    0    0  0.44586907074E-02  0.14683660526E-01 -0.18567491300E-01  0.10198417966E+01  0.10195572807E+01 0.  0.
     999903    2    3    3    0    0  0.65181493130E-01 -0.10322216783E+00 -0.38771618228E-01  0.12967481798E+00  0.20220708719E-01 0.  0.
         14    1    1    2    0    0 -0.44586907074E-02 -0.14683660526E-01  0.18567491300E-01  0.24088203388E-01  0.00000000000E+00 0. -1.
     999901    1    3    3    0    0 -0.60722802423E-01  0.11790582836E+00  0.20204126927E-01  0.89016697863E+00  0.88000000000E+00 0.  1.
        -11    1    4    4    0    0  0.21011948359E-01 -0.41349997944E-01 -0.24016761956E-01  0.52233995440E-01  0.51100000000E-03 0. -1.
         11    1    4    4    0    0  0.44169544772E-01 -0.61872169886E-01 -0.14754856272E-01  0.77440822544E-01  0.51100000000E-03 0.  1.
</event>
<event>
 8    1  0.1104109E+005  0.1043930E+01  0.7957747E-01            NaN
         13   -1    0    0    0    0  0.00000000000E+00  0.00000000000E+00  0.74505805969E-08  0.10566000000E+00  0.10566000000E+00 0.  1.
     999900   -1    0    0    0    0 -0.00000000000E+00 -0.00000000000E+00 -0.74505805969E-08  0.93827000000E+00  0.93827000000E+00 0. -1.
     999902    2    1    2    0    0  0.19871655691E-01 -0.49306613258E-02 -0.11622469082E-01  0.10203869350E+01  0.10201152980E+01 0.  0.
     999903    2    3    3    0    0 -0.11206354983E+00  0.48036062377E-01  0.33354544770E-01  0.12784264814E+00  0.19118434471E-01 0.  0.
         14    1    1    2    0    0 -0.19871655691E-01  0.49306613258E-02  0.11622469082E-01  0.23543064978E-01  0.00000000000E+00 0. -1.
     999901    1    3    3    0    0  0.13193520552E+00 -0.52966723703E-01 -0.44977013852E-01  0.89254428688E+00  0.88000000000E+00 0. -1.
        -11    1    4    4    0    0 -0.44673229046E-01  0.18950508269E-01  0.23039442077E-01  0.53720537686E-01  0.51100000000E-03 0.  1.
         11    1    4    4    0    0 -0.67390320784E-01  0.29085554108E-01  0.10315102694E-01  0.74122110451E-01  0.51100000000E-03 0. -1.
</event>
<event>
 8    1  0.1104109E+005  0.1043930E+01  0.7957747E-01            NaN
         13   -1    0    0    0    0  0.00000000000E+00  0.00000000000E+00  0.74505805969E-08  0.10566000000E+00  0.10566000000E+00 0. -1.
     999900   -1    0    0    0    0 -0.00000000000E+00 -0.00000000000E+00 -0.74505805969E-08  0.93827000000E+00  0.93827000000E+00 0.  1.
     999902    2    1    2    0    0  0.11722528459E-01  0.24533691934E-02 -0.22457180840E-01  0.10184788376E+01  0.10181607835E+01 0.  0.
     999903    2    3    3    0    0  0.19624519267E-01  0.12453785143E+00  0.19147668566E-01  0.12904192265E+00  0.19758198137E-01 0.  0.
         14    1    1    2    0    0 -0.11722528459E-01 -0.24533691934E-02  0.22457180840E-01  0.25451162353E-01  0.00000000000E+00 0. -1.
     999901    1    3    3    0    0 -0.79019908075E-02 -0.12208448224E+00 -0.41604849406E-01  0.88943691500E+00  0.88000000000E+00 0.  1.
        -11    1    4    4    0    0  0.13933850052E-01  0.34504250482E-01  0.87515605737E-02  0.38230176721E-01  0.51100000000E-03 0.  1.
         11    1    4    4    0    0  0.56906692143E-02  0.90033600952E-01  0.10396107993E-01  0.90811745930E-01  0.51100000000E-03 0. -1.
</event>
<event>
 8    1  0.1104109E+005  0.1043930E+01  0.7957747E-01            NaN
         13   -1    0    0    0    0  0.00000000000E+00  0.00000000000E+00  0.74505805969E-08  0.10566000000E+00  0.10566000000E+00 0.  1.
     999900   -1    0    0    0    0 -0.00000000000E+00 -0.00000000000E+00 -0.74505805969E-08  0.93827000000E+00  0.93827000000E+00 0. -1.
     999902    2    1    2    0    0 -0.53116841189E-02 -0.60542782526E-02  0.22628653840E-01  0.10199107526E+01  0.10196278826E+01 0.  0.
     999903    2    3    3    0    0 -0.43166088380E-01  0.98021904985E-02 -0.11849191997E+00  0.12772276795E+00  0.17702435699E-01 0.  0.
         14    1    1    2    0    0  0.53116841189E-02  0.60542782526E-02 -0.22628653840E-01  0.24019247448E-01  0.00000000000E+00 0. -1.
     999901    1    3    3    0    0  0.37854404261E-01 -0.15856468751E-01  0.14112057381E+00  0.89218798461E+00  0.88000000000E+00 0.  1.
        -11    1    4    4    0    0 -0.34466910472E-01  0.96662275735E-04 -0.90443877704E-01  0.96790151339E-01  0.51100000000E-03 0.  1.
         11    1    4    4    0    0 -0.86991779081E-02  0.97055282227E-02 -0.28048042263E-01  0.30932616607E-01  0.51100000000E-03 0. -1.
</event>
<event>
 8    1  0.1104109E+005  0.1043930E+01  0.7957747E-01            NaN
         13   -1    0    0    0    0  0.00000000000E+00  0.00000000000E+00  0.74505805969E-08  0.10566000000E+00  0.10566000000E+00 0. -1.
     999900   -1    0    0    0    0 -0.00000000000E+00 -0.00000000000E+00 -0.74505805969E-08  0.93827000000E+00  0.93827000000E+00 0. -1.
     999902    2    1    2    0    0  0.21610199909E-01 -0.40854547747E-02  0.95440267484E-02  0.10199554275E+01  0.10196736213E+01 0.  0.
     999903    2    3    3    0    0 -0.11317421591E+00 -0.34327871627E-01 -0.43170048070E-01  0.12762128816E+00  0.20898187072E-01 0.  0.
         14    1    1    2    0    0 -0.21610199909E-01  0.40854547747E-02 -0.95440267484E-02  0.23974572518E-01  0.00000000000E+00 0. -1.
     999901    1    3    3    0    0  0.13478441582E+00  0.30242416852E-01  0.52714074818E-01  0.89233413933E+00  0.88000000000E+00 0.  1.
        -11    1    4    4    0    0 -0.98700715616E-01 -0.22124113142E-01 -0.36900455039E-01  0.10767178065E+00  0.51100000000E-03 0. -1.
         11    1    4    4    0    0 -0.14473500293E-01 -0.12203758484E-01 -0.62695930309E-02  0.19949507504E-01  0.51100000000E-03 0.  1.
</event>
<event>
 8    1  0.1104109E+005  0.1043930E+01  0.7957747E-01            NaN
         13   -1    0    0    0    0  0.00000000000E+00  0.00000000000E+00  0.74505805969E-08  0.10566000000E+00  0.10566000000E+00 0. -1.
     999900   -1    0    0    0    0 -0.00000000000E+00 -0.00000000000E+00 -0.74505805969E-08  0.93827000000E+00  0.93827000000E+00 0.  1.
     999902    2    1    2    0    0 -0.18651553316E-01  0.14862171965E-01 -0.38300807328E-02  0.10197756191E+01  0.10194895190E+01 0.  0.
     999903    2    3    3    0    0  0.12113337231E-01 -0.11965811435E+00  0.39391496117E-01  0.12797390876E+00  0.18995633383E-01 0.  0.
         14    1    1    2    0    0  0.18651553316E-01 -0.14862171965E-01  0.38300807328E-02  0.24154380866E-01  0.00000000000E+00 0. -1.
     999901    1    3    3    0    0 -0.30764890547E-01  0.13452028632E+00 -0.43221576850E-01  0.89180171037E+00  0.88000000000E+00 0.  1.
        -11    1    4    4    0    0 -0.33818503034E-02 -0.34170817516E-01  0.58180090205E-02  0.34830906264E-01  0.51100000000E-03 0.  1.
         11    1    4    4    0    0  0.15495187535E-01 -0.85487296836E-01  0.33573487097E-01  0.93143002496E-01  0.51100000000E-03 0. -1.
</event>
<event>
 8    1  0.1104109E+005  0.1043930E+01  0.7957747E-01            NaN
         13   -1    0    0    0    0  0.00000000000E+00  0.00000000000E+00  0.74505805969E-08  0.10566000000E+00  0.10566000000E+00 0.  1.
     999900   -1    0    0    0    0 -0.00000000000E+00 -0.00000000000E+00 -0.74505805969E-08  0.93827000000E+00  0.93827000000E+00 0.  1.
     999902    2    1    2    0    0  0.59985007805E-03  0.15592575015E-01  0.17439069368E-01  0.10205289454E+01  0.10202606133E+01 0.  0.
     999903    2    3    3    0    0  0.99881011761E-01  0.30531056091E-01 -0.74680863314E-01  0.13004256748E+00  0.20627072353E-01 0.  0.
         14    1    1    2    0    0 -0.59985007805E-03 -0.15592575015E-01 -0.17439069368E-01  0.23401054594E-01  0.00000000000E+00 0. -1.
     999901    1    3    3    0    0 -0.99281161683E-01 -0.14938481076E-01  0.92119932682E-01  0.89048637793E+00  0.88000000000E+00 0. -1.
        -11    1    4    4    0    0  0.42814385593E-01  0.29621424126E-02 -0.26660217498E-01  0.50525975690E-01  0.51100000000E-03 0. -1.
         11    1    4    4    0    0  0.57066626168E-01  0.27568913678E-01 -0.48020645816E-01  0.79516591785E-01  0.51100000000E-03 0.  1.
</event>
<event>
 8    1  0.1104109E+005  0.1043930E+01  0.7957747E-01            NaN
         13   -1    0    0    0    0  0.00000000000E+00  0.00000000000E+00  0.74505805969E-08  0.10566000000E+00  0.10566000000E+00 0. -1.
     999900   -1    0    0    0    0 -0.00000000000E+00 -0.00000000000E+00 -0.74505805969E-08  0.93827000000E+00  0.93827000000E+00 0. -1.
     999902    2    1    2    0    0  0.15872323205E-01  0.14359803410E-01 -0.37444220233E-02  0.10222008653E+01  0.10219698889E+01 0.  0.
     999903    2    3    3    0    0 -0.83576987105E-01 -0.22479281507E-01  0.95412529485E-01  0.13030435533E+00  0.19627617364E-01 0.  0.
         14    1    1    2    0    0 -0.15872323205E-01 -0.14359803410E-01  0.37444220233E-02  0.21729134685E-01  0.00000000000E+00 0.  1.
     999901    1    3    3    0    0  0.99449310310E-01  0.36839084917E-01 -0.99156951508E-01  0.89189650999E+00  0.88000000000E+00 0. -1.
        -11    1    4    4    0    0 -0.44549503398E-01 -0.66377327074E-02  0.37024876889E-01  0.58307978684E-01  0.51100000000E-03 0. -1.
         11    1    4    4    0    0 -0.39027483706E-01 -0.15841548800E-01  0.58387652596E-01  0.71996376641E-01  0.51100000000E-03 0.  1.
</event>
<event>
 8    1  0.1104109E+005  0.1043930E+01  0.7957747E-01            NaN
         13   -1    0    0    0    0  0.00000000000E+00  0.00000000000E+00  0.74505805969E-08  0.10566000000E+00  0.10566000000E+00 0. -1.
     999900   -1    0    0    0    0 -0.00000000000E+00 -0.00000000000E+00 -0.74505805969E-08  0.93827000000E+00  0.93827000000E+00 0.  1.
     999902    2    1    2    0    0  0.11534734381E-01 -0.21551460303E-01 -0.40770463861E-02  0.10191481953E+01  0.10188468511E+01 0.  0.
     999903    2    3    3    0    0 -0.12191581872E+00  0.19628746962E-01  0.25365454408E-01  0.12764849227E+00  0.20049357583E-01 0.  0.
         14    1    1    2    0    0 -0.11534734381E-01  0.21551460303E-01  0.40770463861E-02  0.24781804730E-01  0.00000000000E+00 0. -1.
     999901    1    3    3    0    0  0.13345055310E+00 -0.41180207265E-01 -0.29442500794E-01  0.89149970300E+00  0.88000000000E+00 0. -1.
        -11    1    4    4    0    0 -0.73813333449E-01  0.54171779046E-02  0.22703130924E-01  0.77417357783E-01  0.51100000000E-03 0.  1.
         11    1    4    4    0    0 -0.48102485275E-01  0.14211569057E-01  0.26623234833E-02  0.50231134488E-01  0.51100000000E-03 0. -1.
</event>
<event>
 8    1  0.1104109E+005  0.1043930E+01  0.7957747E-01            NaN
         13   -1    0    0    0    0  0.00000000000E+00  0.00000000000E+00  0.74505805969E-08  0.10566000000E+00  0.10566000000E+00 0. -1.
     999900   -1    0    0    0    0 -0.00000000000E+00 -0.00000000000E+00 -0.74505805969E-08  0.93827000000E+00  0.93827000000E+00 0. -1.
     999902    2    1    2    0    0  0.21547861143E-01  0.17974527306E-02  0.82042894802E-02  0.10208031428E+01  0.10205411334E+01 0.  0.
     999903    2    3    3    0    0 -0.60811940297E-01  0.32107917726E-01  0.10927683440E+00  0.13068094869E+00  0.20176058884E-01 0.  0.
         14    1    1    2    0    0 -0.21547861143E-01 -0.17974527306E-02 -0.82042894802E-02  0.23126857158E-01  0.00000000000E+00 0.  1.
     999901    1    3    3    0    0  0.82359801440E-01 -0.30310464996E-01 -0.10107254492E+00  0.89012219415E+00  0.88000000000E+00 0. -1.
        -11    1    4    4    0    0 -0.25529929624E-01  0.11338873044E-01  0.62840309470E-01  0.68771454571E-01  0.51100000000E-03 0.  1.
         11    1    4    4    0    0 -0.35282010673E-01  0.20769044683E-01  0.46436524926E-01  0.61909494121E-01  0.51100000000E-03 0. -1.
</event>
<event>
 8    1  0.1104109E+005  0.1043930E+01  0.7957747E-01            NaN
         13   -1    0    0    0    0  0.00000000000E+00  0.00000000000E+00  0.74505805969E-08  0.10566000000E+00  0.10566000000E+00 0.  1.
     999900   -1    0    0    0    0 -0.00000000000E+00 -0.00000000000E+00 -0.74505805969E-08  0.93827000000E+00  0.93827000000E+00 0.  1.
     999902    2    1    2    0    0 -0.28287965765E-01  0.16618744041E-01  0.24444403667E-02  0.10110306543E+01  0.10104952335E+01 0.  0.
     999903    2    3    3    0    0 -0.98271929917E-01  0.15510950946E-01  0.72897294463E-01  0.12544464089E+00  0.22899357628E-01 0.  0.
         14    1    1    2    0    0  0.28287965765E-01 -0.16618744041E-01 -0.24444403667E-02  0.32899345728E-01  0.00000000000E+00 0. -1.
     999901    1    3    3    0    0  0.69983964152E-01  0.11077930946E-02 -0.70452854097E-01  0.88558601338E+00  0.88000000000E+00 0.  1.
        -11    1    4    4    0    0 -0.15594392098E-01 -0.22561394855E-02  0.37446872947E-02  0.16203673479E-01  0.51100000000E-03 0.  1.
         11    1    4    4    0    0 -0.82677537818E-01  0.17767090432E-01  0.69152607169E-01  0.10924096741E+00  0.51100000000E-03 0. -1.
</event>
<event>
 8    1  0.1104109E+005  0.1043930E+01  0.7957747E-01            NaN
         13   -1    0    0    0    0  0.00000000000E+00  0.00000000000E+00  0.74505805969E-08  0.10566000000E+00  0.10566000000E+00 0. -1.
     999900   -1    0    0    0    0 -0.00000000000E+00 -0.00000000000E+00 -0.74505805969E-08  0.93827000000E+00  0.93827000000E+00 0.  1.
     999902    2    1    2    0    0 -0.74214895767E-02  0.20482636664E-01 -0.89171263785E-02  0.10203899903E+01  0.10201184247E+01 0.  0.
     999903    2    3    3    0    0 -0.91187089012E-01 -0.76831068809E-01  0.47624810110E-01  0.12927629192E+00  0.15037911334E-01 0.  0.
         14    1    1    2    0    0  0.74214895767E-02 -0.20482636664E-01  0.89171263785E-02  0.23540009666E-01  0.00000000000E+00 0. -1.
     999901    1    3    3    0    0  0.83765599435E-01  0.97313705473E-01 -0.56541936489E-01  0.89111369842E+00  0.88000000000E+00 0.  1.
        -11    1    4    4    0    0 -0.33065909429E-01 -0.36976189382E-01  0.17058528070E-01  0.52458054181E-01  0.51100000000E-03 0.  1.
         11    1    4    4    0    0 -0.58121179583E-01 -0.39854879428E-01  0.30566282040E-01  0.76818237737E-01  0.51100000000E-03 0. -1.
</event>
<event>
 8    1  0.1104109E+005  0.1043930E+01  0.7957747E-01            NaN
         13   -1    0    0    0    0  0.00000000000E+00  0.00000000000E+00  0.74505805969E-08  0.10566000000E+00  0.10566000000E+00 0.  1.
     999900   -1    0    0    0    0 -0.00000000000E+00 -0.00000000000E+00 -0.74505805969E-08  0.93827000000E+00  0.93827000000E+00 0. -1.
     999902    2    1    2    0    0 -0.17785538843E-01 -0.14368176787E-01  0.78593501804E-02  0.10197527528E+01  0.10194661042E+01 0.  0.
     999903    2    3    3    0    0 -0.94001586990E-01 -0.80506093788E-01  0.42679941415E-01  0.13330163536E+00  0.25104164948E-01 0.  0.
         14    1    1    2    0    0  0.17785538843E-01  0.14368176787E-01 -0.78593501804E-02  0.24177247183E-01  0.00000000000E+00 0. -1.
     999901    1    3    3    0    0  0.76216048148E-01  0.66137917001E-01 -0.34820591234E-01  0.88645111745E+00  0.88000000000E+00 0. -1.
        -11    1    4    4    0    0 -0.42678470068E-01 -0.40450090794E-01  0.33142280181E-01  0.67500618584E-01  0.51100000000E-03 0.  1.
         11    1    4    4    0    0 -0.51323116922E-01 -0.40056002994E-01  0.95376612339E-02  0.65801016779E-01  0.51100000000E-03 0. -1.
</event>
<event>
 8    1  0.1104109E+005  0.1043930E+01  0.7957747E-01            NaN
         13   -1    0    0    0    0  0.00000000000E+00  0.00000000000E+00  0.74505805969E-08  0.10566000000E+00  0.10566000000E+00 0. -1.
     999900   -1    0    0    0    0 -0.00000000000E+00 -0.00000000000E+00 -0.74505805969E-08  0.93827000000E+00  0.93827000000E+00 0.  1.
     999902    2    1    2    0    0 -0.18764737279E-01 -0.12821097870E-01  0.51828774202E-02  0.10206199564E+01  0.10203537314E+01 0.  0.
     999903    2    3    3    0    0  0.44025526108E-01 -0.93210718403E-01 -0.78122297673E-01  0.13081949533E+00  0.19600050785E-01 0.  0.
         14    1    1    2    0    0  0.18764737279E-01  0.12821097870E-01 -0.51828774202E-02  0.23310043631E-01  0.00000000000E+00 0.  1.
     999901    1    3    3    0    0 -0.62790263386E-01  0.80389620532E-01  0.83305175093E-01  0.88980046104E+00  0.88000000000E+00 0. -1.
        -11    1    4    4    0    0  0.41529690483E-01 -0.69077057603E-01 -0.61920275003E-01  0.10164023148E+00  0.51100000000E-03 0.  1.
         11    1    4    4    0    0  0.24958356250E-02 -0.24133660800E-01 -0.16202022670E-01  0.29179263848E-01  0.51100000000E-03 0. -1.
</event>
<event>
 8    1  0.1104109E+005  0.1043930E+01  0.7957747E-01            NaN
         13   -1    0    0    0    0  0.00000000000E+00  0.00000000000E+00  0.74505805969E-08  0.10566000000E+00  0.10566000000E+00 0. -1.
     999900   -1    0    0    0    0 -0.00000000000E+00 -0.00000000000E+00 -0.74505805969E-08  0.93827000000E+00  0.93827000000E+00 0. -1.
     999902    2    1    2    0    0 -0.12499252700E-01  0.17860375480E-01 -0.81711409231E-02  0.10206492811E+01  0.10203837332E+01 0.  0.
     999903    2    3    3    0    0  0.32185895808E-01  0.11117268561E-01  0.12330325274E+00  0.12973528511E+00  0.21633920538E-01 0.  0.
         14    1    1    2    0    0  0.12499252700E-01 -0.17860375480E-01  0.81711409231E-02  0.23280718939E-01  0.00000000000E+00 0. -1.
     999901    1    3    3    0    0 -0.44685148508E-01  0.67431069195E-02 -0.13147439366E+00  0.89091399595E+00  0.88000000000E+00 0. -1.
        -11    1    4    4    0    0  0.13552581642E-01 -0.61877125685E-02  0.45092991701E-01  0.47493149796E-01  0.51100000000E-03 0.  1.
         11    1    4    4    0    0  0.18633314166E-01  0.17304981129E-01  0.78210261038E-01  0.82242135316E-01  0.51100000000E-03 0. -1.
</event>
<event>
 8    1  0.1104109E+005  0.1043930E+01  0.7957747E-01            NaN
         13   -1    0    0    0    0  0.00000000000E+00  0.00000000000E+00  0.74505805969E-08  0.10566000000E+00  0.10566000000E+00 0.  1.
     999900   -1    0    0    0    0 -0.00000000000E+00 -0.00000000000E+00 -0.74505805969E-08  0.93827000000E+00  0.93827000000E+00 0.  1.
     999902    2    1    2    0    0 -0.56285903612E-02 -0.47044761129E-02 -0.22781341256E-01  0.10199967045E+01  0.10197158793E+01 0.  0.
     999903    2    3    3    0    0 -0.57440458504E-01 -0.49483184691E-01 -0.10837760185E+00  0.13319553046E+00  0.15727457253E-01 0.  0.
         14    1    1    2    0    0  0.56285903612E-02  0.47044761129E-02  0.22781341256E-01  0.23933295518E-01  0.00000000000E+00 0.  1.
     999901    1    3    3    0    0  0.51811868143E-01  0.44778708578E-01  0.85596260592E-01  0.88680117402E+00  0.88000000000E+00 0. -1.
        -11    1    4    4    0    0 -0.42228324698E-02 -0.10616486327E-01 -0.18414676893E-01  0.21677258638E-01  0.51100000000E-03 0.  1.
         11    1    4    4    0    0 -0.53217626035E-01 -0.38866698364E-01 -0.89962924954E-01  0.11151827182E+00  0.51100000000E-03 0. -1.
</event>
<event>
 8    1  0.1104109E+005  0.1043930E+01  0.7957747E-01            NaN
         13   -1    0    0    0    0  0.00000000000E+00  0.00000000000E+00  0.74505805969E-08  0.10566000000E+00  0.10566000000E+00 0.  1.
     999900   -1    0    0    0    0 -0.00000000000E+00 -0.00000000000E+00 -0.74505805969E-08  0.93827000000E+00  0.93827000000E+00 0. -1.
     999902    2    1    2    0    0 -0.14931609929E-01 -0.10586405198E-01  0.14167704578E-01  0.10207837519E+01  0.10205212978E+01 0.  0.
     999903    2    3    3    0    0  0.95352279195E-01 -0.70098416061E-01 -0.48872549162E-01  0.12967304648E+00  0.20511651352E-01 0.  0.
         14    1    1    2    0    0  0.14931609929E-01  0.10586405198E-01 -0.14167704578E-01  0.23146248143E-01  0.00000000000E+00 0. -1.
     999901    1    3    3    0    0 -0.11028388912E+00  0.59512010863E-01  0.63040253740E-01  0.89111070537E+00  0.88000000000E+00 0.  1.
        -11    1    4    4    0    0  0.34324396485E-01 -0.16466538859E-01 -0.87799025233E-02  0.39072482713E-01  0.51100000000E-03 0.  1.
         11    1    4    4    0    0  0.61027882710E-01 -0.53631877203E-01 -0.40092646638E-01  0.90600563772E-01  0.51100000000E-03 0. -1.
</event>
<event>
 8    1  0.1104109E+005  0.1043930E+01  0.7957747E-01            NaN
         13   -1    0    0    0    0  0.00000000000E+00  0.00000000000E+00  0.74505805969E-08  0.10566000000E+00  0.10566000000E+00 0. -1.
     999900   -1    0    0    0    0 -0.00000000000E+00 -0.00000000000E+00 -0.74505805969E-08  0.93827000000E+00  0.93827000000E+00 0.  1.
     999902    2    1    2    0    0  0.23268947695E-01  0.24993232766E-02 -0.19051791049E-03  0.10205264353E+01  0.10202580450E+01 0.  0.
     999903    2    3    3    0    0 -0.30473766354E-01 -0.33609983667E-01 -0.11928699082E+00  0.13014666732E+00  0.25504654432E-01 0.  0.
         14    1    1    2    0    0 -0.23268947695E-01 -0.24993232766E-02  0.19051791049E-03  0.23403564702E-01  0.00000000000E+00 0.  1.
     999901    1    3    3    0    0  0.53742714049E-01  0.36109306944E-01  0.11909647291E+00  0.89037976798E+00  0.88000000000E+00 0. -1.
        -11    1    4    4    0    0 -0.41378874664E-02 -0.14988413921E-01 -0.17721906543E-01  0.23581809877E-01  0.51100000000E-03 0.  1.
         11    1    4    4    0    0 -0.26335878887E-01 -0.18621569746E-01 -0.10156508428E+00  0.10656485745E+00  0.51100000000E-03 0. -1.
</event>
<event>
 8    1  0.1104109E+005  0.1043930E+01  0.7957747E-01            NaN
         13   -1    0    0    0    0  0.00000000000E+00  0.00000000000E+00  0.74505805969E-08  0.10566000000E+00  0.10566000000E+00 0.  1.
     999900   -1    0    0    0    0 -0.00000000000E+00 -0.00000000000E+00 -0.74505805969E-08  0.93827000000E+00  0.93827000000E+00 0. -1.
     999902    2    1    2    0    0 -0.20194433811E-01  0.93582221106E-02 -0.70082769468E-02  0.10205953171E+01  0.10203285226E+01 0.  0.
     999903    2    3    3    0    0 -0.51924296472E-01  0.52831578420E-02  0.11859494039E+00  0.13110132698E+00  0.19968818916E-01 0.  0.
         14    1    1    2    0    0  0.20194433811E-01 -0.93582221106E-02  0.70082769468E-02  0.23334682852E-01  0.00000000000E+00 0.  1.
     999901    1    3    3    0    0  0.31729862661E-01  0.40750642686E-02 -0.12560321734E+00  0.88949399016E+00  0.88000000000E+00 0. -1.
        -11    1    4    4    0    0 -0.31381679247E-01  0.46030543262E-02  0.47696639538E-01  0.57282008045E-01  0.51100000000E-03 0. -1.
         11    1    4    4    0    0 -0.20542617226E-01  0.68010351577E-03  0.70898300856E-01  0.73819318939E-01  0.51100000000E-03 0.  1.
</event>
<event>
 8    1  0.1104109E+005  0.1043930E+01  0.7957747E-01            NaN
         13   -1    0    0    0    0  0.00000000000E+00  0.00000000000E+00  0.74505805969E-08  0.10566000000E+00  0.10566000000E+00 0.  1.
     999900   -1    0    0    0    0 -0.00000000000E+00 -0.00000000000E+00 -0.74505805969E-08  0.93827000000E+00  0.93827000000E+00 0. -1.
     999902    2    1    2    0    0  0.12928677372E-01  0.47213726704E-02 -0.20526564018E-01  0.10192159981E+01  0.10189163209E+01 0.  0.
     999903    2    3    3    0    0 -0.16494491216E-01  0.43356559419E-01 -0.12179626565E+00  0.13207792940E+00  0.21410035550E-01 0.  0.
         14    1    1    2    0    0 -0.12928677372E-01 -0.47213726704E-02  0.20526564018E-01  0.24714001879E-01  0.00000000000E+00 0.  1.
     999901    1    3    3    0    0  0.29423168588E-01 -0.38635186749E-01  0.10126970164E+00  0.88713806872E+00  0.88000000000E+00 0.  1.
        -11    1    4    4    0    0 -0.60081701266E-02  0.29585897978E-01 -0.51670767565E-01  0.59846075972E-01  0.51100000000E-03 0.  1.
         11    1    4    4    0    0 -0.10486321089E-01  0.13770661441E-01 -0.70125498088E-01  0.72231853428E-01  0.51100000000E-03 0. -1.
</event>
<event>
 8    1  0.1104109E+005  0.1043930E+01  0.7957747E-01            NaN
         13   -1    0    0    0    0  0.00000000000E+00  0.00000000000E+00  0.74505805969E-08  0.10566000000E+00  0.10566000000E+00 0.  1.
     999900   -1    0    0    0    0 -0.00000000000E+00 -0.00000000000E+00 -0.74505805969E-08  0.93827000000E+00  0.93827000000E+00 0. -1.
     999902    2    1    2    0    0 -0.20605785998E-01 -0.43390308590E-03  0.12051269986E-01  0.10200549126E+01  0.10197754679E+01 0.  0.
     999903    2    3    3    0    0 -0.69037808093E-01  0.56725203269E-01  0.94509081210E-01  0.13303060923E+00  0.27950114984E-01 0.  0.
         14    1    1    2    0    0  0.20605785998E-01  0.43390308590E-03 -0.12051269986E-01  0.23875087367E-01  0.00000000000E+00 0.  1.
     999901    1    3    3    0    0  0.48432022095E-01 -0.57159106355E-01 -0.82457811224E-01  0.88702430341E+00  0.88000000000E+00 0.  1.
        -11    1    4    4    0    0 -0.33333140397E-01  0.28450031892E-01  0.66231951986E-01  0.79419362553E-01  0.51100000000E-03 0. -1.
         11    1    4    4    0    0 -0.35704667697E-01  0.28275171377E-01  0.28277129224E-01  0.53611246673E-01  0.51100000000E-03 0.  1.
</event>
<event>
 8    1  0.1104109E+005  0.1043930E+01  0.7957747E-01            NaN
         13   -1    0    0    0    0  0.00000000000E+00  0.00000000000E+00  0.74505805969E-08  0.10566000000E+00  0.10566000000E+00 0.  1.
     999900   -1    0    0    0    0 -0.00000000000E+00 -0.00000000000E+00 -0.74505805969E-08  0.93827000000E+00  0.93827000000E+00 0. -1.
     999902    2    1    2    0    0  0.76877822639E-02 -0.82055992092E-02 -0.21073647077E-01  0.10200441788E+01  0.10197644798E+01 0.  0.
     999903    2    3    3    0    0  0.79259369945E-01 -0.52974370000E-01  0.85748029548E-01  0.12957373817E+00  0.18662728897E-01 0.  0.
         14    1    1    2    0    0 -0.76877822639E-02  0.82055992092E-02  0.21073647077E-01  0.23885821226E-01  0.00000000000E+00 0.  1.
     999901    1    3    3    0    0 -0.71571587681E-01  0.44768770791E-01 -0.10682167662E+00  0.89047044061E+00  0.88000000000E+00 0. -1.
        -11    1    4    4    0    0  0.49162068467E-02 -0.56444338627E-02  0.14181150145E-01  0.16043530280E-01  0.51100000000E-03 0.  1.
         11    1    4    4    0    0  0.74343163098E-01 -0.47329936137E-01  0.71566879403E-01  0.11353020789E+00  0.51100000000E-03 0. -1.
</event>
<event>
 7    1  0.1104109E+005  0.1043930E+01  0.7957747E-01            NaN
         13   -1    0    0    0    0  0.00000000000E+00  0.00000000000E+00  0.74505805969E-08  0.10566000000E+00  0.10566000000E+00 0. -1.
     999900   -1    0    0    0    0 -0.00000000000E+00 -0.00000000000E+00 -0.74505805969E-08  0.93827000000E+00  0.93827000000E+00 0. -1.
     999903    2    1    2    0    0  0.67138242887E-01 -0.40243762400E-01 -0.59513168745E-01  0.10015088244E+00  0.19007312532E-01 0.  0.
         14    1    1    2    0    0  0.16510588561E-01  0.54909516001E-01 -0.35241458437E-02  0.57446271298E-01  0.00000000000E+00 0. -1.
     999901    1    1    2    0    0 -0.83648831447E-01 -0.14665753601E-01  0.63037314588E-01  0.88633284626E+00  0.88000000000E+00 0.  1.
        -11    1    3    3    0    0  0.91459673482E-02  0.10623279886E-02 -0.86995436492E-02  0.12677556555E-01  0.51100000000E-03 0. -1.
         11    1    3    3    0    0  0.57992275538E-01 -0.41306090388E-01 -0.50813625096E-01  0.87473325886E-01  0.51100000000E-03 0.  1.
</event>
<event>
 8    1  0.1104109E+005  0.1043930E+01  0.7957747E-01            NaN
         13   -1    0    0    0    0  0.00000000000E+00  0.00000000000E+00  0.74505805969E-08  0.10566000000E+00  0.10566000000E+00 0. -1.
     999900   -1    0    0    0    0 -0.00000000000E+00 -0.00000000000E+00 -0.74505805969E-08  0.93827000000E+00  0.93827000000E+00 0. -1.
     999902    2    1    2    0    0 -0.15571475663E-01  0.35100944145E-02  0.19760883560E-01  0.10185275565E+01  0.10182107342E+01 0.  0.
     999903    2    3    3    0    0  0.12008782726E+00 -0.31188019649E-01  0.10478132316E-01  0.12740827432E+00  0.27005523197E-01 0.  0.
         14    1    1    2    0    0  0.15571475663E-01 -0.35100944145E-02 -0.19760883560E-01  0.25402443508E-01  0.00000000000E+00 0.  1.
     999901    1    3    3    0    0 -0.13565930292E+00  0.34698114063E-01  0.92827512445E-02  0.89111928217E+00  0.88000000000E+00 0.  1.
        -11    1    4    4    0    0  0.89962115471E-01 -0.22191164264E-01 -0.40956293776E-02  0.92750554135E-01  0.51100000000E-03 0.  1.
         11    1    4    4    0    0  0.30125711787E-01 -0.89968553849E-02  0.14573761693E-01  0.34657720185E-01  0.51100000000E-03 0. -1.
</event>
<event>
 8    1  0.1104109E+005  0.1043930E+01  0.7957747E-01            NaN
         13   -1    0    0    0    0  0.00000000000E+00  0.00000000000E+00  0.74505805969E-08  0.10566000000E+00  0.10566000000E+00 0.  1.
     999900   -1    0    0    0    0 -0.00000000000E+00 -0.00000000000E+00 -0.74505805969E-08  0.93827000000E+00  0.93827000000E+00 0.  1.
     999902    2    1    2    0    0  0.33864114502E-02 -0.17711496724E-01  0.15006017511E-01  0.10204705571E+01  0.10202008687E+01 0.  0.
     999903    2    3    3    0    0  0.59733359435E-01 -0.26051446357E-01  0.11451010192E+00  0.13303289952E+00  0.18396652638E-01 0.  0.
         14    1    1    2    0    0 -0.33864114502E-02  0.17711496724E-01 -0.15006017511E-01  0.23459442880E-01  0.00000000000E+00 0.  1.
     999901    1    3    3    0    0 -0.56346947985E-01  0.83399496331E-02 -0.99504084404E-01  0.88743765760E+00  0.88000000000E+00 0.  1.
        -11    1    4    4    0    0  0.86981665343E-02 -0.32006680968E-02  0.32297390717E-01  0.33604835150E-01  0.51100000000E-03 0. -1.
         11    1    4    4    0    0  0.51035192901E-01 -0.22850778260E-01  0.82212711198E-01  0.99428064373E-01  0.51100000000E-03 0.  1.
</event>
<event>
 8    1  0.1104109E+005  0.1043930E+01  0.7957747E-01            NaN
         13   -1    0    0    0    0  0.00000000000E+00  0.00000000000E+00  0.74505805969E-08  0.10566000000E+00  0.10566000000E+00 0.  1.
     999900   -1    0    0    0    0 -0.00000000000E+00 -0.00000000000E+00 -0.74505805969E-08  0.93827000000E+00  0.93827000000E+00 0. -1.
     999902    2    1    2    0    0 -0.90637196139E-02  0.23736373902E-01  0.74155576976E-02  0.10174619635E+01  0.10171176384E+01 0.  0.
     999903    2    3    3    0    0 -0.43932504848E-02 -0.70490016421E-01 -0.10193269118E+00  0.12568987074E+00  0.20482358535E-01 0.  0.
         14    1    1    2    0    0  0.90637196139E-02 -0.23736373902E-01 -0.74155576976E-02  0.26468036483E-01  0.00000000000E+00 0. -1.
     999901    1    3    3    0    0 -0.46704691290E-02  0.94226390324E-01  0.10934824888E+00  0.89177209277E+00  0.88000000000E+00 0. -1.
        -11    1    4    4    0    0  0.32586260128E-03 -0.34048703690E-01 -0.66132177604E-01  0.74385122471E-01  0.51100000000E-03 0.  1.
         11    1    4    4    0    0 -0.47191130861E-02 -0.36441312731E-01 -0.35800513579E-01  0.51304748273E-01  0.51100000000E-03 0. -1.
</event>
<event>
 8    1  0.1104109E+005  0.1043930E+01  0.7957747E-01            NaN
         13   -1    0    0    0    0  0.00000000000E+00  0.00000000000E+00  0.74505805969E-08  0.10566000000E+00  0.10566000000E+00 0. -1.
     999900   -1    0    0    0    0 -0.00000000000E+00 -0.00000000000E+00 -0.74505805969E-08  0.93827000000E+00  0.93827000000E+00 0.  1.
     999902    2    1    2    0    0 -0.20435768093E-02  0.25425784627E-01 -0.31839007141E-02  0.10182242817E+01  0.10178997514E+01 0.  0.
     999903    2    3    3    0    0 -0.11223315135E+00  0.16313822932E-01  0.58599363150E-01  0.12915626299E+00  0.19622278863E-01 0.  0.
         14    1    1    2    0    0  0.20435768093E-02 -0.25425784627E-01  0.31839007141E-02  0.25705718310E-01  0.00000000000E+00 0. -1.
     999901    1    3    3    0    0  0.11018957454E+00  0.91119616958E-02 -0.61783263864E-01  0.88906801870E+00  0.88000000000E+00 0.  1.
        -11    1    4    4    0    0 -0.96742702651E-01  0.20479031382E-01  0.52728244994E-01  0.11206725741E+00  0.51100000000E-03 0. -1.
         11    1    4    4    0    0 -0.15490448696E-01 -0.41652084500E-02  0.58711181563E-02  0.17089005578E-01  0.51100000000E-03 0.  1.
</event>
<event>
 7    1  0.1104109E+005  0.1043930E+01  0.7957747E-01            NaN
         13   -1    0    0    0    0  0.00000000000E+00  0.00000000000E+00  0.74505805969E-08  0.10566000000E+00  0.10566000000E+00 0. -1.
     999900   -1    0    0    0    0 -0.00000000000E+00 -0.00000000000E+00 -0.74505805969E-08  0.93827000000E+00  0.93827000000E+00 0.  1.
     999903    2    1    2    0    0 -0.82957114778E-01 -0.24728665032E-01  0.51362358438E-01  0.10281596859E+00  0.20967636179E-01 0.  0.
         14    1    1    2    0    0  0.20791458981E-01  0.45623823704E-01  0.23757689628E-01  0.55481941858E-01  0.00000000000E+00 0. -1.
     999901    1    1    2    0    0  0.62165655796E-01 -0.20895158672E-01 -0.75120048065E-01  0.88563208955E+00  0.88000000000E+00 0. -1.
        -11    1    3    3    0    0 -0.41328297293E-01 -0.92268918904E-02  0.13508167547E-01  0.44451045011E-01  0.51100000000E-03 0. -1.
         11    1    3    3    0    0 -0.41628817484E-01 -0.15501773142E-01  0.37854190891E-01  0.58364923582E-01  0.51100000000E-03 0.  1.
</event>
<event>
 8    1  0.1104109E+005  0.1043930E+01  0.7957747E-01            NaN
         13   -1    0    0    0    0  0.00000000000E+00  0.00000000000E+00  0.74505805969E-08  0.10566000000E+00  0.10566000000E+00 0.  1.
     999900   -1    0    0    0    0 -0.00000000000E+00 -0.00000000000E+00 -0.74505805969E-08  0.93827000000E+00  0.93827000000E+00 0.  1.
     999902    2    1    2    0    0  0.55829403355E-02 -0.23644604758E-01 -0.60219951512E-02  0.10188999984E+01  0.10185925121E+01 0.  0.
     999903    2    3    3    0    0 -0.56202780744E-01  0.11129400973E+00  0.27860749729E-02  0.12642955788E+00  0.20774063817E-01 0.  0.
         14    1    1    2    0    0 -0.55829403355E-02  0.23644604758E-01  0.60219951512E-02  0.25030001649E-01  0.00000000000E+00 0.  1.
     999901    1    3    3    0    0  0.61785721079E-01 -0.13493861449E+00 -0.88080701241E-02  0.89247044047E+00  0.88000000000E+00 0. -1.
        -11    1    4    4    0    0 -0.92568000598E-02  0.32487704677E-01 -0.58701543317E-02  0.34290802490E-01  0.51100000000E-03 0.  1.
         11    1    4    4    0    0 -0.46945980684E-01  0.78806305054E-01  0.86562293046E-02  0.92138755393E-01  0.51100000000E-03 0. -1.
</event>
<event>
 8    1  0.1104109E+005  0.1043930E+01  0.7957747E-01            NaN
         13   -1    0    0    0    0  0.00000000000E+00  0.00000000000E+00  0.74505805969E-08  0.10566000000E+00  0.10566000000E+00 0. -1.
     999900   -1    0    0    0    0 -0.00000000000E+00 -0.00000000000E+00 -0.74505805969E-08  0.93827000000E+00  0.93827000000E+00 0.  1.
     999902    2    1    2    0    0  0.40995670886E-02  0.22081307513E-01 -0.70307716457E-02  0.10203965697E+01  0.10201251576E+01 0.  0.
     999903    2    3    3    0    0  0.38761656360E-01  0.19982477229E-01  0.12110503972E+00  0.13043890123E+00  0.21121337731E-01 0.  0.
         14    1    1    2    0    0 -0.40995670886E-02 -0.22081307513E-01  0.70307716457E-02  0.23533430301E-01  0.00000000000E+00 0. -1.
     999901    1    3    3    0    0 -0.34662089271E-01  0.20988302838E-02 -0.12813581137E+00  0.88995766847E+00  0.88000000000E+00 0.  1.
        -11    1    4    4    0    0  0.47134267364E-02  0.91249113283E-02  0.47689377176E-01  0.48785430354E-01  0.51100000000E-03 0. -1.
         11    1    4    4    0    0  0.34048229623E-01  0.10857565901E-01  0.73415662543E-01  0.81653470872E-01  0.51100000000E-03 0.  1.
</event>
<event>
 8    1  0.1104109E+005  0.1043930E+01  0.7957747E-01            NaN
         13   -1    0    0    0    0  0.00000000000E+00  0.00000000000E+00  0.74505805969E-08  0.10566000000E+00  0.10566000000E+00 0. -1.
     999900   -1    0    0    0    0 -0.00000000000E+00 -0.00000000000E+00 -0.74505805969E-08  0.93827000000E+00  0.93827000000E+00 0. -1.
     999902    2    1    2    0    0  0.18982004044E-01  0.12053111742E-02  0.15810900875E-01  0.10191963420E+01  0.10188961820E+01 0.  0.
     999903    2    3    3    0    0 -0.46116356187E-01 -0.74502743777E-01  0.94123913862E-01  0.13009430391E+00  0.19693643948E-01 0.  0.
         14    1    1    2    0    0 -0.18982004044E-01 -0.12053111742E-02 -0.15810900875E-01  0.24733658020E-01  0.00000000000E+00 0.  1.
     999901    1    3    3    0    0  0.65098360232E-01  0.75708054952E-01 -0.78313012987E-01  0.88910203807E+00  0.88000000000E+00 0. -1.
        -11    1    4    4    0    0 -0.30299224784E-01 -0.63998535039E-01  0.74559118653E-01  0.10282596367E+00  0.51100000000E-03 0.  1.
         11    1    4    4    0    0 -0.15817131403E-01 -0.10504208738E-01  0.19564795209E-01  0.27268340243E-01  0.51100000000E-03 0. -1.
</event>
<event>
 8    1  0.1104109E+005  0.1043930E+01  0.7957747E-01            NaN
         13   -1    0    0    0    0  0.00000000000E+00  0.00000000000E+00  0.74505805969E-08  0.10566000000E+00  0.10566000000E+00 0.  1.
     999900   -1    0    0    0    0 -0.00000000000E+00 -0.00000000000E+00 -0.74505805969E-08  0.93827000000E+00  0.93827000000E+00 0. -1.
     999902    2    1    2    0    0  0.75398387032E-02  0.17489211971E-01 -0.14075473740E-01  0.10202479253E+01  0.10199730331E+01 0.  0.
     999903    2    3    3    0    0  0.12006164189E+00  0.40927024353E-01 -0.32825823006E-01  0.13257565306E+00  0.20222511030E-01 0.  0.
         14    1    1    2    0    0 -0.75398387032E-02 -0.17489211971E-01  0.14075473740E-01  0.23682074741E-01  0.00000000000E+00 0.  1.
     999901    1    3    3    0    0 -0.11252180318E+00 -0.23437812382E-01  0.18750349266E-01  0.88767227220E+00  0.88000000000E+00 0.  1.
        -11    1    4    4    0    0  0.41627957172E-01  0.22409973506E-01 -0.61166371763E-02  0.47673557683E-01  0.51100000000E-03 0.  1.
         11    1    4    4    0    0  0.78433684714E-01  0.18517050847E-01 -0.26709185830E-01  0.84902095372E-01  0.51100000000E-03 0. -1.
</event>
<event>
 8    1  0.1104109E+005  0.1043930E+01  0.7957747E-01            NaN
         13   -1    0    0    0    0  0.00000000000E+00  0.00000000000E+00  0.74505805969E-08  0.10566000000E+00  0.10566000000E+00 0. -1.
     999900   -1    0    0    0    0 -0.00000000000E+00 -0.00000000000E+00 -0.74505805969E-08  0.93827000000E+00  0.93827000000E+00 0.  1.
     999902    2    1    2    0    0 -0.12393680277E-01 -0.15331187534E-01 -0.13823851555E-01  0.10198520538E+01  0.10195677830E+01 0.  0.
     999903    2    3    3    0    0 -0.43871783644E-01  0.11870009494E+00  0.11700732900E-01  0.12878148414E+00  0.20816281334E-01 0.  0.
         14    1    1    2    0    0  0.12393680277E-01  0.15331187534E-01  0.13823851555E-01  0.24077946213E-01  0.00000000000E+00 0. -1.
     999901    1    3    3    0    0  0.31478103368E-01 -0.13403128248E+00 -0.25524584454E-01  0.89107056964E+00  0.88000000000E+00 0.  1.
        -11    1    4    4    0    0 -0.12495790535E-01  0.62534195987E-01  0.88192189499E-02  0.64379423675E-01  0.51100000000E-03 0. -1.
         11    1    4    4    0    0 -0.31375993109E-01  0.56165898955E-01  0.28815139497E-02  0.64402060469E-01  0.51100000000E-03 0.  1.
</event>
<event>
 8    1  0.1104109E+005  0.1043930E+01  0.7957747E-01            NaN
         13   -1    0    0    0    0  0.00000000000E+00  0.00000000000E+00  0.74505805969E-08  0.10566000000E+00  0.10566000000E+00 0.  1.
     999900   -1    0    0    0    0 -0.00000000000E+00 -0.00000000000E+00 -0.74505805969E-08  0.93827000000E+00  0.93827000000E+00 0.  1.
     999902    2    1    2    0    0 -0.14240139134E-01  0.36288262520E-02  0.18428984166E-01  0.10203593106E+01  0.10200870283E+01 0.  0.
     999903    2    3    3    0    0 -0.96356354293E-01  0.67565244389E-01 -0.54473498779E-01  0.13123293577E+00  0.20127396745E-01 0.  0.
         14    1    1    2    0    0  0.14240139134E-01 -0.36288262520E-02 -0.18428984166E-01  0.23570689424E-01  0.00000000000E+00 0. -1.
     999901    1    3    3    0    0  0.82116215158E-01 -0.63936418137E-01  0.72902482945E-01  0.88912637481E+00  0.88000000000E+00 0. -1.
        -11    1    4    4    0    0 -0.62839543084E-01  0.32150570281E-01 -0.30510647575E-01  0.76900117560E-01  0.51100000000E-03 0. -1.
         11    1    4    4    0    0 -0.33516811209E-01  0.35414674108E-01 -0.23962851204E-01  0.54332818210E-01  0.51100000000E-03 0.  1.
</event>
<event>
 8    1  0.1104109E+005  0.1043930E+01  0.7957747E-01            NaN
         13   -1    0    0    0    0  0.00000000000E+00  0.00000000000E+00  0.74505805969E-08  0.10566000000E+00  0.10566000000E+00 0.  1.
     999900   -1    0    0    0    0 -0.00000000000E+00 -0.00000000000E+00 -0.74505805969E-08  0.93827000000E+00  0.93827000000E+00 0. -1.
     999902    2    1    2    0    0  0.14169257349E-01 -0.77002738160E-02  0.15735019893E-01  0.10213988455E+01  0.10211503066E+01 0.  0.
     999903    2    3    3    0    0  0.47645793045E-01  0.11030835765E+00 -0.49283793946E-01  0.13051492397E+00  0.12930493810E-01 0.  0.
         14    1    1    2    0    0 -0.14169257349E-01  0.77002738160E-02 -0.15735019893E-01  0.22531154469E-01  0.00000000000E+00 0. -1.
     999901    1    3    3    0    0 -0.33476535696E-01 -0.11800863147E+00  0.65018813840E-01  0.89088392156E+00  0.88000000000E+00 0.  1.
        -11    1    4    4    0    0  0.31987795052E-01  0.82674142356E-01 -0.31300792349E-01  0.94011879937E-01  0.51100000000E-03 0.  1.
         11    1    4    4    0    0  0.15657997993E-01  0.27634215296E-01 -0.17983001597E-01  0.36503044032E-01  0.51100000000E-03 0. -1.
</event>
<event>
 7    1  0.1104109E+005  0.1043930E+01  0.7957747E-01            NaN
         13   -1    0    0    0    0  0.00000000000E+00  0.00000000000E+00  0.74505805969E-08  0.10566000000E+00  0.10566000000E+00 0. -1.
     999900   -1    0    0    0    0 -0.00000000000E+00 -0.00000000000E+00 -0.74505805969E-08  0.93827000000E+00  0.93827000000E+00 0.  1.
     999902    2    1    2    0    0  0.41064798016E-02  0.16273465193E-01  0.17317162315E-01  0.10198141762E+01  0.10195289996E+01 0.  0.
         14    1    1    2    0    0 -0.41064798016E-02 -0.16273465193E-01 -0.17317162315E-01  0.24115823776E-01  0.00000000000E+00 0.  1.
     999901    1    3    3    0    0 -0.10595730139E+00 -0.28704521469E-01 -0.27207442320E-01  0.88723792986E+00  0.88000000000E+00 0. -1.
        -11    1    3    3    0    0  0.80466319145E-01  0.13687395159E-01  0.25757277717E-01  0.85591306681E-01  0.51100000000E-03 0. -1.
         11    1    3    3    0    0  0.29597462043E-01  0.31290591503E-01  0.18767326918E-01  0.46984939679E-01  0.51100000000E-03 0.  1.
</event>
<event>
 8    1  0.1104109E+005  0.1043930E+01  0.7957747E-01            NaN
         13   -1    0    0    0    0  0.00000000000E+00  0.00000000000E+00  0.74505805969E-08  0.10566000000E+00  0.10566000000E+00 0. -1.
     999900   -1    0    0    0    0 -0.00000000000E+00 -0.00000000000E+00 -0.74505805969E-08  0.93827000000E+00  0.93827000000E+00 0. -1.
     999902    2    1    2    0    0  0.13819443601E-01  0.85605532046E-03  0.17716525806E-01  0.10214447795E+01  0.10211972643E+01 0.  0.
     999903    2    3    3    0    0  0.41217413335E-01 -0.13196936874E-01 -0.12098547888E+00  0.13004903049E+00  0.20055670657E-01 0.  0.
         14    1    1    2    0    0 -0.13819443601E-01 -0.85605532046E-03 -0.17716525806E-01  0.22485220452E-01  0.00000000000E+00 0.  1.
     999901    1    3    3    0    0 -0.27397969734E-01  0.14052992194E-01  0.13870200469E+00  0.89139574906E+00  0.88000000000E+00 0.  1.
        -11    1    4    4    0    0  0.15637444321E-01  0.41016390043E-02 -0.52194931808E-01  0.54643619342E-01  0.51100000000E-03 0. -1.
         11    1    4    4    0    0  0.25579969014E-01 -0.17298575878E-01 -0.68790547076E-01  0.75405411147E-01  0.51100000000E-03 0.  1.
</event>
<event>
 8    1  0.1104109E+005  0.1043930E+01  0.7957747E-01            NaN
         13   -1    0    0    0    0  0.00000000000E+00  0.00000000000E+00  0.74505805969E-08  0.10566000000E+00  0.10566000000E+00 0. -1.
     999900   -1    0    0    0    0 -0.00000000000E+00 -0.00000000000E+00 -0.74505805969E-08  0.93827000000E+00  0.93827000000E+00 0.  1.
     999902    2    1    2    0    0  0.22736115007E-01 -0.10562457188E-01  0.90608914771E-03  0.10188438001E+01  0.10185349143E+01 0.  0.
     999903    2    3    3    0    0 -0.39005592564E-01  0.11133188705E+00  0.43575120040E-01  0.12727724858E+00  0.19608202179E-01 0.  0.
         14    1    1    2    0    0 -0.22736115007E-01  0.10562457188E-01 -0.90608914771E-03  0.25086199892E-01  0.00000000000E+00 0.  1.
     999901    1    3    3    0    0  0.61741707571E-01 -0.12189434424E+00 -0.42669030893E-01  0.89156655153E+00  0.88000000000E+00 0. -1.
        -11    1    4    4    0    0 -0.25427743206E-01  0.50424485442E-01  0.13818797161E-01  0.58141371954E-01  0.51100000000E-03 0. -1.
         11    1    4    4    0    0 -0.13577849358E-01  0.60907401611E-01  0.29756322879E-01  0.69135876624E-01  0.51100000000E-03 0.  1.
</event>
<event>
 8    1  0.1104109E+005  0.1043930E+01  0.7957747E-01            NaN
         13   -1    0    0    0    0  0.00000000000E+00  0.00000000000E+00  0.74505805969E-08  0.10566000000E+00  0.10566000000E+00 0.  1.
     999900   -1    0    0    0    0 -0.00000000000E+00 -0.00000000000E+00 -0.74505805969E-08  0.93827000000E+00  0.93827000000E+00 0. -1.
     999902    2    1    2    0    0  0.11420989201E-01  0.12409320246E-02  0.20578391404E-01  0.10203620323E+01  0.10200898137E+01 0.  0.
     999903    2    3    3    0    0 -0.10047797943E+00 -0.76877741071E-01 -0.16170396464E-01  0.12908520684E+00  0.19887118478E-01 0.  0.
         14    1    1    2    0    0 -0.11420989201E-01 -0.12409320246E-02 -0.20578391404E-01  0.23567967656E-01  0.00000000000E+00 0.  1.
     999901    1    3    3    0    0  0.11189896863E+00  0.78118673096E-01  0.36748787869E-01  0.89127682550E+00  0.88000000000E+00 0.  1.
        -11    1    4    4    0    0 -0.41195691584E-02 -0.88990806960E-02  0.11813814532E-02  0.98904636101E-02  0.51100000000E-03 0.  1.
         11    1    4    4    0    0 -0.96358410271E-01 -0.67978660375E-01 -0.17351777918E-01  0.11919474323E+00  0.51100000000E-03 0. -1.
</event>
<event>
 8    1  0.1104109E+005  0.1043930E+01  0.7957747E-01            NaN
         13   -1    0    0    0    0  0.00000000000E+00  0.00000000000E+00  0.74505805969E-08  0.10566000000E+00  0.10566000000E+00 0.  1.
     999900   -1    0    0    0    0 -0.00000000000E+00 -0.00000000000E+00 -0.74505805969E-08  0.93827000000E+00  0.93827000000E+00 0.  1.
     999902    2    1    2    0    0 -0.70570432395E-02 -0.10280400847E-01 -0.19963695643E-01  0.10203919957E+01  0.10201204769E+01 0.  0.
     999903    2    3    3    0    0 -0.39236426504E-01 -0.36679007720E-01  0.11570422985E+00  0.12902328126E+00  0.19356950371E-01 0.  0.
         14    1    1    2    0    0  0.70570432395E-02  0.10280400847E-01  0.19963695643E-01  0.23538004261E-01  0.00000000000E+00 0.  1.
     999901    1    3    3    0    0  0.32179383264E-01  0.26398606873E-01 -0.13566792550E+00  0.89136871448E+00  0.88000000000E+00 0.  1.
        -11    1    4    4    0    0 -0.11672317067E-01 -0.11131467308E-01  0.57633606486E-01  0.59850198560E-01  0.51100000000E-03 0. -1.
         11    1    4    4    0    0 -0.27564109437E-01 -0.25547540412E-01  0.58070623368E-01  0.69173082695E-01  0.51100000000E-03 0.  1.
</event>
<event>
 8    1  0.1104109E+005  0.1043930E+01  0.7957747E-01            NaN
         13   -1    0    0    0    0  0.00000000000E+00  0.00000000000E+00  0.74505805969E-08  0.10566000000E+00  0.10566000000E+00 0. -1.
     999900   -1    0    0    0    0 -0.00000000000E+00 -0.00000000000E+00 -0.74505805969E-08  0.93827000000E+00  0.93827000000E+00 0. -1.
     999902    2    1    2    0    0 -0.38249589790E-03  0.24697543575E-01  0.63507276143E-03  0.10192213319E+01  0.10189217856E+01 0.  0.
     999903    2    3    3    0    0 -0.59924374665E-01  0.14312105870E-01 -0.11249473086E+00  0.12992304386E+00  0.20716317256E-01 0.  0.
         14    1    1    2    0    0  0.38249589790E-03 -0.24697543575E-01 -0.63507276143E-03  0.24708668098E-01  0.00000000000E+00 0. -1.
     999901    1    3    3    0    0  0.59541878767E-01  0.10385437706E-01  0.11312980363E+00  0.88929828804E+00  0.88000000000E+00 0.  1.
        -11    1    4    4    0    0 -0.32268415609E-01  0.17433794367E-01 -0.56013865796E-01  0.66955224698E-01  0.51100000000E-03 0. -1.
         11    1    4    4    0    0 -0.27655959055E-01 -0.31216884970E-02 -0.56480865069E-01  0.62967819164E-01  0.51100000000E-03 0.  1.
</event>
<event>
 8    1  0.1104109E+005  0.1043930E+01  0.7957747E-01            NaN
         13   -1    0    0    0    0  0.00000000000E+00  0.00000000000E+00  0.74505805969E-08  0.10566000000E+00  0.10566000000E+00 0.  1.
     999900   -1    0    0    0    0 -0.00000000000E+00 -0.00000000000E+00 -0.74505805969E-08  0.93827000000E+00  0.93827000000E+00 0.  1.
     999902    2    1    2    0    0 -0.56595770953E-02 -0.21391999801E-01 -0.55127525367E-03  0.10217951322E+01  0.10215553533E+01 0.  0.
     999903    2    3    3    0    0 -0.78137135922E-01 -0.48512847718E-01 -0.94572233772E-01  0.13340981176E+00  0.19883713660E-01 0.  0.
         14    1    1    2    0    0  0.56595770953E-02  0.21391999801E-01  0.55127525367E-03  0.22134867806E-01  0.00000000000E+00 0. -1.
     999901    1    3    3    0    0  0.72477558827E-01  0.27120847917E-01  0.94020958519E-01  0.88838532044E+00  0.88000000000E+00 0. -1.
        -11    1    4    4    0    0 -0.53870686259E-01 -0.22207347961E-01 -0.60317215021E-01  0.83866827115E-01  0.51100000000E-03 0. -1.
         11    1    4    4    0    0 -0.24266449663E-01 -0.26305499757E-01 -0.34255018751E-01  0.49542984643E-01  0.51100000000E-03 0.  1.
</event>
<event>
 8    1  0.1104109E+005  0.1043930E+01  0.7957747E-01            NaN
         13   -1    0    0    0    0  0.00000000000E+00  0.00000000000E+00  0.74505805969E-08  0.10566000000E+00  0.10566000000E+00 0. -1.
     999900   -1    0    0    0    0 -0.00000000000E+00 -0.00000000000E+00 -0.74505805969E-08  0.93827000000E+00  0.93827000000E+00 0. -1.
     999902    2    1    2    0    0  0.19762951622E-01 -0.14294702395E-01  0.38982715360E-02  0.10192296094E+01  0.10189302662E+01 0.  0.
     999903    2    3    3    0    0 -0.23766600211E-01 -0.30518410662E-01  0.12241975649E+00  0.13006968400E+00  0.20863874123E-01 0.  0.
         14    1    1    2    0    0 -0.19762951622E-01  0.14294702395E-01 -0.38982715360E-02  0.24700390571E-01  0.00000000000E+00 0.  1.
     999901    1    3    3    0    0  0.43529551833E-01  0.16223708267E-01 -0.11852148495E+00  0.88915992543E+00  0.88000000000E+00 0. -1.
        -11    1    4    4    0    0 -0.33187577066E-02 -0.20076254758E-01  0.68566219204E-01  0.71523826063E-01  0.51100000000E-03 0.  1.
         11    1    4    4    0    0 -0.20447842504E-01 -0.10442155904E-01  0.53853537281E-01  0.58545857938E-01  0.51100000000E-03 0. -1.
</event>
<event>
 8    1  0.1104109E+005  0.1043930E+01  0.7957747E-01            NaN
         13   -1    0    0    0    0  0.00000000000E+00  0.00000000000E+00  0.74505805969E-08  0.10566000000E+00  0.10566000000E+00 0.  1.
     999900   -1    0    0    0    0 -0.00000000000E+00 -0.00000000000E+00 -0.74505805969E-08  0.93827000000E+00  0.93827000000E+00 0.  1.
     999902    2    1    2    0    0  0.23866303124E-01 -0.44521750535E-02  0.63334653089E-03  0.10196437196E+01  0.10193544484E+01 0.  0.
     999903    2    3    3    0    0 -0.11299439260E+00 -0.28285399593E-03 -0.55361961546E-01  0.12729641738E+00  0.19277404529E-01 0.  0.
         14    1    1    2    0    0 -0.23866303124E-01  0.44521750535E-02 -0.63334653089E-03  0.24286280393E-01  0.00000000000E+00 0. -1.
     999901    1    3    3    0    0  0.13686069572E+00 -0.41693210576E-02  0.55995308077E-01  0.89234730223E+00  0.88000000000E+00 0. -1.
        -11    1    4    4    0    0 -0.79408921938E-01  0.86141064072E-02 -0.39020829889E-01  0.88898065214E-01  0.51100000000E-03 0. -1.
         11    1    4    4    0    0 -0.33585470661E-01 -0.88969604032E-02 -0.16341131658E-01  0.38398352162E-01  0.51100000000E-03 0.  1.
</event>
<event>
 8    1  0.1104109E+005  0.1043930E+01  0.7957747E-01            NaN
         13   -1    0    0    0    0  0.00000000000E+00  0.00000000000E+00  0.74505805969E-08  0.10566000000E+00  0.10566000000E+00 0. -1.
     999900   -1    0    0    0    0 -0.00000000000E+00 -0.00000000000E+00 -0.74505805969E-08  0.93827000000E+00  0.93827000000E+00 0.  1.
     999902    2    1    2    0    0 -0.37133560051E-02  0.19107842179E-01 -0.20359838804E-01  0.10157622581E+01  0.10153716282E+01 0.  0.
     999903    2    3    3    0    0  0.31268131989E-02  0.47600742950E-01 -0.11968814485E+00  0.12968960553E+00  0.14782898071E-01 0.  0.
         14    1    1    2    0    0  0.37133560051E-02 -0.19107842179E-01  0.20359838804E-01  0.28167741864E-01  0.00000000000E+00 0. -1.
     999901    1    3    3    0    0 -0.68401692040E-02 -0.28492900771E-01  0.99328306046E-01  0.88607265260E+00  0.88000000000E+00 0. -1.
        -11    1    4    4    0    0  0.16584856990E-02  0.32189880005E-01 -0.61027718895E-01  0.69018711550E-01  0.51100000000E-03 0.  1.
         11    1    4    4    0    0  0.14683275000E-02  0.15410862945E-01 -0.58660425956E-01  0.60670893983E-01  0.51100000000E-03 0. -1.
</event>
<event>
 8    1  0.1104109E+005  0.1043930E+01  0.7957747E-01            NaN
         13   -1    0    0    0    0  0.00000000000E+00  0.00000000000E+00  0.74505805969E-08  0.10566000000E+00  0.10566000000E+00 0. -1.
     999900   -1    0    0    0    0 -0.00000000000E+00 -0.00000000000E+00 -0.74505805969E-08  0.93827000000E+00  0.93827000000E+00 0. -1.
     999902    2    1    2    0    0  0.19348187103E-02 -0.82588473810E-03  0.21703953870E-01  0.10221243305E+01  0.10218917065E+01 0.  0.
     999903    2    3    3    0    0 -0.45800487877E-01  0.12122195972E+00 -0.12440064009E-01  0.13176476841E+00  0.20365431317E-01 0.  0.
         14    1    1    2    0    0 -0.19348187103E-02  0.82588473810E-03 -0.21703953870E-01  0.21805669507E-01  0.00000000000E+00 0.  1.
     999901    1    3    3    0    0  0.47735306587E-01 -0.12204784446E+00  0.34144017880E-01  0.89035956208E+00  0.88000000000E+00 0.  1.
        -11    1    4    4    0    0 -0.16493313464E-01  0.47705275835E-01  0.49866357065E-02  0.50724258380E-01  0.51100000000E-03 0. -1.
         11    1    4    4    0    0 -0.29307174413E-01  0.73516683889E-01 -0.17426699716E-01  0.81040510031E-01  0.51100000000E-03 0.  1.
</event>
<event>
 8    1  0.1104109E+005  0.1043930E+01  0.7957747E-01            NaN
         13   -1    0    0    0    0  0.00000000000E+00  0.00000000000E+00  0.74505805969E-08  0.10566000000E+00  0.10566000000E+00 0. -1.
     999900   -1    0    0    0    0 -0.00000000000E+00 -0.00000000000E+00 -0.74505805969E-08  0.93827000000E+00  0.93827000000E+00 0. -1.
     999902    2    1    2    0    0  0.27377303316E-01  0.17592195969E-01 -0.75876533075E-03  0.10113788430E+01  0.10108548789E+01 0.  0.
     999903    2    3    3    0    0  0.17169369620E-01 -0.11588013111E+00 -0.22994027386E-01  0.12097810690E+00  0.19595535565E-01 0.  0.
         14    1    1    2    0    0 -0.27377303316E-01 -0.17592195969E-01  0.75876533075E-03  0.32551156979E-01  0.00000000000E+00 0.  1.
     999901    1    3    3    0    0  0.10207933696E-01  0.13347232708E+00  0.22235262056E-01  0.89040073612E+00  0.88000000000E+00 0.  1.
        -11    1    4    4    0    0  0.13776805390E-01 -0.36915399248E-01 -0.11905200574E-01  0.41164814953E-01  0.51100000000E-03 0.  1.
         11    1    4    4    0    0  0.33925642293E-02 -0.78964731863E-01 -0.11088826812E-01  0.79813291946E-01  0.51100000000E-03 0. -1.
</event>
<event>
 8    1  0.1104109E+005  0.1043930E+01  0.7957747E-01            NaN
         13   -1    0    0    0    0  0.00000000000E+00  0.00000000000E+00  0.74505805969E-08  0.10566000000E+00  0.10566000000E+00 0.  1.
     999900   -1    0    0    0    0 -0.00000000000E+00 -0.00000000000E+00 -0.74505805969E-08  0.93827000000E+00  0.93827000000E+00 0. -1.
     999902    2    1    2    0    0 -0.29534170235E-02  0.21772939508E-01  0.93459820311E-02  0.10200525850E+01  0.10197730852E+01 0.  0.
     999903    2    3    3    0    0  0.97459750861E-01 -0.12764683884E-01 -0.81126509782E-01  0.12906385135E+00  0.20362390421E-01 0.  0.
         14    1    1    2    0    0  0.29534170235E-02 -0.21772939508E-01 -0.93459820311E-02  0.23877415000E-01  0.00000000000E+00 0. -1.
     999901    1    3    3    0    0 -0.10041316788E+00  0.34537623392E-01  0.90472491814E-01  0.89098873365E+00  0.88000000000E+00 0. -1.
        -11    1    4    4    0    0  0.32374849328E-01 -0.97056394392E-02 -0.38339168953E-01  0.51112457415E-01  0.51100000000E-03 0. -1.
         11    1    4    4    0    0  0.65084901533E-01 -0.30590444443E-02 -0.42787340829E-01  0.77951393937E-01  0.51100000000E-03 0.  1.
</event>
<event>
 8    1  0.1104109E+005  0.1043930E+01  0.7957747E-01            NaN
         13   -1    0    0    0    0  0.00000000000E+00  0.00000000000E+00  0.74505805969E-08  0.10566000000E+00  0.10566000000E+00 0. -1.
     999900   -1    0    0    0    0 -0.00000000000E+00 -0.00000000000E+00 -0.74505805969E-08  0.93827000000E+00  0.93827000000E+00 0. -1.
     999902    2    1    2    0    0  0.21391795217E-01 -0.44221531574E-02  0.43308792315E-02  0.10216607195E+01  0.10214179873E+01 0.  0.
     999903    2    3    3    0    0  0.68795611700E-01 -0.35890516808E-01  0.10692926551E+00  0.13387481700E+00  0.21624833397E-01 0.  0.
         14    1    1    2    0    0 -0.21391795217E-01  0.44221531574E-02 -0.43308792315E-02  0.22269280547E-01  0.00000000000E+00 0.  1.
     999901    1    3    3    0    0 -0.47403816483E-01  0.31468363651E-01 -0.10259838627E+00  0.88778590245E+00  0.88000000000E+00 0. -1.
        -11    1    4    4    0    0  0.49445338952E-01 -0.17984857826E-01  0.58129627939E-01  0.78406705200E-01  0.51100000000E-03 0.  1.
         11    1    4    4    0    0  0.19350272748E-01 -0.17905658982E-01  0.48799637567E-01  0.55468111800E-01  0.51100000000E-03 0. -1.
</event>
<event>
 8    1  0.1104109E+005  0.1043930E+01  0.7957747E-01            NaN
         13   -1    0    0    0    0  0.00000000000E+00  0.00000000000E+00  0.74505805969E-08  0.10566000000E+00  0.10566000000E+00 0.  1.
     999900   -1    0    0    0    0 -0.00000000000E+00 -0.00000000000E+00 -0.74505805969E-08  0.93827000000E+00  0.93827000000E+00 0.  1.
     999902    2    1    2    0    0  0.21669503225E-01 -0.28904670019E-02  0.94347163847E-02  0.10201195812E+01  0.10198416661E+01 0.  0.
     999903    2    3    3    0    0  0.62630744028E-01 -0.86655659927E-01  0.76146668906E-01  0.13268230715E+00  0.19351122696E-01 0.  0.
         14    1    1    2    0    0 -0.21669503225E-01  0.28904670019E-02 -0.94347163847E-02  0.23810418786E-01  0.00000000000E+00 0.  1.
     999901    1    3    3    0    0 -0.40961240803E-01  0.83765192925E-01 -0.66711952521E-01  0.88743727407E+00  0.88000000000E+00 0.  1.
        -11    1    4    4    0    0  0.55690965269E-01 -0.64345937148E-01  0.62861297509E-01  0.10580022252E+00  0.51100000000E-03 0.  1.
         11    1    4    4    0    0  0.69397787595E-02 -0.22309722779E-01  0.13285371397E-01  0.26882084626E-01  0.51100000000E-03 0. -1.
</event>
<event>
 8    1  0.1104109E+005  0.1043930E+01  0.7957747E-01            NaN
         13   -1    0    0    0    0  0.00000000000E+00  0.00000000000E+00  0.74505805969E-08  0.10566000000E+00  0.10566000000E+00 0.  1.
     999900   -1    0    0    0    0 -0.00000000000E+00 -0.00000000000E+00 -0.74505805969E-08  0.93827000000E+00  0.93827000000E+00 0.  1.
     999902    2    1    2    0    0 -0.13236133625E-01  0.99773409594E-02  0.16796285872E-01  0.10203321657E+01  0.10200592485E+01 0.  0.
     999903    2    3    3    0    0  0.77618158144E-01 -0.85966208105E-01 -0.50658210306E-01  0.12791422771E+00  0.19519937742E-01 0.  0.
         14    1    1    2    0    0  0.13236133625E-01 -0.99773409594E-02 -0.16796285872E-01  0.23597834330E-01  0.00000000000E+00 0.  1.
     999901    1    3    3    0    0 -0.90854291769E-01  0.95943549064E-01  0.67454496178E-01  0.89241793796E+00  0.88000000000E+00 0. -1.
        -11    1    4    4    0    0  0.61998495415E-01 -0.55515134613E-01 -0.36464933781E-01  0.90860861329E-01  0.51100000000E-03 0.  1.
         11    1    4    4    0    0  0.15619662729E-01 -0.30451073492E-01 -0.14193276525E-01  0.37053366380E-01  0.51100000000E-03 0. -1.
</event>
<event>
 8    1  0.1104109E+005  0.1043930E+01  0.7957747E-01            NaN
         13   -1    0    0    0    0  0.00000000000E+00  0.00000000000E+00  0.74505805969E-08  0.10566000000E+00  0.10566000000E+00 0.  1.
     999900   -1    0    0    0    0 -0.00000000000E+00 -0.00000000000E+00 -0.74505805969E-08  0.93827000000E+00  0.93827000000E+00 0.  1.
     999902    2    1    2    0    0 -0.77872145974E-02  0.22299543501E-01  0.31645497214E-02  0.10200988287E+01  0.10198204232E+01 0.  0.
     999903    2    3    3    0    0  0.86386552433E-02  0.83443067847E-01 -0.10128193711E+00  0.13166345771E+00  0.63137449767E-02 0.  0.
         14    1    1    2    0    0  0.77872145974E-02 -0.22299543501E-01 -0.31645497214E-02  0.23831171320E-01  0.00000000000E+00 0. -1.
     999901    1    3    3    0    0 -0.16425869841E-01 -0.61143524346E-01  0.10444648684E+00  0.88843537097E+00  0.88000000000E+00 0. -1.
        -11    1    4    4    0    0  0.58644604807E-02  0.38442759519E-01 -0.50793641141E-01  0.63972593800E-01  0.51100000000E-03 0. -1.
         11    1    4    4    0    0  0.27741947626E-02  0.45000308329E-01 -0.50488295973E-01  0.67690863915E-01  0.51100000000E-03 0.  1.
</event>
<event>
 8    1  0.1104109E+005  0.1043930E+01  0.7957747E-01            NaN
         13   -1    0    0    0    0  0.00000000000E+00  0.00000000000E+00  0.74505805969E-08  0.10566000000E+00  0.10566000000E+00 0.  1.
     999900   -1    0    0    0    0 -0.00000000000E+00 -0.00000000000E+00 -0.74505805969E-08  0.93827000000E+00  0.93827000000E+00 0.  1.
     999902    2    1    2    0    0  0.63495111959E-02  0.15834513362E-01 -0.18243417420E-01  0.10189526025E+01  0.10186464233E+01 0.  0.
     999903    2    3    3    0    0  0.69949949375E-01  0.10473502090E+00 -0.35086712636E-01  0.13202982540E+00  0.18395036577E-01 0.  0.
         14    1    1    2    0    0 -0.63495111959E-02 -0.15834513362E-01  0.18243417420E-01  0.24977397483E-01  0.00000000000E+00 0. -1.
     999901    1    3    3    0    0 -0.63600438179E-01 -0.88900507539E-01  0.16843295216E-01  0.88692277712E+00  0.88000000000E+00 0.  1.
        -11    1    4    4    0    0  0.44753309146E-01  0.50820370612E-01 -0.20511866006E-01  0.70757095168E-01  0.51100000000E-03 0. -1.
         11    1    4    4    0    0  0.25196640229E-01  0.53914650290E-01 -0.14574846630E-01  0.61272730231E-01  0.51100000000E-03 0.  1.
</event>
<event>
 8    1  0.1104109E+005  0.1043930E+01  0.7957747E-01            NaN
         13   -1    0    0    0    0  0.00000000000E+00  0.00000000000E+00  0.74505805969E-08  0.10566000000E+00  0.10566000000E+00 0.  1.
     999900   -1    0    0    0    0 -0.00000000000E+00 -0.00000000000E+00 -0.74505805969E-08  0.93827000000E+00  0.93827000000E+00 0.  1.
     999902    2    1    2    0    0 -0.11626121374E-01  0.19986713441E-01  0.44914138193E-02  0.10203756329E+01  0.10201037320E+01 0.  0.
     999903    2    3    3    0    0  0.82093420539E-01  0.40822380765E-04  0.99028096084E-01  0.13014062155E+00  0.19765783581E-01 0.  0.
         14    1    1    2    0    0  0.11626121374E-01 -0.19986713441E-01 -0.44914138193E-02  0.23554367121E-01  0.00000000000E+00 0. -1.
     999901    1    3    3    0    0 -0.93719541912E-01  0.19945891060E-01 -0.94536682265E-01  0.89023501133E+00  0.88000000000E+00 0.  1.
        -11    1    4    4    0    0  0.62439228617E-01 -0.60946449508E-02  0.64807848416E-01  0.90200445147E-01  0.51100000000E-03 0.  1.
         11    1    4    4    0    0  0.19654191922E-01  0.61354673316E-02  0.34220247668E-01  0.39940176401E-01  0.51100000000E-03 0. -1.
</event>
<event>
 8    1  0.1104109E+005  0.1043930E+01  0.7957747E-01            NaN
         13   -1    0    0    0    0  0.00000000000E+00  0.00000000000E+00  0.74505805969E-08  0.10566000000E+00  0.10566000000E+00 0.  1.
     999900   -1    0    0    0    0 -0.00000000000E+00 -0.00000000000E+00 -0.74505805969E-08  0.93827000000E+00  0.93827000000E+00 0.  1.
     999902    2    1    2    0    0  0.35973585914E-03 -0.13707053639E-01  0.19060898750E-01  0.10204495701E+01  0.10201793933E+01 0.  0.
     999903    2    3    3    0    0  0.10616281039E+00  0.70667088881E-01  0.90797482767E-02  0.13004914897E+00  0.23789904500E-01 0.  0.
         14    1    1    2    0    0 -0.35973585914E-03  0.13707053639E-01 -0.19060898750E-01  0.23480429947E-01  0.00000000000E+00 0. -1.
     999901    1    3    3    0    0 -0.10580307454E+00 -0.84374142520E-01  0.99811504737E-02  0.89040042109E+00  0.88000000000E+00 0.  1.
        -11    1    4    4    0    0  0.62303934660E-01  0.47922234893E-01 -0.47329266322E-02  0.78746317925E-01  0.51100000000E-03 0.  1.
         11    1    4    4    0    0  0.43858875734E-01  0.22744853988E-01  0.13812674909E-01  0.51302831041E-01  0.51100000000E-03 0. -1.
</event>
<event>
 8    1  0.1104109E+005  0.1043930E+01  0.7957747E-01            NaN
         13   -1    0    0    0    0  0.00000000000E+00  0.00000000000E+00  0.74505805969E-08  0.10566000000E+00  0.10566000000E+00 0.  1.
     999900   -1    0    0    0    0 -0.00000000000E+00 -0.00000000000E+00 -0.74505805969E-08  0.93827000000E+00  0.93827000000E+00 0. -1.
     999902    2    1    2    0    0 -0.23158824696E-01 -0.78126781185E-02 -0.11535286140E-01  0.10169034958E+01  0.10165442872E+01 0.  0.
     999903    2    3    3    0    0  0.67816961542E-02  0.11365329335E+00  0.50074947861E-01  0.12592300338E+00  0.19647897716E-01 0.  0.
         14    1    1    2    0    0  0.23158824696E-01  0.78126781185E-02  0.11535286140E-01  0.27026504158E-01  0.00000000000E+00 0.  1.
     999901    1    3    3    0    0 -0.29940520850E-01 -0.12146597147E+00 -0.61610234001E-01  0.89098049246E+00  0.88000000000E+00 0. -1.
        -11    1    4    4    0    0  0.20739296959E-02  0.91352707661E-01  0.31963972842E-01  0.96806895737E-01  0.51100000000E-03 0. -1.
         11    1    4    4    0    0  0.47077664582E-02  0.22300585690E-01  0.18110975019E-01  0.29116107643E-01  0.51100000000E-03 0.  1.
</event>
<event>
 8    1  0.1104109E+005  0.1043930E+01  0.7957747E-01            NaN
         13   -1    0    0    0    0  0.00000000000E+00  0.00000000000E+00  0.74505805969E-08  0.10566000000E+00  0.10566000000E+00 0. -1.
     999900   -1    0    0    0    0 -0.00000000000E+00 -0.00000000000E+00 -0.74505805969E-08  0.93827000000E+00  0.93827000000E+00 0.  1.
     999902    2    1    2    0    0  0.28018001062E-02 -0.11151790649E-01 -0.27614340476E-01  0.10140173886E+01  0.10135760949E+01 0.  0.
     999903    2    3    3    0    0 -0.12024221100E+00  0.88489710876E-02 -0.28393977767E-01  0.12523143748E+00  0.18444548350E-01 0.  0.
         14    1    1    2    0    0 -0.28018001062E-02  0.11151790649E-01  0.27614340476E-01  0.29912611361E-01  0.00000000000E+00 0. -1.
     999901    1    3    3    0    0  0.12304401111E+00 -0.20000761737E-01  0.77963729133E-03  0.88878595116E+00  0.88000000000E+00 0. -1.
        -11    1    4    4    0    0 -0.85922473140E-01  0.42760294768E-02 -0.28424910546E-01  0.90604594139E-01  0.51100000000E-03 0. -1.
         11    1    4    4    0    0 -0.34319737864E-01  0.45729416109E-02  0.30932778657E-04  0.34626843342E-01  0.51100000000E-03 0.  1.
</event>
<event>
 8    1  0.1104109E+005  0.1043930E+01  0.7957747E-01            NaN
         13   -1    0    0    0    0  0.00000000000E+00  0.00000000000E+00  0.74505805969E-08  0.10566000000E+00  0.10566000000E+00 0.  1.
     999900   -1    0    0    0    0 -0.00000000000E+00 -0.00000000000E+00 -0.74505805969E-08  0.93827000000E+00  0.93827000000E+00 0. -1.
     999902    2    1    2    0    0 -0.41966950408E-03 -0.17519082842E-01  0.14230907759E-01  0.10213553877E+01  0.10211058784E+01 0.  0.
     999903    2    3    3    0    0  0.60834927874E-01 -0.75737327742E-02 -0.11287621652E+00  0.13006011857E+00  0.20404516855E-01 0.  0.
         14    1    1    2    0    0  0.41966950408E-03  0.17519082842E-01 -0.14230907759E-01  0.22574612328E-01  0.00000000000E+00 0.  1.
     999901    1    3    3    0    0 -0.61254597379E-01 -0.99453500680E-02  0.12710712428E+00  0.89129526911E+00  0.88000000000E+00 0.  1.
        -11    1    4    4    0    0  0.14571628633E-02  0.18971110507E-02 -0.14930340296E-01  0.15129393124E-01  0.51100000000E-03 0.  1.
         11    1    4    4    0    0  0.59377765011E-01 -0.94708438249E-02 -0.97945876223E-01  0.11493072544E+00  0.51100000000E-03 0. -1.
</event>
<event>
 8    1  0.1104109E+005  0.1043930E+01  0.7957747E-01            NaN
         13   -1    0    0    0    0  0.00000000000E+00  0.00000000000E+00  0.74505805969E-08  0.10566000000E+00  0.10566000000E+00 0.  1.
     999900   -1    0    0    0    0 -0.00000000000E+00 -0.00000000000E+00 -0.74505805969E-08  0.93827000000E+00  0.93827000000E+00 0.  1.
     999902    2    1    2    0    0  0.21414107816E-01 -0.15645554265E-01 -0.61489364362E-03  0.10174021754E+01  0.10170562723E+01 0.  0.
     999903    2    3    3    0    0 -0.72144671478E-02  0.12304948515E+00  0.12167734116E-01  0.12598795924E+00  0.23058356136E-01 0.  0.
         14    1    1    2    0    0 -0.21414107816E-01  0.15645554265E-01  0.61489364362E-03  0.26527824563E-01  0.00000000000E+00 0. -1.
     999901    1    3    3    0    0  0.28628574964E-01 -0.13869503942E+00 -0.12782627760E-01  0.89141421620E+00  0.88000000000E+00 0. -1.
        -11    1    4    4    0    0  0.73718744304E-02  0.56972144730E-01  0.13990080163E-02  0.57466408903E-01  0.51100000000E-03 0. -1.
         11    1    4    4    0    0 -0.14586341578E-01  0.66077340422E-01  0.10768726100E-01  0.68521550338E-01  0.51100000000E-03 0.  1.
</event>
<event>
 8    1  0.1104109E+005  0.1043930E+01  0.7957747E-01            NaN
         13   -1    0    0    0    0  0.00000000000E+00  0.00000000000E+00  0.74505805969E-08  0.10566000000E+00  0.10566000000E+00 0.  1.
     999900   -1    0    0    0    0 -0.00000000000E+00 -0.00000000000E+00 -0.74505805969E-08  0.93827000000E+00  0.93827000000E+00 0.  1.
     999902    2    1    2    0    0  0.98194945640E-02 -0.15967717731E-01  0.14681219097E-01  0.10201197359E+01  0.10198418244E+01 0.  0.
     999903    2    3    3    0    0 -0.22197173742E-01  0.11504069282E+00 -0.47247967923E-01  0.12769411160E+00  0.18610215924E-01 0.  0.
         14    1    1    2    0    0 -0.98194945640E-02  0.15967717731E-01 -0.14681219097E-01  0.23810264115E-01  0.00000000000E+00 0.  1.
     999901    1    3    3    0    0  0.32016668306E-01 -0.13100841055E+00  0.61929187020E-01  0.89242562429E+00  0.88000000000E+00 0.  1.
        -11    1    4    4    0    0 -0.11967389337E-01  0.86524280080E-01 -0.27703253231E-01  0.91637333066E-01  0.51100000000E-03 0. -1.
         11    1    4    4    0    0 -0.10229784405E-01  0.28516412740E-01 -0.19544714692E-01  0.36056778529E-01  0.51100000000E-03 0.  1.
</event>
<event>
 8    1  0.1104109E+005  0.1043930E+01  0.7957747E-01            NaN
         13   -1    0    0    0    0  0.00000000000E+00  0.00000000000E+00  0.74505805969E-08  0.10566000000E+00  0.10566000000E+00 0. -1.
     999900   -1    0    0    0    0 -0.00000000000E+00 -0.00000000000E+00 -0.74505805969E-08  0.93827000000E+00  0.93827000000E+00 0.  1.
     999902    2    1    2    0    0  0.40419370828E-02  0.83208942589E-02  0.21454753534E-01  0.10205659039E+01  0.10202984285E+01 0.  0.
     999903    2    3    3    0    0  0.12925408511E+00  0.77583735859E-02  0.11071610381E-01  0.13164171811E+00  0.20979764373E-01 0.  0.
         14    1    1    2    0    0 -0.40419370828E-02 -0.83208942589E-02 -0.21454753534E-01  0.23364096085E-01  0.00000000000E+00 0.  1.
     999901    1    3    3    0    0 -0.12521214803E+00  0.56252067294E-03  0.10383143153E-01  0.88892418580E+00  0.88000000000E+00 0. -1.
        -11    1    4    4    0    0  0.22907369341E-01 -0.60919401720E-02 -0.92272623508E-03  0.23727027835E-01  0.51100000000E-03 0. -1.
         11    1    4    4    0    0  0.10634671577E+00  0.13850313758E-01  0.11994336616E-01  0.10791469028E+00  0.51100000000E-03 0.  1.
</event>
<event>
 8    1  0.1104109E+005  0.1043930E+01  0.7957747E-01            NaN
         13   -1    0    0    0    0  0.00000000000E+00  0.00000000000E+00  0.74505805969E-08  0.10566000000E+00  0.10566000000E+00 0.  1.
     999900   -1    0    0    0    0 -0.00000000000E+00 -0.00000000000E+00 -0.74505805969E-08  0.93827000000E+00  0.93827000000E+00 0. -1.
     999902    2    1    2    0    0  0.10385346487E-01 -0.91680189488E-02  0.19326264847E-01  0.10201515958E+01  0.10198744363E+01 0.  0.
     999903    2    3    3    0    0 -0.11496883829E+00  0.51088388665E-01  0.23059802561E-01  0.12922037197E+00  0.18392737786E-01 0.  0.
         14    1    1    2    0    0 -0.10385346487E-01  0.91680189488E-02 -0.19326264847E-01  0.23778404194E-01  0.00000000000E+00 0. -1.
     999901    1    3    3    0    0  0.12535418478E+00 -0.60256407613E-01 -0.37335377144E-02  0.89093122384E+00  0.88000000000E+00 0. -1.
        -11    1    4    4    0    0 -0.39155405475E-01  0.87007077602E-02  0.10425468778E-01  0.41446346204E-01  0.51100000000E-03 0.  1.
         11    1    4    4    0    0 -0.75813432818E-01  0.42387680904E-01  0.12634333783E-01  0.87774025767E-01  0.51100000000E-03 0. -1.
</event>
<event>
 8    1  0.1104109E+005  0.1043930E+01  0.7957747E-01            NaN
         13   -1    0    0    0    0  0.00000000000E+00  0.00000000000E+00  0.74505805969E-08  0.10566000000E+00  0.10566000000E+00 0.  1.
     999900   -1    0    0    0    0 -0.00000000000E+00 -0.00000000000E+00 -0.74505805969E-08  0.93827000000E+00  0.93827000000E+00 0.  1.
     999902    2    1    2    0    0 -0.61925624196E-02 -0.20090680408E-01 -0.10009101077E-01  0.10206455551E+01  0.10203799213E+01 0.  0.
     999903    2    3    3    0    0 -0.10115387336E+00  0.28115041795E-01  0.74375979330E-01  0.13021740866E+00  0.20055561448E-01 0.  0.
         14    1    1    2    0    0  0.61925624196E-02  0.20090680408E-01  0.10009101077E-01  0.23284444871E-01  0.00000000000E+00 0. -1.
     999901    1    3    3    0    0  0.94961310945E-01 -0.48205722203E-01 -0.84385080407E-01  0.89042814647E+00  0.88000000000E+00 0. -1.
        -11    1    4    4    0    0 -0.97540867443E-01  0.24357978913E-01  0.74241326862E-01  0.12497826889E+00  0.51100000000E-03 0. -1.
         11    1    4    4    0    0 -0.36130059215E-02  0.37570628825E-02  0.13465246775E-03  0.52391397747E-02  0.51100000000E-03 0.  1.
</event>
<event>
 8    1  0.1104109E+005  0.1043930E+01  0.7957747E-01            NaN
         13   -1    0    0    0    0  0.00000000000E+00  0.00000000000E+00  0.74505805969E-08  0.10566000000E+00  0.10566000000E+00 0. -1.
     999900   -1    0    0    0    0 -0.00000000000E+00 -0.00000000000E+00 -0.74505805969E-08  0.93827000000E+00  0.93827000000E+00 0.  1.
     999902    2    1    2    0    0  0.55335138634E-02 -0.20683415526E-01  0.10005205444E-01  0.10202968117E+01  0.10200230666E+01 0.  0.
     999903    2    3    3    0    0  0.28336649707E-01 -0.27060036122E-01 -0.12251332094E+00  0.13005987462E+00  0.19257359840E-01 0.  0.
         14    1    1    2    0    0 -0.55335138634E-02  0.20683415526E-01 -0.10005205444E-01  0.23633188306E-01  0.00000000000E+00 0. -1.
     999901    1    3    3    0    0 -0.22803135844E-01  0.63766205961E-02  0.13251852638E+00  0.89023693707E+00  0.88000000000E+00 0. -1.
        -11    1    4    4    0    0  0.10973005183E-01  0.59347400847E-03 -0.30579248780E-01  0.32497855792E-01  0.51100000000E-03 0.  1.
         11    1    4    4    0    0  0.17363644525E-01 -0.27653510131E-01 -0.91934072157E-01  0.97562018830E-01  0.51100000000E-03 0. -1.
</event>
<event>
 8    1  0.1104109E+005  0.1043930E+01  0.7957747E-01            NaN
         13   -1    0    0    0    0  0.00000000000E+00  0.00000000000E+00  0.74505805969E-08  0.10566000000E+00  0.10566000000E+00 0.  1.
     999900   -1    0    0    0    0 -0.00000000000E+00 -0.00000000000E+00 -0.74505805969E-08  0.93827000000E+00  0.93827000000E+00 0. -1.
     999902    2    1    2    0    0 -0.44214562141E-02 -0.20838429728E-01 -0.11133245283E-01  0.10198938069E+01  0.10196105329E+01 0.  0.
     999903    2    3    3    0    0 -0.76165248351E-01 -0.33997456754E-01  0.96344014492E-01  0.13035926958E+00  0.27466305085E-01 0.  0.
         14    1    1    2    0    0  0.44214562141E-02  0.20838429728E-01  0.11133245283E-01  0.24036193108E-01  0.00000000000E+00 0. -1.
     999901    1    3    3    0    0  0.71743792136E-01  0.13159027026E-01 -0.10747725977E+00  0.88953453731E+00  0.88000000000E+00 0. -1.
        -11    1    4    4    0    0 -0.46597712290E-01 -0.30283078225E-01  0.76486833279E-01  0.94545800560E-01  0.51100000000E-03 0.  1.
         11    1    4    4    0    0 -0.29567536060E-01 -0.37143785288E-02  0.19857181213E-01  0.35813469020E-01  0.51100000000E-03 0. -1.
</event>
<event>
 8    1  0.1104109E+005  0.1043930E+01  0.7957747E-01            NaN
         13   -1    0    0    0    0  0.00000000000E+00  0.00000000000E+00  0.74505805969E-08  0.10566000000E+00  0.10566000000E+00 0.  1.
     999900   -1    0    0    0    0 -0.00000000000E+00 -0.00000000000E+00 -0.74505805969E-08  0.93827000000E+00  0.93827000000E+00 0.  1.
     999902    2    1    2    0    0 -0.26555223047E-02 -0.19049829508E-01 -0.12149642347E-01  0.10211800195E+01  0.10209265746E+01 0.  0.
     999903    2    3    3    0    0  0.82258290631E-02 -0.11677868868E+00  0.59197413612E-01  0.13283338890E+00  0.20867415666E-01 0.  0.
         14    1    1    2    0    0  0.26555223047E-02  0.19049829508E-01  0.12149642347E-01  0.22749980487E-01  0.00000000000E+00 0.  1.
     999901    1    3    3    0    0 -0.10881351368E-01  0.97728859168E-01 -0.71347055959E-01  0.88834663061E+00  0.88000000000E+00 0. -1.
        -11    1    4    4    0    0  0.14686522774E-01 -0.72938473979E-01  0.33420845226E-01  0.81565488744E-01  0.51100000000E-03 0. -1.
         11    1    4    4    0    0 -0.64606937108E-02 -0.43840214697E-01  0.25776568386E-01  0.51267900159E-01  0.51100000000E-03 0.  1.
</event>
<event>
 8    1  0.1104109E+005  0.1043930E+01  0.7957747E-01            NaN
         13   -1    0    0    0    0  0.00000000000E+00  0.00000000000E+00  0.74505805969E-08  0.10566000000E+00  0.10566000000E+00 0.  1.
     999900   -1    0    0    0    0 -0.00000000000E+00 -0.00000000000E+00 -0.74505805969E-08  0.93827000000E+00  0.93827000000E+00 0. -1.
     999902    2    1    2    0    0  0.82083927348E-02  0.15223987518E-01 -0.15825036525E-01  0.10204868925E+01  0.10202175839E+01 0.  0.
     999903    2    3    3    0    0 -0.71087511572E-01 -0.23110983183E-02  0.10518196530E+00  0.12850145869E+00  0.19763693592E-01 0.  0.
         14    1    1    2    0    0 -0.82083927348E-02 -0.15223987518E-01  0.15825036525E-01  0.23443107479E-01  0.00000000000E+00 0.  1.
     999901    1    3    3    0    0  0.79295904307E-01  0.17535085837E-01 -0.12100700182E+00  0.89198543383E+00  0.88000000000E+00 0. -1.
        -11    1    4    4    0    0 -0.56659988942E-01 -0.73976773911E-02  0.91995318050E-01  0.10829810544E+00  0.51100000000E-03 0.  1.
         11    1    4    4    0    0 -0.14427522630E-01  0.50865790728E-02  0.13186647249E-01  0.20203353251E-01  0.51100000000E-03 0. -1.
</event>
<event>
 8    1  0.1104109E+005  0.1043930E+01  0.7957747E-01            NaN
         13   -1    0    0    0    0  0.00000000000E+00  0.00000000000E+00  0.74505805969E-08  0.10566000000E+00  0.10566000000E+00 0.  1.
     999900   -1    0    0    0    0 -0.00000000000E+00 -0.00000000000E+00 -0.74505805969E-08  0.93827000000E+00  0.93827000000E+00 0.  1.
     999902    2    1    2    0    0  0.32767609907E-02 -0.23436927482E-01  0.16833796623E-02  0.10202053188E+01  0.10199294250E+01 0.  0.
     999903    2    3    3    0    0  0.28875860397E-01  0.10944233462E+00 -0.56106110705E-01  0.12798794762E+00  0.20532392878E-01 0.  0.
         14    1    1    2    0    0 -0.32767609907E-02  0.23436927482E-01 -0.16833796623E-02  0.23724681230E-01  0.00000000000E+00 0.  1.
     999901    1    3    3    0    0 -0.25599099406E-01 -0.13287926210E+00  0.57789490367E-01  0.89221737115E+00  0.88000000000E+00 0. -1.
        -11    1    4    4    0    0  0.30847960240E-02  0.37238685346E-01 -0.10670490154E-01  0.38863300605E-01  0.51100000000E-03 0.  1.
         11    1    4    4    0    0  0.25791064373E-01  0.72203649271E-01 -0.45435620551E-01  0.89124647014E-01  0.51100000000E-03 0. -1.
</event>
<event>
 8    1  0.1104109E+005  0.1043930E+01  0.7957747E-01            NaN
         13   -1    0    0    0    0  0.00000000000E+00  0.00000000000E+00  0.74505805969E-08  0.10566000000E+00  0.10566000000E+00 0. -1.
     999900   -1    0    0    0    0 -0.00000000000E+00 -0.00000000000E+00 -0.74505805969E-08  0.93827000000E+00  0.93827000000E+00 0. -1.
     999902    2    1    2    0    0 -0.23697720600E-01  0.46058682847E-02 -0.54383281367E-02  0.10191838610E+01  0.10188833942E+01 0.  0.
     999903    2    3    3    0    0 -0.64261717779E-01  0.92644640813E-01 -0.65370603183E-01  0.13183492118E+00  0.19862850749E-01 0.  0.
         14    1    1    2    0    0  0.23697720600E-01 -0.46058682847E-02  0.54383281367E-02  0.24746139036E-01  0.00000000000E+00 0. -1.
     999901    1    3    3    0    0  0.40563997179E-01 -0.88038772529E-01  0.59932275046E-01  0.88734893978E+00  0.88000000000E+00 0.  1.
        -11    1    4    4    0    0 -0.20339623067E-01  0.41184137307E-01 -0.34598460131E-01  0.57507808137E-01  0.51100000000E-03 0.  1.
         11    1    4    4    0    0 -0.43922094712E-01  0.51460503506E-01 -0.30772143052E-01  0.74327113048E-01  0.51100000000E-03 0. -1.
</event>
<event>
 8    1  0.1104109E+005  0.1043930E+01  0.7957747E-01            NaN
         13   -1    0    0    0    0  0.00000000000E+00  0.00000000000E+00  0.74505805969E-08  0.10566000000E+00  0.10566000000E+00 0.  1.
     999900   -1    0    0    0    0 -0.00000000000E+00 -0.00000000000E+00 -0.74505805969E-08  0.93827000000E+00  0.93827000000E+00 0.  1.
     999902    2    1    2    0    0  0.13661484462E-01  0.11451838636E-01 -0.15805603704E-01  0.10201056873E+01  0.10198274440E+01 0.  0.
     999903    2    3    3    0    0  0.33903934347E-01  0.12379457016E-01  0.12240438940E+00  0.12908794371E+00  0.19445692226E-01 0.  0.
         14    1    1    2    0    0 -0.13661484462E-01 -0.11451838636E-01  0.15805603704E-01  0.23824312672E-01  0.00000000000E+00 0.  1.
     999901    1    3    3    0    0 -0.20242449885E-01 -0.92761838031E-03 -0.13820999310E+00  0.89101774362E+00  0.88000000000E+00 0.  1.
        -11    1    4    4    0    0  0.21418593524E-01 -0.24973534000E-02  0.64564242229E-01  0.68071987029E-01  0.51100000000E-03 0. -1.
         11    1    4    4    0    0  0.12485340824E-01  0.14876810416E-01  0.57840147170E-01  0.61015956678E-01  0.51100000000E-03 0.  1.
</event>
<event>
 8    1  0.1104109E+005  0.1043930E+01  0.7957747E-01            NaN
         13   -1    0    0    0    0  0.00000000000E+00  0.00000000000E+00  0.74505805969E-08  0.10566000000E+00  0.10566000000E+00 0.  1.
     999900   -1    0    0    0    0 -0.00000000000E+00 -0.00000000000E+00 -0.74505805969E-08  0.93827000000E+00  0.93827000000E+00 0. -1.
     999902    2    1    2    0    0  0.73481345727E-02  0.20536920207E-01 -0.99694426721E-02  0.10199477157E+01  0.10196657260E+01 0.  0.
     999903    2    3    3    0    0 -0.21973901685E-01 -0.33868608783E-01 -0.12277584157E+00  0.13059681362E+00  0.18753278055E-01 0.  0.
         14    1    1    2    0    0 -0.73481345727E-02 -0.20536920207E-01  0.99694426721E-02  0.23982284305E-01  0.00000000000E+00 0. -1.
     999901    1    3    3    0    0  0.29322036258E-01  0.54405528990E-01  0.11280639890E+00  0.88935090208E+00  0.88000000000E+00 0.  1.
        -11    1    4    4    0    0 -0.98655414068E-02 -0.29326487265E-01 -0.75873847492E-01  0.81941891709E-01  0.51100000000E-03 0. -1.
         11    1    4    4    0    0 -0.12108360279E-01 -0.45421215179E-02 -0.46901994077E-01  0.48654921908E-01  0.51100000000E-03 0.  1.
</event>
<event>
 8    1  0.1104109E+005  0.1043930E+01  0.7957747E-01            NaN
         13   -1    0    0    0    0  0.00000000000E+00  0.00000000000E+00  0.74505805969E-08  0.10566000000E+00  0.10566000000E+00 0. -1.
     999900   -1    0    0    0    0 -0.00000000000E+00 -0.00000000000E+00 -0.74505805969E-08  0.93827000000E+00  0.93827000000E+00 0. -1.
     999902    2    1    2    0    0  0.22523740191E-02 -0.41249252132E-02 -0.22375562201E-01  0.10210661862E+01  0.10208101697E+01 0.  0.
     999903    2    3    3    0    0 -0.37770467487E-01  0.10899987619E+00  0.55283335267E-01  0.12953382400E+00  0.20376044206E-01 0.  0.
         14    1    1    2    0    0 -0.22523740191E-02  0.41249252132E-02  0.22375562201E-01  0.22863813780E-01  0.00000000000E+00 0. -1.
     999901    1    3    3    0    0  0.40022841506E-01 -0.11312480140E+00 -0.77658897469E-01  0.89153236222E+00  0.88000000000E+00 0. -1.
        -11    1    4    4    0    0 -0.40895673245E-02  0.28089351693E-01  0.21472289925E-01  0.35595738439E-01  0.51100000000E-03 0.  1.
         11    1    4    4    0    0 -0.33680900163E-01  0.80910524497E-01  0.33811045343E-01  0.93938085558E-01  0.51100000000E-03 0. -1.
</event>
<event>
 8    1  0.1104109E+005  0.1043930E+01  0.7957747E-01            NaN
         13   -1    0    0    0    0  0.00000000000E+00  0.00000000000E+00  0.74505805969E-08  0.10566000000E+00  0.10566000000E+00 0. -1.
     999900   -1    0    0    0    0 -0.00000000000E+00 -0.00000000000E+00 -0.74505805969E-08  0.93827000000E+00  0.93827000000E+00 0. -1.
     999902    2    1    2    0    0  0.10729463721E-01 -0.16945446420E-01 -0.12903563732E-01  0.10200810691E+01  0.10198022436E+01 0.  0.
     999903    2    3    3    0    0  0.11104534995E+00  0.64271672858E-02  0.65480484047E-01  0.13061290499E+00  0.19991471494E-01 0.  0.
         14    1    1    2    0    0 -0.10729463721E-01  0.16945446420E-01  0.12903563732E-01  0.23848930858E-01  0.00000000000E+00 0. -1.
     999901    1    3    3    0    0 -0.10031588623E+00 -0.23372613706E-01 -0.78384047778E-01  0.88946816416E+00  0.88000000000E+00 0. -1.
        -11    1    4    4    0    0  0.68364154900E-01  0.10790044273E-01  0.48275816084E-01  0.84385415033E-01  0.51100000000E-03 0.  1.
         11    1    4    4    0    0  0.42681195051E-01 -0.43628769871E-02  0.17204667962E-01  0.46227489952E-01  0.51100000000E-03 0. -1.
</event>
<event>
 8    1  0.1104109E+005  0.1043930E+01  0.7957747E-01            NaN
         13   -1    0    0    0    0  0.00000000000E+00  0.00000000000E+00  0.74505805969E-08  0.10566000000E+00  0.10566000000E+00 0.  1.
     999900   -1    0    0    0    0 -0.00000000000E+00 -0.00000000000E+00 -0.74505805969E-08  0.93827000000E+00  0.93827000000E+00 0. -1.
     999902    2    1    2    0    0  0.20772264892E-02 -0.23683526094E-01 -0.95493448011E-02  0.10183094172E+01  0.10179870603E+01 0.  0.
     999903    2    3    3    0    0 -0.11913342612E+00  0.40807943343E-01  0.36299336942E-02  0.12756542179E+00  0.20042428972E-01 0.  0.
         14    1    1    2    0    0 -0.20772264892E-02  0.23683526094E-01  0.95493448011E-02  0.25620582825E-01  0.00000000000E+00 0.  1.
     999901    1    3    3    0    0  0.12121065261E+00 -0.64491469437E-01 -0.13179278495E-01  0.89074399539E+00  0.88000000000E+00 0. -1.
        -11    1    4    4    0    0 -0.44436029993E-01  0.57223431758E-02  0.45090039904E-02  0.45032190830E-01  0.51100000000E-03 0. -1.
         11    1    4    4    0    0 -0.74697396124E-01  0.35085600167E-01 -0.87907029621E-03  0.82533230958E-01  0.51100000000E-03 0.  1.
</event>
<event>
 8    1  0.1104109E+005  0.1043930E+01  0.7957747E-01            NaN
         13   -1    0    0    0    0  0.00000000000E+00  0.00000000000E+00  0.74505805969E-08  0.10566000000E+00  0.10566000000E+00 0. -1.
     999900   -1    0    0    0    0 -0.00000000000E+00 -0.00000000000E+00 -0.74505805969E-08  0.93827000000E+00  0.93827000000E+00 0.  1.
     999902    2    1    2    0    0 -0.18504978336E-01  0.97085797975E-03  0.14257188628E-01  0.10205495762E+01  0.10202817225E+01 0.  0.
     999903    2    3    3    0    0 -0.35727159816E-02  0.12352257130E+00 -0.34350132648E-01  0.13060319212E+00  0.24630717808E-01 0.  0.
         14    1    1    2    0    0  0.18504978336E-01 -0.97085797975E-03 -0.14257188628E-01  0.23380423777E-01  0.00000000000E+00 0.  1.
     999901    1    3    3    0    0 -0.14932262354E-01 -0.12255171332E+00  0.48607321276E-01  0.88994638410E+00  0.88000000000E+00 0. -1.
        -11    1    4    4    0    0  0.82210046469E-02  0.18108416543E-01 -0.66049326594E-02  0.20961534379E-01  0.51100000000E-03 0.  1.
         11    1    4    4    0    0 -0.11793720629E-01  0.10541415475E+00 -0.27745199989E-01  0.10964165774E+00  0.51100000000E-03 0. -1.
</event>
<event>
 8    1  0.1104109E+005  0.1043930E+01  0.7957747E-01            NaN
         13   -1    0    0    0    0  0.00000000000E+00  0.00000000000E+00  0.74505805969E-08  0.10566000000E+00  0.10566000000E+00 0.  1.
     999900   -1    0    0    0    0 -0.00000000000E+00 -0.00000000000E+00 -0.74505805969E-08  0.93827000000E+00  0.93827000000E+00 0. -1.
     999902    2    1    2    0    0 -0.96971559461E-02 -0.11281928285E-01  0.18743563667E-01  0.10200001459E+01  0.10197194024E+01 0.  0.
     999903    2    3    3    0    0 -0.10893795395E+00 -0.46809966680E-01 -0.50808351049E-01  0.13098470938E+00  0.22734440027E-01 0.  0.
         14    1    1    2    0    0  0.96971559461E-02  0.11281928285E-01 -0.18743563667E-01  0.23929854120E-01  0.00000000000E+00 0. -1.
     999901    1    3    3    0    0  0.99240798001E-01  0.35528038395E-01  0.69551914716E-01  0.88901543650E+00  0.88000000000E+00 0. -1.
        -11    1    4    4    0    0 -0.25027453222E-01 -0.20268591856E-01 -0.83792749601E-02  0.33281565475E-01  0.51100000000E-03 0. -1.
         11    1    4    4    0    0 -0.83910500725E-01 -0.26541374824E-01 -0.42429076089E-01  0.97703143902E-01  0.51100000000E-03 0.  1.
</event>
<event>
 8    1  0.1104109E+005  0.1043930E+01  0.7957747E-01            NaN
         13   -1    0    0    0    0  0.00000000000E+00  0.00000000000E+00  0.74505805969E-08  0.10566000000E+00  0.10566000000E+00 0. -1.
     999900   -1    0    0    0    0 -0.00000000000E+00 -0.00000000000E+00 -0.74505805969E-08  0.93827000000E+00  0.93827000000E+00 0. -1.
     999902    2    1    2    0    0 -0.60307685522E-02 -0.22954835752E-01  0.14105707905E-02  0.10201542905E+01  0.10198771946E+01 0.  0.
     999903    2    3    3    0    0 -0.34808759147E-02 -0.11550614131E+00 -0.61163725116E-01  0.13308733211E+00  0.24848571768E-01 0.  0.
         14    1    1    2    0    0  0.60307685522E-02  0.22954835752E-01 -0.14105707905E-02  0.23775709530E-01  0.00000000000E+00 0.  1.
     999901    1    3    3    0    0 -0.25498926375E-02  0.92551305560E-01  0.62574295907E-01  0.88706695836E+00  0.88000000000E+00 0.  1.
        -11    1    4    4    0    0 -0.12130096565E-01 -0.53376845503E-01 -0.35890895050E-01  0.65457194769E-01  0.51100000000E-03 0. -1.
         11    1    4    4    0    0  0.86492206505E-02 -0.62129295809E-01 -0.25272830066E-01  0.67630137336E-01  0.51100000000E-03 0.  1.
</event>
<event>
 8    1  0.1104109E+005  0.1043930E+01  0.7957747E-01            NaN
         13   -1    0    0    0    0  0.00000000000E+00  0.00000000000E+00  0.74505805969E-08  0.10566000000E+00  0.10566000000E+00 0.  1.
     999900   -1    0    0    0    0 -0.00000000000E+00 -0.00000000000E+00 -0.74505805969E-08  0.93827000000E+00  0.93827000000E+00 0. -1.
     999902    2    1    2    0    0  0.20407188494E-01  0.85631464169E-02  0.79805624470E-02  0.10204040527E+01  0.10201328152E+01 0.  0.
     999903    2    3    3    0    0  0.12701253411E+00  0.23398188140E-01 -0.26710633627E-01  0.13316774977E+00  0.18453525452E-01 0.  0.
         14    1    1    2    0    0 -0.20407188494E-01 -0.85631464169E-02 -0.79805624470E-02  0.23525947287E-01  0.00000000000E+00 0.  1.
     999901    1    3    3    0    0 -0.10660534561E+00 -0.14835041723E-01  0.34691196074E-01  0.88723630294E+00  0.88000000000E+00 0.  1.
        -11    1    4    4    0    0  0.66362496107E-01  0.38330877086E-02 -0.17809222947E-01  0.68819350432E-01  0.51100000000E-03 0. -1.
         11    1    4    4    0    0  0.60650037999E-01  0.19565100431E-01 -0.89014106806E-02  0.64348399337E-01  0.51100000000E-03 0.  1.
</event>
<event>
 8    1  0.1104109E+005  0.1043930E+01  0.7957747E-01            NaN
         13   -1    0    0    0    0  0.00000000000E+00  0.00000000000E+00  0.74505805969E-08  0.10566000000E+00  0.10566000000E+00 0.  1.
     999900   -1    0    0    0    0 -0.00000000000E+00 -0.00000000000E+00 -0.74505805969E-08  0.93827000000E+00  0.93827000000E+00 0. -1.
     999902    2    1    2    0    0 -0.73296565250E-02 -0.32255616536E-02  0.22030121343E-01  0.10204895572E+01  0.10202203105E+01 0.  0.
     999903    2    3    3    0    0 -0.12059664205E+00 -0.50884523772E-02 -0.46079052412E-01  0.13061780243E+00  0.19190852492E-01 0.  0.
         14    1    1    2    0    0  0.73296565250E-02  0.32255616536E-02 -0.22030121343E-01  0.23440442811E-01  0.00000000000E+00 0. -1.
     999901    1    3    3    0    0  0.11326698552E+00  0.18628907236E-02  0.68109173755E-01  0.88987175476E+00  0.88000000000E+00 0.  1.
        -11    1    4    4    0    0 -0.91499915378E-01 -0.88405378626E-02 -0.27763183500E-01  0.96028355724E-01  0.51100000000E-03 0.  1.
         11    1    4    4    0    0 -0.29096726669E-01  0.37520854854E-02 -0.18315868912E-01  0.34589446705E-01  0.51100000000E-03 0. -1.
</event>
<event>
 8    1  0.1104109E+005  0.1043930E+01  0.7957747E-01            NaN
         13   -1    0    0    0    0  0.00000000000E+00  0.00000000000E+00  0.74505805969E-08  0.10566000000E+00  0.10566000000E+00 0. -1.
     999900   -1    0    0    0    0 -0.00000000000E+00 -0.00000000000E+00 -0.74505805969E-08  0.93827000000E+00  0.93827000000E+00 0. -1.
     999902    2    1    2    0    0 -0.46496123429E-02 -0.25054632744E-01  0.44681169888E-02  0.10180588271E+01  0.10177300516E+01 0.  0.
     999903    2    3    3    0    0  0.87322199156E-01  0.84045229477E-01  0.27209918296E-01  0.12627478175E+00  0.22719458372E-01 0.  0.
         14    1    1    2    0    0  0.46496123429E-02  0.25054632744E-01 -0.44681169888E-02  0.25871172882E-01  0.00000000000E+00 0.  1.
     999901    1    3    3    0    0 -0.91971811499E-01 -0.10909986222E+00 -0.22741801307E-01  0.89178404537E+00  0.88000000000E+00 0. -1.
        -11    1    4    4    0    0  0.34638945114E-01  0.43852832913E-01  0.21066978695E-01  0.59724418669E-01  0.51100000000E-03 0.  1.
         11    1    4    4    0    0  0.52683254042E-01  0.40192396565E-01  0.61429396009E-02  0.66550363080E-01  0.51100000000E-03 0. -1.
</event>
<event>
 8    1  0.1104109E+005  0.1043930E+01  0.7957747E-01            NaN
         13   -1    0    0    0    0  0.00000000000E+00  0.00000000000E+00  0.74505805969E-08  0.10566000000E+00  0.10566000000E+00 0.  1.
     999900   -1    0    0    0    0 -0.00000000000E+00 -0.00000000000E+00 -0.74505805969E-08  0.93827000000E+00  0.93827000000E+00 0.  1.
     999902    2    1    2    0    0  0.43793009579E-02  0.16410568440E-01  0.16990137048E-01  0.10199060580E+01  0.10196230761E+01 0.  0.
     999903    2    3    3    0    0 -0.95083226498E-01  0.88653031719E-01  0.20348048941E-02  0.13123546106E+00  0.17844489734E-01 0.  0.
         14    1    1    2    0    0 -0.43793009579E-02 -0.16410568440E-01 -0.16990137048E-01  0.24023942023E-01  0.00000000000E+00 0. -1.
     999901    1    3    3    0    0  0.99462527456E-01 -0.72242463279E-01  0.14955332154E-01  0.88867059692E+00  0.88000000000E+00 0.  1.
        -11    1    4    4    0    0 -0.54415207556E-01  0.50219123794E-01 -0.76588579958E-02  0.74443901260E-01  0.51100000000E-03 0.  1.
         11    1    4    4    0    0 -0.40668018942E-01  0.38433907925E-01  0.96936628899E-02  0.56791559798E-01  0.51100000000E-03 0. -1.
</event>
<event>
 8    1  0.1104109E+005  0.1043930E+01  0.7957747E-01            NaN
         13   -1    0    0    0    0  0.00000000000E+00  0.00000000000E+00  0.74505805969E-08  0.10566000000E+00  0.10566000000E+00 0.  1.
     999900   -1    0    0    0    0 -0.00000000000E+00 -0.00000000000E+00 -0.74505805969E-08  0.93827000000E+00  0.93827000000E+00 0. -1.
     999902    2    1    2    0    0 -0.90800396306E-02  0.11208410496E-01 -0.17787242107E-01  0.10210288741E+01  0.10207720119E+01 0.  0.
     999903    2    3    3    0    0 -0.37165331360E-01 -0.57549743533E-01  0.10708003535E+00  0.12911615173E+00  0.22618837961E-01 0.  0.
         14    1    1    2    0    0  0.90800396306E-02 -0.11208410496E-01  0.17787242107E-01  0.22901125897E-01  0.00000000000E+00 0.  1.
     999901    1    3    3    0    0  0.28085291730E-01  0.68758154029E-01 -0.12486727746E+00  0.89191272238E+00  0.88000000000E+00 0. -1.
        -11    1    4    4    0    0 -0.33815955547E-01 -0.48677930701E-01  0.74627412309E-01  0.95302526597E-01  0.51100000000E-03 0. -1.
         11    1    4    4    0    0 -0.33493758130E-02 -0.88718128321E-02  0.32452623040E-01  0.33813625130E-01  0.51100000000E-03 0.  1.
</event>
<event>
 8    1  0.1104109E+005  0.1043930E+01  0.7957747E-01            NaN
         13   -1    0    0    0    0  0.00000000000E+00  0.00000000000E+00  0.74505805969E-08  0.10566000000E+00  0.10566000000E+00 0.  1.
     999900   -1    0    0    0    0 -0.00000000000E+00 -0.00000000000E+00 -0.74505805969E-08  0.93827000000E+00  0.93827000000E+00 0. -1.
     999902    2    1    2    0    0 -0.17932783464E-01  0.56604232022E-02 -0.44973053435E-02  0.10245947765E+01  0.10244123218E+01 0.  0.
     999903    2    3    3    0    0 -0.50274672615E-01  0.12079900415E+00  0.30529753881E-01  0.13581483436E+00  0.19840898447E-01 0.  0.
         14    1    1    2    0    0  0.17932783464E-01 -0.56604232022E-02  0.44973053435E-02  0.19335223530E-01  0.00000000000E+00 0. -1.
     999901    1    3    3    0    0  0.32341889151E-01 -0.11513858094E+00 -0.35027059225E-01  0.88877994211E+00  0.88000000000E+00 0. -1.
        -11    1    4    4    0    0 -0.24279875590E-01  0.72894908324E-01  0.26034401747E-01  0.81124787911E-01  0.51100000000E-03 0.  1.
         11    1    4    4    0    0 -0.25994797025E-01  0.47904095823E-01  0.44953521343E-02  0.54690046451E-01  0.51100000000E-03 0. -1.
</event>
<event>
 8    1  0.1104109E+005  0.1043930E+01  0.7957747E-01            NaN
         13   -1    0    0    0    0  0.00000000000E+00  0.00000000000E+00  0.74505805969E-08  0.10566000000E+00  0.10566000000E+00 0.  1.
     999900   -1    0    0    0    0 -0.00000000000E+00 -0.00000000000E+00 -0.74505805969E-08  0.93827000000E+00  0.93827000000E+00 0.  1.
     999902    2    1    2    0    0  0.78964909932E-02 -0.10363470214E-01  0.12761790527E-01  0.10256921443E+01  0.10255299876E+01 0.  0.
     999903    2    3    3    0    0  0.53682543220E-01  0.11611745747E+00  0.38343707539E-01  0.13510345011E+00  0.20435825103E-01 0.  0.
         14    1    1    2    0    0 -0.78964909932E-02  0.10363470214E-01 -0.12761790527E-01  0.18237855750E-01  0.00000000000E+00 0. -1.
     999901    1    3    3    0    0 -0.45786052227E-01 -0.12648092769E+00 -0.25581917012E-01  0.89058869414E+00  0.88000000000E+00 0. -1.
        -11    1    4    4    0    0  0.29435990018E-01  0.45774003548E-01  0.23243978816E-01  0.59180069123E-01  0.51100000000E-03 0.  1.
         11    1    4    4    0    0  0.24246553202E-01  0.70343453926E-01  0.15099728724E-01  0.75923380990E-01  0.51100000000E-03 0. -1.
</event>
<event>
 8    1  0.1104109E+005  0.1043930E+01  0.7957747E-01            NaN
         13   -1    0    0    0    0  0.00000000000E+00  0.00000000000E+00  0.74505805969E-08  0.10566000000E+00  0.10566000000E+00 0.  1.
     999900   -1    0    0    0    0 -0.00000000000E+00 -0.00000000000E+00 -0.74505805969E-08  0.93827000000E+00  0.93827000000E+00 0.  1.
     999902    2    1    2    0    0  0.17691572922E-01 -0.21471903853E-02  0.16344149633E-01  0.10197487385E+01  0.10194619936E+01 0.  0.
     999903    2    3    3    0    0 -0.63150890386E-02  0.21863236347E-01 -0.12427309577E+00  0.12793820366E+00  0.20161849352E-01 0.  0.
         14    1    1    2    0    0 -0.17691572922E-01  0.21471903853E-02 -0.16344149633E-01  0.24181261469E-01  0.00000000000E+00 0. -1.
     999901    1    3    3    0    0  0.24006661961E-01 -0.24010426733E-01  0.14061724540E+00  0.89181053488E+00  0.88000000000E+00 0. -1.
        -11    1    4    4    0    0 -0.25366322864E-02  0.45805011136E-02 -0.81207724917E-01  0.81377952794E-01  0.51100000000E-03 0.  1.
         11    1    4    4    0    0 -0.37784567522E-02  0.17282735234E-01 -0.43065370853E-01  0.46560250861E-01  0.51100000000E-03 0. -1.
</event>
<event>
 8    1  0.1104109E+005  0.1043930E+01  0.7957747E-01            NaN
         13   -1    0    0    0    0  0.00000000000E+00  0.00000000000E+00  0.74505805969E-08  0.10566000000E+00  0.10566000000E+00 0. -1.
     999900   -1    0    0    0    0 -0.00000000000E+00 -0.00000000000E+00 -0.74505805969E-08  0.93827000000E+00  0.93827000000E+00 0. -1.
     999902    2    1    2    0    0  0.33371494635E-02 -0.21406222250E-01 -0.10734961599E-01  0.10197514492E+01  0.10194647693E+01 0.  0.
     999903    2    3    3    0    0  0.59060109745E-01 -0.10460460972E+00  0.50410242849E-01  0.13196444998E+00  0.21052376019E-01 0.  0.
         14    1    1    2    0    0 -0.33371494635E-02  0.21406222250E-01  0.10734961599E-01  0.24178550786E-01  0.00000000000E+00 0. -1.
     999901    1    3    3    0    0 -0.55722960282E-01  0.83198387474E-01 -0.61145204449E-01  0.88778699923E+00  0.88000000000E+00 0. -1.
        -11    1    4    4    0    0  0.48196545678E-01 -0.71877292330E-01  0.28536006226E-01  0.91125281565E-01  0.51100000000E-03 0.  1.
         11    1    4    4    0    0  0.10863564067E-01 -0.32727317394E-01  0.21874236624E-01  0.40839168416E-01  0.51100000000E-03 0. -1.
</event>
<event>
 8    1  0.1104109E+005  0.1043930E+01  0.7957747E-01            NaN
         13   -1    0    0    0    0  0.00000000000E+00  0.00000000000E+00  0.74505805969E-08  0.10566000000E+00  0.10566000000E+00 0.  1.
     999900   -1    0    0    0    0 -0.00000000000E+00 -0.00000000000E+00 -0.74505805969E-08  0.93827000000E+00  0.93827000000E+00 0.  1.
     999902    2    1    2    0    0 -0.19606019512E-01 -0.74931589913E-02  0.82583081282E-02  0.10213746661E+01  0.10211255875E+01 0.  0.
     999903    2    3    3    0    0 -0.37481339191E-01 -0.12493097887E+00  0.19879970194E-01  0.13331710515E+00  0.19121638069E-01 0.  0.
         14    1    1    2    0    0  0.19606019512E-01  0.74931589913E-02 -0.82583081282E-02  0.22555333868E-01  0.00000000000E+00 0.  1.
     999901    1    3    3    0    0  0.17875319679E-01  0.11743781987E+00 -0.11621662065E-01  0.88805756098E+00  0.88000000000E+00 0. -1.
        -11    1    4    4    0    0 -0.27662378129E-01 -0.84596726895E-01  0.22213851162E-01  0.91736196071E-01  0.51100000000E-03 0.  1.
         11    1    4    4    0    0 -0.98189610616E-02 -0.40334251970E-01 -0.23338809682E-02  0.41580909077E-01  0.51100000000E-03 0. -1.
</event>
<event>
 8    1  0.1104109E+005  0.1043930E+01  0.7957747E-01            NaN
         13   -1    0    0    0    0  0.00000000000E+00  0.00000000000E+00  0.74505805969E-08  0.10566000000E+00  0.10566000000E+00 0. -1.
     999900   -1    0    0    0    0 -0.00000000000E+00 -0.00000000000E+00 -0.74505805969E-08  0.93827000000E+00  0.93827000000E+00 0. -1.
     999902    2    1    2    0    0  0.11317735205E-01  0.19702925415E-01 -0.34871672550E-02  0.10209418131E+01  0.10206829719E+01 0.  0.
     999903    2    3    3    0    0 -0.71428790961E-01 -0.49960478852E-01  0.93060031887E-01  0.12907784416E+00  0.20069845354E-01 0.  0.
         14    1    1    2    0    0 -0.11317735205E-01 -0.19702925415E-01  0.34871672550E-02  0.22988186870E-01  0.00000000000E+00 0. -1.
     999901    1    3    3    0    0  0.82746526167E-01  0.69663404267E-01 -0.96547199142E-01  0.89186396897E+00  0.88000000000E+00 0. -1.
        -11    1    4    4    0    0 -0.70519099904E-01 -0.50907241080E-01  0.87620900962E-01  0.12345919995E+00  0.51100000000E-03 0.  1.
         11    1    4    4    0    0 -0.90969105728E-03  0.94676222787E-03  0.54391309251E-02  0.56186442098E-02  0.51100000000E-03 0. -1.
</event>
<event>
 8    1  0.1104109E+005  0.1043930E+01  0.7957747E-01            NaN
         13   -1    0    0    0    0  0.00000000000E+00  0.00000000000E+00  0.74505805969E-08  0.10566000000E+00  0.10566000000E+00 0. -1.
     999900   -1    0    0    0    0 -0.00000000000E+00 -0.00000000000E+00 -0.74505805969E-08  0.93827000000E+00  0.93827000000E+00 0. -1.
     999902    2    1    2    0    0 -0.42589112042E-02  0.21837466561E-01  0.86390609665E-02  0.10200627286E+01  0.10197834690E+01 0.  0.
     999903    2    3    3    0    0  0.10451609345E-01  0.12599120592E+00 -0.35566998246E-01  0.13269663925E+00  0.18983324132E-01 0.  0.
         14    1    1    2    0    0  0.42589112042E-02 -0.21837466561E-01 -0.86390609665E-02  0.23867271416E-01  0.00000000000E+00 0.  1.
     999901    1    3    3    0    0 -0.14710520550E-01 -0.10415373936E+00  0.44206059212E-01  0.88736608934E+00  0.88000000000E+00 0.  1.
        -11    1    4    4    0    0  0.15831264680E-01  0.96806768724E-01 -0.25485004597E-01  0.10135051057E+00  0.51100000000E-03 0. -1.
         11    1    4    4    0    0 -0.53796553343E-02  0.29184437199E-01 -0.10081993649E-01  0.31346128677E-01  0.51100000000E-03 0.  1.
</event>
<event>
 8    1  0.1104109E+005  0.1043930E+01  0.7957747E-01            NaN
         13   -1    0    0    0    0  0.00000000000E+00  0.00000000000E+00  0.74505805969E-08  0.10566000000E+00  0.10566000000E+00 0. -1.
     999900   -1    0    0    0    0 -0.00000000000E+00 -0.00000000000E+00 -0.74505805969E-08  0.93827000000E+00  0.93827000000E+00 0.  1.
     999902    2    1    2    0    0  0.94472794031E-02 -0.53815997908E-02 -0.20600564224E-01  0.10206363109E+01  0.10203704637E+01 0.  0.
     999903    2    3    3    0    0  0.82304996110E-01 -0.95823552158E-01  0.30713139077E-01  0.13152378161E+00  0.19973549637E-01 0.  0.
         14    1    1    2    0    0 -0.94472794031E-02  0.53815997908E-02  0.20600564224E-01  0.23293689076E-01  0.00000000000E+00 0.  1.
     999901    1    3    3    0    0 -0.72857716707E-01  0.90441952367E-01 -0.51313703301E-01  0.88911252931E+00  0.88000000000E+00 0.  1.
        -11    1    4    4    0    0  0.18898570248E-01 -0.35884226825E-01  0.76823163281E-02  0.41280901122E-01  0.51100000000E-03 0. -1.
         11    1    4    4    0    0  0.63406425862E-01 -0.59939325333E-01  0.23030822749E-01  0.90242880492E-01  0.51100000000E-03 0.  1.
</event>
<event>
 8    1  0.1104109E+005  0.1043930E+01  0.7957747E-01            NaN
         13   -1    0    0    0    0  0.00000000000E+00  0.00000000000E+00  0.74505805969E-08  0.10566000000E+00  0.10566000000E+00 0. -1.
     999900   -1    0    0    0    0 -0.00000000000E+00 -0.00000000000E+00 -0.74505805969E-08  0.93827000000E+00  0.93827000000E+00 0.  1.
     999902    2    1    2    0    0  0.87162390033E-02  0.18130551998E-02 -0.22569384043E-01  0.10196681557E+01  0.10193794734E+01 0.  0.
     999903    2    3    3    0    0 -0.12360880114E+00  0.13023083612E-01 -0.31339190763E-01  0.12966113862E+00  0.19522539896E-01 0.  0.
         14    1    1    2    0    0 -0.87162390033E-02 -0.18130551998E-02  0.22569384043E-01  0.24261844274E-01  0.00000000000E+00 0. -1.
     999901    1    3    3    0    0  0.13232504015E+00 -0.11210028412E-01  0.87698067201E-02  0.89000701711E+00  0.88000000000E+00 0.  1.
        -11    1    4    4    0    0 -0.58840226122E-01  0.99861772501E-02 -0.24290294258E-01  0.64437376283E-01  0.51100000000E-03 0. -1.
         11    1    4    4    0    0 -0.64768575021E-01  0.30369063619E-02 -0.70488965051E-02  0.65223762337E-01  0.51100000000E-03 0.  1.
</event>
<event>
 8    1  0.1104109E+005  0.1043930E+01  0.7957747E-01            NaN
         13   -1    0    0    0    0  0.00000000000E+00  0.00000000000E+00  0.74505805969E-08  0.10566000000E+00  0.10566000000E+00 0. -1.
     999900   -1    0    0    0    0 -0.00000000000E+00 -0.00000000000E+00 -0.74505805969E-08  0.93827000000E+00  0.93827000000E+00 0. -1.
     999902    2    1    2    0    0  0.54943582166E-02  0.40000291291E-02  0.22401164423E-01  0.10205205922E+01  0.10202520663E+01 0.  0.
     999903    2    3    3    0    0  0.32111450663E-02  0.32262701618E-01 -0.12246075748E+00  0.12822637609E+00  0.19853791458E-01 0.  0.
         14    1    1    2    0    0 -0.54943582166E-02 -0.40000291291E-02 -0.22401164423E-01  0.23409407783E-01  0.00000000000E+00 0.  1.
     999901    1    3    3    0    0  0.22832131503E-02 -0.28262672489E-01  0.14486192190E+00  0.89229421613E+00  0.88000000000E+00 0.  1.
        -11    1    4    4    0    0  0.91194728561E-02  0.19440562876E-01 -0.94366702752E-01  0.96780349139E-01  0.51100000000E-03 0. -1.
         11    1    4    4    0    0 -0.59083277899E-02  0.12822138742E-01 -0.28094054723E-01  0.31446026950E-01  0.51100000000E-03 0.  1.
</event>
<event>
 8    1  0.1104109E+005  0.1043930E+01  0.7957747E-01            NaN
         13   -1    0    0    0    0  0.00000000000E+00  0.00000000000E+00  0.74505805969E-08  0.10566000000E+00  0.10566000000E+00 0. -1.
     999900   -1    0    0    0    0 -0.00000000000E+00 -0.00000000000E+00 -0.74505805969E-08  0.93827000000E+00  0.93827000000E+00 0.  1.
     999902    2    1    2    0    0 -0.96922849200E-02  0.60216265726E-02  0.21384191138E-01  0.10196919307E+01  0.10194038206E+01 0.  0.
     999903    2    3    3    0    0 -0.93926519497E-01 -0.30151367707E-01  0.86394130788E-01  0.13254471401E+00  0.19309566003E-01 0.  0.
         14    1    1    2    0    0  0.96922849200E-02 -0.60216265726E-02 -0.21384191138E-01  0.24238069316E-01  0.00000000000E+00 0.  1.
     999901    1    3    3    0    0  0.84234234577E-01  0.36172994280E-01 -0.65009939649E-01  0.88714721667E+00  0.88000000000E+00 0.  1.
        -11    1    4    4    0    0 -0.69861015917E-01 -0.13703538897E-01  0.64747745462E-01  0.96233467082E-01  0.51100000000E-03 0.  1.
         11    1    4    4    0    0 -0.24065503581E-01 -0.16447828810E-01  0.21646385325E-01  0.36311246933E-01  0.51100000000E-03 0. -1.
</event>
<event>
 8    1  0.1104109E+005  0.1043930E+01  0.7957747E-01            NaN
         13   -1    0    0    0    0  0.00000000000E+00  0.00000000000E+00  0.74505805969E-08  0.10566000000E+00  0.10566000000E+00 0. -1.
     999900   -1    0    0    0    0 -0.00000000000E+00 -0.00000000000E+00 -0.74505805969E-08  0.93827000000E+00  0.93827000000E+00 0. -1.
     999902    2    1    2    0    0  0.58817315627E-02  0.20105907792E-01  0.11375532591E-01  0.10200921092E+01  0.10198135449E+01 0.  0.
     999903    2    3    3    0    0  0.52326677547E-01 -0.39286169634E-01  0.11193653698E+00  0.13116181530E+00  0.19802756783E-01 0.  0.
         14    1    1    2    0    0 -0.58817315627E-02 -0.20105907792E-01 -0.11375532591E-01  0.23837890763E-01  0.00000000000E+00 0.  1.
     999901    1    3    3    0    0 -0.46444945984E-01  0.59392077426E-01 -0.10056100438E+00  0.88893029393E+00  0.88000000000E+00 0.  1.
        -11    1    4    4    0    0  0.88397168643E-02 -0.94692012366E-02  0.39447489167E-01  0.41523148831E-01  0.51100000000E-03 0.  1.
         11    1    4    4    0    0  0.43486960682E-01 -0.29816968398E-01  0.72489047809E-01  0.89638666473E-01  0.51100000000E-03 0. -1.
</event>
<event>
 8    1  0.1104109E+005  0.1043930E+01  0.7957747E-01            NaN
         13   -1    0    0    0    0  0.00000000000E+00  0.00000000000E+00  0.74505805969E-08  0.10566000000E+00  0.10566000000E+00 0. -1.
     999900   -1    0    0    0    0 -0.00000000000E+00 -0.00000000000E+00 -0.74505805969E-08  0.93827000000E+00  0.93827000000E+00 0. -1.
     999902    2    1    2    0    0 -0.28903023405E-02  0.24395096020E-01  0.56205673225E-02  0.10187294973E+01  0.10184177549E+01 0.  0.
     999903    2    3    3    0    0 -0.86559628178E-01 -0.68349841882E-01 -0.60672886575E-01  0.12743998117E+00  0.19886666905E-01 0.  0.
         14    1    1    2    0    0  0.28903023405E-02 -0.24395096020E-01 -0.56205673225E-02  0.25200502663E-01  0.00000000000E+00 0. -1.
     999901    1    3    3    0    0  0.83669325838E-01  0.92744937902E-01  0.66293453898E-01  0.89128951616E+00  0.88000000000E+00 0. -1.
        -11    1    4    4    0    0 -0.21037566533E-01 -0.21571139734E-01 -0.25925730866E-01  0.39752961110E-01  0.51100000000E-03 0. -1.
         11    1    4    4    0    0 -0.65522061645E-01 -0.46778702148E-01 -0.34747155710E-01  0.87687020064E-01  0.51100000000E-03 0.  1.
</event>
<event>
 8    1  0.1104109E+005  0.1043930E+01  0.7957747E-01            NaN
         13   -1    0    0    0    0  0.00000000000E+00  0.00000000000E+00  0.74505805969E-08  0.10566000000E+00  0.10566000000E+00 0.  1.
     999900   -1    0    0    0    0 -0.00000000000E+00 -0.00000000000E+00 -0.74505805969E-08  0.93827000000E+00  0.93827000000E+00 0. -1.
     999902    2    1    2    0    0  0.19422476222E-01 -0.44250884779E-03 -0.14415613292E-01  0.10197383009E+01  0.10194513054E+01 0.  0.
     999903    2    3    3    0    0  0.67162638727E-01  0.10411836660E+00  0.36773231268E-01  0.13078813496E+00  0.20045233951E-01 0.  0.
         14    1    1    2    0    0 -0.19422476222E-01  0.44250884779E-03  0.14415613292E-01  0.24191699056E-01  0.00000000000E+00 0. -1.
     999901    1    3    3    0    0 -0.47740162506E-01 -0.10456087545E+00 -0.51188844559E-01  0.88895016598E+00  0.88000000000E+00 0.  1.
        -11    1    4    4    0    0  0.13683357419E-01  0.22810097129E-01  0.16721959852E-01  0.31423237637E-01  0.51100000000E-03 0. -1.
         11    1    4    4    0    0  0.53479281308E-01  0.81308269473E-01  0.20051271416E-01  0.99364897325E-01  0.51100000000E-03 0.  1.
</event>
<event>
 8    1  0.1104109E+005  0.1043930E+01  0.7957747E-01            NaN
         13   -1    0    0    0    0  0.00000000000E+00  0.00000000000E+00  0.74505805969E-08  0.10566000000E+00  0.10566000000E+00 0. -1.
     999900   -1    0    0    0    0 -0.00000000000E+00 -0.00000000000E+00 -0.74505805969E-08  0.93827000000E+00  0.93827000000E+00 0.  1.
     999902    2    1    2    0    0  0.78720944206E-02  0.38431859278E-02  0.21661374834E-01  0.10205643177E+01  0.10202968056E+01 0.  0.
     999903    2    3    3    0    0 -0.32963572694E-01  0.60748731911E-01  0.11205996572E+00  0.13316491604E+00  0.19961297399E-01 0.  0.
         14    1    1    2    0    0 -0.78720944206E-02 -0.38431859278E-02 -0.21661374834E-01  0.23365682279E-01  0.00000000000E+00 0. -1.
     999901    1    3    3    0    0  0.40835667115E-01 -0.56905545983E-01 -0.90398590882E-01  0.88739940168E+00  0.88000000000E+00 0.  1.
        -11    1    4    4    0    0 -0.31416531282E-01  0.39051695962E-01  0.75609804069E-01  0.90714590820E-01  0.51100000000E-03 0. -1.
         11    1    4    4    0    0 -0.15470414123E-02  0.21697035948E-01  0.36450161648E-01  0.42450325219E-01  0.51100000000E-03 0.  1.
</event>
<event>
 8    1  0.1104109E+005  0.1043930E+01  0.7957747E-01            NaN
         13   -1    0    0    0    0  0.00000000000E+00  0.00000000000E+00  0.74505805969E-08  0.10566000000E+00  0.10566000000E+00 0. -1.
     999900   -1    0    0    0    0 -0.00000000000E+00 -0.00000000000E+00 -0.74505805969E-08  0.93827000000E+00  0.93827000000E+00 0.  1.
     999902    2    1    2    0    0  0.15769870582E-01  0.43635442705E-02  0.17373783707E-01  0.10200641730E+01  0.10197849476E+01 0.  0.
     999903    2    3    3    0    0 -0.82869474421E-01  0.83281200161E-01 -0.48560174891E-01  0.12860188909E+00  0.19422852523E-01 0.  0.
         14    1    1    2    0    0 -0.15769870582E-01 -0.43635442705E-02 -0.17373783707E-01  0.23865826972E-01  0.00000000000E+00 0.  1.
     999901    1    3    3    0    0  0.98639345003E-01 -0.78917655891E-01  0.65933958597E-01  0.89146228394E+00  0.88000000000E+00 0.  1.
        -11    1    4    4    0    0 -0.37556492885E-01  0.49499040012E-01 -0.20012501179E-01  0.65279448867E-01  0.51100000000E-03 0.  1.
         11    1    4    4    0    0 -0.45312981536E-01  0.33782160149E-01 -0.28547673711E-01  0.63322440219E-01  0.51100000000E-03 0. -1.
</event>
<event>
 8    1  0.1104109E+005  0.1043930E+01  0.7957747E-01            NaN
         13   -1    0    0    0    0  0.00000000000E+00  0.00000000000E+00  0.74505805969E-08  0.10566000000E+00  0.10566000000E+00 0. -1.
     999900   -1    0    0    0    0 -0.00000000000E+00 -0.00000000000E+00 -0.74505805969E-08  0.93827000000E+00  0.93827000000E+00 0. -1.
     999902    2    1    2    0    0 -0.51718622093E-03 -0.81377132412E-03  0.23942942954E-01  0.10199676499E+01  0.10196861344E+01 0.  0.
     999903    2    3    3    0    0  0.16442795455E-01  0.12646367152E+00  0.21335294858E-01  0.13064544267E+00  0.18697891470E-01 0.  0.
         14    1    1    2    0    0  0.51718622093E-03  0.81377132412E-03 -0.23942942954E-01  0.23962350107E-01  0.00000000000E+00 0.  1.
     999901    1    3    3    0    0 -0.16959981676E-01 -0.12727744285E+00  0.26076480959E-02  0.88932220723E+00  0.88000000000E+00 0.  1.
        -11    1    4    4    0    0  0.92535983744E-02  0.78201606933E-01  0.22276823156E-01  0.81839100561E-01  0.51100000000E-03 0.  1.
         11    1    4    4    0    0  0.71891970802E-02  0.48262064591E-01 -0.94152829811E-03  0.48806342106E-01  0.51100000000E-03 0. -1.
</event>
<event>
 8    1  0.1104109E+005  0.1043930E+01  0.7957747E-01            NaN
         13   -1    0    0    0    0  0.00000000000E+00  0.00000000000E+00  0.74505805969E-08  0.10566000000E+00  0.10566000000E+00 0.  1.
     999900   -1    0    0    0    0 -0.00000000000E+00 -0.00000000000E+00 -0.74505805969E-08  0.93827000000E+00  0.93827000000E+00 0. -1.
     999902    2    1    2    0    0 -0.73108520628E-02 -0.18828971740E-02 -0.22971563662E-01  0.10197497064E+01  0.10194629847E+01 0.  0.
     999903    2    3    3    0    0  0.77183088538E-01  0.87318347445E-01  0.49348226657E-01  0.12827551157E+00  0.20919761907E-01 0.  0.
         14    1    1    2    0    0  0.73108520628E-02  0.18828971740E-02  0.22971563662E-01  0.24180293562E-01  0.00000000000E+00 0.  1.
     999901    1    3    3    0    0 -0.84493940601E-01 -0.89201244619E-01 -0.72319790320E-01  0.89147419487E+00  0.88000000000E+00 0. -1.
        -11    1    4    4    0    0  0.53088653648E-01  0.72851471812E-01  0.40338237932E-01  0.98758172582E-01  0.51100000000E-03 0.  1.
         11    1    4    4    0    0  0.24094434890E-01  0.14466875633E-01  0.90099887251E-02  0.29517338990E-01  0.51100000000E-03 0. -1.
</event>
<event>
 8    1  0.1104109E+005  0.1043930E+01  0.7957747E-01            NaN
         13   -1    0    0    0    0  0.00000000000E+00  0.00000000000E+00  0.74505805969E-08  0.10566000000E+00  0.10566000000E+00 0. -1.
     999900   -1    0    0    0    0 -0.00000000000E+00 -0.00000000000E+00 -0.74505805969E-08  0.93827000000E+00  0.93827000000E+00 0.  1.
     999902    2    1    2    0    0  0.21820495831E-01 -0.31970085764E-02  0.22345255618E-02  0.10217636289E+01  0.10215231595E+01 0.  0.
     999903    2    3    3    0    0 -0.79669657719E-01  0.84149131590E-01 -0.54859304676E-01  0.12980549935E+00  0.20287770766E-01 0.  0.
         14    1    1    2    0    0 -0.21820495831E-01  0.31970085764E-02 -0.22345255618E-02  0.22166371075E-01  0.00000000000E+00 0.  1.
     999901    1    3    3    0    0  0.10149015355E+00 -0.87346140166E-01  0.57093830238E-01  0.89195812958E+00  0.88000000000E+00 0.  1.
        -11    1    4    4    0    0 -0.34737896956E-01  0.49934976949E-01 -0.23558940764E-01  0.65234256482E-01  0.51100000000E-03 0. -1.
         11    1    4    4    0    0 -0.44931760763E-01  0.34214154641E-01 -0.31300363912E-01  0.64571242865E-01  0.51100000000E-03 0.  1.
</event>
<event>
 8    1  0.1104109E+005  0.1043930E+01  0.7957747E-01            NaN
         13   -1    0    0    0    0  0.00000000000E+00  0.00000000000E+00  0.74505805969E-08  0.10566000000E+00  0.10566000000E+00 0.  1.
     999900   -1    0    0    0    0 -0.00000000000E+00 -0.00000000000E+00 -0.74505805969E-08  0.93827000000E+00  0.93827000000E+00 0.  1.
     999902    2    1    2    0    0  0.10089844197E-02 -0.10928777390E-01 -0.17659127571E-01  0.10231381504E+01  0.10229268663E+01 0.  0.
     999903    2    3    3    0    0 -0.89868691068E-01  0.26658231008E-01  0.89559232595E-01  0.13119234940E+00  0.20088142834E-01 0.  0.
         14    1    1    2    0    0 -0.10089844197E-02  0.10928777390E-01  0.17659127571E-01  0.20791849638E-01  0.00000000000E+00 0.  1.
     999901    1    3    3    0    0  0.90877675488E-01 -0.37587008398E-01 -0.10721836017E+00  0.89194580097E+00  0.88000000000E+00 0.  1.
        -11    1    4    4    0    0 -0.89989250320E-01  0.25981302579E-01  0.84779736009E-01  0.12633668515E+00  0.51100000000E-03 0.  1.
         11    1    4    4    0    0  0.12055925160E-03  0.67692842989E-03  0.47794965858E-02  0.48556642435E-02  0.51100000000E-03 0. -1.
</event>
<event>
 8    1  0.1104109E+005  0.1043930E+01  0.7957747E-01            NaN
         13   -1    0    0    0    0  0.00000000000E+00  0.00000000000E+00  0.74505805969E-08  0.10566000000E+00  0.10566000000E+00 0.  1.
     999900   -1    0    0    0    0 -0.00000000000E+00 -0.00000000000E+00 -0.74505805969E-08  0.93827000000E+00  0.93827000000E+00 0.  1.
     999902    2    1    2    0    0 -0.17245575045E-01 -0.13713192176E-02 -0.56142121126E-02  0.10257418238E+01  0.10255805572E+01 0.  0.
     999903    2    3    3    0    0 -0.91425070360E-01 -0.40069409217E-01  0.90999297626E-01  0.13650939641E+00  0.19744419338E-01 0.  0.
         14    1    1    2    0    0  0.17245575045E-01  0.13713192176E-02  0.56142121126E-02  0.18188176178E-01  0.00000000000E+00 0. -1.
     999901    1    3    3    0    0  0.74179495315E-01  0.38698089999E-01 -0.96613509738E-01  0.88923242741E+00  0.88000000000E+00 0.  1.
        -11    1    4    4    0    0 -0.44500398420E-01 -0.29953234561E-01  0.51103217460E-01  0.74089686704E-01  0.51100000000E-03 0. -1.
         11    1    4    4    0    0 -0.46924671940E-01 -0.10116174656E-01  0.39896080166E-01  0.62419709708E-01  0.51100000000E-03 0.  1.
</event>
<event>
 8    1  0.1104109E+005  0.1043930E+01  0.7957747E-01            NaN
         13   -1    0    0    0    0  0.00000000000E+00  0.00000000000E+00  0.74505805969E-08  0.10566000000E+00  0.10566000000E+00 0. -1.
     999900   -1    0    0    0    0 -0.00000000000E+00 -0.00000000000E+00 -0.74505805969E-08  0.93827000000E+00  0.93827000000E+00 0. -1.
     999902    2    1    2    0    0  0.14682042362E-01  0.17554224071E-01  0.18472254923E-02  0.10209707885E+01  0.10207126067E+01 0.  0.
     999903    2    3    3    0    0 -0.15768187609E-02 -0.12547869552E+00  0.19276318605E-01  0.12910390385E+00  0.23427593656E-01 0.  0.
         14    1    1    2    0    0 -0.14682042362E-01 -0.17554224071E-01 -0.18472254923E-02  0.22959211500E-01  0.00000000000E+00 0.  1.
     999901    1    3    3    0    0  0.16258861123E-01  0.14303291959E+00 -0.17429093113E-01  0.89186688465E+00  0.88000000000E+00 0. -1.
        -11    1    4    4    0    0  0.70032821572E-02 -0.47999400665E-01  0.15998769509E-01  0.51080428464E-01  0.51100000000E-03 0.  1.
         11    1    4    4    0    0 -0.85801009181E-02 -0.77479294850E-01  0.32775490963E-02  0.78023475386E-01  0.51100000000E-03 0. -1.
</event>
<event>
 8    1  0.1104109E+005  0.1043930E+01  0.7957747E-01            NaN
         13   -1    0    0    0    0  0.00000000000E+00  0.00000000000E+00  0.74505805969E-08  0.10566000000E+00  0.10566000000E+00 0. -1.
     999900   -1    0    0    0    0 -0.00000000000E+00 -0.00000000000E+00 -0.74505805969E-08  0.93827000000E+00  0.93827000000E+00 0.  1.
     999902    2    1    2    0    0  0.55860398894E-02  0.23647693556E-01  0.98033573586E-02  0.10177284148E+01  0.10173910768E+01 0.  0.
     999903    2    3    3    0    0 -0.40888914885E-01 -0.93000545588E-01 -0.70457444462E-01  0.12519912707E+00  0.19737403570E-01 0.  0.
         14    1    1    2    0    0 -0.55860398894E-02 -0.23647693556E-01 -0.98033573586E-02  0.26201585213E-01  0.00000000000E+00 0.  1.
     999901    1    3    3    0    0  0.46474954775E-01  0.11664823914E+00  0.80260801820E-01  0.89252928771E+00  0.88000000000E+00 0. -1.
        -11    1    4    4    0    0 -0.32291015667E-01 -0.87023033047E-01 -0.65476223835E-01  0.11359187903E+00  0.51100000000E-03 0. -1.
         11    1    4    4    0    0 -0.85978992182E-02 -0.59775125408E-02 -0.49812206272E-02  0.11607248041E-01  0.51100000000E-03 0.  1.
</event>
<event>
 8    1  0.1104109E+005  0.1043930E+01  0.7957747E-01            NaN
         13   -1    0    0    0    0  0.00000000000E+00  0.00000000000E+00  0.74505805969E-08  0.10566000000E+00  0.10566000000E+00 0.  1.
     999900   -1    0    0    0    0 -0.00000000000E+00 -0.00000000000E+00 -0.74505805969E-08  0.93827000000E+00  0.93827000000E+00 0.  1.
     999902    2    1    2    0    0  0.16691016961E-01 -0.11468643294E-01 -0.44481623323E-02  0.10231958259E+01  0.10229857244E+01 0.  0.
     999903    2    3    3    0    0 -0.12361701528E+00  0.35100841153E-01  0.21036483645E-01  0.13050073354E+00  0.86413132784E-02 0.  0.
         14    1    1    2    0    0 -0.16691016961E-01  0.11468643294E-01  0.44481623323E-02  0.20734174069E-01  0.00000000000E+00 0.  1.
     999901    1    3    3    0    0  0.14030803224E+00 -0.46569484447E-01 -0.25484645978E-01  0.89269509239E+00  0.88000000000E+00 0. -1.
        -11    1    4    4    0    0 -0.67835654888E-01  0.17879694917E-01  0.73640236523E-02  0.70539701798E-01  0.51100000000E-03 0. -1.
         11    1    4    4    0    0 -0.55781360391E-01  0.17221146236E-01  0.13672459993E-01  0.59961031745E-01  0.51100000000E-03 0.  1.
</event>
<event>
 8    1  0.1104109E+005  0.1043930E+01  0.7957747E-01            NaN
         13   -1    0    0    0    0  0.00000000000E+00  0.00000000000E+00  0.74505805969E-08  0.10566000000E+00  0.10566000000E+00 0. -1.
     999900   -1    0    0    0    0 -0.00000000000E+00 -0.00000000000E+00 -0.74505805969E-08  0.93827000000E+00  0.93827000000E+00 0.  1.
     999902    2    1    2    0    0  0.81925188864E-02  0.10737359746E-01  0.15756070205E-01  0.10231776023E+01  0.10229671275E+01 0.  0.
     999903    2    3    3    0    0 -0.11512446313E+00  0.24071883845E-01  0.59792876781E-01  0.13338879149E+00  0.19603162461E-01 0.  0.
         14    1    1    2    0    0 -0.81925188864E-02 -0.10737359746E-01 -0.15756070205E-01  0.20752397652E-01  0.00000000000E+00 0.  1.
     999901    1    3    3    0    0  0.12331698202E+00 -0.13334524099E-01 -0.44036806576E-01  0.88978881085E+00  0.88000000000E+00 0.  1.
        -11    1    4    4    0    0 -0.37406897996E-01  0.34742866832E-02  0.28306222347E-01  0.47040939937E-01  0.51100000000E-03 0. -1.
         11    1    4    4    0    0 -0.77717565138E-01  0.20597597162E-01  0.31486654434E-01  0.86347851556E-01  0.51100000000E-03 0.  1.
</event>
<event>
 8    1  0.1104109E+005  0.1043930E+01  0.7957747E-01            NaN
         13   -1    0    0    0    0  0.00000000000E+00  0.00000000000E+00  0.74505805969E-08  0.10566000000E+00  0.10566000000E+00 0.  1.
     999900   -1    0    0    0    0 -0.00000000000E+00 -0.00000000000E+00 -0.74505805969E-08  0.93827000000E+00  0.93827000000E+00 0. -1.
     999902    2    1    2    0    0 -0.17719401251E-01 -0.43840353618E-02  0.16105860054E-01  0.10195867119E+01  0.10192960647E+01 0.  0.
     999903    2    3    3    0    0  0.94434986147E-01 -0.21999940552E-01  0.84121554126E-01  0.12969061609E+00  0.18473116671E-01 0.  0.
         14    1    1    2    0    0  0.17719401251E-01  0.43840353618E-02 -0.16105860054E-01  0.24343288086E-01  0.00000000000E+00 0. -1.
     999901    1    3    3    0    0 -0.11215438740E+00  0.17615905190E-01 -0.68015694073E-01  0.88989609583E+00  0.88000000000E+00 0. -1.
        -11    1    4    4    0    0  0.17991068705E-01 -0.11843245913E-01  0.16773324940E-01  0.27304698817E-01  0.51100000000E-03 0. -1.
         11    1    4    4    0    0  0.76443917441E-01 -0.10156694639E-01  0.67348229186E-01  0.10238591727E+00  0.51100000000E-03 0.  1.
</event>
<event>
 8    1  0.1104109E+005  0.1043930E+01  0.7957747E-01            NaN
         13   -1    0    0    0    0  0.00000000000E+00  0.00000000000E+00  0.74505805969E-08  0.10566000000E+00  0.10566000000E+00 0. -1.
     999900   -1    0    0    0    0 -0.00000000000E+00 -0.00000000000E+00 -0.74505805969E-08  0.93827000000E+00  0.93827000000E+00 0. -1.
     999902    2    1    2    0    0 -0.11832576330E-01 -0.65004653461E-02 -0.18291375932E-01  0.10211958771E+01  0.10209427893E+01 0.  0.
     999903    2    3    3    0    0 -0.12346688440E+00 -0.31219298088E-01 -0.34718387013E-01  0.13364695665E+00  0.20914743776E-01 0.  0.
         14    1    1    2    0    0  0.11832576330E-01  0.65004653461E-02  0.18291375932E-01  0.22734122939E-01  0.00000000000E+00 0. -1.
     999901    1    3    3    0    0  0.11163430807E+00  0.24718832742E-01  0.16427011081E-01  0.88754892041E+00  0.88000000000E+00 0.  1.
        -11    1    4    4    0    0 -0.50263491722E-01 -0.23363819973E-01 -0.14486760556E-01  0.57292355827E-01  0.51100000000E-03 0.  1.
         11    1    4    4    0    0 -0.73203392683E-01 -0.78554781154E-02 -0.20231626457E-01  0.76354600822E-01  0.51100000000E-03 0. -1.
</event>
<event>
 8    1  0.1104109E+005  0.1043930E+01  0.7957747E-01            NaN
         13   -1    0    0    0    0  0.00000000000E+00  0.00000000000E+00  0.74505805969E-08  0.10566000000E+00  0.10566000000E+00 0. -1.
     999900   -1    0    0    0    0 -0.00000000000E+00 -0.00000000000E+00 -0.74505805969E-08  0.93827000000E+00  0.93827000000E+00 0. -1.
     999902    2    1    2    0    0 -0.20209962089E-01  0.17473091027E-01 -0.23493984855E-02  0.10171107690E+01  0.10167571221E+01 0.  0.
     999903    2    3    3    0    0  0.10823094421E+00  0.61523201540E-01  0.13467832045E-01  0.12655607477E+00  0.18330737814E-01 0.  0.
         14    1    1    2    0    0  0.20209962089E-01 -0.17473091027E-01  0.23493984855E-02  0.26819230991E-01  0.00000000000E+00 0. -1.
     999901    1    3    3    0    0 -0.12844090630E+00 -0.44050110513E-01 -0.15817230530E-01  0.89055469424E+00  0.88000000000E+00 0. -1.
        -11    1    4    4    0    0  0.57390400019E-01  0.40443578186E-01  0.13600065867E-01  0.71516179592E-01  0.51100000000E-03 0.  1.
         11    1    4    4    0    0  0.50840544193E-01  0.21079623354E-01 -0.13223382232E-03  0.55039895179E-01  0.51100000000E-03 0. -1.
</event>
<event>
 8    1  0.1104109E+005  0.1043930E+01  0.7957747E-01            NaN
         13   -1    0    0    0    0  0.00000000000E+00  0.00000000000E+00  0.74505805969E-08  0.10566000000E+00  0.10566000000E+00 0.  1.
     999900   -1    0    0    0    0 -0.00000000000E+00 -0.00000000000E+00 -0.74505805969E-08  0.93827000000E+00  0.93827000000E+00 0.  1.
     999902    2    1    2    0    0 -0.17998519018E-01 -0.77713910866E-02 -0.17901824313E-01  0.10173816193E+01  0.10170351728E+01 0.  0.
     999903    2    3    3    0    0 -0.33992198371E-01 -0.11782499614E+00  0.34858631238E-01  0.12881464967E+00  0.18436120320E-01 0.  0.
         14    1    1    2    0    0  0.17998519018E-01  0.77713910866E-02  0.17901824313E-01  0.26548380741E-01  0.00000000000E+00 0.  1.
     999901    1    3    3    0    0  0.15993679353E-01  0.11005360506E+00 -0.52760455551E-01  0.88856696958E+00  0.88000000000E+00 0. -1.
        -11    1    4    4    0    0 -0.30607151427E-01 -0.85064832515E-01  0.31364655234E-01  0.95691306650E-01  0.51100000000E-03 0. -1.
         11    1    4    4    0    0 -0.33850469434E-02 -0.32760163629E-01  0.34939760037E-02  0.33123343025E-01  0.51100000000E-03 0.  1.
</event>
<event>
 8    1  0.1104109E+005  0.1043930E+01  0.7957747E-01            NaN
         13   -1    0    0    0    0  0.00000000000E+00  0.00000000000E+00  0.74505805969E-08  0.10566000000E+00  0.10566000000E+00 0.  1.
     999900   -1    0    0    0    0 -0.00000000000E+00 -0.00000000000E+00 -0.74505805969E-08  0.93827000000E+00  0.93827000000E+00 0.  1.
     999902    2    1    2    0    0 -0.15826956457E-01 -0.17787505715E-01  0.71328265151E-02  0.10190751187E+01  0.10187719727E+01 0.  0.
     999903    2    3    3    0    0  0.62464238823E-01  0.10842625958E+00  0.57381233834E-02  0.12662827378E+00  0.18540732520E-01 0.  0.
         14    1    1    2    0    0  0.15826956457E-01  0.17787505715E-01 -0.71328265151E-02  0.24854881299E-01  0.00000000000E+00 0. -1.
     999901    1    3    3    0    0 -0.78291195281E-01 -0.12621376530E+00  0.13947031317E-02  0.89244684492E+00  0.88000000000E+00 0. -1.
        -11    1    4    4    0    0  0.11129986958E-01  0.31712728618E-01  0.69040081340E-02  0.34314723012E-01  0.51100000000E-03 0.  1.
         11    1    4    4    0    0  0.51334251865E-01  0.76713530964E-01 -0.11658847506E-02  0.92313550770E-01  0.51100000000E-03 0. -1.
</event>
<event>
 8    1  0.1104109E+005  0.1043930E+01  0.7957747E-01            NaN
         13   -1    0    0    0    0  0.00000000000E+00  0.00000000000E+00  0.74505805969E-08  0.10566000000E+00  0.10566000000E+00 0. -1.
     999900   -1    0    0    0    0 -0.00000000000E+00 -0.00000000000E+00 -0.74505805969E-08  0.93827000000E+00  0.93827000000E+00 0.  1.
     999902    2    1    2    0    0 -0.23236217142E-02 -0.90364834073E-02  0.31460695312E-01  0.10111148724E+01  0.10105822344E+01 0.  0.
     999903    2    3    3    0    0 -0.58184557847E-02 -0.34178265914E-01 -0.11231048922E+00  0.11908657879E+00  0.19130054092E-01 0.  0.
         14    1    1    2    0    0  0.23236217142E-02  0.90364834073E-02 -0.31460695312E-01  0.32815127605E-01  0.00000000000E+00 0.  1.
     999901    1    3    3    0    0  0.34948340705E-02  0.25141782506E-01  0.14377118453E+00  0.89202829361E+00  0.88000000000E+00 0. -1.
        -11    1    4    4    0    0 -0.29726320488E-02 -0.21364664219E-01 -0.38656690761E-01  0.44270602888E-01  0.51100000000E-03 0. -1.
         11    1    4    4    0    0 -0.28458237359E-02 -0.12813601695E-01 -0.73653798461E-01  0.74815975900E-01  0.51100000000E-03 0.  1.
</event>
<event>
 8    1  0.1104109E+005  0.1043930E+01  0.7957747E-01            NaN
         13   -1    0    0    0    0  0.00000000000E+00  0.00000000000E+00  0.74505805969E-08  0.10566000000E+00  0.10566000000E+00 0. -1.
     999900   -1    0    0    0    0 -0.00000000000E+00 -0.00000000000E+00 -0.74505805969E-08  0.93827000000E+00  0.93827000000E+00 0.  1.
     999902    2    1    2    0    0 -0.16479287479E-01  0.41351550759E-02 -0.16210004221E-01  0.10204474392E+01  0.10201772128E+01 0.  0.
     999903    2    3    3    0    0  0.61409645137E-01  0.22407007800E-01  0.10826714893E+00  0.12809374922E+00  0.20322759106E-01 0.  0.
         14    1    1    2    0    0  0.16479287479E-01 -0.41351550759E-02  0.16210004221E-01  0.23482560767E-01  0.00000000000E+00 0. -1.
     999901    1    3    3    0    0 -0.77888932616E-01 -0.18271852724E-01 -0.12447715315E+00  0.89235369001E+00  0.88000000000E+00 0.  1.
        -11    1    4    4    0    0  0.20198882365E-01  0.14467028083E-01  0.27450920789E-01  0.37028420484E-01  0.51100000000E-03 0.  1.
         11    1    4    4    0    0  0.41210762772E-01  0.79399797174E-02  0.80816228138E-01  0.91065328735E-01  0.51100000000E-03 0. -1.
</event>
<event>
 8    1  0.1104109E+005  0.1043930E+01  0.7957747E-01            NaN
         13   -1    0    0    0    0  0.00000000000E+00  0.00000000000E+00  0.74505805969E-08  0.10566000000E+00  0.10566000000E+00 0.  1.
     999900   -1    0    0    0    0 -0.00000000000E+00 -0.00000000000E+00 -0.74505805969E-08  0.93827000000E+00  0.93827000000E+00 0. -1.
     999902    2    1    2    0    0 -0.98714237212E-04 -0.15764006631E-01 -0.17180294282E-01  0.10206131357E+01  0.10203467531E+01 0.  0.
     999903    2    3    3    0    0  0.12790353174E+00 -0.16545977796E-01  0.96692258688E-02  0.13094685939E+00  0.20506175743E-01 0.  0.
         14    1    1    2    0    0  0.98714237212E-04  0.15764006631E-01  0.17180294282E-01  0.23316864308E-01  0.00000000000E+00 0.  1.
     999901    1    3    3    0    0 -0.12800224597E+00  0.78197116509E-03 -0.26849520150E-01  0.88966627630E+00  0.88000000000E+00 0. -1.
        -11    1    4    4    0    0  0.50627554222E-01 -0.18050599835E-02 -0.50405400284E-02  0.50912431221E-01  0.51100000000E-03 0.  1.
         11    1    4    4    0    0  0.77275977515E-01 -0.14740917812E-01  0.14709765897E-01  0.80034428171E-01  0.51100000000E-03 0. -1.
</event>
<event>
 8    1  0.1104109E+005  0.1043930E+01  0.7957747E-01            NaN
         13   -1    0    0    0    0  0.00000000000E+00  0.00000000000E+00  0.74505805969E-08  0.10566000000E+00  0.10566000000E+00 0. -1.
     999900   -1    0    0    0    0 -0.00000000000E+00 -0.00000000000E+00 -0.74505805969E-08  0.93827000000E+00  0.93827000000E+00 0. -1.
     999902    2    1    2    0    0 -0.23249984780E-01 -0.15689830330E-01 -0.14487302592E-02  0.10158438577E+01  0.10154555194E+01 0.  0.
     999903    2    3    3    0    0  0.36767543546E-01  0.11334075170E+00  0.28383955947E-01  0.12391281557E+00  0.18728551810E-01 0.  0.
         14    1    1    2    0    0  0.23249984780E-01  0.15689830330E-01  0.14487302592E-02  0.28086142266E-01  0.00000000000E+00 0. -1.
     999901    1    3    3    0    0 -0.60017528326E-01 -0.12903058203E+00 -0.29832686207E-01  0.89193104216E+00  0.88000000000E+00 0. -1.
        -11    1    4    4    0    0  0.21996900365E-01  0.51762992371E-01  0.21494866131E-01  0.60212634852E-01  0.51100000000E-03 0.  1.
         11    1    4    4    0    0  0.14770643181E-01  0.61577759331E-01  0.68890898169E-02  0.63700180719E-01  0.51100000000E-03 0. -1.
</event>
<event>
 8    1  0.1104109E+005  0.1043930E+01  0.7957747E-01            NaN
         13   -1    0    0    0    0  0.00000000000E+00  0.00000000000E+00  0.74505805969E-08  0.10566000000E+00  0.10566000000E+00 0.  1.
     999900   -1    0    0    0    0 -0.00000000000E+00 -0.00000000000E+00 -0.74505805969E-08  0.93827000000E+00  0.93827000000E+00 0. -1.
     999902    2    1    2    0    0 -0.69422991359E-02 -0.15394724399E-01  0.18196105922E-01  0.10191047844E+01  0.10188023706E+01 0.  0.
     999903    2    3    3    0    0 -0.83366464991E-02  0.11930625815E+00 -0.38426778024E-01  0.12705520629E+00  0.19050597572E-01 0.  0.
         14    1    1    2    0    0  0.69422991359E-02  0.15394724399E-01 -0.18196105922E-01  0.24825215555E-01  0.00000000000E+00 0. -1.
     999901    1    3    3    0    0  0.13943473633E-02 -0.13470098255E+00  0.56622883947E-01  0.89204957816E+00  0.88000000000E+00 0.  1.
        -11    1    4    4    0    0 -0.75562793028E-03  0.28320152923E-01 -0.92291409940E-03  0.28349866430E-01  0.51100000000E-03 0.  1.
         11    1    4    4    0    0 -0.75810185689E-02  0.90986105223E-01 -0.37503863925E-01  0.98705339858E-01  0.51100000000E-03 0. -1.
</event>
<event>
 8    1  0.1104109E+005  0.1043930E+01  0.7957747E-01            NaN
         13   -1    0    0    0    0  0.00000000000E+00  0.00000000000E+00  0.74505805969E-08  0.10566000000E+00  0.10566000000E+00 0. -1.
     999900   -1    0    0    0    0 -0.00000000000E+00 -0.00000000000E+00 -0.74505805969E-08  0.93827000000E+00  0.93827000000E+00 0. -1.
     999902    2    1    2    0    0 -0.11099229745E-01  0.17112199501E-01 -0.62266731116E-02  0.10226041535E+01  0.10223817599E+01 0.  0.
     999903    2    3    3    0    0  0.27132382083E-01  0.85677640642E-01 -0.97774782303E-01  0.13437899498E+00  0.20517845239E-01 0.  0.
         14    1    1    2    0    0  0.11099229745E-01 -0.17112199501E-01  0.62266731116E-02  0.21325846542E-01  0.00000000000E+00 0. -1.
     999901    1    3    3    0    0 -0.38231611828E-01 -0.68565441141E-01  0.91548109191E-01  0.88822515848E+00  0.88000000000E+00 0.  1.
        -11    1    4    4    0    0  0.21999916803E-01  0.68601176747E-01 -0.88982959481E-01  0.11449168524E+00  0.51100000000E-03 0.  1.
         11    1    4    4    0    0  0.51324652804E-02  0.17076463894E-01 -0.87918228217E-02  0.19887309735E-01  0.51100000000E-03 0. -1.
</event>
<event>
 8    1  0.1104109E+005  0.1043930E+01  0.7957747E-01            NaN
         13   -1    0    0    0    0  0.00000000000E+00  0.00000000000E+00  0.74505805969E-08  0.10566000000E+00  0.10566000000E+00 0.  1.
     999900   -1    0    0    0    0 -0.00000000000E+00 -0.00000000000E+00 -0.74505805969E-08  0.93827000000E+00  0.93827000000E+00 0. -1.
     999902    2    1    2    0    0  0.74717365931E-02 -0.20463353665E-01  0.50174370118E-02  0.10215749029E+01  0.10213302756E+01 0.  0.
     999903    2    3    3    0    0  0.32596611354E-02  0.89715464161E-01 -0.91183275959E-01  0.12949212053E+00  0.19857733104E-01 0.  0.
         14    1    1    2    0    0 -0.74717365931E-02  0.20463353665E-01 -0.50174370118E-02  0.22355097072E-01  0.00000000000E+00 0.  1.
     999901    1    3    3    0    0  0.42120754577E-02 -0.11017881783E+00  0.96200712971E-01  0.89208278240E+00  0.88000000000E+00 0.  1.
        -11    1    4    4    0    0  0.11239967825E-01  0.64445686143E-01 -0.63683523779E-01  0.91298607114E-01  0.51100000000E-03 0.  1.
         11    1    4    4    0    0 -0.79803066900E-02  0.25269778018E-01 -0.27499752180E-01  0.38193513414E-01  0.51100000000E-03 0. -1.
</event>
<event>
 8    1  0.1104109E+005  0.1043930E+01  0.7957747E-01            NaN
         13   -1    0    0    0    0  0.00000000000E+00  0.00000000000E+00  0.74505805969E-08  0.10566000000E+00  0.10566000000E+00 0. -1.
     999900   -1    0    0    0    0 -0.00000000000E+00 -0.00000000000E+00 -0.74505805969E-08  0.93827000000E+00  0.93827000000E+00 0. -1.
     999902    2    1    2    0    0  0.12332685067E-02 -0.18081956718E-01  0.16154233559E-01  0.10196516687E+01  0.10193625891E+01 0.  0.
     999903    2    3    3    0    0 -0.84736541359E-01  0.11410038918E-01 -0.93387700511E-01  0.12821461463E+00  0.20180544282E-01 0.  0.
         14    1    1    2    0    0 -0.12332685067E-02  0.18081956718E-01 -0.16154233559E-01  0.24278331323E-01  0.00000000000E+00 0.  1.
     999901    1    3    3    0    0  0.85969809866E-01 -0.29491995636E-01  0.10954193407E+00  0.89143705405E+00  0.88000000000E+00 0.  1.
        -11    1    4    4    0    0 -0.49834693451E-01 -0.33223213174E-02 -0.51913500198E-01  0.72040315894E-01  0.51100000000E-03 0.  1.
         11    1    4    4    0    0 -0.34901847908E-01  0.14732360235E-01 -0.41474200313E-01  0.56174298732E-01  0.51100000000E-03 0. -1.
</event>
<event>
 8    1  0.1104109E+005  0.1043930E+01  0.7957747E-01            NaN
         13   -1    0    0    0    0  0.00000000000E+00  0.00000000000E+00  0.74505805969E-08  0.10566000000E+00  0.10566000000E+00 0. -1.
     999900   -1    0    0    0    0 -0.00000000000E+00 -0.00000000000E+00 -0.74505805969E-08  0.93827000000E+00  0.93827000000E+00 0. -1.
     999902    2    1    2    0    0  0.19479537091E-01  0.13262919152E-01  0.57032300944E-02  0.10196836761E+01  0.10193953674E+01 0.  0.
     999903    2    3    3    0    0  0.99288049898E-01 -0.37751431637E-01  0.75444189725E-01  0.13185730559E+00  0.20278950441E-01 0.  0.
         14    1    1    2    0    0 -0.19479537091E-01 -0.13262919152E-01 -0.57032300944E-02  0.24246323911E-01  0.00000000000E+00 0.  1.
     999901    1    3    3    0    0 -0.79808512807E-01  0.51014350789E-01 -0.69740959631E-01  0.88782637050E+00  0.88000000000E+00 0. -1.
        -11    1    4    4    0    0  0.50023254844E-01 -0.82671913843E-02  0.34090679245E-01  0.61099165387E-01  0.51100000000E-03 0. -1.
         11    1    4    4    0    0  0.49264795053E-01 -0.29484240252E-01  0.41353510480E-01  0.70758140203E-01  0.51100000000E-03 0.  1.
</event>
<event>
 8    1  0.1104109E+005  0.1043930E+01  0.7957747E-01            NaN
         13   -1    0    0    0    0  0.00000000000E+00  0.00000000000E+00  0.74505805969E-08  0.10566000000E+00  0.10566000000E+00 0.  1.
     999900   -1    0    0    0    0 -0.00000000000E+00 -0.00000000000E+00 -0.74505805969E-08  0.93827000000E+00  0.93827000000E+00 0. -1.
     999902    2    1    2    0    0 -0.20990359823E-01  0.10754344965E-01  0.66817233072E-02  0.10194168083E+01  0.10191220400E+01 0.  0.
     999903    2    3    3    0    0 -0.13914454156E-01  0.85237888958E-01  0.97395913553E-01  0.13159535605E+00  0.19294144379E-01 0.  0.
         14    1    1    2    0    0  0.20990359823E-01 -0.10754344965E-01 -0.66817233072E-02  0.24513191703E-01  0.00000000000E+00 0. -1.
     999901    1    3    3    0    0 -0.70759056666E-02 -0.74483543993E-01 -0.90714190246E-01  0.88782145225E+00  0.88000000000E+00 0. -1.
        -11    1    4    4    0    0 -0.17669765426E-01  0.77714857299E-01  0.84186999860E-01  0.11592899431E+00  0.51100000000E-03 0. -1.
         11    1    4    4    0    0  0.37553112696E-02  0.75230316588E-02  0.13208913693E-01  0.15666361736E-01  0.51100000000E-03 0.  1.
</event>
<event>
 8    1  0.1104109E+005  0.1043930E+01  0.7957747E-01            NaN
         13   -1    0    0    0    0  0.00000000000E+00  0.00000000000E+00  0.74505805969E-08  0.10566000000E+00  0.10566000000E+00 0.  1.
     999900   -1    0    0    0    0 -0.00000000000E+00 -0.00000000000E+00 -0.74505805969E-08  0.93827000000E+00  0.93827000000E+00 0.  1.
     999902    2    1    2    0    0  0.18831806440E-01 -0.95009047670E-03  0.10523458751E-01  0.10223364179E+01  0.10221083448E+01 0.  0.
     999903    2    3    3    0    0 -0.34341206943E-01 -0.10942030105E+00 -0.60496993940E-01  0.13124884605E+00  0.20353194739E-01 0.  0.
         14    1    1    2    0    0 -0.18831806440E-01  0.95009047670E-03 -0.10523458751E-01  0.21593582143E-01  0.00000000000E+00 0. -1.
     999901    1    3    3    0    0  0.53173013383E-01  0.10847021058E+00  0.71020452692E-01  0.89108757181E+00  0.88000000000E+00 0. -1.
        -11    1    4    4    0    0 -0.32394229308E-01 -0.83146861047E-01 -0.53264801412E-01  0.10392394712E+00  0.51100000000E-03 0. -1.
         11    1    4    4    0    0 -0.19469776352E-02 -0.26273440005E-01 -0.72321925285E-02  0.27324898927E-01  0.51100000000E-03 0.  1.
</event>
<event>
 8    1  0.1104109E+005  0.1043930E+01  0.7957747E-01            NaN
         13   -1    0    0    0    0  0.00000000000E+00  0.00000000000E+00  0.74505805969E-08  0.10566000000E+00  0.10566000000E+00 0. -1.
     999900   -1    0    0    0    0 -0.00000000000E+00 -0.00000000000E+00 -0.74505805969E-08  0.93827000000E+00  0.93827000000E+00 0.  1.
     999902    2    1    2    0    0 -0.19219287670E-01  0.10591497367E-01 -0.84449663100E-02  0.10204166359E+01  0.10201456918E+01 0.  0.
     999903    2    3    3    0    0  0.19879255138E-01 -0.12151757248E+00 -0.34851316424E-01  0.12930564522E+00  0.18537271192E-01 0.  0.
         14    1    1    2    0    0  0.19219287670E-01 -0.10591497367E-01  0.84449663100E-02  0.23513364094E-01  0.00000000000E+00 0. -1.
     999901    1    3    3    0    0 -0.39098542809E-01  0.13210906985E+00  0.26406350114E-01  0.89111099068E+00  0.88000000000E+00 0. -1.
        -11    1    4    4    0    0  0.14614381723E-01 -0.11581771234E+00 -0.33005722320E-01  0.12131348429E+00  0.51100000000E-03 0. -1.
         11    1    4    4    0    0  0.52648734152E-02 -0.56998601444E-02 -0.18455941039E-02  0.79921609306E-02  0.51100000000E-03 0.  1.
</event>
<event>
 8    1  0.1104109E+005  0.1043930E+01  0.7957747E-01            NaN
         13   -1    0    0    0    0  0.00000000000E+00  0.00000000000E+00  0.74505805969E-08  0.10566000000E+00  0.10566000000E+00 0. -1.
     999900   -1    0    0    0    0 -0.00000000000E+00 -0.00000000000E+00 -0.74505805969E-08  0.93827000000E+00  0.93827000000E+00 0. -1.
     999902    2    1    2    0    0 -0.37522788539E-02 -0.84957626038E-02  0.21807645870E-01  0.10202270256E+01  0.10199516423E+01 0.  0.
     999903    2    3    3    0    0 -0.33610686346E-01 -0.56292072996E-01 -0.10906531989E+00  0.12876544762E+00  0.19667759891E-01 0.  0.
         14    1    1    2    0    0  0.37522788539E-02  0.84957626038E-02 -0.21807645870E-01  0.23702974438E-01  0.00000000000E+00 0.  1.
     999901    1    3    3    0    0  0.29858407492E-01  0.47796310392E-01  0.13087296576E+00  0.89146157794E+00  0.88000000000E+00 0.  1.
        -11    1    4    4    0    0 -0.23867513893E-01 -0.35161620208E-01 -0.52145925099E-01  0.67271512400E-01  0.51100000000E-03 0. -1.
         11    1    4    4    0    0 -0.97431724532E-02 -0.21130452787E-01 -0.56919394789E-01  0.61493935218E-01  0.51100000000E-03 0.  1.
</event>
<event>
 8    1  0.1104109E+005  0.1043930E+01  0.7957747E-01            NaN
         13   -1    0    0    0    0  0.00000000000E+00  0.00000000000E+00  0.74505805969E-08  0.10566000000E+00  0.10566000000E+00 0.  1.
     999900   -1    0    0    0    0 -0.00000000000E+00 -0.00000000000E+00 -0.74505805969E-08  0.93827000000E+00  0.93827000000E+00 0. -1.
     999902    2    1    2    0    0 -0.47544607708E-02  0.96678203572E-02  0.22025537598E-01  0.10194107024E+01  0.10191157855E+01 0.  0.
     999903    2    3    3    0    0  0.11001748708E+00  0.56905123414E-01  0.36127831239E-01  0.13058966446E+00  0.20159358635E-01 0.  0.
         14    1    1    2    0    0  0.47544607708E-02 -0.96678203572E-02 -0.22025537598E-01  0.24519297587E-01  0.00000000000E+00 0. -1.
     999901    1    3    3    0    0 -0.11477194785E+00 -0.47237303057E-01 -0.14102293641E-01  0.88882103795E+00  0.88000000000E+00 0.  1.
        -11    1    4    4    0    0  0.82285727285E-01  0.48334149863E-01  0.34626284440E-01  0.10152030168E+00  0.51100000000E-03 0. -1.
         11    1    4    4    0    0  0.27731759796E-01  0.85709735509E-02  0.15015467993E-02  0.29069362786E-01  0.51100000000E-03 0.  1.
</event>
<event>
 8    1  0.1104109E+005  0.1043930E+01  0.7957747E-01            NaN
         13   -1    0    0    0    0  0.00000000000E+00  0.00000000000E+00  0.74505805969E-08  0.10566000000E+00  0.10566000000E+00 0.  1.
     999900   -1    0    0    0    0 -0.00000000000E+00 -0.00000000000E+00 -0.74505805969E-08  0.93827000000E+00  0.93827000000E+00 0.  1.
     999902    2    1    2    0    0  0.21204261964E-01  0.73718752190E-02  0.63541225935E-02  0.10205989018E+01  0.10203321901E+01 0.  0.
     999903    2    3    3    0    0  0.11042840876E+00 -0.69998590635E-01  0.11837064546E-01  0.13269282567E+00  0.19314081274E-01 0.  0.
         14    1    1    2    0    0 -0.21204261964E-01 -0.73718752190E-02 -0.63541225935E-02  0.23331098208E-01  0.00000000000E+00 0.  1.
     999901    1    3    3    0    0 -0.89224146797E-01  0.77370465854E-01 -0.54829419524E-02  0.88790607612E+00  0.88000000000E+00 0. -1.
        -11    1    4    4    0    0  0.27322588009E-01 -0.21998876547E-01 -0.43977066633E-02  0.35356404366E-01  0.51100000000E-03 0.  1.
         11    1    4    4    0    0  0.83105820752E-01 -0.47999714088E-01  0.16234771209E-01  0.97336421306E-01  0.51100000000E-03 0. -1.
</event>
<event>
 8    1  0.1104109E+005  0.1043930E+01  0.7957747E-01            NaN
         13   -1    0    0    0    0  0.00000000000E+00  0.00000000000E+00  0.74505805969E-08  0.10566000000E+00  0.10566000000E+00 0. -1.
     999900   -1    0    0    0    0 -0.00000000000E+00 -0.00000000000E+00 -0.74505805969E-08  0.93827000000E+00  0.93827000000E+00 0.  1.
     999902    2    1    2    0    0 -0.28784093762E-02  0.14938667108E-01  0.18979255750E-01  0.10196059139E+01  0.10193157305E+01 0.  0.
     999903    2    3    3    0    0  0.12104835371E+00 -0.15566441004E-01  0.41616299372E-01  0.13011120342E+00  0.17377884233E-01 0.  0.
         14    1    1    2    0    0  0.28784093762E-02 -0.14938667108E-01 -0.18979255750E-01  0.24324086095E-01  0.00000000000E+00 0.  1.
     999901    1    3    3    0    0 -0.12392676309E+00  0.30505108112E-01 -0.22637043622E-01  0.88949471048E+00  0.88000000000E+00 0. -1.
        -11    1    4    4    0    0  0.83086613212E-01 -0.18340619901E-01  0.26068958857E-01  0.88992220841E-01  0.51100000000E-03 0.  1.
         11    1    4    4    0    0  0.37961740503E-01  0.27741788965E-02  0.15547340515E-01  0.41118982583E-01  0.51100000000E-03 0. -1.
</event>
<event>
 8    1  0.1104109E+005  0.1043930E+01  0.7957747E-01            NaN
         13   -1    0    0    0    0  0.00000000000E+00  0.00000000000E+00  0.74505805969E-08  0.10566000000E+00  0.10566000000E+00 0.  1.
     999900   -1    0    0    0    0 -0.00000000000E+00 -0.00000000000E+00 -0.74505805969E-08  0.93827000000E+00  0.93827000000E+00 0.  1.
     999902    2    1    2    0    0 -0.52403998473E-02  0.20879971737E-01 -0.96400026173E-02  0.10203426165E+01  0.10200699439E+01 0.  0.
     999903    2    3    3    0    0 -0.65790073903E-01  0.89535955982E-01  0.68446262766E-01  0.13215492684E+00  0.20856954831E-01 0.  0.
         14    1    1    2    0    0  0.52403998473E-02 -0.20879971737E-01  0.96400026173E-02  0.23587383508E-01  0.00000000000E+00 0.  1.
     999901    1    3    3    0    0  0.60549674055E-01 -0.68655984245E-01 -0.78086265383E-01  0.88818768965E+00  0.88000000000E+00 0.  1.
        -11    1    4    4    0    0 -0.21572551834E-01  0.27438807932E-01  0.33176529895E-01  0.48158139813E-01  0.51100000000E-03 0.  1.
         11    1    4    4    0    0 -0.44217522069E-01  0.62097148049E-01  0.35269732872E-01  0.83996787031E-01  0.51100000000E-03 0. -1.
</event>
<event>
 8    1  0.1104109E+005  0.1043930E+01  0.7957747E-01            NaN
         13   -1    0    0    0    0  0.00000000000E+00  0.00000000000E+00  0.74505805969E-08  0.10566000000E+00  0.10566000000E+00 0.  1.
     999900   -1    0    0    0    0 -0.00000000000E+00 -0.00000000000E+00 -0.74505805969E-08  0.93827000000E+00  0.93827000000E+00 0.  1.
     999902    2    1    2    0    0 -0.22416131596E-02  0.21647906716E-01 -0.76784777441E-02  0.10208515314E+01  0.10205906297E+01 0.  0.
     999903    2    3    3    0    0  0.64675546251E-01 -0.10655644044E+00  0.24023680061E-01  0.12848429323E+00  0.19846287336E-01 0.  0.
         14    1    1    2    0    0  0.22416131596E-02 -0.21647906716E-01  0.76784777441E-02  0.23078468650E-01  0.00000000000E+00 0. -1.
     999901    1    3    3    0    0 -0.66917159411E-01  0.12820434716E+00 -0.31702157805E-01  0.89236723812E+00  0.88000000000E+00 0.  1.
        -11    1    4    4    0    0  0.46628334174E-01 -0.88125488388E-01  0.13467455917E-01  0.10060783638E+00  0.51100000000E-03 0. -1.
         11    1    4    4    0    0  0.18047212077E-01 -0.18430952056E-01  0.10556224144E-01  0.27876456852E-01  0.51100000000E-03 0.  1.
</event>
<event>
 8    1  0.1104109E+005  0.1043930E+01  0.7957747E-01            NaN
         13   -1    0    0    0    0  0.00000000000E+00  0.00000000000E+00  0.74505805969E-08  0.10566000000E+00  0.10566000000E+00 0. -1.
     999900   -1    0    0    0    0 -0.00000000000E+00 -0.00000000000E+00 -0.74505805969E-08  0.93827000000E+00  0.93827000000E+00 0.  1.
     999902    2    1    2    0    0  0.62893635203E-02 -0.17201442667E-01  0.13994338445E-01  0.10208803312E+01  0.10206200877E+01 0.  0.
     999903    2    3    3    0    0 -0.32019442068E-02 -0.50177548435E-01 -0.11853455259E+00  0.13029545853E+00  0.19960649811E-01 0.  0.
         14    1    1    2    0    0 -0.62893635203E-02  0.17201442667E-01 -0.13994338445E-01  0.23049668801E-01  0.00000000000E+00 0.  1.
     999901    1    3    3    0    0  0.94913077272E-02  0.32976105768E-01  0.13252889104E+00  0.89058487267E+00  0.88000000000E+00 0. -1.
        -11    1    4    4    0    0 -0.34793030522E-03 -0.32735639653E-01 -0.51979844598E-01  0.61432145693E-01  0.51100000000E-03 0.  1.
         11    1    4    4    0    0 -0.28540139016E-02 -0.17441908782E-01 -0.66554707993E-01  0.68863312833E-01  0.51100000000E-03 0. -1.
</event>
<event>
 8    1  0.1104109E+005  0.1043930E+01  0.7957747E-01            NaN
         13   -1    0    0    0    0  0.00000000000E+00  0.00000000000E+00  0.74505805969E-08  0.10566000000E+00  0.10566000000E+00 0.  1.
     999900   -1    0    0    0    0 -0.00000000000E+00 -0.00000000000E+00 -0.74505805969E-08  0.93827000000E+00  0.93827000000E+00 0.  1.
     999902    2    1    2    0    0  0.73421728390E-02 -0.15543106331E-01 -0.16346892387E-01  0.10202083528E+01  0.10199325304E+01 0.  0.
     999903    2    3    3    0    0 -0.13863391881E-02  0.60466354428E-01 -0.11474064513E+00  0.13142550211E+00  0.21193041498E-01 0.  0.
         14    1    1    2    0    0 -0.73421728390E-02  0.15543106331E-01  0.16346892387E-01  0.23721647227E-01  0.00000000000E+00 0.  1.
     999901    1    3    3    0    0  0.87285120271E-02 -0.76009460759E-01  0.98393752739E-01  0.88878285066E+00  0.88000000000E+00 0.  1.
        -11    1    4    4    0    0  0.36614520430E-02  0.29028420114E-01 -0.35376875576E-01  0.45911217060E-01  0.51100000000E-03 0. -1.
         11    1    4    4    0    0 -0.50477912310E-02  0.31437934314E-01 -0.79363769550E-01  0.85514285055E-01  0.51100000000E-03 0.  1.
</event>
<event>
 8    1  0.1104109E+005  0.1043930E+01  0.7957747E-01            NaN
         13   -1    0    0    0    0  0.00000000000E+00  0.00000000000E+00  0.74505805969E-08  0.10566000000E+00  0.10566000000E+00 0.  1.
     999900   -1    0    0    0    0 -0.00000000000E+00 -0.00000000000E+00 -0.74505805969E-08  0.93827000000E+00  0.93827000000E+00 0. -1.
     999902    2    1    2    0    0 -0.46455810790E-02  0.73884267283E-02  0.21432196462E-01  0.10207889257E+01  0.10205265903E+01 0.  0.
     999903    2    3    3    0    0  0.11243802128E+00  0.92005942461E-02 -0.59973941698E-01  0.12930767903E+00  0.19915888356E-01 0.  0.
         14    1    1    2    0    0  0.46455810790E-02 -0.73884267283E-02 -0.21432196462E-01  0.23141074268E-01  0.00000000000E+00 0. -1.
     999901    1    3    3    0    0 -0.11708360236E+00 -0.18121675178E-02  0.81406138160E-01  0.89148124670E+00  0.88000000000E+00 0. -1.
        -11    1    4    4    0    0  0.49984233755E-01 -0.49411854040E-02 -0.30953235302E-01  0.59001718907E-01  0.51100000000E-03 0. -1.
         11    1    4    4    0    0  0.62453787526E-01  0.14141779650E-01 -0.29020706396E-01  0.70305960123E-01  0.51100000000E-03 0.  1.
</event>
<event>
 8    1  0.1104109E+005  0.1043930E+01  0.7957747E-01            NaN
         13   -1    0    0    0    0  0.00000000000E+00  0.00000000000E+00  0.74505805969E-08  0.10566000000E+00  0.10566000000E+00 0.  1.
     999900   -1    0    0    0    0 -0.00000000000E+00 -0.00000000000E+00 -0.74505805969E-08  0.93827000000E+00  0.93827000000E+00 0. -1.
     999902    2    1    2    0    0 -0.63840254495E-02 -0.11557080281E-01 -0.18775318632E-01  0.10209771249E+01  0.10207190873E+01 0.  0.
     999903    2    3    3    0    0 -0.63422462463E-02 -0.29070217372E-01 -0.12901324238E+00  0.13392633067E+00  0.20162929116E-01 0.  0.
         14    1    1    2    0    0  0.63840254495E-02  0.11557080281E-01  0.18775318632E-01  0.22952875099E-01  0.00000000000E+00 0.  1.
     999901    1    3    3    0    0 -0.41779203176E-04  0.17513137090E-01  0.11023792375E+00  0.88705079423E+00  0.88000000000E+00 0.  1.
        -11    1    4    4    0    0 -0.34080814551E-02 -0.72757473577E-03 -0.46442534334E-01  0.46575900427E-01  0.51100000000E-03 0.  1.
         11    1    4    4    0    0 -0.29341647912E-02 -0.28342642636E-01 -0.82570708049E-01  0.87350430241E-01  0.51100000000E-03 0. -1.
</event>
<event>
 8    1  0.1104109E+005  0.1043930E+01  0.7957747E-01            NaN
         13   -1    0    0    0    0  0.00000000000E+00  0.00000000000E+00  0.74505805969E-08  0.10566000000E+00  0.10566000000E+00 0. -1.
     999900   -1    0    0    0    0 -0.00000000000E+00 -0.00000000000E+00 -0.74505805969E-08  0.93827000000E+00  0.93827000000E+00 0.  1.
     999902    2    1    2    0    0 -0.63198706262E-02 -0.12762523749E-01 -0.17719530115E-01  0.10211966649E+01  0.10209435949E+01 0.  0.
     999903    2    3    3    0    0  0.34386086921E-01 -0.12404940474E+00  0.20755871727E-01  0.13242104563E+00  0.23105612420E-01 0.  0.
         14    1    1    2    0    0  0.63198706262E-02  0.12762523749E-01  0.17719530115E-01  0.22733335098E-01  0.00000000000E+00 0. -1.
     999901    1    3    3    0    0 -0.40705957548E-01  0.11128688099E+00 -0.38475401842E-01  0.88877561927E+00  0.88000000000E+00 0.  1.
        -11    1    4    4    0    0  0.50740733810E-02 -0.61157947384E-01  0.84398750552E-02  0.61947827733E-01  0.51100000000E-03 0.  1.
         11    1    4    4    0    0  0.29312013540E-01 -0.62891457355E-01  0.12315996672E-01  0.70473217899E-01  0.51100000000E-03 0. -1.
</event>
<event>
 8    1  0.1104109E+005  0.1043930E+01  0.7957747E-01            NaN
         13   -1    0    0    0    0  0.00000000000E+00  0.00000000000E+00  0.74505805969E-08  0.10566000000E+00  0.10566000000E+00 0.  1.
     999900   -1    0    0    0    0 -0.00000000000E+00 -0.00000000000E+00 -0.74505805969E-08  0.93827000000E+00  0.93827000000E+00 0.  1.
     999902    2    1    2    0    0 -0.74535407996E-02  0.20781331785E-01  0.74257809598E-02  0.10206370559E+01  0.10203712259E+01 0.  0.
     999903    2    3    3    0    0  0.41090248882E-01 -0.11940633540E+00  0.59365289347E-02  0.12821826442E+00  0.21410265507E-01 0.  0.
         14    1    1    2    0    0  0.74535407996E-02 -0.20781331785E-01 -0.74257809598E-02  0.23292944083E-01  0.00000000000E+00 0. -1.
     999901    1    3    3    0    0 -0.48543789681E-01  0.14018766718E+00  0.14892520251E-02  0.89241879150E+00  0.88000000000E+00 0. -1.
        -11    1    4    4    0    0  0.60140640796E-02 -0.48180866824E-01  0.50318656064E-02  0.48817473174E-01  0.51100000000E-03 0.  1.
         11    1    4    4    0    0  0.35076184802E-01 -0.71225468572E-01  0.90466332831E-03  0.79400791245E-01  0.51100000000E-03 0. -1.
</event>
<event>
 8    1  0.1104109E+005  0.1043930E+01  0.7957747E-01            NaN
         13   -1    0    0    0    0  0.00000000000E+00  0.00000000000E+00  0.74505805969E-08  0.10566000000E+00  0.10566000000E+00 0. -1.
     999900   -1    0    0    0    0 -0.00000000000E+00 -0.00000000000E+00 -0.74505805969E-08  0.93827000000E+00  0.93827000000E+00 0. -1.
     999902    2    1    2    0    0  0.30385803845E-02  0.20198681156E-02 -0.24098046643E-01  0.10195572962E+01  0.10192659376E+01 0.  0.
     999903    2    3    3    0    0 -0.93306561607E-01  0.43472162486E-01 -0.79245582609E-01  0.13161477002E+00  0.21133905805E-01 0.  0.
         14    1    1    2    0    0 -0.30385803845E-02 -0.20198681156E-02  0.24098046643E-01  0.24372703789E-01  0.00000000000E+00 0. -1.
     999901    1    3    3    0    0  0.96345141992E-01 -0.41452294370E-01  0.55147535966E-01  0.88794252619E+00  0.88000000000E+00 0.  1.
        -11    1    4    4    0    0 -0.30712594007E-01  0.22263030848E-01 -0.20148430812E-01  0.42954934040E-01  0.51100000000E-03 0.  1.
         11    1    4    4    0    0 -0.62593967600E-01  0.21209131638E-01 -0.59097151797E-01  0.88659835982E-01  0.51100000000E-03 0. -1.
</event>
<event>
 8    1  0.1104109E+005  0.1043930E+01  0.7957747E-01            NaN
         13   -1    0    0    0    0  0.00000000000E+00  0.00000000000E+00  0.74505805969E-08  0.10566000000E+00  0.10566000000E+00 0. -1.
     999900   -1    0    0    0    0 -0.00000000000E+00 -0.00000000000E+00 -0.74505805969E-08  0.93827000000E+00  0.93827000000E+00 0.  1.
     999902    2    1    2    0    0 -0.18149231012E-02 -0.55203047406E-02 -0.23287475117E-01  0.10199284541E+01  0.10196460058E+01 0.  0.
     999903    2    3    3    0    0  0.29108923115E-01  0.51085640661E-01  0.11158355364E+00  0.12731951857E+00  0.17386727081E-01 0.  0.
         14    1    1    2    0    0  0.18149231012E-02  0.55203047406E-02  0.23287475117E-01  0.24001545943E-01  0.00000000000E+00 0. -1.
     999901    1    3    3    0    0 -0.30923846216E-01 -0.56605945401E-01 -0.13487102876E+00  0.89260893549E+00  0.88000000000E+00 0.  1.
        -11    1    4    4    0    0  0.26242251310E-01  0.30548844521E-01  0.67562440544E-01  0.78656418357E-01  0.51100000000E-03 0. -1.
         11    1    4    4    0    0  0.28666718051E-02  0.20536796140E-01  0.44021113095E-01  0.48663100210E-01  0.51100000000E-03 0.  1.
</event>
<event>
 8    1  0.1118430E+005  0.1043930E+01  0.7957747E-01            NaN
         13   -1    0    0    0    0  0.00000000000E+00  0.00000000000E+00  0.74505805969E-08  0.10566000000E+00  0.10566000000E+00 0.  1.
     999900   -1    0    0    0    0 -0.00000000000E+00 -0.00000000000E+00 -0.74505805969E-08  0.93827000000E+00  0.93827000000E+00 0.  1.
     999902    2    1    2    0    0 -0.59065094052E-02 -0.54232134203E-02 -0.21528021438E-01  0.10209571072E+01  0.10206986141E+01 0.  0.
     999903    2    3    3    0    0  0.12505946050E+00 -0.30425385227E-01 -0.12891366183E-01  0.13087183842E+00  0.19891657589E-01 0.  0.
         14    1    1    2    0    0  0.59065094052E-02  0.54232134203E-02  0.21528021438E-01  0.22972892813E-01  0.00000000000E+00 0.  1.
     999901    1    3    3    0    0 -0.13096596991E+00  0.25002171807E-01 -0.86366552556E-02  0.89008526877E+00  0.88000000000E+00 0. -1.
        -11    1    4    4    0    0  0.62067573252E-01 -0.25142576311E-01 -0.84738186764E-02  0.67502588965E-01  0.51100000000E-03 0. -1.
         11    1    4    4    0    0  0.62991887248E-01 -0.52828089158E-02 -0.44175475062E-02  0.63369249451E-01  0.51100000000E-03 0.  1.
</event>
<event>
 8    1  0.1104109E+005  0.1043930E+01  0.7957747E-01            NaN
         13   -1    0    0    0    0  0.00000000000E+00  0.00000000000E+00  0.74505805969E-08  0.10566000000E+00  0.10566000000E+00 0.  1.
     999900   -1    0    0    0    0 -0.00000000000E+00 -0.00000000000E+00 -0.74505805969E-08  0.93827000000E+00  0.93827000000E+00 0. -1.
     999902    2    1    2    0    0  0.20304727550E-01 -0.34628646929E-02  0.10099495906E-01  0.10209893546E+01  0.10207315950E+01 0.  0.
     999903    2    3    3    0    0 -0.44520575075E-01 -0.55530784539E-01 -0.10622953927E+00  0.12944808661E+00  0.20157938345E-01 0.  0.
         14    1    1    2    0    0 -0.20304727550E-01  0.34628646929E-02 -0.10099495906E-01  0.22940645377E-01  0.00000000000E+00 0. -1.
     999901    1    3    3    0    0  0.64825302624E-01  0.52067919846E-01  0.11632903518E+00  0.89154126801E+00  0.88000000000E+00 0.  1.
        -11    1    4    4    0    0 -0.83115816712E-02 -0.15684940984E-02 -0.79080038079E-02  0.11590522371E-01  0.51100000000E-03 0. -1.
         11    1    4    4    0    0 -0.36208993403E-01 -0.53962290440E-01 -0.98321535462E-01  0.11785756424E+00  0.51100000000E-03 0.  1.
</event>
<event>
 7    1  0.1104109E+005  0.1043930E+01  0.7957747E-01            NaN
         13   -1    0    0    0    0  0.00000000000E+00  0.00000000000E+00  0.74505805969E-08  0.10566000000E+00  0.10566000000E+00 0.  1.
     999900   -1    0    0    0    0 -0.00000000000E+00 -0.00000000000E+00 -0.74505805969E-08  0.93827000000E+00  0.93827000000E+00 0.  1.
     999902    2    1    2    0    0  0.46958809251E-02 -0.39885693459E-02 -0.22198685757E-01  0.10208921695E+01  0.10206321963E+01 0.  0.
         14    1    1    2    0    0 -0.46958809251E-02  0.39885693459E-02  0.22198685757E-01  0.23037830463E-01  0.00000000000E+00 0.  1.
     999901    1    3    3    0    0 -0.89197839285E-01 -0.63800489641E-02 -0.98189922811E-01  0.88996529174E+00  0.88000000000E+00 0.  1.
        -11    1    3    3    0    0  0.35899890348E-01  0.33564631749E-02  0.61253636288E-01  0.71079793553E-01  0.51100000000E-03 0.  1.
         11    1    3    3    0    0  0.57993829862E-01 -0.96498355669E-03  0.14737600765E-01  0.59847084245E-01  0.51100000000E-03 0. -1.
</event>
<event>
 8    1  0.1104109E+005  0.1043930E+01  0.7957747E-01            NaN
         13   -1    0    0    0    0  0.00000000000E+00  0.00000000000E+00  0.74505805969E-08  0.10566000000E+00  0.10566000000E+00 0.  1.
     999900   -1    0    0    0    0 -0.00000000000E+00 -0.00000000000E+00 -0.74505805969E-08  0.93827000000E+00  0.93827000000E+00 0. -1.
     999902    2    1    2    0    0  0.25358981378E-02  0.13203269728E-01 -0.19154667749E-01  0.10205278974E+01  0.10202595410E+01 0.  0.
     999903    2    3    3    0    0 -0.11581605826E+00  0.33483306963E-01 -0.48674479626E-01  0.13188292620E+00  0.22122614202E-01 0.  0.
         14    1    1    2    0    0 -0.25358981378E-02 -0.13203269728E-01  0.19154667749E-01  0.23402102629E-01  0.00000000000E+00 0.  1.
     999901    1    3    3    0    0  0.11835195640E+00 -0.20280037236E-01  0.29519811878E-01  0.88864497117E+00  0.88000000000E+00 0.  1.
        -11    1    4    4    0    0 -0.41272663391E-01  0.41331579738E-02 -0.88507338822E-02  0.42415944520E-01  0.51100000000E-03 0. -1.
         11    1    4    4    0    0 -0.74543394873E-01  0.29350148990E-01 -0.39823745744E-01  0.89466981680E-01  0.51100000000E-03 0.  1.
</event>
<event>
 8    1  0.1104109E+005  0.1043930E+01  0.7957747E-01            NaN
         13   -1    0    0    0    0  0.00000000000E+00  0.00000000000E+00  0.74505805969E-08  0.10566000000E+00  0.10566000000E+00 0. -1.
     999900   -1    0    0    0    0 -0.00000000000E+00 -0.00000000000E+00 -0.74505805969E-08  0.93827000000E+00  0.93827000000E+00 0. -1.
     999902    2    1    2    0    0  0.18042030161E-01 -0.13060670534E-01 -0.80251544835E-02  0.10202551384E+01  0.10199804157E+01 0.  0.
     999903    2    3    3    0    0 -0.92284211669E-01  0.66421370798E-01 -0.58979133813E-01  0.12835515380E+00  0.82663812522E-02 0.  0.
         14    1    1    2    0    0 -0.18042030161E-01  0.13060670534E-01  0.80251544835E-02  0.23674861596E-01  0.00000000000E+00 0.  1.
     999901    1    3    3    0    0  0.11032624183E+00 -0.79482041332E-01  0.50953979330E-01  0.89189998461E+00  0.88000000000E+00 0. -1.
        -11    1    4    4    0    0 -0.18066466430E-01  0.95113670236E-02 -0.91053524572E-02  0.22361392539E-01  0.51100000000E-03 0.  1.
         11    1    4    4    0    0 -0.74217745239E-01  0.56910003775E-01 -0.49873781356E-01  0.10599376126E+00  0.51100000000E-03 0. -1.
</event>
<event>
 8    1  0.1104109E+005  0.1043930E+01  0.7957747E-01            NaN
         13   -1    0    0    0    0  0.00000000000E+00  0.00000000000E+00  0.74505805969E-08  0.10566000000E+00  0.10566000000E+00 0. -1.
     999900   -1    0    0    0    0 -0.00000000000E+00 -0.00000000000E+00 -0.74505805969E-08  0.93827000000E+00  0.93827000000E+00 0. -1.
     999902    2    1    2    0    0 -0.11065868251E-01  0.23221158449E-01 -0.61403553263E-02  0.10174842139E+01  0.10171404750E+01 0.  0.
     999903    2    3    3    0    0 -0.15996650884E-01  0.12809808145E+00 -0.11072789677E-01  0.13122927849E+00  0.20820796149E-01 0.  0.
         14    1    1    2    0    0  0.11065868251E-01 -0.23221158449E-01  0.61403553263E-02  0.26445786118E-01  0.00000000000E+00 0. -1.
     999901    1    3    3    0    0  0.49307826324E-02 -0.10487692300E+00  0.49324343508E-02  0.88625493539E+00  0.88000000000E+00 0. -1.
        -11    1    4    4    0    0 -0.18081393358E-02  0.78077556373E-01 -0.16144775809E-03  0.78100328830E-01  0.51100000000E-03 0.  1.
         11    1    4    4    0    0 -0.14188511548E-01  0.50020525074E-01 -0.10911341919E-01  0.53128949661E-01  0.51100000000E-03 0. -1.
</event>
<event>
 8    1  0.1104109E+005  0.1043930E+01  0.7957747E-01            NaN
         13   -1    0    0    0    0  0.00000000000E+00  0.00000000000E+00  0.74505805969E-08  0.10566000000E+00  0.10566000000E+00 0.  1.
     999900   -1    0    0    0    0 -0.00000000000E+00 -0.00000000000E+00 -0.74505805969E-08  0.93827000000E+00  0.93827000000E+00 0. -1.
     999902    2    1    2    0    0  0.20429694970E-01 -0.64808937260E-02 -0.91765317723E-02  0.10206151302E+01  0.10203487937E+01 0.  0.
     999903    2    3    3    0    0 -0.50419132809E-01  0.11099362229E+00  0.36306218793E-01  0.12882563768E+00  0.20401721955E-01 0.  0.
         14    1    1    2    0    0 -0.20429694970E-01  0.64808937260E-02  0.91765317723E-02  0.23314869835E-01  0.00000000000E+00 0.  1.
     999901    1    3    3    0    0  0.70848827780E-01 -0.11747451601E+00 -0.45482750566E-01  0.89178949249E+00  0.88000000000E+00 0. -1.
        -11    1    4    4    0    0 -0.21901799198E-01  0.36603079775E-01  0.39703363305E-02  0.42842723405E-01  0.51100000000E-03 0. -1.
         11    1    4    4    0    0 -0.28517333611E-01  0.74390542511E-01  0.32335882463E-01  0.85982914274E-01  0.51100000000E-03 0.  1.
</event>
<event>
 8    1  0.1104109E+005  0.1043930E+01  0.7957747E-01            NaN
         13   -1    0    0    0    0  0.00000000000E+00  0.00000000000E+00  0.74505805969E-08  0.10566000000E+00  0.10566000000E+00 0. -1.
     999900   -1    0    0    0    0 -0.00000000000E+00 -0.00000000000E+00 -0.74505805969E-08  0.93827000000E+00  0.93827000000E+00 0.  1.
     999902    2    1    2    0    0 -0.63474708275E-02 -0.20808634087E-01  0.10245313259E-01  0.10198830442E+01  0.10195995134E+01 0.  0.
     999903    2    3    3    0    0 -0.53376893196E-01  0.37746491735E-01  0.11150524365E+00  0.13089820586E+00  0.20664718006E-01 0.  0.
         14    1    1    2    0    0  0.63474708275E-02  0.20808634087E-01 -0.10245313259E-01  0.24046955780E-01  0.00000000000E+00 0.  1.
     999901    1    3    3    0    0  0.47029422368E-01 -0.58555125822E-01 -0.10125993039E+00  0.88898483836E+00  0.88000000000E+00 0.  1.
        -11    1    4    4    0    0 -0.24011796893E-01  0.87979752171E-02  0.29050121453E-01  0.38705832059E-01  0.51100000000E-03 0.  1.
         11    1    4    4    0    0 -0.29365096303E-01  0.28948516518E-01  0.82455122199E-01  0.92192373803E-01  0.51100000000E-03 0. -1.
</event>
<event>
 8    1  0.1104109E+005  0.1043930E+01  0.7957747E-01            NaN
         13   -1    0    0    0    0  0.00000000000E+00  0.00000000000E+00  0.74505805969E-08  0.10566000000E+00  0.10566000000E+00 0. -1.
     999900   -1    0    0    0    0 -0.00000000000E+00 -0.00000000000E+00 -0.74505805969E-08  0.93827000000E+00  0.93827000000E+00 0. -1.
     999902    2    1    2    0    0  0.59706341654E-02  0.84186405441E-02 -0.20262226349E-01  0.10211906113E+01  0.10209374050E+01 0.  0.
     999903    2    3    3    0    0 -0.11111331160E+00 -0.30951159882E-02  0.63031245432E-01  0.12946250288E+00  0.20781096974E-01 0.  0.
         14    1    1    2    0    0 -0.59706341654E-02 -0.84186405441E-02  0.20262226349E-01  0.22739388681E-01  0.00000000000E+00 0. -1.
     999901    1    3    3    0    0  0.11708394577E+00  0.11513756532E-01 -0.83293471782E-01  0.89172810844E+00  0.88000000000E+00 0. -1.
        -11    1    4    4    0    0 -0.29267358317E-01 -0.24656315355E-03  0.27589741899E-01  0.40225539590E-01  0.51100000000E-03 0.  1.
         11    1    4    4    0    0 -0.81845953287E-01 -0.28485528346E-02  0.35441503533E-01  0.89236963286E-01  0.51100000000E-03 0. -1.
</event>
<event>
 8    1  0.1104109E+005  0.1043930E+01  0.7957747E-01            NaN
         13   -1    0    0    0    0  0.00000000000E+00  0.00000000000E+00  0.74505805969E-08  0.10566000000E+00  0.10566000000E+00 0.  1.
     999900   -1    0    0    0    0 -0.00000000000E+00 -0.00000000000E+00 -0.74505805969E-08  0.93827000000E+00  0.93827000000E+00 0. -1.
     999902    2    1    2    0    0 -0.60328567883E-02 -0.89167662993E-02 -0.20604881948E-01  0.10206820917E+01  0.10204173004E+01 0.  0.
     999903    2    3    3    0    0  0.57686514252E-01  0.87409737960E-01  0.71459789315E-01  0.12837336853E+00  0.20125209130E-01 0.  0.
         14    1    1    2    0    0  0.60328567883E-02  0.89167662993E-02  0.20604881948E-01  0.23247908344E-01  0.00000000000E+00 0.  1.
     999901    1    3    3    0    0 -0.63719371041E-01 -0.96326504259E-01 -0.92064671263E-01  0.89230872312E+00  0.88000000000E+00 0. -1.
        -11    1    4    4    0    0  0.47837738351E-01  0.77273912896E-01  0.53314229043E-01  0.10536780801E+00  0.51100000000E-03 0. -1.
         11    1    4    4    0    0  0.98487759018E-02  0.10135825064E-01  0.18145560272E-01  0.23005560525E-01  0.51100000000E-03 0.  1.
</event>
<event>
 8    1  0.1104109E+005  0.1043930E+01  0.7957747E-01            NaN
         13   -1    0    0    0    0  0.00000000000E+00  0.00000000000E+00  0.74505805969E-08  0.10566000000E+00  0.10566000000E+00 0.  1.
     999900   -1    0    0    0    0 -0.00000000000E+00 -0.00000000000E+00 -0.74505805969E-08  0.93827000000E+00  0.93827000000E+00 0. -1.
     999902    2    1    2    0    0  0.92729060731E-02  0.11570140920E-01 -0.18295152208E-01  0.10203807422E+01  0.10201089606E+01 0.  0.
     999903    2    3    3    0    0 -0.79611168348E-01 -0.43499641599E-01  0.87242190081E-01  0.12792839601E+00  0.22897987464E-01 0.  0.
         14    1    1    2    0    0 -0.92729060731E-02 -0.11570140920E-01  0.18295152208E-01  0.23549257786E-01  0.00000000000E+00 0.  1.
     999901    1    3    3    0    0  0.88884074421E-01  0.55069782519E-01 -0.10553734229E+00  0.89245234621E+00  0.88000000000E+00 0. -1.
        -11    1    4    4    0    0 -0.61246716860E-01 -0.41306917317E-01  0.60921881716E-01  0.95755723261E-01  0.51100000000E-03 0. -1.
         11    1    4    4    0    0 -0.18364451487E-01 -0.21927242824E-02  0.26320308365E-01  0.32172672746E-01  0.51100000000E-03 0.  1.
</event>
<event>
 8    1  0.1104109E+005  0.1043930E+01  0.7957747E-01            NaN
         13   -1    0    0    0    0  0.00000000000E+00  0.00000000000E+00  0.74505805969E-08  0.10566000000E+00  0.10566000000E+00 0.  1.
     999900   -1    0    0    0    0 -0.00000000000E+00 -0.00000000000E+00 -0.74505805969E-08  0.93827000000E+00  0.93827000000E+00 0.  1.
     999902    2    1    2    0    0  0.26277605706E-01 -0.12068127816E-01 -0.11165019761E-01  0.10129330657E+01  0.10124586834E+01 0.  0.
     999903    2    3    3    0    0  0.22142505235E-01 -0.84963983336E-01  0.86160609016E-01  0.12456198172E+00  0.19567006461E-01 0.  0.
         14    1    1    2    0    0 -0.26277605706E-01  0.12068127816E-01  0.11165019761E-01  0.30996934314E-01  0.00000000000E+00 0.  1.
     999901    1    3    3    0    0  0.41351004710E-02  0.72895855521E-01 -0.97325628777E-01  0.88837108396E+00  0.88000000000E+00 0.  1.
        -11    1    4    4    0    0  0.25111176777E-01 -0.73987390544E-01  0.70772357936E-01  0.10542150126E+00  0.51100000000E-03 0.  1.
         11    1    4    4    0    0 -0.29686715427E-02 -0.10976592792E-01  0.15388251080E-01  0.19140480463E-01  0.51100000000E-03 0. -1.
</event>
<event>
 8    1  0.1104109E+005  0.1043930E+01  0.7957747E-01            NaN
         13   -1    0    0    0    0  0.00000000000E+00  0.00000000000E+00  0.74505805969E-08  0.10566000000E+00  0.10566000000E+00 0.  1.
     999900   -1    0    0    0    0 -0.00000000000E+00 -0.00000000000E+00 -0.74505805969E-08  0.93827000000E+00  0.93827000000E+00 0.  1.
     999902    2    1    2    0    0 -0.19226058659E-01 -0.12375691715E-01  0.58308888061E-02  0.10203334252E+01  0.10200605376E+01 0.  0.
     999903    2    3    3    0    0 -0.11788929528E+00 -0.19983084734E-01  0.55554631549E-01  0.13339218857E+00  0.20247203928E-01 0.  0.
         14    1    1    2    0    0  0.19226058659E-01  0.12375691715E-01 -0.58308888061E-02  0.23596574778E-01  0.00000000000E+00 0. -1.
     999901    1    3    3    0    0  0.98663236621E-01  0.76073930186E-02 -0.49723742743E-01  0.88694123666E+00  0.88000000000E+00 0.  1.
        -11    1    4    4    0    0 -0.56783601661E-01 -0.11294281529E-01  0.15946134656E-01  0.60053963602E-01  0.51100000000E-03 0. -1.
         11    1    4    4    0    0 -0.61105693618E-01 -0.86888032052E-02  0.39608496893E-01  0.73338224964E-01  0.51100000000E-03 0.  1.
</event>
<event>
 7    1  0.1104109E+005  0.1043930E+01  0.7957747E-01            NaN
         13   -1    0    0    0    0  0.00000000000E+00  0.00000000000E+00  0.74505805969E-08  0.10566000000E+00  0.10566000000E+00 0.  1.
     999900   -1    0    0    0    0 -0.00000000000E+00 -0.00000000000E+00 -0.74505805969E-08  0.93827000000E+00  0.93827000000E+00 0. -1.
     999902    2    1    2    0    0  0.22104405528E-02 -0.22146743159E-01  0.13903247164E-01  0.10176875809E+01  0.10173491769E+01 0.  0.
         14    1    1    2    0    0 -0.22104405528E-02  0.22146743159E-01 -0.13903247164E-01  0.26242419128E-01  0.00000000000E+00 0. -1.
     999901    1    3    3    0    0  0.53668121563E-01  0.48515376456E-01  0.95485825989E-01  0.88811685717E+00  0.88000000000E+00 0.  1.
        -11    1    3    3    0    0 -0.37214348328E-01 -0.25201600216E-01 -0.65197251028E-01  0.79189462920E-01  0.51100000000E-03 0.  1.
         11    1    3    3    0    0 -0.14243332682E-01 -0.45460519400E-01 -0.16385327797E-01  0.50381260782E-01  0.51100000000E-03 0. -1.
</event>
<event>
 8    1  0.1104109E+005  0.1043930E+01  0.7957747E-01            NaN
         13   -1    0    0    0    0  0.00000000000E+00  0.00000000000E+00  0.74505805969E-08  0.10566000000E+00  0.10566000000E+00 0. -1.
     999900   -1    0    0    0    0 -0.00000000000E+00 -0.00000000000E+00 -0.74505805969E-08  0.93827000000E+00  0.93827000000E+00 0.  1.
     999902    2    1    2    0    0  0.18728022037E-01  0.11799385664E-01 -0.70425271879E-02  0.10207015368E+01  0.10204371935E+01 0.  0.
     999903    2    3    3    0    0 -0.12265318583E+00  0.23596889452E-01  0.23528434336E-01  0.12881454247E+00  0.20951895941E-01 0.  0.
         14    1    1    2    0    0 -0.18728022037E-01 -0.11799385664E-01  0.70425271879E-02  0.23228463158E-01  0.00000000000E+00 0. -1.
     999901    1    3    3    0    0  0.14138120787E+00 -0.11797503788E-01 -0.30570961524E-01  0.89188699437E+00  0.88000000000E+00 0. -1.
        -11    1    4    4    0    0 -0.13485397396E-01  0.27795787818E-02  0.96359401256E-02  0.16813520281E-01  0.51100000000E-03 0.  1.
         11    1    4    4    0    0 -0.10916778844E+00  0.20817310670E-01  0.13892494210E-01  0.11200102219E+00  0.51100000000E-03 0. -1.
</event>
<event>
 8    1  0.1104109E+005  0.1043930E+01  0.7957747E-01            NaN
         13   -1    0    0    0    0  0.00000000000E+00  0.00000000000E+00  0.74505805969E-08  0.10566000000E+00  0.10566000000E+00 0.  1.
     999900   -1    0    0    0    0 -0.00000000000E+00 -0.00000000000E+00 -0.74505805969E-08  0.93827000000E+00  0.93827000000E+00 0.  1.
     999902    2    1    2    0    0  0.92483527781E-02  0.13504978334E-01  0.16511540444E-01  0.10206803239E+01  0.10204154920E+01 0.  0.
     999903    2    3    3    0    0  0.25884979542E-01  0.10711596953E+00 -0.68892935482E-01  0.13144822852E+00  0.19711345149E-01 0.  0.
         14    1    1    2    0    0 -0.92483527781E-02 -0.13504978334E-01 -0.16511540444E-01  0.23249676057E-01  0.00000000000E+00 0. -1.
     999901    1    3    3    0    0 -0.16636626764E-01 -0.93610991195E-01  0.85404475925E-01  0.88923209542E+00  0.88000000000E+00 0. -1.
        -11    1    4    4    0    0  0.35005471502E-02  0.27175276401E-01 -0.81801232743E-02  0.28599388378E-01  0.51100000000E-03 0. -1.
         11    1    4    4    0    0  0.22384432392E-01  0.79940693128E-01 -0.60712812207E-01  0.10284884014E+00  0.51100000000E-03 0.  1.
</event>
<event>
 8    1  0.1104109E+005  0.1043930E+01  0.7957747E-01            NaN
         13   -1    0    0    0    0  0.00000000000E+00  0.00000000000E+00  0.74505805969E-08  0.10566000000E+00  0.10566000000E+00 0.  1.
     999900   -1    0    0    0    0 -0.00000000000E+00 -0.00000000000E+00 -0.74505805969E-08  0.93827000000E+00  0.93827000000E+00 0. -1.
     999902    2    1    2    0    0 -0.60171360680E-02 -0.30897597092E-01  0.12507016301E-01  0.10100582878E+01  0.10094901940E+01 0.  0.
     999903    2    3    3    0    0 -0.13798004985E-01 -0.89223655450E-02  0.11972483890E+00  0.12324426318E+00  0.24189208553E-01 0.  0.
         14    1    1    2    0    0  0.60171360680E-02  0.30897597092E-01 -0.12507016301E-01  0.33871712228E-01  0.00000000000E+00 0.  1.
     999901    1    3    3    0    0  0.77808689166E-02 -0.21975231547E-01 -0.10721782260E+00  0.88681402459E+00  0.88000000000E+00 0. -1.
        -11    1    4    4    0    0 -0.28124434302E-02  0.51271198133E-02  0.72891192908E-01  0.73127179080E-01  0.51100000000E-03 0.  1.
         11    1    4    4    0    0 -0.10985561554E-01 -0.14049485358E-01  0.46833645989E-01  0.50117084104E-01  0.51100000000E-03 0. -1.
</event>
<event>
 8    1  0.1104109E+005  0.1043930E+01  0.7957747E-01            NaN
         13   -1    0    0    0    0  0.00000000000E+00  0.00000000000E+00  0.74505805969E-08  0.10566000000E+00  0.10566000000E+00 0.  1.
     999900   -1    0    0    0    0 -0.00000000000E+00 -0.00000000000E+00 -0.74505805969E-08  0.93827000000E+00  0.93827000000E+00 0. -1.
     999902    2    1    2    0    0 -0.59443189069E-02  0.17236819903E-01  0.15183791797E-01  0.10202025808E+01  0.10199266226E+01 0.  0.
     999903    2    3    3    0    0  0.11517501751E+00 -0.13423027100E-01 -0.52576814923E-01  0.12879839657E+00  0.19474166889E-01 0.  0.
         14    1    1    2    0    0  0.59443189069E-02 -0.17236819903E-01 -0.15183791797E-01  0.23727419180E-01  0.00000000000E+00 0. -1.
     999901    1    3    3    0    0 -0.12111933642E+00  0.30659847003E-01  0.67760606720E-01  0.89140418425E+00  0.88000000000E+00 0.  1.
        -11    1    4    4    0    0  0.42314246665E-01 -0.27178523897E-02 -0.94140422017E-02  0.43436937093E-01  0.51100000000E-03 0. -1.
         11    1    4    4    0    0  0.72860770848E-01 -0.10705174711E-01 -0.43162772721E-01  0.85361459478E-01  0.51100000000E-03 0.  1.
</event>
<event>
 8    1  0.1104109E+005  0.1043930E+01  0.7957747E-01            NaN
         13   -1    0    0    0    0  0.00000000000E+00  0.00000000000E+00  0.74505805969E-08  0.10566000000E+00  0.10566000000E+00 0. -1.
     999900   -1    0    0    0    0 -0.00000000000E+00 -0.00000000000E+00 -0.74505805969E-08  0.93827000000E+00  0.93827000000E+00 0.  1.
     999902    2    1    2    0    0 -0.20035908473E-01  0.95245223741E-02  0.97977409415E-02  0.10196781984E+01  0.10193897578E+01 0.  0.
     999903    2    3    3    0    0 -0.26104514254E-01  0.62504134553E-01  0.11180371887E+00  0.13218234665E+00  0.19593078184E-01 0.  0.
         14    1    1    2    0    0  0.20035908473E-01 -0.95245223741E-02 -0.97977409415E-02  0.24251801631E-01  0.00000000000E+00 0. -1.
     999901    1    3    3    0    0  0.60686057805E-02 -0.52979612179E-01 -0.10200597793E+00  0.88749585172E+00  0.88000000000E+00 0.  1.
        -11    1    4    4    0    0 -0.81578453605E-02  0.83699138661E-02  0.32171512717E-01  0.34232634292E-01  0.51100000000E-03 0. -1.
         11    1    4    4    0    0 -0.17946668893E-01  0.54134220687E-01  0.79632206152E-01  0.97949712360E-01  0.51100000000E-03 0.  1.
</event>
<event>
 8    1  0.1104109E+005  0.1043930E+01  0.7957747E-01            NaN
         13   -1    0    0    0    0  0.00000000000E+00  0.00000000000E+00  0.74505805969E-08  0.10566000000E+00  0.10566000000E+00 0.  1.
     999900   -1    0    0    0    0 -0.00000000000E+00 -0.00000000000E+00 -0.74505805969E-08  0.93827000000E+00  0.93827000000E+00 0. -1.
     999902    2    1    2    0    0  0.14034169250E-01  0.96965437553E-03  0.18920775068E-01  0.10203525984E+01  0.10200801592E+01 0.  0.
     999903    2    3    3    0    0 -0.50221358816E-01 -0.13130228618E-01  0.11895090084E+00  0.13224584490E+00  0.25398009705E-01 0.  0.
         14    1    1    2    0    0 -0.14034169250E-01 -0.96965437553E-03 -0.18920775068E-01  0.23577401581E-01  0.00000000000E+00 0. -1.
     999901    1    3    3    0    0  0.64255528066E-01  0.14099882994E-01 -0.10003012577E+00  0.88810675352E+00  0.88000000000E+00 0. -1.
        -11    1    4    4    0    0 -0.15760149791E-01 -0.92855571600E-02  0.69353615240E-01  0.71727184255E-01  0.51100000000E-03 0.  1.
         11    1    4    4    0    0 -0.34461209025E-01 -0.38446714581E-02  0.49597285601E-01  0.60518660643E-01  0.51100000000E-03 0. -1.
</event>
<event>
 8    1  0.1104109E+005  0.1043930E+01  0.7957747E-01            NaN
         13   -1    0    0    0    0  0.00000000000E+00  0.00000000000E+00  0.74505805969E-08  0.10566000000E+00  0.10566000000E+00 0.  1.
     999900   -1    0    0    0    0 -0.00000000000E+00 -0.00000000000E+00 -0.74505805969E-08  0.93827000000E+00  0.93827000000E+00 0. -1.
     999902    2    1    2    0    0  0.14894934668E-01 -0.16709142057E-01 -0.88162136467E-02  0.10198721503E+01  0.10195883595E+01 0.  0.
     999903    2    3    3    0    0 -0.77995725135E-01  0.98162081650E-01 -0.12081702324E-01  0.12755228834E+00  0.20111969465E-01 0.  0.
         14    1    1    2    0    0 -0.14894934668E-01  0.16709142057E-01  0.88162136467E-02  0.24057849657E-01  0.00000000000E+00 0.  1.
     999901    1    3    3    0    0  0.92890659803E-01 -0.11487122371E+00  0.32654886770E-02  0.89231986201E+00  0.88000000000E+00 0. -1.
        -11    1    4    4    0    0 -0.62731442215E-01  0.64653145277E-01 -0.66895833050E-02  0.90334238705E-01  0.51100000000E-03 0. -1.
         11    1    4    4    0    0 -0.15264282920E-01  0.33508936373E-01 -0.53921190187E-02  0.37218049632E-01  0.51100000000E-03 0.  1.
</event>
<event>
 8    1  0.1104109E+005  0.1043930E+01  0.7957747E-01            NaN
         13   -1    0    0    0    0  0.00000000000E+00  0.00000000000E+00  0.74505805969E-08  0.10566000000E+00  0.10566000000E+00 0.  1.
     999900   -1    0    0    0    0 -0.00000000000E+00 -0.00000000000E+00 -0.74505805969E-08  0.93827000000E+00  0.93827000000E+00 0. -1.
     999902    2    1    2    0    0  0.97661603418E-02  0.21347523735E-01  0.44484530784E-02  0.10200368338E+01  0.10197569607E+01 0.  0.
     999903    2    3    3    0    0  0.10072980309E+00  0.67531327471E-01 -0.49940537331E-01  0.13247529207E+00  0.18672769470E-01 0.  0.
         14    1    1    2    0    0 -0.97661603418E-02 -0.21347523735E-01 -0.44484530784E-02  0.23893166224E-01  0.00000000000E+00 0.  1.
     999901    1    3    3    0    0 -0.90963642753E-01 -0.46183803736E-01  0.54388990410E-01  0.88756154170E+00  0.88000000000E+00 0. -1.
        -11    1    4    4    0    0  0.64699759769E-01  0.47938301521E-01 -0.24333352031E-01  0.84122011441E-01  0.51100000000E-03 0.  1.
         11    1    4    4    0    0  0.36030043325E-01  0.19593025950E-01 -0.25607185300E-01  0.48353280632E-01  0.51100000000E-03 0. -1.
</event>
<event>
 8    1  0.1104109E+005  0.1043930E+01  0.7957747E-01            NaN
         13   -1    0    0    0    0  0.00000000000E+00  0.00000000000E+00  0.74505805969E-08  0.10566000000E+00  0.10566000000E+00 0. -1.
     999900   -1    0    0    0    0 -0.00000000000E+00 -0.00000000000E+00 -0.74505805969E-08  0.93827000000E+00  0.93827000000E+00 0. -1.
     999902    2    1    2    0    0 -0.22222262731E-01  0.57724637027E-03  0.13193202882E-02  0.10216611253E+01  0.10214184021E+01 0.  0.
     999903    2    3    3    0    0 -0.11303449773E+00 -0.67653461018E-01  0.16388229395E-01  0.13423261355E+00  0.19900553071E-01 0.  0.
         14    1    1    2    0    0  0.22222262731E-01 -0.57724637027E-03 -0.13193202882E-02  0.22268874697E-01  0.00000000000E+00 0.  1.
     999901    1    3    3    0    0  0.90812234997E-01  0.68230707388E-01 -0.15068909107E-01  0.88742851176E+00  0.88000000000E+00 0.  1.
        -11    1    4    4    0    0 -0.67734343828E-01 -0.38278461299E-01 -0.11365195279E-04  0.77803876404E-01  0.51100000000E-03 0. -1.
         11    1    4    4    0    0 -0.45300153899E-01 -0.29374999719E-01  0.16399594591E-01  0.56428737143E-01  0.51100000000E-03 0.  1.
</event>
<event>
 8    1  0.1104109E+005  0.1043930E+01  0.7957747E-01            NaN
         13   -1    0    0    0    0  0.00000000000E+00  0.00000000000E+00  0.74505805969E-08  0.10566000000E+00  0.10566000000E+00 0.  1.
     999900   -1    0    0    0    0 -0.00000000000E+00 -0.00000000000E+00 -0.74505805969E-08  0.93827000000E+00  0.93827000000E+00 0. -1.
     999902    2    1    2    0    0  0.14001747625E-02  0.44734658266E-02 -0.23339923937E-01  0.10201240252E+01  0.10198462151E+01 0.  0.
     999903    2    3    3    0    0  0.20434993346E-01 -0.34231731607E-01  0.11946374550E+00  0.12756965453E+00  0.20323136234E-01 0.  0.
         14    1    1    2    0    0 -0.14001747625E-02 -0.44734658266E-02  0.23339923937E-01  0.23805974781E-01  0.00000000000E+00 0.  1.
     999901    1    3    3    0    0 -0.19034818584E-01  0.38705197433E-01 -0.14280366944E+00  0.89255437069E+00  0.88000000000E+00 0. -1.
        -11    1    4    4    0    0  0.15536969766E-01 -0.15127366293E-01  0.38038449435E-01  0.43788347730E-01  0.51100000000E-03 0. -1.
         11    1    4    4    0    0  0.48980235800E-02 -0.19104365313E-01  0.81425296067E-01  0.83781306803E-01  0.51100000000E-03 0.  1.
</event>
<event>
 8    1  0.1104109E+005  0.1043930E+01  0.7957747E-01            NaN
         13   -1    0    0    0    0  0.00000000000E+00  0.00000000000E+00  0.74505805969E-08  0.10566000000E+00  0.10566000000E+00 0.  1.
     999900   -1    0    0    0    0 -0.00000000000E+00 -0.00000000000E+00 -0.74505805969E-08  0.93827000000E+00  0.93827000000E+00 0.  1.
     999902    2    1    2    0    0  0.23225911021E-02 -0.22176240341E-01  0.75351458096E-02  0.10203936773E+01  0.10201221976E+01 0.  0.
     999903    2    3    3    0    0  0.77418545765E-01  0.10085988665E+00  0.14442436557E-02  0.12864573641E+00  0.19526691822E-01 0.  0.
         14    1    1    2    0    0 -0.23225911021E-02  0.22176240341E-01 -0.75351458096E-02  0.23536322726E-01  0.00000000000E+00 0. -1.
     999901    1    3    3    0    0 -0.75095954663E-01 -0.12303612699E+00  0.60909021538E-02  0.89174794087E+00  0.88000000000E+00 0. -1.
        -11    1    4    4    0    0  0.19666444020E-01  0.27940286757E-01  0.89460895135E-02  0.35323112590E-01  0.51100000000E-03 0.  1.
         11    1    4    4    0    0  0.57752101745E-01  0.72919599889E-01 -0.75018458578E-02  0.93322623818E-01  0.51100000000E-03 0. -1.
</event>
<event>
 8    1  0.1104109E+005  0.1043930E+01  0.7957747E-01            NaN
         13   -1    0    0    0    0  0.00000000000E+00  0.00000000000E+00  0.74505805969E-08  0.10566000000E+00  0.10566000000E+00 0.  1.
     999900   -1    0    0    0    0 -0.00000000000E+00 -0.00000000000E+00 -0.74505805969E-08  0.93827000000E+00  0.93827000000E+00 0. -1.
     999902    2    1    2    0    0  0.20316514515E-01 -0.52394485440E-02 -0.99667131812E-02  0.10207018284E+01  0.10204374918E+01 0.  0.
     999903    2    3    3    0    0  0.67816440357E-01 -0.34846657736E-01 -0.10783055125E+00  0.13350953777E+00  0.19596166844E-01 0.  0.
         14    1    1    2    0    0 -0.20316514515E-01  0.52394485440E-02  0.99667131812E-02  0.23228171575E-01  0.00000000000E+00 0. -1.
     999901    1    3    3    0    0 -0.47499925842E-01  0.29607209192E-01  0.97863838071E-01  0.88719229065E+00  0.88000000000E+00 0.  1.
        -11    1    4    4    0    0  0.64310283439E-02  0.92749120236E-03 -0.16891650329E-01  0.18105450487E-01  0.51100000000E-03 0. -1.
         11    1    4    4    0    0  0.61385412013E-01 -0.35774148938E-01 -0.90938900922E-01  0.11540408729E+00  0.51100000000E-03 0.  1.
</event>
<event>
 8    1  0.1104109E+005  0.1043930E+01  0.7957747E-01            NaN
         13   -1    0    0    0    0  0.00000000000E+00  0.00000000000E+00  0.74505805969E-08  0.10566000000E+00  0.10566000000E+00 0. -1.
     999900   -1    0    0    0    0 -0.00000000000E+00 -0.00000000000E+00 -0.74505805969E-08  0.93827000000E+00  0.93827000000E+00 0. -1.
     999902    2    1    2    0    0 -0.20077794983E-01 -0.56596287349E-03  0.13314085204E-01  0.10198322194E+01  0.10195474745E+01 0.  0.
     999903    2    3    3    0    0 -0.56472804815E-01 -0.11554368921E+00 -0.15972845043E-01  0.13112405662E+00  0.19971595967E-01 0.  0.
         14    1    1    2    0    0  0.20077794983E-01  0.56596287349E-03 -0.13314085204E-01  0.24097780607E-01  0.00000000000E+00 0.  1.
     999901    1    3    3    0    0  0.36395009832E-01  0.11497772634E+00  0.29286930247E-01  0.88870816277E+00  0.88000000000E+00 0. -1.
        -11    1    4    4    0    0 -0.50641242920E-01 -0.84304276348E-01 -0.11132651986E-01  0.98974459111E-01  0.51100000000E-03 0. -1.
         11    1    4    4    0    0 -0.58315618956E-02 -0.31239412864E-01 -0.48401930568E-02  0.32149597510E-01  0.51100000000E-03 0.  1.
</event>
<event>
 8    1  0.1104109E+005  0.1043930E+01  0.7957747E-01            NaN
         13   -1    0    0    0    0  0.00000000000E+00  0.00000000000E+00  0.74505805969E-08  0.10566000000E+00  0.10566000000E+00 0.  1.
     999900   -1    0    0    0    0 -0.00000000000E+00 -0.00000000000E+00 -0.74505805969E-08  0.93827000000E+00  0.93827000000E+00 0.  1.
     999902    2    1    2    0    0  0.54584975084E-03 -0.18491732061E-01 -0.14804136338E-01  0.10202360227E+01  0.10199608510E+01 0.  0.
     999903    2    3    3    0    0  0.10297092534E+00 -0.14545505129E-01 -0.78366758293E-01  0.13200931983E+00  0.21691669677E-01 0.  0.
         14    1    1    2    0    0 -0.54584975084E-03  0.18491732061E-01  0.14804136338E-01  0.23693977278E-01  0.00000000000E+00 0.  1.
     999901    1    3    3    0    0 -0.10242507559E+00 -0.39462269311E-02  0.63562621955E-01  0.88822670289E+00  0.88000000000E+00 0. -1.
        -11    1    4    4    0    0  0.22701628722E-01 -0.12430008167E-01 -0.20785579355E-01  0.33198952992E-01  0.51100000000E-03 0. -1.
         11    1    4    4    0    0  0.80269296614E-01 -0.21154969628E-02 -0.57581178937E-01  0.98810366841E-01  0.51100000000E-03 0.  1.
</event>
<event>
 8    1  0.1104109E+005  0.1043930E+01  0.7957747E-01            NaN
         13   -1    0    0    0    0  0.00000000000E+00  0.00000000000E+00  0.74505805969E-08  0.10566000000E+00  0.10566000000E+00 0. -1.
     999900   -1    0    0    0    0 -0.00000000000E+00 -0.00000000000E+00 -0.74505805969E-08  0.93827000000E+00  0.93827000000E+00 0. -1.
     999902    2    1    2    0    0  0.21811378991E-01  0.68831522608E-02 -0.66088852754E-02  0.10201226187E+01  0.10198447754E+01 0.  0.
     999903    2    3    3    0    0  0.69021625691E-01 -0.37055682280E-01  0.10273212242E+00  0.13101357899E+00  0.21761445307E-01 0.  0.
         14    1    1    2    0    0 -0.21811378991E-01 -0.68831522608E-02  0.66088852754E-02  0.23807381274E-01  0.00000000000E+00 0.  1.
     999901    1    3    3    0    0 -0.47210246699E-01  0.43938834541E-01 -0.10934100769E+00  0.88910903973E+00  0.88000000000E+00 0. -1.
        -11    1    4    4    0    0  0.29604603131E-01 -0.50815678933E-02  0.31298874277E-01  0.43383585731E-01  0.51100000000E-03 0. -1.
         11    1    4    4    0    0  0.39417022559E-01 -0.31974114387E-01  0.71433248138E-01  0.87629993261E-01  0.51100000000E-03 0.  1.
</event>
<event>
 8    1  0.1104109E+005  0.1043930E+01  0.7957747E-01            NaN
         13   -1    0    0    0    0  0.00000000000E+00  0.00000000000E+00  0.74505805969E-08  0.10566000000E+00  0.10566000000E+00 0.  1.
     999900   -1    0    0    0    0 -0.00000000000E+00 -0.00000000000E+00 -0.74505805969E-08  0.93827000000E+00  0.93827000000E+00 0. -1.
     999902    2    1    2    0    0 -0.15378536974E-01  0.15674248802E-01 -0.88680785757E-02  0.10202482709E+01  0.10199733869E+01 0.  0.
     999903    2    3    3    0    0  0.43513423374E-02 -0.43927726456E-02  0.12756164179E+00  0.12929090825E+00  0.20147850163E-01 0.  0.
         14    1    1    2    0    0  0.15378536974E-01 -0.15674248802E-01  0.88680785757E-02  0.23681729088E-01  0.00000000000E+00 0. -1.
     999901    1    3    3    0    0 -0.19729879312E-01  0.20067021447E-01 -0.13642972037E+00  0.89095736267E+00  0.88000000000E+00 0. -1.
        -11    1    4    4    0    0  0.98798423430E-02  0.25724865353E-04  0.10852257555E+00  0.10897257670E+00  0.51100000000E-03 0. -1.
         11    1    4    4    0    0 -0.55285000056E-02 -0.44184975109E-02  0.19039066240E-01  0.20318331547E-01  0.51100000000E-03 0.  1.
</event>
<event>
 8    1  0.1104109E+005  0.1043930E+01  0.7957747E-01            NaN
         13   -1    0    0    0    0  0.00000000000E+00  0.00000000000E+00  0.74505805969E-08  0.10566000000E+00  0.10566000000E+00 0. -1.
     999900   -1    0    0    0    0 -0.00000000000E+00 -0.00000000000E+00 -0.74505805969E-08  0.93827000000E+00  0.93827000000E+00 0. -1.
     999902    2    1    2    0    0 -0.12532927317E-01  0.18596680776E-01 -0.73425734794E-02  0.10203328775E+01  0.10200599771E+01 0.  0.
     999903    2    3    3    0    0  0.10566984134E+00 -0.21863844986E-01  0.66474954460E-01  0.12844836927E+00  0.20878719099E-01 0.  0.
         14    1    1    2    0    0  0.12532927317E-01 -0.18596680776E-01  0.73425734794E-02  0.23597122458E-01  0.00000000000E+00 0. -1.
     999901    1    3    3    0    0 -0.11820276866E+00  0.40460525762E-01 -0.73817527939E-01  0.89188450827E+00  0.88000000000E+00 0. -1.
        -11    1    4    4    0    0  0.50668241220E-01 -0.17877345806E-01  0.24045981159E-01  0.58867142723E-01  0.51100000000E-03 0.  1.
         11    1    4    4    0    0  0.55001600121E-01 -0.39864991803E-02  0.42428973301E-01  0.69581226548E-01  0.51100000000E-03 0. -1.
</event>
<event>
 8    1  0.1104109E+005  0.1043930E+01  0.7957747E-01            NaN
         13   -1    0    0    0    0  0.00000000000E+00  0.00000000000E+00  0.74505805969E-08  0.10566000000E+00  0.10566000000E+00 0. -1.
     999900   -1    0    0    0    0 -0.00000000000E+00 -0.00000000000E+00 -0.74505805969E-08  0.93827000000E+00  0.93827000000E+00 0. -1.
     999902    2    1    2    0    0 -0.22298853779E-01 -0.10377933963E-02  0.40569102403E-02  0.10212413593E+01  0.10209892945E+01 0.  0.
     999903    2    3    3    0    0 -0.37622438451E-01  0.12487087197E+00 -0.81610612555E-02  0.13206360258E+00  0.19131379068E-01 0.  0.
         14    1    1    2    0    0  0.22298853779E-01  0.10377933963E-02 -0.40569102403E-02  0.22688640675E-01  0.00000000000E+00 0. -1.
     999901    1    3    3    0    0  0.15323584672E-01 -0.12590866536E+00  0.12217971496E-01  0.88917775674E+00  0.88000000000E+00 0.  1.
        -11    1    4    4    0    0 -0.18940791146E-01  0.76836368357E-01  0.35130349746E-02  0.79216056499E-01  0.51100000000E-03 0.  1.
         11    1    4    4    0    0 -0.18681647305E-01  0.48034503610E-01 -0.11674096230E-01  0.52847546082E-01  0.51100000000E-03 0. -1.
</event>
<event>
 8    1  0.1104109E+005  0.1043930E+01  0.7957747E-01            NaN
         13   -1    0    0    0    0  0.00000000000E+00  0.00000000000E+00  0.74505805969E-08  0.10566000000E+00  0.10566000000E+00 0.  1.
     999900   -1    0    0    0    0 -0.00000000000E+00 -0.00000000000E+00 -0.74505805969E-08  0.93827000000E+00  0.93827000000E+00 0. -1.
     999902    2    1    2    0    0  0.23275563305E-01  0.63485895476E-03 -0.49278214344E-02  0.10201300354E+01  0.10198523671E+01 0.  0.
     999903    2    3    3    0    0 -0.90674526990E-01 -0.66171907662E-01  0.58352752617E-01  0.12802454933E+00  0.19612503266E-01 0.  0.
         14    1    1    2    0    0 -0.23275563305E-01 -0.63485895476E-03  0.49278214344E-02  0.23799964646E-01  0.00000000000E+00 0. -1.
     999901    1    3    3    0    0  0.11395009030E+00  0.66806766617E-01 -0.63280574051E-01  0.89210548603E+00  0.88000000000E+00 0. -1.
        -11    1    4    4    0    0 -0.41166338413E-01 -0.30787021951E-01  0.15849849763E-01  0.53795789774E-01  0.51100000000E-03 0. -1.
         11    1    4    4    0    0 -0.49508188578E-01 -0.35384885711E-01  0.42502902854E-01  0.74228759555E-01  0.51100000000E-03 0.  1.
</event>
<event>
 8    1  0.1104109E+005  0.1043930E+01  0.7957747E-01            NaN
         13   -1    0    0    0    0  0.00000000000E+00  0.00000000000E+00  0.74505805969E-08  0.10566000000E+00  0.10566000000E+00 0. -1.
     999900   -1    0    0    0    0 -0.00000000000E+00 -0.00000000000E+00 -0.74505805969E-08  0.93827000000E+00  0.93827000000E+00 0.  1.
     999902    2    1    2    0    0 -0.54597956572E-02 -0.21133744751E-01  0.97105991538E-02  0.10200398290E+01  0.10197600269E+01 0.  0.
     999903    2    3    3    0    0  0.48858942585E-01  0.76139393411E-01 -0.88130745474E-01  0.12763548259E+00  0.18422394454E-01 0.  0.
         14    1    1    2    0    0  0.54597956572E-02  0.21133744751E-01 -0.97105991538E-02  0.23890171028E-01  0.00000000000E+00 0. -1.
     999901    1    3    3    0    0 -0.54318738242E-01 -0.97273138162E-01  0.97841344628E-01  0.89240434639E+00  0.88000000000E+00 0. -1.
        -11    1    4    4    0    0  0.48799043801E-01  0.70761390654E-01 -0.77618825586E-01  0.11581651130E+00  0.51100000000E-03 0.  1.
         11    1    4    4    0    0  0.59898783460E-04  0.53780027572E-02 -0.10511919888E-01  0.11818971286E-01  0.51100000000E-03 0. -1.
</event>
<event>
 8    1  0.1104109E+005  0.1043930E+01  0.7957747E-01            NaN
         13   -1    0    0    0    0  0.00000000000E+00  0.00000000000E+00  0.74505805969E-08  0.10566000000E+00  0.10566000000E+00 0. -1.
     999900   -1    0    0    0    0 -0.00000000000E+00 -0.00000000000E+00 -0.74505805969E-08  0.93827000000E+00  0.93827000000E+00 0. -1.
     999902    2    1    2    0    0  0.10744883724E-01 -0.44932439633E-02  0.18538591032E-01  0.10220365963E+01  0.10218020763E+01 0.  0.
     999903    2    3    3    0    0 -0.86916066917E-01 -0.78871483594E-01  0.56975840546E-01  0.13268446922E+00  0.24162126441E-01 0.  0.
         14    1    1    2    0    0 -0.10744883724E-01  0.44932439633E-02 -0.18538591032E-01  0.21893403687E-01  0.00000000000E+00 0.  1.
     999901    1    3    3    0    0  0.97660950641E-01  0.74378239631E-01 -0.38437249514E-01  0.88935212709E+00  0.88000000000E+00 0. -1.
        -11    1    4    4    0    0 -0.14622270427E-01 -0.20171615398E-01  0.21891915461E-01  0.33169593663E-01  0.51100000000E-03 0. -1.
         11    1    4    4    0    0 -0.72293796490E-01 -0.58699868196E-01  0.35083925084E-01  0.99514875558E-01  0.51100000000E-03 0.  1.
</event>
<event>
 8    1  0.1104109E+005  0.1043930E+01  0.7957747E-01            NaN
         13   -1    0    0    0    0  0.00000000000E+00  0.00000000000E+00  0.74505805969E-08  0.10566000000E+00  0.10566000000E+00 0.  1.
     999900   -1    0    0    0    0 -0.00000000000E+00 -0.00000000000E+00 -0.74505805969E-08  0.93827000000E+00  0.93827000000E+00 0.  1.
     999902    2    1    2    0    0  0.12880811746E-01  0.16614330666E-01 -0.11506708506E-01  0.10199642821E+01  0.10196826865E+01 0.  0.
     999903    2    3    3    0    0 -0.95814662954E-01 -0.59992765405E-01 -0.58324484344E-01  0.12874306514E+00  0.19835569318E-01 0.  0.
         14    1    1    2    0    0 -0.12880811746E-01 -0.16614330666E-01  0.11506708506E-01  0.23965717918E-01  0.00000000000E+00 0.  1.
     999901    1    3    3    0    0  0.10869547470E+00  0.76607096072E-01  0.46817775838E-01  0.89122121694E+00  0.88000000000E+00 0. -1.
        -11    1    4    4    0    0 -0.86135805174E-02 -0.44823443576E-03 -0.79842250839E-02  0.11764508261E-01  0.51100000000E-03 0. -1.
         11    1    4    4    0    0 -0.87201082437E-01 -0.59544530970E-01 -0.50340259260E-01  0.11697855688E+00  0.51100000000E-03 0.  1.
</event>
<event>
 8    1  0.1104109E+005  0.1043930E+01  0.7957747E-01            NaN
         13   -1    0    0    0    0  0.00000000000E+00  0.00000000000E+00  0.74505805969E-08  0.10566000000E+00  0.10566000000E+00 0.  1.
     999900   -1    0    0    0    0 -0.00000000000E+00 -0.00000000000E+00 -0.74505805969E-08  0.93827000000E+00  0.93827000000E+00 0.  1.
     999902    2    1    2    0    0  0.13858979704E-01 -0.18905539980E-01  0.19679182009E-02  0.10204063212E+01  0.10201351366E+01 0.  0.
     999903    2    3    3    0    0  0.10515351149E+00  0.57031131516E-01 -0.49286975159E-01  0.13095248112E+00  0.20236982230E-01 0.  0.
         14    1    1    2    0    0 -0.13858979704E-01  0.18905539980E-01 -0.19679182009E-02  0.23523678761E-01  0.00000000000E+00 0.  1.
     999901    1    3    3    0    0 -0.91294531788E-01 -0.75936671496E-01  0.51254893360E-01  0.88945384012E+00  0.88000000000E+00 0.  1.
        -11    1    4    4    0    0  0.14462114587E-01  0.53858082835E-02 -0.13824719359E-01  0.20725435473E-01  0.51100000000E-03 0.  1.
         11    1    4    4    0    0  0.90691396905E-01  0.51645323232E-01 -0.35462255800E-01  0.11022704565E+00  0.51100000000E-03 0. -1.
</event>
<event>
 8    1  0.1104109E+005  0.1043930E+01  0.7957747E-01            NaN
         13   -1    0    0    0    0  0.00000000000E+00  0.00000000000E+00  0.74505805969E-08  0.10566000000E+00  0.10566000000E+00 0.  1.
     999900   -1    0    0    0    0 -0.00000000000E+00 -0.00000000000E+00 -0.74505805969E-08  0.93827000000E+00  0.93827000000E+00 0.  1.
     999902    2    1    2    0    0  0.23058435102E-01  0.24333197841E-02  0.46500291449E-02  0.10202818448E+01  0.10200077488E+01 0.  0.
     999903    2    3    3    0    0  0.82212436525E-01 -0.92452374728E-02 -0.10081125256E+00  0.13193637902E+00  0.19998508227E-01 0.  0.
         14    1    1    2    0    0 -0.23058435102E-01 -0.24333197841E-02 -0.46500291449E-02  0.23648155225E-01  0.00000000000E+00 0. -1.
     999901    1    3    3    0    0 -0.59154001424E-01  0.11678557257E-01  0.10546128171E+00  0.88834546575E+00  0.88000000000E+00 0. -1.
        -11    1    4    4    0    0  0.53703042199E-01 -0.23808271544E-02 -0.50820974151E-01  0.73977818392E-01  0.51100000000E-03 0. -1.
         11    1    4    4    0    0  0.28509394326E-01 -0.68644103184E-02 -0.49990278410E-01  0.57958560630E-01  0.51100000000E-03 0.  1.
</event>
<event>
 8    1  0.1104109E+005  0.1043930E+01  0.7957747E-01            NaN
         13   -1    0    0    0    0  0.00000000000E+00  0.00000000000E+00  0.74505805969E-08  0.10566000000E+00  0.10566000000E+00 0.  1.
     999900   -1    0    0    0    0 -0.00000000000E+00 -0.00000000000E+00 -0.74505805969E-08  0.93827000000E+00  0.93827000000E+00 0.  1.
     999902    2    1    2    0    0  0.17240324465E-01 -0.16594504214E-01  0.17109440256E-02  0.10199397168E+01  0.10196575368E+01 0.  0.
     999903    2    3    3    0    0  0.69863938515E-01 -0.10058508955E+00  0.48058048531E-01  0.13316369251E+00  0.20607348949E-01 0.  0.
         14    1    1    2    0    0 -0.17240324465E-01  0.16594504214E-01 -0.17109440256E-02  0.23990283183E-01  0.00000000000E+00 0. -1.
     999901    1    3    3    0    0 -0.52623614050E-01  0.83990585337E-01 -0.46347104506E-01  0.88677602430E+00  0.88000000000E+00 0.  1.
        -11    1    4    4    0    0  0.28500818077E-01 -0.58888833686E-01  0.26775565231E-01  0.70692173389E-01  0.51100000000E-03 0. -1.
         11    1    4    4    0    0  0.41363120438E-01 -0.41696255865E-01  0.21282483300E-01  0.62471519126E-01  0.51100000000E-03 0.  1.
</event>
<event>
 8    1  0.1104109E+005  0.1043930E+01  0.7957747E-01            NaN
         13   -1    0    0    0    0  0.00000000000E+00  0.00000000000E+00  0.74505805969E-08  0.10566000000E+00  0.10566000000E+00 0. -1.
     999900   -1    0    0    0    0 -0.00000000000E+00 -0.00000000000E+00 -0.74505805969E-08  0.93827000000E+00  0.93827000000E+00 0. -1.
     999902    2    1    2    0    0  0.15240322549E-01 -0.47128763159E-02 -0.21813397861E-01  0.10169058819E+01  0.10165467375E+01 0.  0.
     999903    2    3    3    0    0 -0.10086586493E+00  0.72411009108E-01  0.13002272258E-02  0.12563545145E+00  0.19112799968E-01 0.  0.
         14    1    1    2    0    0 -0.15240322549E-01  0.47128763159E-02  0.21813397861E-01  0.27024118132E-01  0.00000000000E+00 0. -1.
     999901    1    3    3    0    0  0.11610618748E+00 -0.77123885424E-01 -0.23113625086E-01  0.89127043042E+00  0.88000000000E+00 0. -1.
        -11    1    4    4    0    0 -0.26045731552E-01  0.18874551965E-01  0.87305789744E-02  0.33333361279E-01  0.51100000000E-03 0.  1.
         11    1    4    4    0    0 -0.74820133376E-01  0.53536457143E-01 -0.74303517485E-02  0.92302090171E-01  0.51100000000E-03 0. -1.
</event>
<event>
 8    1  0.1104109E+005  0.1043930E+01  0.7957747E-01            NaN
         13   -1    0    0    0    0  0.00000000000E+00  0.00000000000E+00  0.74505805969E-08  0.10566000000E+00  0.10566000000E+00 0.  1.
     999900   -1    0    0    0    0 -0.00000000000E+00 -0.00000000000E+00 -0.74505805969E-08  0.93827000000E+00  0.93827000000E+00 0.  1.
     999902    2    1    2    0    0  0.24030457339E-01 -0.89088181351E-02 -0.46243805916E-02  0.10178874422E+01  0.10175542394E+01 0.  0.
     999903    2    3    3    0    0 -0.64344994610E-01  0.98819657903E-01 -0.40362808811E-01  0.12620763403E+00  0.19839542171E-01 0.  0.
         14    1    1    2    0    0 -0.24030457339E-01  0.89088181351E-02  0.46243805916E-02  0.26042557792E-01  0.00000000000E+00 0. -1.
     999901    1    3    3    0    0  0.88375451949E-01 -0.10772847604E+00  0.35738428219E-01  0.89167980818E+00  0.88000000000E+00 0. -1.
        -11    1    4    4    0    0 -0.37853580307E-01  0.72747700268E-01 -0.22952601757E-01  0.85159876026E-01  0.51100000000E-03 0. -1.
         11    1    4    4    0    0 -0.26491414303E-01  0.26071957634E-01 -0.17410207054E-01  0.41047758006E-01  0.51100000000E-03 0.  1.
</event>
<event>
 7    1  0.1104109E+005  0.1043930E+01  0.7957747E-01            NaN
         13   -1    0    0    0    0  0.00000000000E+00  0.00000000000E+00  0.74505805969E-08  0.10566000000E+00  0.10566000000E+00 0.  1.
     999900   -1    0    0    0    0 -0.00000000000E+00 -0.00000000000E+00 -0.74505805969E-08  0.93827000000E+00  0.93827000000E+00 0.  1.
     999903    2    1    2    0    0 -0.22833902335E-01 -0.14495174302E-01  0.99613657204E-01  0.10596283703E+00  0.23952973852E-01 0.  0.
         14    1    1    2    0    0  0.50049670777E-01  0.11676318990E-01  0.35624858369E-02  0.51516961045E-01  0.00000000000E+00 0. -1.
     999901    1    1    2    0    0 -0.27215768441E-01  0.28188553112E-02 -0.10317614304E+00  0.88645020192E+00  0.88000000000E+00 0.  1.
        -11    1    3    3    0    0 -0.92982860002E-02 -0.19496201528E-01  0.56144555301E-01  0.60158392661E-01  0.51100000000E-03 0.  1.
         11    1    3    3    0    0 -0.13535616335E-01  0.50010272265E-02  0.43469101902E-01  0.45804444370E-01  0.51100000000E-03 0. -1.
</event>
<event>
 8    1  0.1104109E+005  0.1043930E+01  0.7957747E-01            NaN
         13   -1    0    0    0    0  0.00000000000E+00  0.00000000000E+00  0.74505805969E-08  0.10566000000E+00  0.10566000000E+00 0. -1.
     999900   -1    0    0    0    0 -0.00000000000E+00 -0.00000000000E+00 -0.74505805969E-08  0.93827000000E+00  0.93827000000E+00 0. -1.
     999902    2    1    2    0    0  0.28651090757E-01 -0.14925293951E-01  0.10895025189E-01  0.10098367312E+01  0.10092610528E+01 0.  0.
     999903    2    3    3    0    0  0.17685903756E-01  0.10241989952E+00 -0.56253906340E-01  0.11944406013E+00  0.17313419989E-01 0.  0.
         14    1    1    2    0    0 -0.28651090757E-01  0.14925293951E-01 -0.10895025189E-01  0.34093268763E-01  0.00000000000E+00 0. -1.
     999901    1    3    3    0    0  0.10965187001E-01 -0.11734519347E+00  0.67148931529E-01  0.89039267111E+00  0.88000000000E+00 0.  1.
        -11    1    4    4    0    0  0.65088226647E-02  0.16197483334E-01 -0.15790990286E-01  0.23544420444E-01  0.51100000000E-03 0. -1.
         11    1    4    4    0    0  0.11177081092E-01  0.86222416188E-01 -0.40462916054E-01  0.95899639685E-01  0.51100000000E-03 0.  1.
</event>
<event>
 7    1  0.1291826E+005  0.1043930E+01  0.7957747E-01            NaN
         13   -1    0    0    0    0  0.00000000000E+00  0.00000000000E+00  0.74505805969E-08  0.10566000000E+00  0.10566000000E+00 0. -1.
     999900   -1    0    0    0    0 -0.00000000000E+00 -0.00000000000E+00 -0.74505805969E-08  0.93827000000E+00  0.93827000000E+00 0.  1.
     999903    2    1    2    0    0  0.12719984058E-01 -0.10856994806E+00 -0.16948590409E-01  0.11214702443E+00  0.18451795466E-01 0.  0.
         14    1    1    2    0    0 -0.28115254478E-01 -0.19851928866E-01 -0.23060938823E-01  0.41429138459E-01  0.00000000000E+00 0.  1.
     999901    1    1    2    0    0  0.15395270420E-01  0.12842187693E+00  0.40009529231E-01  0.89035383711E+00  0.88000000000E+00 0. -1.
        -11    1    3    3    0    0  0.16357134659E-01 -0.64922098842E-01 -0.12615662280E-01  0.68131129655E-01  0.51100000000E-03 0. -1.
         11    1    3    3    0    0 -0.36371506009E-02 -0.43647849218E-01 -0.43329281288E-02  0.44015894777E-01  0.51100000000E-03 0.  1.
</event>
<event>
 8    1  0.1104109E+005  0.1043930E+01  0.7957747E-01            NaN
         13   -1    0    0    0    0  0.00000000000E+00  0.00000000000E+00  0.74505805969E-08  0.10566000000E+00  0.10566000000E+00 0. -1.
     999900   -1    0    0    0    0 -0.00000000000E+00 -0.00000000000E+00 -0.74505805969E-08  0.93827000000E+00  0.93827000000E+00 0. -1.
     999902    2    1    2    0    0  0.67576986844E-02  0.10015810463E-01  0.19829697160E-01  0.10207093230E+01  0.10204451589E+01 0.  0.
     999903    2    3    3    0    0  0.28140915455E-01 -0.10801311315E+00 -0.62222267269E-01  0.12878971136E+00  0.16013602720E-01 0.  0.
         14    1    1    2    0    0 -0.67576986844E-02 -0.10015810463E-01 -0.19829697160E-01  0.23220676997E-01  0.00000000000E+00 0.  1.
     999901    1    3    3    0    0 -0.21383216771E-01  0.11802892362E+00  0.82051964429E-01  0.89191961164E+00  0.88000000000E+00 0.  1.
        -11    1    4    4    0    0  0.33178960547E-02 -0.26514017002E-01 -0.21802263487E-01  0.34490597936E-01  0.51100000000E-03 0.  1.
         11    1    4    4    0    0  0.24823019400E-01 -0.81499096151E-01 -0.40420003782E-01  0.94299113423E-01  0.51100000000E-03 0. -1.
</event>
<event>
 8    1  0.1104109E+005  0.1043930E+01  0.7957747E-01            NaN
         13   -1    0    0    0    0  0.00000000000E+00  0.00000000000E+00  0.74505805969E-08  0.10566000000E+00  0.10566000000E+00 0. -1.
     999900   -1    0    0    0    0 -0.00000000000E+00 -0.00000000000E+00 -0.74505805969E-08  0.93827000000E+00  0.93827000000E+00 0. -1.
     999902    2    1    2    0    0 -0.19803693356E-01  0.59473347239E-02 -0.10849112331E-01  0.10205791906E+01  0.10203120229E+01 0.  0.
     999903    2    3    3    0    0  0.88752682759E-01  0.72554879197E-01  0.55514855291E-01  0.12893731857E+00  0.20042050035E-01 0.  0.
         14    1    1    2    0    0  0.19803693356E-01 -0.59473347239E-02  0.10849112331E-01  0.23350809391E-01  0.00000000000E+00 0. -1.
     999901    1    3    3    0    0 -0.10855637612E+00 -0.66607544473E-01 -0.66363967621E-01  0.89164187204E+00  0.88000000000E+00 0.  1.
        -11    1    4    4    0    0  0.18504963072E-01  0.56965921720E-02  0.82370308480E-02  0.21047437347E-01  0.51100000000E-03 0.  1.
         11    1    4    4    0    0  0.70247719687E-01  0.66858287025E-01  0.47277824443E-01  0.10788988122E+00  0.51100000000E-03 0. -1.
</event>
<event>
 8    1  0.1104109E+005  0.1043930E+01  0.7957747E-01            NaN
         13   -1    0    0    0    0  0.00000000000E+00  0.00000000000E+00  0.74505805969E-08  0.10566000000E+00  0.10566000000E+00 0. -1.
     999900   -1    0    0    0    0 -0.00000000000E+00 -0.00000000000E+00 -0.74505805969E-08  0.93827000000E+00  0.93827000000E+00 0.  1.
     999902    2    1    2    0    0  0.60885940127E-02  0.24512611712E-01  0.53159234304E-02  0.10181191854E+01  0.10177919618E+01 0.  0.
     999903    2    3    3    0    0 -0.31613678699E-01 -0.82115553757E-01  0.89185965075E-01  0.12692604641E+00  0.20339519208E-01 0.  0.
         14    1    1    2    0    0 -0.60885940127E-02 -0.24512611712E-01 -0.53159234304E-02  0.25810814631E-01  0.00000000000E+00 0.  1.
     999901    1    3    3    0    0  0.37702272712E-01  0.10662816547E+00 -0.83870041645E-01  0.89119313896E+00  0.88000000000E+00 0.  1.
        -11    1    4    4    0    0  0.14488922229E-02 -0.10595070218E-01  0.57009344729E-02  0.12129162232E-01  0.51100000000E-03 0.  1.
         11    1    4    4    0    0 -0.33062570922E-01 -0.71520483539E-01  0.83485030602E-01  0.11479688418E+00  0.51100000000E-03 0. -1.
</event>
<event>
 8    1  0.1104109E+005  0.1043930E+01  0.7957747E-01            NaN
         13   -1    0    0    0    0  0.00000000000E+00  0.00000000000E+00  0.74505805969E-08  0.10566000000E+00  0.10566000000E+00 0. -1.
     999900   -1    0    0    0    0 -0.00000000000E+00 -0.00000000000E+00 -0.74505805969E-08  0.93827000000E+00  0.93827000000E+00 0.  1.
     999902    2    1    2    0    0 -0.94093114939E-02  0.14576257226E-02  0.21546956828E-01  0.10203730230E+01  0.10201010611E+01 0.  0.
     999903    2    3    3    0    0 -0.83285479189E-01  0.83195679499E-01 -0.52299948619E-01  0.13043360766E+00  0.20485342306E-01 0.  0.
         14    1    1    2    0    0  0.94093114939E-02 -0.14576257226E-02 -0.21546956828E-01  0.23556976973E-01  0.00000000000E+00 0.  1.
     999901    1    3    3    0    0  0.73876167695E-01 -0.81738053777E-01  0.73846905447E-01  0.88993941537E+00  0.88000000000E+00 0. -1.
        -11    1    4    4    0    0 -0.31322192974E-01  0.18364937134E-01 -0.18240463890E-01  0.40636514769E-01  0.51100000000E-03 0. -1.
         11    1    4    4    0    0 -0.51963286215E-01  0.64830742365E-01 -0.34059484729E-01  0.89797092886E-01  0.51100000000E-03 0.  1.
</event>
<event>
 8    1  0.1104109E+005  0.1043930E+01  0.7957747E-01            NaN
         13   -1    0    0    0    0  0.00000000000E+00  0.00000000000E+00  0.74505805969E-08  0.10566000000E+00  0.10566000000E+00 0. -1.
     999900   -1    0    0    0    0 -0.00000000000E+00 -0.00000000000E+00 -0.74505805969E-08  0.93827000000E+00  0.93827000000E+00 0. -1.
     999902    2    1    2    0    0  0.49390531828E-02 -0.10612327070E-01 -0.68483232904E-02  0.10303684638E+01  0.10302792126E+01 0.  0.
     999903    2    3    3    0    0 -0.31299140035E-01 -0.81460581885E-01 -0.10872926220E+00  0.14092346406E+00  0.20540391772E-01 0.  0.
         14    1    1    2    0    0 -0.49390531828E-02  0.10612327070E-01  0.68483232904E-02  0.13561536199E-01  0.00000000000E+00 0. -1.
     999901    1    3    3    0    0  0.36238193218E-01  0.70848254815E-01  0.10188093891E+00  0.88944499975E+00  0.88000000000E+00 0.  1.
        -11    1    4    4    0    0 -0.19330244366E-01 -0.70785972611E-01 -0.85199771031E-01  0.11244364976E+00  0.51100000000E-03 0. -1.
         11    1    4    4    0    0 -0.11968895669E-01 -0.10674609273E-01 -0.23529491173E-01  0.28479814300E-01  0.51100000000E-03 0.  1.
</event>
<event>
 8    1  0.1104109E+005  0.1043930E+01  0.7957747E-01            NaN
         13   -1    0    0    0    0  0.00000000000E+00  0.00000000000E+00  0.74505805969E-08  0.10566000000E+00  0.10566000000E+00 0. -1.
     999900   -1    0    0    0    0 -0.00000000000E+00 -0.00000000000E+00 -0.74505805969E-08  0.93827000000E+00  0.93827000000E+00 0. -1.
     999902    2    1    2    0    0  0.21248758800E-01  0.41867337924E-03  0.91035563683E-02  0.10208094512E+01  0.10205475863E+01 0.  0.
     999903    2    3    3    0    0  0.13029292047E+00 -0.18821137170E-01 -0.83475285800E-02  0.13369878175E+00  0.21799143965E-01 0.  0.
         14    1    1    2    0    0 -0.21248758800E-01 -0.41867337924E-03 -0.91035563683E-02  0.23120548793E-01  0.00000000000E+00 0.  1.
     999901    1    3    3    0    0 -0.10904416167E+00  0.19239810549E-01  0.17451084948E-01  0.88711066946E+00  0.88000000000E+00 0. -1.
        -11    1    4    4    0    0  0.13254139286E-01  0.15223535977E-02  0.47798643415E-02  0.14180902398E-01  0.51100000000E-03 0.  1.
         11    1    4    4    0    0  0.11703878119E+00 -0.20343490767E-01 -0.13127392921E-01  0.11951787935E+00  0.51100000000E-03 0. -1.
</event>
<event>
 8    1  0.1104109E+005  0.1043930E+01  0.7957747E-01            NaN
         13   -1    0    0    0    0  0.00000000000E+00  0.00000000000E+00  0.74505805969E-08  0.10566000000E+00  0.10566000000E+00 0.  1.
     999900   -1    0    0    0    0 -0.00000000000E+00 -0.00000000000E+00 -0.74505805969E-08  0.93827000000E+00  0.93827000000E+00 0. -1.
     999902    2    1    2    0    0 -0.18051798772E-01 -0.10143104640E-01 -0.11996737589E-01  0.10199994396E+01  0.10197186793E+01 0.  0.
     999903    2    3    3    0    0  0.92238633944E-01 -0.86472400546E-01 -0.21551743058E-01  0.12978517372E+00  0.19856284654E-01 0.  0.
         14    1    1    2    0    0  0.18051798772E-01  0.10143104640E-01  0.11996737589E-01  0.23930560449E-01  0.00000000000E+00 0.  1.
     999901    1    3    3    0    0 -0.11029043272E+00  0.76329295905E-01  0.95550054690E-02  0.89021426583E+00  0.88000000000E+00 0. -1.
        -11    1    4    4    0    0  0.50001821870E-01 -0.56246047058E-01 -0.19772462848E-01  0.77813953813E-01  0.51100000000E-03 0. -1.
         11    1    4    4    0    0  0.42236812075E-01 -0.30226353488E-01 -0.17792802097E-02  0.51971219905E-01  0.51100000000E-03 0.  1.
</event>
<event>
 8    1  0.1104109E+005  0.1043930E+01  0.7957747E-01            NaN
         13   -1    0    0    0    0  0.00000000000E+00  0.00000000000E+00  0.74505805969E-08  0.10566000000E+00  0.10566000000E+00 0.  1.
     999900   -1    0    0    0    0 -0.00000000000E+00 -0.00000000000E+00 -0.74505805969E-08  0.93827000000E+00  0.93827000000E+00 0.  1.
     999902    2    1    2    0    0  0.23371258671E-01  0.56495229117E-02  0.19505389643E-01  0.10129688459E+01  0.10124955751E+01 0.  0.
     999903    2    3    3    0    0 -0.75883155187E-01 -0.91528211952E-01  0.19422181652E-01  0.12207325279E+00  0.19722856827E-01 0.  0.
         14    1    1    2    0    0 -0.23371258671E-01 -0.56495229117E-02 -0.19505389643E-01  0.30961154147E-01  0.00000000000E+00 0. -1.
     999901    1    3    3    0    0  0.99254413857E-01  0.97177734863E-01  0.83207991051E-04  0.89089559307E+00  0.88000000000E+00 0.  1.
        -11    1    4    4    0    0 -0.23488284170E-01 -0.42121354161E-01  0.11804723900E-01  0.49654008870E-01  0.51100000000E-03 0.  1.
         11    1    4    4    0    0 -0.52394871017E-01 -0.49406857791E-01  0.76174577523E-02  0.72419243915E-01  0.51100000000E-03 0. -1.
</event>
<event>
 8    1  0.1104109E+005  0.1043930E+01  0.7957747E-01            NaN
         13   -1    0    0    0    0  0.00000000000E+00  0.00000000000E+00  0.74505805969E-08  0.10566000000E+00  0.10566000000E+00 0.  1.
     999900   -1    0    0    0    0 -0.00000000000E+00 -0.00000000000E+00 -0.74505805969E-08  0.93827000000E+00  0.93827000000E+00 0.  1.
     999902    2    1    2    0    0 -0.14152735518E-01 -0.91293949696E-02  0.16626085073E-01  0.10202641495E+01  0.10199896383E+01 0.  0.
     999903    2    3    3    0    0  0.72270038079E-01 -0.10602060177E+00 -0.98280711230E-02  0.13034470138E+00  0.20732192193E-01 0.  0.
         14    1    1    2    0    0  0.14152735518E-01  0.91293949696E-02 -0.16626085073E-01  0.23665850503E-01  0.00000000000E+00 0.  1.
     999901    1    3    3    0    0 -0.86422773597E-01  0.96891206800E-01  0.26454156196E-01  0.88991944811E+00  0.88000000000E+00 0. -1.
        -11    1    4    4    0    0  0.15574253324E-01 -0.22616099770E-01  0.63886988305E-02  0.28197906467E-01  0.51100000000E-03 0.  1.
         11    1    4    4    0    0  0.56695784755E-01 -0.83404502000E-01 -0.16216769954E-01  0.10214679492E+00  0.51100000000E-03 0. -1.
</event>
<event>
 8    1  0.1104109E+005  0.1043930E+01  0.7957747E-01            NaN
         13   -1    0    0    0    0  0.00000000000E+00  0.00000000000E+00  0.74505805969E-08  0.10566000000E+00  0.10566000000E+00 0.  1.
     999900   -1    0    0    0    0 -0.00000000000E+00 -0.00000000000E+00 -0.74505805969E-08  0.93827000000E+00  0.93827000000E+00 0.  1.
     999902    2    1    2    0    0  0.16927329140E-01  0.12064802140E-01 -0.93366730390E-02  0.10211425608E+01  0.10208882711E+01 0.  0.
     999903    2    3    3    0    0  0.73036031992E-01 -0.10037372144E+00 -0.38768386169E-01  0.13172880226E+00  0.20984366892E-01 0.  0.
         14    1    1    2    0    0 -0.16927329140E-01 -0.12064802140E-01  0.93366730390E-02  0.22787439214E-01  0.00000000000E+00 0. -1.
     999901    1    3    3    0    0 -0.56108702852E-01  0.11243852358E+00  0.29431713130E-01  0.88941375853E+00  0.88000000000E+00 0. -1.
        -11    1    4    4    0    0  0.25323548307E-01 -0.52141376953E-01 -0.15512193784E-01  0.60007454257E-01  0.51100000000E-03 0.  1.
         11    1    4    4    0    0  0.47712483685E-01 -0.48232344485E-01 -0.23256192385E-01  0.71721348002E-01  0.51100000000E-03 0. -1.
</event>
<event>
 8    1  0.1104109E+005  0.1043930E+01  0.7957747E-01            NaN
         13   -1    0    0    0    0  0.00000000000E+00  0.00000000000E+00  0.74505805969E-08  0.10566000000E+00  0.10566000000E+00 0.  1.
     999900   -1    0    0    0    0 -0.00000000000E+00 -0.00000000000E+00 -0.74505805969E-08  0.93827000000E+00  0.93827000000E+00 0.  1.
     999902    2    1    2    0    0  0.13484783219E-02  0.74682125778E-02  0.22851334401E-01  0.10198514602E+01  0.10195671753E+01 0.  0.
     999903    2    3    3    0    0 -0.13500730273E-01  0.12348216820E+00  0.39868660808E-01  0.13194981800E+00  0.19776975904E-01 0.  0.
         14    1    1    2    0    0 -0.13484783219E-02 -0.74682125778E-02 -0.22851334401E-01  0.24078539757E-01  0.00000000000E+00 0. -1.
     999901    1    3    3    0    0  0.14849208595E-01 -0.11601395562E+00 -0.17017326407E-01  0.88790164224E+00  0.88000000000E+00 0.  1.
        -11    1    4    4    0    0 -0.62919482639E-02  0.12861413514E-01  0.58628607328E-03  0.14339087241E-01  0.51100000000E-03 0.  1.
         11    1    4    4    0    0 -0.72087820087E-02  0.11062075468E+00  0.39282374735E-01  0.11761073076E+00  0.51100000000E-03 0. -1.
</event>
<event>
 7    1  0.1104109E+005  0.1043930E+01  0.7957747E-01            NaN
         13   -1    0    0    0    0  0.00000000000E+00  0.00000000000E+00  0.74505805969E-08  0.10566000000E+00  0.10566000000E+00 0.  1.
     999900   -1    0    0    0    0 -0.00000000000E+00 -0.00000000000E+00 -0.74505805969E-08  0.93827000000E+00  0.93827000000E+00 0.  1.
     999903    2    1    2    0    0  0.52038317652E-01  0.43605551400E-01  0.88555348560E-01  0.11398401504E+00  0.23256726114E-01 0.  0.
         14    1    1    2    0    0  0.16527201143E-01  0.34562508782E-01  0.60613280621E-02  0.38787305769E-01  0.00000000000E+00 0. -1.
     999901    1    1    2    0    0 -0.68565518795E-01 -0.78168060182E-01 -0.94616676622E-01  0.89115867919E+00  0.88000000000E+00 0.  1.
        -11    1    3    3    0    0  0.36132885237E-01  0.20024680006E-01  0.65149904026E-01  0.77144956546E-01  0.51100000000E-03 0. -1.
         11    1    3    3    0    0  0.15905432415E-01  0.23580871395E-01  0.23405444534E-01  0.36839058496E-01  0.51100000000E-03 0.  1.
</event>
<event>
 8    1  0.1104109E+005  0.1043930E+01  0.7957747E-01            NaN
         13   -1    0    0    0    0  0.00000000000E+00  0.00000000000E+00  0.74505805969E-08  0.10566000000E+00  0.10566000000E+00 0.  1.
     999900   -1    0    0    0    0 -0.00000000000E+00 -0.00000000000E+00 -0.74505805969E-08  0.93827000000E+00  0.93827000000E+00 0. -1.
     999902    2    1    2    0    0 -0.15877297145E-01 -0.14487917564E-01 -0.20661177964E-02  0.10223370113E+01  0.10221089509E+01 0.  0.
     999903    2    3    3    0    0  0.61014827610E-01  0.11202179834E+00  0.15639528393E-01  0.12979536127E+00  0.18180991924E-01 0.  0.
         14    1    1    2    0    0  0.15877297145E-01  0.14487917564E-01  0.20661177964E-02  0.21592988739E-01  0.00000000000E+00 0. -1.
     999901    1    3    3    0    0 -0.76892124755E-01 -0.12650971590E+00 -0.17705646189E-01  0.89254164999E+00  0.88000000000E+00 0. -1.
        -11    1    4    4    0    0  0.27138303044E-01  0.68355898715E-01  0.74631486487E-02  0.73925476597E-01  0.51100000000E-03 0.  1.
         11    1    4    4    0    0  0.33876524566E-01  0.43665899621E-01  0.81763797442E-02  0.55869884670E-01  0.51100000000E-03 0. -1.
</event>
<event>
 8    1  0.1104109E+005  0.1043930E+01  0.7957747E-01            NaN
         13   -1    0    0    0    0  0.00000000000E+00  0.00000000000E+00  0.74505805969E-08  0.10566000000E+00  0.10566000000E+00 0. -1.
     999900   -1    0    0    0    0 -0.00000000000E+00 -0.00000000000E+00 -0.74505805969E-08  0.93827000000E+00  0.93827000000E+00 0. -1.
     999902    2    1    2    0    0  0.15895628184E-01 -0.12971006140E-01 -0.14950102407E-01  0.10185445010E+01  0.10182281066E+01 0.  0.
     999903    2    3    3    0    0  0.81852206643E-01  0.97025416499E-01  0.96011469303E-02  0.12890848160E+00  0.20285448648E-01 0.  0.
         14    1    1    2    0    0 -0.15895628184E-01  0.12971006140E-01  0.14950102407E-01  0.25385498964E-01  0.00000000000E+00 0. -1.
     999901    1    3    3    0    0 -0.65956578459E-01 -0.10999642264E+00 -0.24551249338E-01  0.88963601944E+00  0.88000000000E+00 0. -1.
        -11    1    4    4    0    0  0.56919410740E-01  0.52788598233E-01  0.87072912807E-02  0.78118713922E-01  0.51100000000E-03 0.  1.
         11    1    4    4    0    0  0.24932795903E-01  0.44236818265E-01  0.89385564953E-03  0.50789767677E-01  0.51100000000E-03 0. -1.
</event>
<event>
 8    1  0.1104109E+005  0.1043930E+01  0.7957747E-01            NaN
         13   -1    0    0    0    0  0.00000000000E+00  0.00000000000E+00  0.74505805969E-08  0.10566000000E+00  0.10566000000E+00 0. -1.
     999900   -1    0    0    0    0 -0.00000000000E+00 -0.00000000000E+00 -0.74505805969E-08  0.93827000000E+00  0.93827000000E+00 0.  1.
     999902    2    1    2    0    0 -0.14845262313E-01  0.20336154869E-01  0.20192634483E-02  0.10186709732E+01  0.10183577629E+01 0.  0.
     999903    2    3    3    0    0  0.87621644485E-01  0.43916846092E-01 -0.80802435528E-01  0.12855022311E+00  0.19745488641E-01 0.  0.
         14    1    1    2    0    0  0.14845262313E-01 -0.20336154869E-01 -0.20192634483E-02  0.25259026761E-01  0.00000000000E+00 0. -1.
     999901    1    3    3    0    0 -0.10246690680E+00 -0.23580691223E-01  0.82821698977E-01  0.89012075013E+00  0.88000000000E+00 0. -1.
        -11    1    4    4    0    0  0.36147114982E-01  0.10256176173E-01 -0.39162886923E-01  0.54275186820E-01  0.51100000000E-03 0. -1.
         11    1    4    4    0    0  0.51474529503E-01  0.33660669919E-01 -0.41639548605E-01  0.74275036291E-01  0.51100000000E-03 0.  1.
</event>
<event>
 8    1  0.1156847E+005  0.1043930E+01  0.7957747E-01            NaN
         13   -1    0    0    0    0  0.00000000000E+00  0.00000000000E+00  0.74505805969E-08  0.10566000000E+00  0.10566000000E+00 0. -1.
     999900   -1    0    0    0    0 -0.00000000000E+00 -0.00000000000E+00 -0.74505805969E-08  0.93827000000E+00  0.93827000000E+00 0.  1.
     999902    2    1    2    0    0 -0.61804359361E-02 -0.11140718636E-01  0.20145187163E-01  0.10200942712E+01  0.10198157580E+01 0.  0.
     999903    2    3    3    0    0  0.61883615545E-01 -0.68603018725E-01 -0.87704035462E-01  0.12904652512E+00  0.20616783388E-01 0.  0.
         14    1    1    2    0    0  0.61804359361E-02  0.11140718636E-01 -0.20145187163E-01  0.23835728768E-01  0.00000000000E+00 0.  1.
     999901    1    3    3    0    0 -0.68064051481E-01  0.57462300089E-01  0.10784922263E+00  0.89104774611E+00  0.88000000000E+00 0. -1.
        -11    1    4    4    0    0  0.37164229807E-01 -0.25895521064E-01 -0.43133230287E-01  0.62549937365E-01  0.51100000000E-03 0. -1.
         11    1    4    4    0    0  0.24719385738E-01 -0.42707497661E-01 -0.44570805175E-01  0.66496587752E-01  0.51100000000E-03 0.  1.
</event>
<event>
 8    1  0.1104109E+005  0.1043930E+01  0.7957747E-01            NaN
         13   -1    0    0    0    0  0.00000000000E+00  0.00000000000E+00  0.74505805969E-08  0.10566000000E+00  0.10566000000E+00 0. -1.
     999900   -1    0    0    0    0 -0.00000000000E+00 -0.00000000000E+00 -0.74505805969E-08  0.93827000000E+00  0.93827000000E+00 0.  1.
     999902    2    1    2    0    0 -0.11338642641E-01 -0.21187349870E-02 -0.19911344236E-01  0.10209187966E+01  0.10206594308E+01 0.  0.
     999903    2    3    3    0    0 -0.75794621933E-01  0.43221657234E-01 -0.99456351970E-01  0.13382368740E+00  0.20106640516E-01 0.  0.
         14    1    1    2    0    0  0.11338642641E-01  0.21187349870E-02  0.19911344236E-01  0.23011203449E-01  0.00000000000E+00 0. -1.
     999901    1    3    3    0    0  0.64455979292E-01 -0.45340392221E-01  0.79545007735E-01  0.88709510916E+00  0.88000000000E+00 0. -1.
        -11    1    4    4    0    0 -0.56722096340E-01  0.24994791756E-01 -0.59369201190E-01  0.85831806453E-01  0.51100000000E-03 0. -1.
         11    1    4    4    0    0 -0.19072525593E-01  0.18226865478E-01 -0.40087150780E-01  0.47991880942E-01  0.51100000000E-03 0.  1.
</event>
<event>
 8    1  0.1104109E+005  0.1043930E+01  0.7957747E-01            NaN
         13   -1    0    0    0    0  0.00000000000E+00  0.00000000000E+00  0.74505805969E-08  0.10566000000E+00  0.10566000000E+00 0.  1.
     999900   -1    0    0    0    0 -0.00000000000E+00 -0.00000000000E+00 -0.74505805969E-08  0.93827000000E+00  0.93827000000E+00 0.  1.
     999902    2    1    2    0    0  0.71389364272E-02  0.17289345422E-01 -0.12987348066E-01  0.10211581514E+01  0.10209042135E+01 0.  0.
     999903    2    3    3    0    0 -0.11703371934E+00 -0.49505915440E-01  0.17240279441E-01  0.12942155085E+00  0.17463775706E-01 0.  0.
         14    1    1    2    0    0 -0.71389364272E-02 -0.17289345422E-01  0.12987348066E-01  0.22771848590E-01  0.00000000000E+00 0.  1.
     999901    1    3    3    0    0  0.12417265577E+00  0.66795260861E-01 -0.30227627507E-01  0.89173660056E+00  0.88000000000E+00 0. -1.
        -11    1    4    4    0    0 -0.60014524358E-01 -0.30915390868E-01  0.20037896518E-02  0.67540956615E-01  0.51100000000E-03 0. -1.
         11    1    4    4    0    0 -0.57019194986E-01 -0.18590524572E-01  0.15236489789E-01  0.61880594235E-01  0.51100000000E-03 0.  1.
</event>
<event>
 8    1  0.1104109E+005  0.1043930E+01  0.7957747E-01            NaN
         13   -1    0    0    0    0  0.00000000000E+00  0.00000000000E+00  0.74505805969E-08  0.10566000000E+00  0.10566000000E+00 0.  1.
     999900   -1    0    0    0    0 -0.00000000000E+00 -0.00000000000E+00 -0.74505805969E-08  0.93827000000E+00  0.93827000000E+00 0.  1.
     999902    2    1    2    0    0  0.19826720219E-01  0.93020068464E-03 -0.13057654834E-01  0.10201714971E+01  0.10198948069E+01 0.  0.
     999903    2    3    3    0    0 -0.30929912902E-01 -0.85928555059E-01 -0.91836993750E-01  0.13094325677E+00  0.19280222626E-01 0.  0.
         14    1    1    2    0    0 -0.19826720219E-01 -0.93020068464E-03  0.13057654834E-01  0.23758502851E-01  0.00000000000E+00 0.  1.
     999901    1    3    3    0    0  0.50756633121E-01  0.86858755744E-01  0.78779338916E-01  0.88922824038E+00  0.88000000000E+00 0. -1.
        -11    1    4    4    0    0 -0.13629441017E-01 -0.16893914346E-01 -0.27181325232E-01  0.34788670091E-01  0.51100000000E-03 0.  1.
         11    1    4    4    0    0 -0.17300471885E-01 -0.69034640713E-01 -0.64655668519E-01  0.96154586674E-01  0.51100000000E-03 0. -1.
</event>
<event>
 8    1  0.1104109E+005  0.1043930E+01  0.7957747E-01            NaN
         13   -1    0    0    0    0  0.00000000000E+00  0.00000000000E+00  0.74505805969E-08  0.10566000000E+00  0.10566000000E+00 0.  1.
     999900   -1    0    0    0    0 -0.00000000000E+00 -0.00000000000E+00 -0.74505805969E-08  0.93827000000E+00  0.93827000000E+00 0.  1.
     999902    2    1    2    0    0  0.15938185957E-01 -0.88625642888E-02  0.15585411538E-01  0.10199409219E+01  0.10196587705E+01 0.  0.
     999903    2    3    3    0    0  0.18075432404E-01  0.45163476001E-01 -0.11713382202E+00  0.12834809113E+00  0.19658062334E-01 0.  0.
         14    1    1    2    0    0 -0.15938185957E-01  0.88625642888E-02 -0.15585411538E-01  0.23989078143E-01  0.00000000000E+00 0. -1.
     999901    1    3    3    0    0 -0.21372464471E-02 -0.54026040290E-01  0.13271923355E+00  0.89159283073E+00  0.88000000000E+00 0. -1.
        -11    1    4    4    0    0  0.12727814684E-02  0.29289186097E-01 -0.67480656244E-01  0.73575651428E-01  0.51100000000E-03 0. -1.
         11    1    4    4    0    0  0.16802650935E-01  0.15874289904E-01 -0.49653165773E-01  0.54772439700E-01  0.51100000000E-03 0.  1.
</event>
<event>
 8    1  0.1104109E+005  0.1043930E+01  0.7957747E-01            NaN
         13   -1    0    0    0    0  0.00000000000E+00  0.00000000000E+00  0.74505805969E-08  0.10566000000E+00  0.10566000000E+00 0.  1.
     999900   -1    0    0    0    0 -0.00000000000E+00 -0.00000000000E+00 -0.74505805969E-08  0.93827000000E+00  0.93827000000E+00 0. -1.
     999902    2    1    2    0    0  0.16313469569E-01 -0.67636445583E-02 -0.15404711410E-01  0.10204953822E+01  0.10202262709E+01 0.  0.
     999903    2    3    3    0    0  0.11462430283E+00  0.61733709052E-01  0.83772076486E-02  0.13205715304E+00  0.20472724008E-01 0.  0.
         14    1    1    2    0    0 -0.16313469569E-01  0.67636445583E-02  0.15404711410E-01  0.23434617785E-01  0.00000000000E+00 0.  1.
     999901    1    3    3    0    0 -0.98310833261E-01 -0.68497353610E-01 -0.23781919059E-01  0.88843822918E+00  0.88000000000E+00 0. -1.
        -11    1    4    4    0    0  0.49086871145E-01  0.30742858544E-01 -0.57155946397E-02  0.58202864305E-01  0.51100000000E-03 0. -1.
         11    1    4    4    0    0  0.65537431685E-01  0.30990850508E-01  0.14092802288E-01  0.73854288734E-01  0.51100000000E-03 0.  1.
</event>
<event>
 8    1  0.1104109E+005  0.1043930E+01  0.7957747E-01            NaN
         13   -1    0    0    0    0  0.00000000000E+00  0.00000000000E+00  0.74505805969E-08  0.10566000000E+00  0.10566000000E+00 0. -1.
     999900   -1    0    0    0    0 -0.00000000000E+00 -0.00000000000E+00 -0.74505805969E-08  0.93827000000E+00  0.93827000000E+00 0. -1.
     999902    2    1    2    0    0 -0.19085746507E-01  0.13051657923E-01  0.34040510061E-02  0.10205590981E+01  0.10202914650E+01 0.  0.
     999903    2    3    3    0    0  0.41027136982E-01 -0.11875456595E+00 -0.18631463523E-01  0.12844251189E+00  0.19091215907E-01 0.  0.
         14    1    1    2    0    0  0.19085746507E-01 -0.13051657923E-01 -0.34040510061E-02  0.23370901941E-01  0.00000000000E+00 0. -1.
     999901    1    3    3    0    0 -0.60112883489E-01  0.13180622388E+00  0.22035514529E-01  0.89211658617E+00  0.88000000000E+00 0.  1.
        -11    1    4    4    0    0  0.46012254810E-02 -0.33512625901E-02  0.11220092567E-02  0.58242821572E-02  0.51100000000E-03 0. -1.
         11    1    4    4    0    0  0.36425911501E-01 -0.11540330336E+00 -0.19753472780E-01  0.12261822973E+00  0.51100000000E-03 0.  1.
</event>
<event>
 8    1  0.1104109E+005  0.1043930E+01  0.7957747E-01            NaN
         13   -1    0    0    0    0  0.00000000000E+00  0.00000000000E+00  0.74505805969E-08  0.10566000000E+00  0.10566000000E+00 0. -1.
     999900   -1    0    0    0    0 -0.00000000000E+00 -0.00000000000E+00 -0.74505805969E-08  0.93827000000E+00  0.93827000000E+00 0. -1.
     999902    2    1    2    0    0 -0.98009161643E-02  0.11947200406E-01 -0.17142827705E-01  0.10208503532E+01  0.10205894246E+01 0.  0.
     999903    2    3    3    0    0 -0.70967397830E-01 -0.42172830358E-01  0.98566660728E-01  0.12952605647E+00  0.15706480260E-01 0.  0.
         14    1    1    2    0    0  0.98009161643E-02 -0.11947200406E-01  0.17142827705E-01  0.23079646811E-01  0.00000000000E+00 0. -1.
     999901    1    3    3    0    0  0.61166481665E-01  0.54120030765E-01 -0.11570948843E+00  0.89132429672E+00  0.88000000000E+00 0. -1.
        -11    1    4    4    0    0 -0.25944116314E-01 -0.22748126249E-01  0.33951517306E-01  0.48410133935E-01  0.51100000000E-03 0.  1.
         11    1    4    4    0    0 -0.45023281516E-01 -0.19424704109E-01  0.64615143422E-01  0.81115922534E-01  0.51100000000E-03 0. -1.
</event>
<event>
 8    1  0.1104109E+005  0.1043930E+01  0.7957747E-01            NaN
         13   -1    0    0    0    0  0.00000000000E+00  0.00000000000E+00  0.74505805969E-08  0.10566000000E+00  0.10566000000E+00 0.  1.
     999900   -1    0    0    0    0 -0.00000000000E+00 -0.00000000000E+00 -0.74505805969E-08  0.93827000000E+00  0.93827000000E+00 0.  1.
     999902    2    1    2    0    0  0.67727119497E-04  0.18271092661E-01 -0.16025652771E-01  0.10196265237E+01  0.10193368378E+01 0.  0.
     999903    2    3    3    0    0  0.26079301374E-01  0.99214734112E-01  0.78238665997E-01  0.13051784817E+00  0.19746554380E-01 0.  0.
         14    1    1    2    0    0 -0.67727119497E-04 -0.18271092661E-01  0.16025652771E-01  0.24303476309E-01  0.00000000000E+00 0.  1.
     999901    1    3    3    0    0 -0.26011574254E-01 -0.80943641452E-01 -0.94264318768E-01  0.88910867552E+00  0.88000000000E+00 0. -1.
        -11    1    4    4    0    0  0.11173562840E-01  0.43607661698E-01  0.22278907130E-01  0.50230344307E-01  0.51100000000E-03 0.  1.
         11    1    4    4    0    0  0.14905738534E-01  0.55607072414E-01  0.55959758867E-01  0.80287503867E-01  0.51100000000E-03 0. -1.
</event>
<event>
 8    1  0.1104109E+005  0.1043930E+01  0.7957747E-01            NaN
         13   -1    0    0    0    0  0.00000000000E+00  0.00000000000E+00  0.74505805969E-08  0.10566000000E+00  0.10566000000E+00 0. -1.
     999900   -1    0    0    0    0 -0.00000000000E+00 -0.00000000000E+00 -0.74505805969E-08  0.93827000000E+00  0.93827000000E+00 0.  1.
     999902    2    1    2    0    0  0.14763934365E-01 -0.13424137450E-01  0.12685918299E-01  0.10202844138E+01  0.10200103780E+01 0.  0.
     999903    2    3    3    0    0 -0.61793119474E-01 -0.64467513306E-01 -0.91617771877E-01  0.12936036063E+00  0.19126863110E-01 0.  0.
         14    1    1    2    0    0 -0.14763934365E-01  0.13424137450E-01 -0.12685918299E-01  0.23645586212E-01  0.00000000000E+00 0. -1.
     999901    1    3    3    0    0  0.76557053839E-01  0.51043375856E-01  0.10430369018E+00  0.89092405316E+00  0.88000000000E+00 0. -1.
        -11    1    4    4    0    0 -0.35868138506E-01 -0.24884911965E-01 -0.38348561144E-01  0.58108996430E-01  0.51100000000E-03 0. -1.
         11    1    4    4    0    0 -0.25924980968E-01 -0.39582601341E-01 -0.53269210734E-01  0.71251364200E-01  0.51100000000E-03 0.  1.
</event>
<event>
 8    1  0.1104109E+005  0.1043930E+01  0.7957747E-01            NaN
         13   -1    0    0    0    0  0.00000000000E+00  0.00000000000E+00  0.74505805969E-08  0.10566000000E+00  0.10566000000E+00 0.  1.
     999900   -1    0    0    0    0 -0.00000000000E+00 -0.00000000000E+00 -0.74505805969E-08  0.93827000000E+00  0.93827000000E+00 0.  1.
     999902    2    1    2    0    0  0.14581008564E-01 -0.17911958044E-01  0.59864465351E-02  0.10200703773E+01  0.10197912988E+01 0.  0.
     999903    2    3    3    0    0  0.63804765977E-01 -0.11349066435E+00  0.21335729452E-01  0.13339463735E+00  0.19691035168E-01 0.  0.
         14    1    1    2    0    0 -0.14581008564E-01  0.17911958044E-01 -0.59864465351E-02  0.23859622667E-01  0.00000000000E+00 0. -1.
     999901    1    3    3    0    0 -0.49223757413E-01  0.95578706305E-01 -0.15349282917E-01  0.88667573999E+00  0.88000000000E+00 0.  1.
        -11    1    4    4    0    0  0.17207953722E-01 -0.29497292267E-01  0.14479320594E-01  0.37096034401E-01  0.51100000000E-03 0. -1.
         11    1    4    4    0    0  0.46596812255E-01 -0.83993372082E-01  0.68564088574E-02  0.96298602946E-01  0.51100000000E-03 0.  1.
</event>
<event>
 8    1  0.1104109E+005  0.1043930E+01  0.7957747E-01            NaN
         13   -1    0    0    0    0  0.00000000000E+00  0.00000000000E+00  0.74505805969E-08  0.10566000000E+00  0.10566000000E+00 0. -1.
     999900   -1    0    0    0    0 -0.00000000000E+00 -0.00000000000E+00 -0.74505805969E-08  0.93827000000E+00  0.93827000000E+00 0.  1.
     999902    2    1    2    0    0 -0.11991728540E-01  0.66810618407E-02 -0.19554975679E-01  0.10200378420E+01  0.10197579928E+01 0.  0.
     999903    2    3    3    0    0 -0.41379045026E-02 -0.51832156568E-01  0.11483793006E+00  0.12787926169E+00  0.21486290579E-01 0.  0.
         14    1    1    2    0    0  0.11991728540E-01 -0.66810618407E-02  0.19554975679E-01  0.23892158013E-01  0.00000000000E+00 0. -1.
     999901    1    3    3    0    0 -0.78538240375E-02  0.58513218409E-01 -0.13439290574E+00  0.89215858029E+00  0.88000000000E+00 0.  1.
        -11    1    4    4    0    0 -0.51219976549E-02 -0.13480457122E-01  0.14502780738E-01  0.20458478788E-01  0.51100000000E-03 0. -1.
         11    1    4    4    0    0  0.98409315237E-03 -0.38351699447E-01  0.10033514932E+00  0.10742078290E+00  0.51100000000E-03 0.  1.
</event>
<event>
 8    1  0.1104109E+005  0.1043930E+01  0.7957747E-01            NaN
         13   -1    0    0    0    0  0.00000000000E+00  0.00000000000E+00  0.74505805969E-08  0.10566000000E+00  0.10566000000E+00 0. -1.
     999900   -1    0    0    0    0 -0.00000000000E+00 -0.00000000000E+00 -0.74505805969E-08  0.93827000000E+00  0.93827000000E+00 0. -1.
     999902    2    1    2    0    0 -0.15870106033E-01  0.15681332257E-01 -0.61992904135E-02  0.10207741012E+01  0.10205114257E+01 0.  0.
     999903    2    3    3    0    0 -0.47353189525E-01  0.12262168972E+00 -0.14192173603E-01  0.13370515757E+00  0.19931081769E-01 0.  0.
         14    1    1    2    0    0  0.15870106033E-01 -0.15681332257E-01  0.61992904135E-02  0.23155898784E-01  0.00000000000E+00 0. -1.
     999901    1    3    3    0    0  0.31483083492E-01 -0.10694035747E+00  0.79928831895E-02  0.88706894365E+00  0.88000000000E+00 0.  1.
        -11    1    4    4    0    0 -0.46943150527E-02  0.13044356662E-01  0.46174565198E-02  0.14621007498E-01  0.51100000000E-03 0. -1.
         11    1    4    4    0    0 -0.42658874472E-01  0.10957733306E+00 -0.18809630123E-01  0.11908415007E+00  0.51100000000E-03 0.  1.
</event>
<event>
 8    1  0.1104109E+005  0.1043930E+01  0.7957747E-01            NaN
         13   -1    0    0    0    0  0.00000000000E+00  0.00000000000E+00  0.74505805969E-08  0.10566000000E+00  0.10566000000E+00 0. -1.
     999900   -1    0    0    0    0 -0.00000000000E+00 -0.00000000000E+00 -0.74505805969E-08  0.93827000000E+00  0.93827000000E+00 0. -1.
     999902    2    1    2    0    0  0.17170951648E-01 -0.11870844301E-01 -0.48600736232E-02  0.10224968752E+01  0.10222722147E+01 0.  0.
     999903    2    3    3    0    0 -0.60713008498E-01  0.57635775129E-01 -0.99159067698E-01  0.13132383827E+00  0.20136479717E-01 0.  0.
         14    1    1    2    0    0 -0.17170951648E-01  0.11870844301E-01  0.48600736232E-02  0.21433124843E-01  0.00000000000E+00 0.  1.
     999901    1    3    3    0    0  0.77883960145E-01 -0.69506619430E-01  0.94298994075E-01  0.89117303689E+00  0.88000000000E+00 0.  1.
        -11    1    4    4    0    0 -0.82547491749E-02  0.18097638567E-01 -0.29420163874E-01  0.35517215108E-01  0.51100000000E-03 0. -1.
         11    1    4    4    0    0 -0.52458259323E-01  0.39538136562E-01 -0.69738903825E-01  0.95806623162E-01  0.51100000000E-03 0.  1.
</event>
<event>
 8    1  0.1104109E+005  0.1043930E+01  0.7957747E-01            NaN
         13   -1    0    0    0    0  0.00000000000E+00  0.00000000000E+00  0.74505805969E-08  0.10566000000E+00  0.10566000000E+00 0.  1.
     999900   -1    0    0    0    0 -0.00000000000E+00 -0.00000000000E+00 -0.74505805969E-08  0.93827000000E+00  0.93827000000E+00 0. -1.
     999902    2    1    2    0    0 -0.12165388588E-01 -0.16642798513E-01  0.12605524534E-01  0.10197664185E+01  0.10194800977E+01 0.  0.
     999903    2    3    3    0    0 -0.21600652542E-01  0.11969962983E+00  0.37856169497E-01  0.12885908492E+00  0.19416091918E-01 0.  0.
         14    1    1    2    0    0  0.12165388588E-01  0.16642798513E-01 -0.12605524534E-01  0.24163581494E-01  0.00000000000E+00 0. -1.
     999901    1    3    3    0    0  0.94352639537E-02 -0.13634242834E+00 -0.25250644963E-01  0.89090733359E+00  0.88000000000E+00 0. -1.
        -11    1    4    4    0    0 -0.21872072200E-01  0.10546445653E+00  0.39031464622E-01  0.11456376165E+00  0.51100000000E-03 0. -1.
         11    1    4    4    0    0  0.27141965754E-03  0.14235173303E-01 -0.11752951250E-02  0.14295323264E-01  0.51100000000E-03 0.  1.
</event>
<event>
 8    1  0.1104109E+005  0.1043930E+01  0.7957747E-01            NaN
         13   -1    0    0    0    0  0.00000000000E+00  0.00000000000E+00  0.74505805969E-08  0.10566000000E+00  0.10566000000E+00 0.  1.
     999900   -1    0    0    0    0 -0.00000000000E+00 -0.00000000000E+00 -0.74505805969E-08  0.93827000000E+00  0.93827000000E+00 0. -1.
     999902    2    1    2    0    0  0.12088950971E-01  0.42896916065E-02 -0.16087976350E-01  0.10233541119E+01  0.10231472382E+01 0.  0.
     999903    2    3    3    0    0  0.95207949909E-01 -0.35606333911E-01 -0.88363419166E-01  0.13559051694E+00  0.15631049111E-01 0.  0.
         14    1    1    2    0    0 -0.12088950971E-01 -0.42896916065E-02  0.16087976350E-01  0.20575888139E-01  0.00000000000E+00 0.  1.
     999901    1    3    3    0    0 -0.83118998938E-01  0.39896025517E-01  0.72275442815E-01  0.88776359492E+00  0.88000000000E+00 0.  1.
        -11    1    4    4    0    0  0.10066011212E-01 -0.45108788278E-02 -0.16789124724E-01  0.20094985432E-01  0.51100000000E-03 0.  1.
         11    1    4    4    0    0  0.85141938697E-01 -0.31095455083E-01 -0.71574294442E-01  0.11549553151E+00  0.51100000000E-03 0. -1.
</event>
<event>
 8    1  0.1104109E+005  0.1043930E+01  0.7957747E-01            NaN
         13   -1    0    0    0    0  0.00000000000E+00  0.00000000000E+00  0.74505805969E-08  0.10566000000E+00  0.10566000000E+00 0. -1.
     999900   -1    0    0    0    0 -0.00000000000E+00 -0.00000000000E+00 -0.74505805969E-08  0.93827000000E+00  0.93827000000E+00 0. -1.
     999902    2    1    2    0    0 -0.18971587441E-01  0.99711832372E-02  0.19329366427E-02  0.10224106629E+01  0.10221841721E+01 0.  0.
     999903    2    3    3    0    0 -0.11107057143E+00 -0.60111019718E-02 -0.72507055200E-01  0.13433467027E+00  0.20389345223E-01 0.  0.
         14    1    1    2    0    0  0.18971587441E-01 -0.99711832372E-02 -0.19329366427E-02  0.21519337101E-01  0.00000000000E+00 0. -1.
     999901    1    3    3    0    0  0.92098983991E-01  0.15982285209E-01  0.74439991842E-01  0.88807599263E+00  0.88000000000E+00 0. -1.
        -11    1    4    4    0    0 -0.28458521015E-01 -0.10263919140E-01 -0.16871742330E-01  0.34643213834E-01  0.51100000000E-03 0.  1.
         11    1    4    4    0    0 -0.82612050417E-01  0.42528171686E-02 -0.55635312870E-01  0.99691456440E-01  0.51100000000E-03 0. -1.
</event>
<event>
 8    1  0.1104109E+005  0.1043930E+01  0.7957747E-01            NaN
         13   -1    0    0    0    0  0.00000000000E+00  0.00000000000E+00  0.74505805969E-08  0.10566000000E+00  0.10566000000E+00 0.  1.
     999900   -1    0    0    0    0 -0.00000000000E+00 -0.00000000000E+00 -0.74505805969E-08  0.93827000000E+00  0.93827000000E+00 0.  1.
     999902    2    1    2    0    0  0.69639610435E-02  0.17742964184E-01  0.14537540967E-01  0.10199581492E+01  0.10196764078E+01 0.  0.
     999903    2    3    3    0    0  0.34693864070E-01 -0.12755992198E-01  0.12535467001E+00  0.13205073856E+00  0.18900389391E-01 0.  0.
         14    1    1    2    0    0 -0.69639610435E-02 -0.17742964184E-01 -0.14537540967E-01  0.23971850759E-01  0.00000000000E+00 0.  1.
     999901    1    3    3    0    0 -0.27729903026E-01  0.30498956381E-01 -0.11081712904E+00  0.88790741069E+00  0.88000000000E+00 0.  1.
        -11    1    4    4    0    0  0.20678215719E-01 -0.16496519609E-01  0.90672152265E-01  0.94453290477E-01  0.51100000000E-03 0. -1.
         11    1    4    4    0    0  0.14015648351E-01  0.37405274118E-02  0.34682517743E-01  0.37597448078E-01  0.51100000000E-03 0.  1.
</event>
<event>
 8    1  0.1104109E+005  0.1043930E+01  0.7957747E-01            NaN
         13   -1    0    0    0    0  0.00000000000E+00  0.00000000000E+00  0.74505805969E-08  0.10566000000E+00  0.10566000000E+00 0. -1.
     999900   -1    0    0    0    0 -0.00000000000E+00 -0.00000000000E+00 -0.74505805969E-08  0.93827000000E+00  0.93827000000E+00 0.  1.
     999902    2    1    2    0    0 -0.18658507071E-01  0.24103345632E-01  0.16602369493E-01  0.10092204937E+01  0.10086234456E+01 0.  0.
     999903    2    3    3    0    0  0.10165126081E+00 -0.44732838270E-01 -0.31797456919E-01  0.11705716577E+00  0.18902278872E-01 0.  0.
         14    1    1    2    0    0  0.18658507071E-01 -0.24103345632E-01 -0.16602369493E-01  0.34709506328E-01  0.00000000000E+00 0.  1.
     999901    1    3    3    0    0 -0.12030976788E+00  0.68836183902E-01  0.48399826413E-01  0.89216332791E+00  0.88000000000E+00 0. -1.
        -11    1    4    4    0    0  0.23937348613E-01 -0.47696439102E-02 -0.13042066721E-01  0.27678561867E-01  0.51100000000E-03 0. -1.
         11    1    4    4    0    0  0.77713912198E-01 -0.39963194360E-01 -0.18755390198E-01  0.89378603900E-01  0.51100000000E-03 0.  1.
</event>
<event>
 7    1  0.1104109E+005  0.1043930E+01  0.7957747E-01            NaN
         13   -1    0    0    0    0  0.00000000000E+00  0.00000000000E+00  0.74505805969E-08  0.10566000000E+00  0.10566000000E+00 0. -1.
     999900   -1    0    0    0    0 -0.00000000000E+00 -0.00000000000E+00 -0.74505805969E-08  0.93827000000E+00  0.93827000000E+00 0. -1.
     999903    2    1    2    0    0 -0.10839714204E-02  0.20937809774E-01  0.78870166171E-01  0.83212299623E-01  0.16254747751E-01 0.  0.
         14    1    1    2    0    0  0.70545799999E-02 -0.33080393541E-01 -0.73153899016E-01  0.80595114474E-01  0.00000000000E+00 0.  1.
     999901    1    1    2    0    0 -0.59706085795E-02  0.12142583766E-01 -0.57162671548E-02  0.88012258590E+00  0.88000000000E+00 0. -1.
        -11    1    3    3    0    0 -0.49652416864E-03  0.13623407318E-01  0.71535292758E-01  0.72824467002E-01  0.51100000000E-03 0. -1.
         11    1    3    3    0    0 -0.58744725180E-03  0.73144024560E-02  0.73348734131E-02  0.10387832620E-01  0.51100000000E-03 0.  1.
</event>
<event>
 8    1  0.1104109E+005  0.1043930E+01  0.7957747E-01            NaN
         13   -1    0    0    0    0  0.00000000000E+00  0.00000000000E+00  0.74505805969E-08  0.10566000000E+00  0.10566000000E+00 0.  1.
     999900   -1    0    0    0    0 -0.00000000000E+00 -0.00000000000E+00 -0.74505805969E-08  0.93827000000E+00  0.93827000000E+00 0. -1.
     999902    2    1    2    0    0 -0.21803006604E-01 -0.85920834645E-02  0.43298823409E-03  0.10204910906E+01  0.10202218795E+01 0.  0.
     999903    2    3    3    0    0 -0.87932896260E-01 -0.20408641185E-01  0.95381938338E-01  0.13283795087E+00  0.19987499851E-01 0.  0.
         14    1    1    2    0    0  0.21803006604E-01  0.85920834645E-02 -0.43298823409E-03  0.23438909404E-01  0.00000000000E+00 0. -1.
     999901    1    3    3    0    0  0.66129889656E-01  0.11816557720E-01 -0.94948950104E-01  0.88765313973E+00  0.88000000000E+00 0. -1.
        -11    1    4    4    0    0 -0.60818178574E-01 -0.17421273820E-01  0.53507368399E-01  0.82859225319E-01  0.51100000000E-03 0. -1.
         11    1    4    4    0    0 -0.27114717686E-01 -0.29873673650E-02  0.41874569939E-01  0.49978725549E-01  0.51100000000E-03 0.  1.
</event>
<event>
 8    1  0.1104109E+005  0.1043930E+01  0.7957747E-01            NaN
         13   -1    0    0    0    0  0.00000000000E+00  0.00000000000E+00  0.74505805969E-08  0.10566000000E+00  0.10566000000E+00 0. -1.
     999900   -1    0    0    0    0 -0.00000000000E+00 -0.00000000000E+00 -0.74505805969E-08  0.93827000000E+00  0.93827000000E+00 0. -1.
     999902    2    1    2    0    0 -0.10286451521E-01  0.15679071674E-01 -0.15532900000E-01  0.10195801467E+01  0.10192893408E+01 0.  0.
     999903    2    3    3    0    0  0.24935871247E-01 -0.58185282254E-01 -0.11230177243E+00  0.13050153967E+00  0.20288889045E-01 0.  0.
         14    1    1    2    0    0  0.10286451521E-01 -0.15679071674E-01  0.15532900000E-01  0.24349853302E-01  0.00000000000E+00 0.  1.
     999901    1    3    3    0    0 -0.35222322768E-01  0.73864353928E-01  0.96768872434E-01  0.88907860703E+00  0.88000000000E+00 0.  1.
        -11    1    4    4    0    0  0.18649974061E-01 -0.19770446191E-01 -0.39585686518E-01  0.48020618209E-01  0.51100000000E-03 0.  1.
         11    1    4    4    0    0  0.62858971859E-02 -0.38414836062E-01 -0.72716085915E-01  0.82480921460E-01  0.51100000000E-03 0. -1.
</event>
<event>
 8    1  0.1104109E+005  0.1043930E+01  0.7957747E-01            NaN
         13   -1    0    0    0    0  0.00000000000E+00  0.00000000000E+00  0.74505805969E-08  0.10566000000E+00  0.10566000000E+00 0.  1.
     999900   -1    0    0    0    0 -0.00000000000E+00 -0.00000000000E+00 -0.74505805969E-08  0.93827000000E+00  0.93827000000E+00 0. -1.
     999902    2    1    2    0    0 -0.14247335184E-01  0.18256402312E-01  0.64604273843E-02  0.10198879554E+01  0.10196045418E+01 0.  0.
     999903    2    3    3    0    0  0.25274373051E-01  0.10266309866E+00  0.76438629140E-01  0.13220366215E+00  0.21364421374E-01 0.  0.
         14    1    1    2    0    0  0.14247335184E-01 -0.18256402312E-01 -0.64604273843E-02  0.24042044572E-01  0.00000000000E+00 0. -1.
     999901    1    3    3    0    0 -0.39521708235E-01 -0.84406696352E-01 -0.69978201756E-01  0.88768429328E+00  0.88000000000E+00 0. -1.
        -11    1    4    4    0    0  0.25329335112E-01  0.61428804919E-01  0.43426472388E-01  0.79380053641E-01  0.51100000000E-03 0.  1.
         11    1    4    4    0    0 -0.54962061534E-04  0.41234293745E-01  0.33012156752E-01  0.52823608509E-01  0.51100000000E-03 0. -1.
</event>
<event>
 8    1  0.1104109E+005  0.1043930E+01  0.7957747E-01            NaN
         13   -1    0    0    0    0  0.00000000000E+00  0.00000000000E+00  0.74505805969E-08  0.10566000000E+00  0.10566000000E+00 0. -1.
     999900   -1    0    0    0    0 -0.00000000000E+00 -0.00000000000E+00 -0.74505805969E-08  0.93827000000E+00  0.93827000000E+00 0. -1.
     999902    2    1    2    0    0  0.21826389403E-01  0.38225731705E-02  0.21554585408E-02  0.10216668165E+01  0.10214242187E+01 0.  0.
     999903    2    3    3    0    0  0.51534856661E-01  0.94297837798E-01  0.76834536346E-01  0.13338458023E+00  0.18438454448E-01 0.  0.
         14    1    1    2    0    0 -0.21826389403E-01 -0.38225731705E-02 -0.21554585408E-02  0.22263183545E-01  0.00000000000E+00 0.  1.
     999901    1    3    3    0    0 -0.29708467258E-01 -0.90475264628E-01 -0.74679077805E-01  0.88828223623E+00  0.88000000000E+00 0. -1.
        -11    1    4    4    0    0  0.19959100811E-01  0.52953038285E-01  0.34219542098E-01  0.66133411762E-01  0.51100000000E-03 0.  1.
         11    1    4    4    0    0  0.31575755850E-01  0.41344799513E-01  0.42614994248E-01  0.67251168466E-01  0.51100000000E-03 0. -1.
</event>
<event>
 8    1  0.1104109E+005  0.1043930E+01  0.7957747E-01            NaN
         13   -1    0    0    0    0  0.00000000000E+00  0.00000000000E+00  0.74505805969E-08  0.10566000000E+00  0.10566000000E+00 0.  1.
     999900   -1    0    0    0    0 -0.00000000000E+00 -0.00000000000E+00 -0.74505805969E-08  0.93827000000E+00  0.93827000000E+00 0.  1.
     999902    2    1    2    0    0  0.22248730078E-01  0.55734313583E-02 -0.54709168834E-02  0.10203503465E+01  0.10200778547E+01 0.  0.
     999903    2    3    3    0    0 -0.12036880289E+00  0.35086245312E-02  0.37570852960E-01  0.12782773162E+00  0.20673674672E-01 0.  0.
         14    1    1    2    0    0 -0.22248730078E-01 -0.55734313583E-02  0.54709168834E-02  0.23579653490E-01  0.00000000000E+00 0.  1.
     999901    1    3    3    0    0  0.14261753297E+00  0.20648068270E-02 -0.43041769844E-01  0.89252261489E+00  0.88000000000E+00 0.  1.
        -11    1    4    4    0    0 -0.57675451002E-01 -0.73979419360E-02  0.12818312502E-01  0.59546263103E-01  0.51100000000E-03 0. -1.
         11    1    4    4    0    0 -0.62693351886E-01  0.10906566467E-01  0.24752540458E-01  0.68281468517E-01  0.51100000000E-03 0.  1.
</event>
<event>
 8    1  0.1104109E+005  0.1043930E+01  0.7957747E-01            NaN
         13   -1    0    0    0    0  0.00000000000E+00  0.00000000000E+00  0.74505805969E-08  0.10566000000E+00  0.10566000000E+00 0.  1.
     999900   -1    0    0    0    0 -0.00000000000E+00 -0.00000000000E+00 -0.74505805969E-08  0.93827000000E+00  0.93827000000E+00 0. -1.
     999902    2    1    2    0    0  0.48008909113E-02 -0.19335481271E-01  0.12343771019E-01  0.10204933178E+01  0.10202241585E+01 0.  0.
     999903    2    3    3    0    0  0.13006768732E+00 -0.78739927203E-02  0.49085307599E-02  0.13151726705E+00  0.17120012029E-01 0.  0.
         14    1    1    2    0    0 -0.48008909113E-02  0.19335481271E-01 -0.12343771019E-01  0.23436682199E-01  0.00000000000E+00 0. -1.
     999901    1    3    3    0    0 -0.12526679641E+00 -0.11461488551E-01  0.74352402589E-02  0.88897605075E+00  0.88000000000E+00 0.  1.
        -11    1    4    4    0    0  0.10245743047E+00 -0.98003511335E-02 -0.21523608876E-02  0.10294885002E+00  0.51100000000E-03 0.  1.
         11    1    4    4    0    0  0.27610256853E-01  0.19263584132E-02  0.70608916475E-02  0.28568417038E-01  0.51100000000E-03 0. -1.
</event>
<event>
 8    1  0.1104109E+005  0.1043930E+01  0.7957747E-01            NaN
         13   -1    0    0    0    0  0.00000000000E+00  0.00000000000E+00  0.74505805969E-08  0.10566000000E+00  0.10566000000E+00 0. -1.
     999900   -1    0    0    0    0 -0.00000000000E+00 -0.00000000000E+00 -0.74505805969E-08  0.93827000000E+00  0.93827000000E+00 0. -1.
     999902    2    1    2    0    0 -0.16238157036E-01 -0.17184340453E-01 -0.11793101209E-03  0.10202869628E+01  0.10200129868E+01 0.  0.
     999903    2    3    3    0    0  0.15656153755E-01  0.14020335805E-01  0.12673378505E+00  0.13007219278E+00  0.20387204182E-01 0.  0.
         14    1    1    2    0    0  0.16238157036E-01  0.17184340453E-01  0.11793101209E-03  0.23643037209E-01  0.00000000000E+00 0. -1.
     999901    1    3    3    0    0 -0.31894310791E-01 -0.31204676258E-01 -0.12685171606E+00  0.89021477001E+00  0.88000000000E+00 0. -1.
        -11    1    4    4    0    0 -0.39016832907E-02  0.45693902998E-02  0.48632309177E-01  0.49004745455E-01  0.51100000000E-03 0.  1.
         11    1    4    4    0    0  0.19557837046E-01  0.94509455051E-02  0.78101475874E-01  0.81067447323E-01  0.51100000000E-03 0. -1.
</event>
<event>
 8    1  0.1104109E+005  0.1043930E+01  0.7957747E-01            NaN
         13   -1    0    0    0    0  0.00000000000E+00  0.00000000000E+00  0.74505805969E-08  0.10566000000E+00  0.10566000000E+00 0.  1.
     999900   -1    0    0    0    0 -0.00000000000E+00 -0.00000000000E+00 -0.74505805969E-08  0.93827000000E+00  0.93827000000E+00 0. -1.
     999902    2    1    2    0    0  0.19911277481E-01 -0.10802323476E-01 -0.58769560897E-02  0.10205272699E+01  0.10202588989E+01 0.  0.
     999903    2    3    3    0    0  0.63280023665E-01 -0.10938573186E-01  0.11293312721E+00  0.13148469352E+00  0.20256347927E-01 0.  0.
         14    1    1    2    0    0 -0.19911277481E-01  0.10802323476E-01  0.58769560897E-02  0.23402730103E-01  0.00000000000E+00 0. -1.
     999901    1    3    3    0    0 -0.43368746184E-01  0.13624971041E-03 -0.11881008330E+00  0.88904257637E+00  0.88000000000E+00 0. -1.
        -11    1    4    4    0    0  0.27727762088E-01 -0.13808586203E-02  0.67622158901E-01  0.73100978491E-01  0.51100000000E-03 0.  1.
         11    1    4    4    0    0  0.35552261577E-01 -0.95577145658E-02  0.45310968309E-01  0.58383715033E-01  0.51100000000E-03 0. -1.
</event>
<event>
 7    1  0.1104109E+005  0.1043930E+01  0.7957747E-01            NaN
         13   -1    0    0    0    0  0.00000000000E+00  0.00000000000E+00  0.74505805969E-08  0.10566000000E+00  0.10566000000E+00 0.  1.
     999900   -1    0    0    0    0 -0.00000000000E+00 -0.00000000000E+00 -0.74505805969E-08  0.93827000000E+00  0.93827000000E+00 0.  1.
     999903    2    1    2    0    0 -0.83757650147E-01 -0.77424690604E-01  0.14622316364E-01  0.11666879324E+00  0.19694377577E-01 0.  0.
         14    1    1    2    0    0 -0.13178484053E-01  0.31379021252E-01  0.21061615306E-01  0.40023831100E-01  0.00000000000E+00 0.  1.
     999901    1    1    2    0    0  0.96936134200E-01  0.46045669352E-01 -0.35683931670E-01  0.88723737565E+00  0.88000000000E+00 0.  1.
        -11    1    3    3    0    0 -0.11664172819E-01 -0.16585142084E-01 -0.35723438575E-02  0.20594723284E-01  0.51100000000E-03 0. -1.
         11    1    3    3    0    0 -0.72093477327E-01 -0.60839548520E-01  0.18194660222E-01  0.96074069961E-01  0.51100000000E-03 0.  1.
</event>
<event>
 8    1  0.1104109E+005  0.1043930E+01  0.7957747E-01            NaN
         13   -1    0    0    0    0  0.00000000000E+00  0.00000000000E+00  0.74505805969E-08  0.10566000000E+00  0.10566000000E+00 0.  1.
     999900   -1    0    0    0    0 -0.00000000000E+00 -0.00000000000E+00 -0.74505805969E-08  0.93827000000E+00  0.93827000000E+00 0. -1.
     999902    2    1    2    0    0 -0.18643135694E-01  0.43155267033E-02  0.14806289003E-01  0.10197346188E+01  0.10194475348E+01 0.  0.
     999903    2    3    3    0    0  0.29604590164E-01  0.93148055101E-01 -0.81537959575E-01  0.12872324095E+00  0.19189632141E-01 0.  0.
         14    1    1    2    0    0  0.18643135694E-01 -0.43155267033E-02 -0.14806289003E-01  0.24195381238E-01  0.00000000000E+00 0. -1.
     999901    1    3    3    0    0 -0.48247725857E-01 -0.88832528398E-01  0.96344248578E-01  0.89101137781E+00  0.88000000000E+00 0.  1.
        -11    1    4    4    0    0  0.19001536877E-01  0.29608279508E-01 -0.28922578142E-01  0.45546517611E-01  0.51100000000E-03 0.  1.
         11    1    4    4    0    0  0.10603053287E-01  0.63539775593E-01 -0.52615381433E-01  0.83176723341E-01  0.51100000000E-03 0. -1.
</event>
<event>
 8    1  0.1104109E+005  0.1043930E+01  0.7957747E-01            NaN
         13   -1    0    0    0    0  0.00000000000E+00  0.00000000000E+00  0.74505805969E-08  0.10566000000E+00  0.10566000000E+00 0. -1.
     999900   -1    0    0    0    0 -0.00000000000E+00 -0.00000000000E+00 -0.74505805969E-08  0.93827000000E+00  0.93827000000E+00 0. -1.
     999902    2    1    2    0    0 -0.22878929706E-01  0.14665332868E-01  0.10139694746E-01  0.10149242967E+01  0.10145097325E+01 0.  0.
     999903    2    3    3    0    0 -0.35795671313E-01  0.93054326017E-01  0.78839550360E-01  0.12867864985E+00  0.20051996157E-01 0.  0.
         14    1    1    2    0    0  0.22878929706E-01 -0.14665332868E-01 -0.10139694746E-01  0.29005703270E-01  0.00000000000E+00 0.  1.
     999901    1    3    3    0    0  0.12916741607E-01 -0.78388993149E-01 -0.68699855614E-01  0.88624564688E+00  0.88000000000E+00 0. -1.
        -11    1    4    4    0    0 -0.24726191821E-01  0.61590791327E-01  0.63886952634E-01  0.92122820062E-01  0.51100000000E-03 0.  1.
         11    1    4    4    0    0 -0.11069479492E-01  0.31463534691E-01  0.14952597726E-01  0.36555829784E-01  0.51100000000E-03 0. -1.
</event>
<event>
 8    1  0.1104109E+005  0.1043930E+01  0.7957747E-01            NaN
         13   -1    0    0    0    0  0.00000000000E+00  0.00000000000E+00  0.74505805969E-08  0.10566000000E+00  0.10566000000E+00 0. -1.
     999900   -1    0    0    0    0 -0.00000000000E+00 -0.00000000000E+00 -0.74505805969E-08  0.93827000000E+00  0.93827000000E+00 0.  1.
     999902    2    1    2    0    0 -0.13328625288E-01  0.30574310541E-02 -0.18291496368E-01  0.10210918964E+01  0.10208364619E+01 0.  0.
     999903    2    3    3    0    0  0.11262702754E+00  0.54062232453E-01  0.27596715649E-01  0.12947984834E+00  0.19896735962E-01 0.  0.
         14    1    1    2    0    0  0.13328625288E-01 -0.30574310541E-02  0.18291496368E-01  0.22838103601E-01  0.00000000000E+00 0. -1.
     999901    1    3    3    0    0 -0.12595565282E+00 -0.51004801399E-01 -0.45888212017E-01  0.89161204806E+00  0.88000000000E+00 0.  1.
        -11    1    4    4    0    0  0.89936792434E-01  0.45262979834E-01  0.29893381511E-01  0.10502970702E+00  0.51100000000E-03 0. -1.
         11    1    4    4    0    0  0.22690235102E-01  0.87992526188E-02 -0.22966658614E-02  0.24450141323E-01  0.51100000000E-03 0.  1.
</event>
<event>
 8    1  0.1104109E+005  0.1043930E+01  0.7957747E-01            NaN
         13   -1    0    0    0    0  0.00000000000E+00  0.00000000000E+00  0.74505805969E-08  0.10566000000E+00  0.10566000000E+00 0. -1.
     999900   -1    0    0    0    0 -0.00000000000E+00 -0.00000000000E+00 -0.74505805969E-08  0.93827000000E+00  0.93827000000E+00 0. -1.
     999902    2    1    2    0    0 -0.22729478471E-01 -0.15689198235E-02  0.10146076167E-02  0.10211238576E+01  0.10208691456E+01 0.  0.
     999903    2    3    3    0    0  0.94921443668E-01  0.70270865828E-01  0.48176417038E-01  0.12914463672E+00  0.20231040057E-01 0.  0.
         14    1    1    2    0    0  0.22729478471E-01  0.15689198235E-02 -0.10146076167E-02  0.22806142365E-01  0.00000000000E+00 0. -1.
     999901    1    3    3    0    0 -0.11765092214E+00 -0.71839785651E-01 -0.47161809421E-01  0.89197922092E+00  0.88000000000E+00 0.  1.
        -11    1    4    4    0    0  0.11911042781E-01  0.15006514342E-01  0.20715614373E-02  0.19277471324E-01  0.51100000000E-03 0. -1.
         11    1    4    4    0    0  0.83010400887E-01  0.55264351485E-01  0.46104855600E-01  0.10986716539E+00  0.51100000000E-03 0.  1.
</event>
<event>
 8    1  0.1104109E+005  0.1043930E+01  0.7957747E-01            NaN
         13   -1    0    0    0    0  0.00000000000E+00  0.00000000000E+00  0.74505805969E-08  0.10566000000E+00  0.10566000000E+00 0. -1.
     999900   -1    0    0    0    0 -0.00000000000E+00 -0.00000000000E+00 -0.74505805969E-08  0.93827000000E+00  0.93827000000E+00 0.  1.
     999902    2    1    2    0    0  0.20716773828E-01 -0.32947234672E-03  0.65667319593E-02  0.10221948847E+01  0.10219637797E+01 0.  0.
     999903    2    3    3    0    0  0.98214407555E-01  0.55253535761E-01  0.71086665626E-01  0.13469379967E+00  0.19750508233E-01 0.  0.
         14    1    1    2    0    0 -0.20716773828E-01  0.32947234672E-03 -0.65667319593E-02  0.21735115332E-01  0.00000000000E+00 0.  1.
     999901    1    3    3    0    0 -0.77497633727E-01 -0.55583008108E-01 -0.64519933667E-01  0.88750108499E+00  0.88000000000E+00 0.  1.
        -11    1    4    4    0    0  0.43476525321E-01  0.24569212441E-01  0.20085501530E-01  0.53828830069E-01  0.51100000000E-03 0.  1.
         11    1    4    4    0    0  0.54737882234E-01  0.30684323320E-01  0.51001164096E-01  0.80864969605E-01  0.51100000000E-03 0. -1.
</event>
<event>
 8    1  0.1104109E+005  0.1043930E+01  0.7957747E-01            NaN
         13   -1    0    0    0    0  0.00000000000E+00  0.00000000000E+00  0.74505805969E-08  0.10566000000E+00  0.10566000000E+00 0. -1.
     999900   -1    0    0    0    0 -0.00000000000E+00 -0.00000000000E+00 -0.74505805969E-08  0.93827000000E+00  0.93827000000E+00 0.  1.
     999902    2    1    2    0    0 -0.36078272296E-02 -0.20545322167E-01 -0.13576545967E-01  0.10190412620E+01  0.10187372793E+01 0.  0.
     999903    2    3    3    0    0 -0.91614228356E-01 -0.41411365110E-01  0.78948404188E-01  0.12957997288E+00  0.21214401965E-01 0.  0.
         14    1    1    2    0    0  0.36078272296E-02  0.20545322167E-01  0.13576545967E-01  0.24888738029E-01  0.00000000000E+00 0.  1.
     999901    1    3    3    0    0  0.88006401126E-01  0.20866042944E-01 -0.92524950155E-01  0.88946128909E+00  0.88000000000E+00 0.  1.
        -11    1    4    4    0    0 -0.54510232635E-01 -0.34842758461E-01  0.44501238582E-01  0.78523911234E-01  0.51100000000E-03 0.  1.
         11    1    4    4    0    0 -0.37103995720E-01 -0.65686066492E-02  0.34447165606E-01  0.51056061648E-01  0.51100000000E-03 0. -1.
</event>
<event>
 8    1  0.1104109E+005  0.1043930E+01  0.7957747E-01            NaN
         13   -1    0    0    0    0  0.00000000000E+00  0.00000000000E+00  0.74505805969E-08  0.10566000000E+00  0.10566000000E+00 0.  1.
     999900   -1    0    0    0    0 -0.00000000000E+00 -0.00000000000E+00 -0.74505805969E-08  0.93827000000E+00  0.93827000000E+00 0.  1.
     999902    2    1    2    0    0  0.12313363601E-01  0.84337161807E-02  0.18222475072E-01  0.10203756991E+01  0.10201037998E+01 0.  0.
     999903    2    3    3    0    0 -0.66609133641E-01  0.69233402838E-01  0.88354509754E-01  0.13198171853E+00  0.19560518408E-01 0.  0.
         14    1    1    2    0    0 -0.12313363601E-01 -0.84337161807E-02 -0.18222475072E-01  0.23554300871E-01  0.00000000000E+00 0. -1.
     999901    1    3    3    0    0  0.78922497242E-01 -0.60799686657E-01 -0.70132034681E-01  0.88839398059E+00  0.88000000000E+00 0.  1.
        -11    1    4    4    0    0 -0.26864736442E-01  0.39823855776E-01  0.36515435503E-01  0.60343116458E-01  0.51100000000E-03 0. -1.
         11    1    4    4    0    0 -0.39744397199E-01  0.29409547062E-01  0.51839074251E-01  0.71638602075E-01  0.51100000000E-03 0.  1.
</event>
<event>
 8    1  0.1104109E+005  0.1043930E+01  0.7957747E-01            NaN
         13   -1    0    0    0    0  0.00000000000E+00  0.00000000000E+00  0.74505805969E-08  0.10566000000E+00  0.10566000000E+00 0.  1.
     999900   -1    0    0    0    0 -0.00000000000E+00 -0.00000000000E+00 -0.74505805969E-08  0.93827000000E+00  0.93827000000E+00 0. -1.
     999902    2    1    2    0    0  0.18770609611E-01 -0.13737704427E-01 -0.62373255930E-02  0.10198475471E+01  0.10195631686E+01 0.  0.
     999903    2    3    3    0    0  0.20393446642E-01  0.57789007476E-01  0.11166401675E+00  0.12910660234E+00  0.21076054651E-01 0.  0.
         14    1    1    2    0    0 -0.18770609611E-01  0.13737704427E-01  0.62373255930E-02  0.24082452920E-01  0.00000000000E+00 0. -1.
     999901    1    3    3    0    0 -0.16228370313E-02 -0.71526711903E-01 -0.11790134234E+00  0.89074094474E+00  0.88000000000E+00 0. -1.
        -11    1    4    4    0    0  0.76779259946E-02  0.44816220856E-01  0.89959717035E-01  0.10079908734E+00  0.51100000000E-03 0. -1.
         11    1    4    4    0    0  0.12715520648E-01  0.12972786619E-01  0.21704299713E-01  0.28307514993E-01  0.51100000000E-03 0.  1.
</event>
<event>
 8    1  0.1104109E+005  0.1043930E+01  0.7957747E-01            NaN
         13   -1    0    0    0    0  0.00000000000E+00  0.00000000000E+00  0.74505805969E-08  0.10566000000E+00  0.10566000000E+00 0.  1.
     999900   -1    0    0    0    0 -0.00000000000E+00 -0.00000000000E+00 -0.74505805969E-08  0.93827000000E+00  0.93827000000E+00 0. -1.
     999902    2    1    2    0    0  0.45244849094E-03  0.23216280619E-01 -0.53032878871E-02  0.10201114094E+01  0.10198333013E+01 0.  0.
     999903    2    3    3    0    0 -0.15167844193E-02 -0.70453998324E-01 -0.10710424558E+00  0.12930198309E+00  0.16781444951E-01 0.  0.
         14    1    1    2    0    0 -0.45244849094E-03 -0.23216280619E-01  0.53032878871E-02  0.23818590593E-01  0.00000000000E+00 0.  1.
     999901    1    3    3    0    0  0.19692329102E-02  0.93670278942E-01  0.10180095769E+00  0.89080942632E+00  0.88000000000E+00 0.  1.
        -11    1    4    4    0    0  0.51185749315E-02 -0.28445192030E-01 -0.54140945106E-01  0.61374520910E-01  0.51100000000E-03 0.  1.
         11    1    4    4    0    0 -0.66353593508E-02 -0.42008806294E-01 -0.52963300471E-01  0.67927462176E-01  0.51100000000E-03 0. -1.
</event>
<event>
 8    1  0.1104109E+005  0.1043930E+01  0.7957747E-01            NaN
         13   -1    0    0    0    0  0.00000000000E+00  0.00000000000E+00  0.74505805969E-08  0.10566000000E+00  0.10566000000E+00 0.  1.
     999900   -1    0    0    0    0 -0.00000000000E+00 -0.00000000000E+00 -0.74505805969E-08  0.93827000000E+00  0.93827000000E+00 0.  1.
     999902    2    1    2    0    0  0.67324782774E-02  0.20057448138E-01 -0.11221087790E-01  0.10199812986E+01  0.10197001074E+01 0.  0.
     999903    2    3    3    0    0  0.42602102505E-01 -0.10626418035E+00 -0.56918074504E-01  0.12906491732E+00  0.17637191231E-01 0.  0.
         14    1    1    2    0    0 -0.67324782774E-02 -0.20057448138E-01  0.11221087790E-01  0.23948701442E-01  0.00000000000E+00 0.  1.
     999901    1    3    3    0    0 -0.35869624227E-01  0.12632162849E+00  0.45696986715E-01  0.89091638124E+00  0.88000000000E+00 0. -1.
        -11    1    4    4    0    0  0.38691980832E-03 -0.15085590014E-01 -0.10443438373E-01  0.18358955827E-01  0.51100000000E-03 0. -1.
         11    1    4    4    0    0  0.42215182696E-01 -0.91178590334E-01 -0.46474636131E-01  0.11070596149E+00  0.51100000000E-03 0.  1.
</event>
<event>
 8    1  0.1104109E+005  0.1043930E+01  0.7957747E-01            NaN
         13   -1    0    0    0    0  0.00000000000E+00  0.00000000000E+00  0.74505805969E-08  0.10566000000E+00  0.10566000000E+00 0.  1.
     999900   -1    0    0    0    0 -0.00000000000E+00 -0.00000000000E+00 -0.74505805969E-08  0.93827000000E+00  0.93827000000E+00 0. -1.
     999902    2    1    2    0    0 -0.23464029552E-01 -0.29988203188E-03 -0.57966282642E-02  0.10197587048E+01  0.10194721990E+01 0.  0.
     999903    2    3    3    0    0 -0.25789901230E-01 -0.98275200785E-01  0.79002028539E-01  0.13026706069E+00  0.20125915934E-01 0.  0.
         14    1    1    2    0    0  0.23464029552E-01  0.29988203188E-03  0.57966282642E-02  0.24171295192E-01  0.00000000000E+00 0.  1.
     999901    1    3    3    0    0  0.23258716782E-02  0.97975318753E-01 -0.84798656804E-01  0.88949164412E+00  0.88000000000E+00 0. -1.
        -11    1    4    4    0    0 -0.12268338799E-01 -0.61365285533E-01  0.36835467994E-01  0.72617650945E-01  0.51100000000E-03 0. -1.
         11    1    4    4    0    0 -0.13521562431E-01 -0.36909915252E-01  0.42166560546E-01  0.57649409743E-01  0.51100000000E-03 0.  1.
</event>
<event>
 8    1  0.1104109E+005  0.1043930E+01  0.7957747E-01            NaN
         13   -1    0    0    0    0  0.00000000000E+00  0.00000000000E+00  0.74505805969E-08  0.10566000000E+00  0.10566000000E+00 0.  1.
     999900   -1    0    0    0    0 -0.00000000000E+00 -0.00000000000E+00 -0.74505805969E-08  0.93827000000E+00  0.93827000000E+00 0. -1.
     999902    2    1    2    0    0  0.15904107285E-01  0.17958490245E-01 -0.36182008009E-02  0.10196701695E+01  0.10193815356E+01 0.  0.
     999903    2    3    3    0    0  0.59260556192E-01 -0.10730460497E+00 -0.34750213118E-01  0.12919848161E+00  0.21414447737E-01 0.  0.
         14    1    1    2    0    0 -0.15904107285E-01 -0.17958490245E-01  0.36182008009E-02  0.24259830532E-01  0.00000000000E+00 0. -1.
     999901    1    3    3    0    0 -0.43356448907E-01  0.12526309521E+00  0.31132012317E-01  0.89047168786E+00  0.88000000000E+00 0.  1.
        -11    1    4    4    0    0  0.21033136761E-01 -0.21415549229E-01 -0.40154928250E-02  0.30288676010E-01  0.51100000000E-03 0.  1.
         11    1    4    4    0    0  0.38227419431E-01 -0.85889055736E-01 -0.30734720293E-01  0.98909805601E-01  0.51100000000E-03 0. -1.
</event>
<event>
 8    1  0.1104109E+005  0.1043930E+01  0.7957747E-01            NaN
         13   -1    0    0    0    0  0.00000000000E+00  0.00000000000E+00  0.74505805969E-08  0.10566000000E+00  0.10566000000E+00 0.  1.
     999900   -1    0    0    0    0 -0.00000000000E+00 -0.00000000000E+00 -0.74505805969E-08  0.93827000000E+00  0.93827000000E+00 0.  1.
     999902    2    1    2    0    0 -0.20923200958E-01 -0.93541946141E-02 -0.99187303726E-02  0.10189567642E+01  0.10186506883E+01 0.  0.
     999903    2    3    3    0    0 -0.15809552999E-01 -0.44662097013E-01 -0.12081977844E+00  0.13127898490E+00  0.19801720559E-01 0.  0.
         14    1    1    2    0    0  0.20923200958E-01  0.93541946141E-02  0.99187303726E-02  0.24973235822E-01  0.00000000000E+00 0.  1.
     999901    1    3    3    0    0 -0.51136479598E-02  0.35307902399E-01  0.11090104807E+00  0.88767777928E+00  0.88000000000E+00 0. -1.
        -11    1    4    4    0    0 -0.15924382892E-01 -0.25261716668E-01 -0.54131163970E-01  0.61823816877E-01  0.51100000000E-03 0. -1.
         11    1    4    4    0    0  0.11482989368E-03 -0.19400380345E-01 -0.66688614471E-01  0.69455168019E-01  0.51100000000E-03 0.  1.
</event>
<event>
 8    1  0.1104109E+005  0.1043930E+01  0.7957747E-01            NaN
         13   -1    0    0    0    0  0.00000000000E+00  0.00000000000E+00  0.74505805969E-08  0.10566000000E+00  0.10566000000E+00 0. -1.
     999900   -1    0    0    0    0 -0.00000000000E+00 -0.00000000000E+00 -0.74505805969E-08  0.93827000000E+00  0.93827000000E+00 0. -1.
     999902    2    1    2    0    0 -0.22228840365E-01 -0.40187026229E-03  0.95280739950E-02  0.10197418410E+01  0.10194549304E+01 0.  0.
     999903    2    3    3    0    0 -0.10714343788E+00  0.66203182217E-01  0.37045378888E-01  0.13272215462E+00  0.19499554202E-01 0.  0.
         14    1    1    2    0    0  0.22228840365E-01  0.40187026229E-03 -0.95280739950E-02  0.24188159040E-01  0.00000000000E+00 0.  1.
     999901    1    3    3    0    0  0.84914597513E-01 -0.66605052479E-01 -0.27517304892E-01  0.88701968634E+00  0.88000000000E+00 0. -1.
        -11    1    4    4    0    0 -0.65784264972E-01  0.35743643132E-01  0.30873085989E-01  0.80985098023E-01  0.51100000000E-03 0. -1.
         11    1    4    4    0    0 -0.41359172906E-01  0.30459539085E-01  0.61722928988E-02  0.51737056597E-01  0.51100000000E-03 0.  1.
</event>
<event>
 8    1  0.1104109E+005  0.1043930E+01  0.7957747E-01            NaN
         13   -1    0    0    0    0  0.00000000000E+00  0.00000000000E+00  0.74505805969E-08  0.10566000000E+00  0.10566000000E+00 0.  1.
     999900   -1    0    0    0    0 -0.00000000000E+00 -0.00000000000E+00 -0.74505805969E-08  0.93827000000E+00  0.93827000000E+00 0. -1.
     999902    2    1    2    0    0  0.14385154791E-01 -0.17971417639E-01  0.92773830604E-02  0.10191111691E+01  0.10188089127E+01 0.  0.
     999903    2    3    3    0    0  0.48174587819E-01 -0.37161828449E-01  0.11566154139E+00  0.13185270237E+00  0.17485724466E-01 0.  0.
         14    1    1    2    0    0 -0.14385154791E-01  0.17971417639E-01 -0.92773830604E-02  0.24818830890E-01  0.00000000000E+00 0. -1.
     999901    1    3    3    0    0 -0.33789433029E-01  0.19190410810E-01 -0.10638415833E+00  0.88725846674E+00  0.88000000000E+00 0. -1.
        -11    1    4    4    0    0  0.12339982171E-01 -0.15181994643E-02  0.28452437609E-01  0.31054507184E-01  0.51100000000E-03 0. -1.
         11    1    4    4    0    0  0.35834605648E-01 -0.35643628985E-01  0.87209103786E-01  0.10079819519E+00  0.51100000000E-03 0.  1.
</event>
<event>
 7    1  0.1104109E+005  0.1043930E+01  0.7957747E-01            NaN
         13   -1    0    0    0    0  0.00000000000E+00  0.00000000000E+00  0.74505805969E-08  0.10566000000E+00  0.10566000000E+00 0. -1.
     999900   -1    0    0    0    0 -0.00000000000E+00 -0.00000000000E+00 -0.74505805969E-08  0.93827000000E+00  0.93827000000E+00 0. -1.
     999903    2    1    2    0    0 -0.51308405682E-02  0.31438755052E-01  0.98517058139E-01  0.10560657492E+00  0.20794640590E-01 0.  0.
         14    1    1    2    0    0 -0.50254863656E-02  0.29047116940E-01  0.35416108372E-01  0.46079184541E-01  0.00000000000E+00 0. -1.
     999901    1    1    2    0    0  0.10156326934E-01 -0.60485871992E-01 -0.13393316651E+00  0.89224424054E+00  0.88000000000E+00 0. -1.
        -11    1    3    3    0    0 -0.79488899445E-02  0.19428323116E-01  0.34327764815E-01  0.40240541107E-01  0.51100000000E-03 0. -1.
         11    1    3    3    0    0  0.28180493763E-02  0.12010431936E-01  0.64189293324E-01  0.65366033810E-01  0.51100000000E-03 0.  1.
</event>
<event>
 8    1  0.1104109E+005  0.1043930E+01  0.7957747E-01            NaN
         13   -1    0    0    0    0  0.00000000000E+00  0.00000000000E+00  0.74505805969E-08  0.10566000000E+00  0.10566000000E+00 0.  1.
     999900   -1    0    0    0    0 -0.00000000000E+00 -0.00000000000E+00 -0.74505805969E-08  0.93827000000E+00  0.93827000000E+00 0. -1.
     999902    2    1    2    0    0 -0.57436513386E-02 -0.91360796421E-02  0.20948891323E-01  0.10203649087E+01  0.10200927572E+01 0.  0.
     999903    2    3    3    0    0  0.37076863215E-01  0.50454237760E-01  0.11494899149E+00  0.13232176713E+00  0.19376674629E-01 0.  0.
         14    1    1    2    0    0  0.57436513386E-02  0.91360796421E-02 -0.20948891323E-01  0.23565091334E-01  0.00000000000E+00 0. -1.
     999901    1    3    3    0    0 -0.42820514554E-01 -0.59590317402E-01 -0.94000100162E-01  0.88804314153E+00  0.88000000000E+00 0. -1.
        -11    1    4    4    0    0  0.17375908508E-01  0.30040550016E-01  0.44947068880E-01  0.56787824080E-01  0.51100000000E-03 0. -1.
         11    1    4    4    0    0  0.19700954707E-01  0.20413687743E-01  0.70001922605E-01  0.75533943052E-01  0.51100000000E-03 0.  1.
</event>
<event>
 8    1  0.1104109E+005  0.1043930E+01  0.7957747E-01            NaN
         13   -1    0    0    0    0  0.00000000000E+00  0.00000000000E+00  0.74505805969E-08  0.10566000000E+00  0.10566000000E+00 0. -1.
     999900   -1    0    0    0    0 -0.00000000000E+00 -0.00000000000E+00 -0.74505805969E-08  0.93827000000E+00  0.93827000000E+00 0.  1.
     999902    2    1    2    0    0 -0.18815667441E-01 -0.55352860727E-02 -0.11503715425E-01  0.10211922736E+01  0.10209391047E+01 0.  0.
     999903    2    3    3    0    0 -0.56880709042E-01  0.43595442854E-01 -0.11068450745E+00  0.13344253104E+00  0.20490758917E-01 0.  0.
         14    1    1    2    0    0  0.18815667441E-01  0.55352860727E-02  0.11503715425E-01  0.22737726398E-01  0.00000000000E+00 0. -1.
     999901    1    3    3    0    0  0.38065041601E-01 -0.49130728927E-01  0.99180792028E-01  0.88774974256E+00  0.88000000000E+00 0. -1.
        -11    1    4    4    0    0 -0.35938365216E-01  0.14858441022E-01 -0.54660360213E-01  0.67084688742E-01  0.51100000000E-03 0. -1.
         11    1    4    4    0    0 -0.20942343826E-01  0.28737001832E-01 -0.56024147239E-01  0.66357842295E-01  0.51100000000E-03 0.  1.
</event>
<event>
 8    1  0.1104109E+005  0.1043930E+01  0.7957747E-01            NaN
         13   -1    0    0    0    0  0.00000000000E+00  0.00000000000E+00  0.74505805969E-08  0.10566000000E+00  0.10566000000E+00 0.  1.
     999900   -1    0    0    0    0 -0.00000000000E+00 -0.00000000000E+00 -0.74505805969E-08  0.93827000000E+00  0.93827000000E+00 0. -1.
     999902    2    1    2    0    0 -0.99203028162E-02 -0.18616240506E-01  0.10397977194E-01  0.10204120335E+01  0.10201409821E+01 0.  0.
     999903    2    3    3    0    0 -0.12749160170E+00  0.22751893930E-01 -0.89459232891E-02  0.13141905301E+00  0.20473904614E-01 0.  0.
         14    1    1    2    0    0  0.99203028162E-02  0.18616240506E-01 -0.10397977194E-01  0.23517966500E-01  0.00000000000E+00 0. -1.
     999901    1    3    3    0    0  0.11757129888E+00 -0.41368134437E-01  0.19343900483E-01  0.88899298049E+00  0.88000000000E+00 0. -1.
        -11    1    4    4    0    0 -0.44977794808E-01  0.17867376934E-01 -0.14687252947E-02  0.48421725076E-01  0.51100000000E-03 0. -1.
         11    1    4    4    0    0 -0.82513806892E-01  0.48845169967E-02 -0.74771979944E-02  0.82997327938E-01  0.51100000000E-03 0.  1.
</event>
<event>
 8    1  0.1104109E+005  0.1043930E+01  0.7957747E-01            NaN
         13   -1    0    0    0    0  0.00000000000E+00  0.00000000000E+00  0.74505805969E-08  0.10566000000E+00  0.10566000000E+00 0. -1.
     999900   -1    0    0    0    0 -0.00000000000E+00 -0.00000000000E+00 -0.74505805969E-08  0.93827000000E+00  0.93827000000E+00 0.  1.
     999902    2    1    2    0    0 -0.33415971488E-02 -0.22089360209E-01  0.68848910234E-02  0.10205524931E+01  0.10202847070E+01 0.  0.
     999903    2    3    3    0    0 -0.58885840897E-01 -0.82291939578E-01 -0.82815747773E-01  0.13220812393E+00  0.19520101861E-01 0.  0.
         14    1    1    2    0    0  0.33415971488E-02  0.22089360209E-01 -0.68848910234E-02  0.23377506932E-01  0.00000000000E+00 0.  1.
     999901    1    3    3    0    0  0.55544243748E-01  0.60202579369E-01  0.89700638796E-01  0.88834436914E+00  0.88000000000E+00 0. -1.
        -11    1    4    4    0    0 -0.42521029047E-01 -0.44181251182E-01 -0.44790979309E-01  0.75937565247E-01  0.51100000000E-03 0.  1.
         11    1    4    4    0    0 -0.16364811850E-01 -0.38110688396E-01 -0.38024768464E-01  0.56270558684E-01  0.51100000000E-03 0. -1.
</event>
<event>
 8    1  0.1104109E+005  0.1043930E+01  0.7957747E-01            NaN
         13   -1    0    0    0    0  0.00000000000E+00  0.00000000000E+00  0.74505805969E-08  0.10566000000E+00  0.10566000000E+00 0. -1.
     999900   -1    0    0    0    0 -0.00000000000E+00 -0.00000000000E+00 -0.74505805969E-08  0.93827000000E+00  0.93827000000E+00 0. -1.
     999902    2    1    2    0    0 -0.40575998849E-02 -0.22621779246E-01 -0.60560836718E-02  0.10201626871E+01  0.10198857892E+01 0.  0.
     999903    2    3    3    0    0  0.11948294893E+00 -0.37874366677E-01  0.30404905746E-01  0.13065478248E+00  0.20870341570E-01 0.  0.
         14    1    1    2    0    0  0.40575998849E-02  0.22621779246E-01  0.60560836718E-02  0.23767312900E-01  0.00000000000E+00 0.  1.
     999901    1    3    3    0    0 -0.12354054881E+00  0.15252587431E-01 -0.36460989418E-01  0.88950790462E+00  0.88000000000E+00 0.  1.
        -11    1    4    4    0    0  0.54303379289E-01 -0.28128866847E-01  0.14167135950E-01  0.62777854490E-01  0.51100000000E-03 0. -1.
         11    1    4    4    0    0  0.65179569637E-01 -0.97454998300E-02  0.16237769796E-01  0.67876927994E-01  0.51100000000E-03 0.  1.
</event>
<event>
 8    1  0.1104109E+005  0.1043930E+01  0.7957747E-01            NaN
         13   -1    0    0    0    0  0.00000000000E+00  0.00000000000E+00  0.74505805969E-08  0.10566000000E+00  0.10566000000E+00 0. -1.
     999900   -1    0    0    0    0 -0.00000000000E+00 -0.00000000000E+00 -0.74505805969E-08  0.93827000000E+00  0.93827000000E+00 0.  1.
     999902    2    1    2    0    0 -0.20600829379E-01  0.82838180612E-02  0.75943701401E-02  0.10204632092E+01  0.10201933498E+01 0.  0.
     999903    2    3    3    0    0  0.39253742687E-01  0.12150642235E+00 -0.20550201528E-01  0.13074749908E+00  0.19181520953E-01 0.  0.
         14    1    1    2    0    0  0.20600829379E-01 -0.82838180612E-02 -0.75943701401E-02  0.23466790803E-01  0.00000000000E+00 0. -1.
     999901    1    3    3    0    0 -0.59854572066E-01 -0.11322260428E+00  0.28144571669E-01  0.88971571012E+00  0.88000000000E+00 0.  1.
        -11    1    4    4    0    0  0.93175506891E-02  0.59546650666E-01 -0.11101620182E-01  0.61287253553E-01  0.51100000000E-03 0. -1.
         11    1    4    4    0    0  0.29936191998E-01  0.61959771680E-01 -0.94485813467E-02  0.69460245525E-01  0.51100000000E-03 0.  1.
</event>
<event>
 8    1  0.1104109E+005  0.1043930E+01  0.7957747E-01            NaN
         13   -1    0    0    0    0  0.00000000000E+00  0.00000000000E+00  0.74505805969E-08  0.10566000000E+00  0.10566000000E+00 0.  1.
     999900   -1    0    0    0    0 -0.00000000000E+00 -0.00000000000E+00 -0.74505805969E-08  0.93827000000E+00  0.93827000000E+00 0.  1.
     999902    2    1    2    0    0 -0.10731153401E-01  0.11674395127E-01 -0.22566001352E-01  0.10163496887E+01  0.10159754013E+01 0.  0.
     999903    2    3    3    0    0  0.41460121003E-01  0.10449667796E+00 -0.60456031718E-01  0.12912054145E+00  0.19459833348E-01 0.  0.
         14    1    1    2    0    0  0.10731153401E-01 -0.11674395127E-01  0.22566001352E-01  0.27580311309E-01  0.00000000000E+00 0.  1.
     999901    1    3    3    0    0 -0.52191274404E-01 -0.92822282837E-01  0.37890030366E-01  0.88722914724E+00  0.88000000000E+00 0.  1.
        -11    1    4    4    0    0  0.52685037972E-02  0.34140866717E-01 -0.23580138597E-01  0.41828697920E-01  0.51100000000E-03 0.  1.
         11    1    4    4    0    0  0.36191617206E-01  0.70355811247E-01 -0.36875893121E-01  0.87291843528E-01  0.51100000000E-03 0. -1.
</event>
<event>
 8    1  0.1104109E+005  0.1043930E+01  0.7957747E-01            NaN
         13   -1    0    0    0    0  0.00000000000E+00  0.00000000000E+00  0.74505805969E-08  0.10566000000E+00  0.10566000000E+00 0. -1.
     999900   -1    0    0    0    0 -0.00000000000E+00 -0.00000000000E+00 -0.74505805969E-08  0.93827000000E+00  0.93827000000E+00 0. -1.
     999902    2    1    2    0    0 -0.18100376813E-01  0.66223599002E-02  0.14788730012E-01  0.10196362595E+01  0.10193468084E+01 0.  0.
     999903    2    3    3    0    0 -0.66129741141E-01 -0.90416083729E-01  0.65842221927E-01  0.13153168323E+00  0.20424853605E-01 0.  0.
         14    1    1    2    0    0  0.18100376813E-01 -0.66223599002E-02 -0.14788730012E-01  0.24293740486E-01  0.00000000000E+00 0.  1.
     999901    1    3    3    0    0  0.48029364328E-01  0.97038443629E-01 -0.51053491915E-01  0.88810457628E+00  0.88000000000E+00 0. -1.
        -11    1    4    4    0    0 -0.39337716724E-01 -0.69437094750E-01  0.44866123337E-01  0.91554334844E-01  0.51100000000E-03 0.  1.
         11    1    4    4    0    0 -0.26792024417E-01 -0.20978988979E-01  0.20976098590E-01  0.39977348386E-01  0.51100000000E-03 0. -1.
</event>
<event>
 8    1  0.1104109E+005  0.1043930E+01  0.7957747E-01            NaN
         13   -1    0    0    0    0  0.00000000000E+00  0.00000000000E+00  0.74505805969E-08  0.10566000000E+00  0.10566000000E+00 0.  1.
     999900   -1    0    0    0    0 -0.00000000000E+00 -0.00000000000E+00 -0.74505805969E-08  0.93827000000E+00  0.93827000000E+00 0.  1.
     999902    2    1    2    0    0 -0.87204113280E-02 -0.16850768292E-01 -0.14783186572E-01  0.10198772128E+01  0.10195935429E+01 0.  0.
     999903    2    3    3    0    0  0.10913136202E+00 -0.32900428142E-01  0.56254979465E-01  0.12903881384E+00  0.22232867913E-01 0.  0.
         14    1    1    2    0    0  0.87204113280E-02  0.16850768292E-01  0.14783186572E-01  0.24052787177E-01  0.00000000000E+00 0.  1.
     999901    1    3    3    0    0 -0.11785177335E+00  0.16049659849E-01 -0.71038166037E-01  0.89083839898E+00  0.88000000000E+00 0. -1.
        -11    1    4    4    0    0  0.65281852347E-01 -0.97556586268E-02  0.38220360986E-01  0.76275489090E-01  0.51100000000E-03 0. -1.
         11    1    4    4    0    0  0.43849509672E-01 -0.23144769515E-01  0.18034618479E-01  0.52763324753E-01  0.51100000000E-03 0.  1.
</event>
<event>
 8    1  0.1104109E+005  0.1043930E+01  0.7957747E-01            NaN
         13   -1    0    0    0    0  0.00000000000E+00  0.00000000000E+00  0.74505805969E-08  0.10566000000E+00  0.10566000000E+00 0. -1.
     999900   -1    0    0    0    0 -0.00000000000E+00 -0.00000000000E+00 -0.74505805969E-08  0.93827000000E+00  0.93827000000E+00 0. -1.
     999902    2    1    2    0    0  0.14929254912E-01  0.85455398319E-02 -0.16183098245E-01  0.10203121768E+01  0.10200387917E+01 0.  0.
     999903    2    3    3    0    0 -0.63834513931E-01  0.27014549516E-01 -0.11003686417E+00  0.13163148895E+00  0.20349603250E-01 0.  0.
         14    1    1    2    0    0 -0.14929254912E-01 -0.85455398319E-02  0.16183098245E-01  0.23617823186E-01  0.00000000000E+00 0. -1.
     999901    1    3    3    0    0  0.78763768842E-01 -0.18469009684E-01  0.93853765928E-01  0.88868068786E+00  0.88000000000E+00 0.  1.
        -11    1    4    4    0    0 -0.48622176954E-01  0.26909395806E-01 -0.74270924974E-01  0.92761323254E-01  0.51100000000E-03 0. -1.
         11    1    4    4    0    0 -0.15212336977E-01  0.10515370955E-03 -0.35765939199E-01  0.38870165698E-01  0.51100000000E-03 0.  1.
</event>
<event>
 8    1  0.1104109E+005  0.1043930E+01  0.7957747E-01            NaN
         13   -1    0    0    0    0  0.00000000000E+00  0.00000000000E+00  0.74505805969E-08  0.10566000000E+00  0.10566000000E+00 0.  1.
     999900   -1    0    0    0    0 -0.00000000000E+00 -0.00000000000E+00 -0.74505805969E-08  0.93827000000E+00  0.93827000000E+00 0. -1.
     999902    2    1    2    0    0  0.29787325631E-01  0.64409504500E-02 -0.89488833200E-02  0.10121675517E+01  0.10116690662E+01 0.  0.
     999903    2    3    3    0    0 -0.56206009462E-01 -0.67250007380E-01 -0.82493702899E-01  0.12186757333E+00  0.19100141880E-01 0.  0.
         14    1    1    2    0    0 -0.29787325631E-01 -0.64409504500E-02  0.89488833200E-02  0.31762448326E-01  0.00000000000E+00 0.  1.
     999901    1    3    3    0    0  0.85993335094E-01  0.73690957830E-01  0.73544819579E-01  0.89029997834E+00  0.88000000000E+00 0.  1.
        -11    1    4    4    0    0 -0.42213684260E-02 -0.12622788034E-01 -0.19460629422E-01  0.23582449993E-01  0.51100000000E-03 0. -1.
         11    1    4    4    0    0 -0.51984641036E-01 -0.54627219346E-01 -0.63033073477E-01  0.98285123341E-01  0.51100000000E-03 0.  1.
</event>
<event>
 8    1  0.1104109E+005  0.1043930E+01  0.7957747E-01            NaN
         13   -1    0    0    0    0  0.00000000000E+00  0.00000000000E+00  0.74505805969E-08  0.10566000000E+00  0.10566000000E+00 0.  1.
     999900   -1    0    0    0    0 -0.00000000000E+00 -0.00000000000E+00 -0.74505805969E-08  0.93827000000E+00  0.93827000000E+00 0. -1.
     999902    2    1    2    0    0 -0.51082283785E-02  0.18371605697E-01  0.10453550523E-01  0.10221840438E+01  0.10219527057E+01 0.  0.
     999903    2    3    3    0    0 -0.95002228791E-01 -0.15514586548E-01 -0.87536776809E-01  0.13154870338E+00  0.19397118227E-01 0.  0.
         14    1    1    2    0    0  0.51082283785E-02 -0.18371605697E-01 -0.10453550523E-01  0.21745956212E-01  0.00000000000E+00 0. -1.
     999901    1    3    3    0    0  0.89894000412E-01  0.33886192245E-01  0.97990327332E-01  0.89063534041E+00  0.88000000000E+00 0.  1.
        -11    1    4    4    0    0 -0.60775201843E-01 -0.19265874423E-01 -0.57237428251E-01  0.85680706055E-01  0.51100000000E-03 0.  1.
         11    1    4    4    0    0 -0.34227026948E-01  0.37512878755E-02 -0.30299348558E-01  0.45867997324E-01  0.51100000000E-03 0. -1.
</event>
<event>
 8    1  0.1104109E+005  0.1043930E+01  0.7957747E-01            NaN
         13   -1    0    0    0    0  0.00000000000E+00  0.00000000000E+00  0.74505805969E-08  0.10566000000E+00  0.10566000000E+00 0. -1.
     999900   -1    0    0    0    0 -0.00000000000E+00 -0.00000000000E+00 -0.74505805969E-08  0.93827000000E+00  0.93827000000E+00 0. -1.
     999902    2    1    2    0    0  0.36315765763E-02 -0.15228892209E-01 -0.17630548529E-01  0.10203515406E+01  0.10200790767E+01 0.  0.
     999903    2    3    3    0    0  0.54310638928E-01 -0.10779662035E+00  0.48488424781E-01  0.13158336481E+00  0.19831734639E-01 0.  0.
         14    1    1    2    0    0 -0.36315765763E-02  0.15228892209E-01  0.17630548529E-01  0.23578459402E-01  0.00000000000E+00 0. -1.
     999901    1    3    3    0    0 -0.50679062351E-01  0.92567728140E-01 -0.66118973310E-01  0.88876817578E+00  0.88000000000E+00 0. -1.
        -11    1    4    4    0    0  0.36119287567E-01 -0.77495695677E-01  0.24769495420E-01  0.89016710831E-01  0.51100000000E-03 0.  1.
         11    1    4    4    0    0  0.18191351360E-01 -0.30300924671E-01  0.23718929361E-01  0.42566653983E-01  0.51100000000E-03 0. -1.
</event>
<event>
 7    1  0.1104109E+005  0.1043930E+01  0.7957747E-01            NaN
         13   -1    0    0    0    0  0.00000000000E+00  0.00000000000E+00  0.74505805969E-08  0.10566000000E+00  0.10566000000E+00 0. -1.
     999900   -1    0    0    0    0 -0.00000000000E+00 -0.00000000000E+00 -0.74505805969E-08  0.93827000000E+00  0.93827000000E+00 0.  1.
     999903    2    1    2    0    0 -0.21694302874E-01  0.39128665992E-01  0.91739689811E-01  0.10379745193E+00  0.18869156327E-01 0.  0.
         14    1    1    2    0    0  0.12642372826E-01  0.46276936167E-01 -0.23230343012E-01  0.53301343774E-01  0.00000000000E+00 0.  1.
     999901    1    1    2    0    0  0.90519300471E-02 -0.85405602159E-01 -0.68509346799E-01  0.88683120430E+00  0.88000000000E+00 0.  1.
        -11    1    3    3    0    0  0.10265267101E-02  0.16062696907E-01  0.33175385665E-01  0.36877246698E-01  0.51100000000E-03 0.  1.
         11    1    3    3    0    0 -0.22720829584E-01  0.23065969085E-01  0.58564304146E-01  0.66920205229E-01  0.51100000000E-03 0. -1.
</event>
<event>
 8    1  0.1104109E+005  0.1043930E+01  0.7957747E-01            NaN
         13   -1    0    0    0    0  0.00000000000E+00  0.00000000000E+00  0.74505805969E-08  0.10566000000E+00  0.10566000000E+00 0.  1.
     999900   -1    0    0    0    0 -0.00000000000E+00 -0.00000000000E+00 -0.74505805969E-08  0.93827000000E+00  0.93827000000E+00 0. -1.
     999902    2    1    2    0    0  0.11175418714E-01  0.18507398184E-01 -0.12270633007E-01  0.10190707521E+01  0.10187674983E+01 0.  0.
     999903    2    3    3    0    0  0.58511104904E-01 -0.87742058916E-01 -0.71988594440E-01  0.12941022740E+00  0.21034042080E-01 0.  0.
         14    1    1    2    0    0 -0.11175418714E-01 -0.18507398184E-01  0.12270633007E-01  0.24859247884E-01  0.00000000000E+00 0.  1.
     999901    1    3    3    0    0 -0.47335686190E-01  0.10624945710E+00  0.59717961433E-01  0.88966052472E+00  0.88000000000E+00 0.  1.
        -11    1    4    4    0    0  0.83302472992E-02 -0.29501077718E-01 -0.20260439416E-01  0.36748511983E-01  0.51100000000E-03 0.  1.
         11    1    4    4    0    0  0.50180857604E-01 -0.58240981198E-01 -0.51728155024E-01  0.92661715417E-01  0.51100000000E-03 0. -1.
</event>
<event>
 8    1  0.1104109E+005  0.1043930E+01  0.7957747E-01            NaN
         13   -1    0    0    0    0  0.00000000000E+00  0.00000000000E+00  0.74505805969E-08  0.10566000000E+00  0.10566000000E+00 0.  1.
     999900   -1    0    0    0    0 -0.00000000000E+00 -0.00000000000E+00 -0.74505805969E-08  0.93827000000E+00  0.93827000000E+00 0. -1.
     999902    2    1    2    0    0 -0.87011084770E-02 -0.16826410221E-01  0.13191610482E-01  0.10208463271E+01  0.10205853063E+01 0.  0.
     999903    2    3    3    0    0  0.23950650882E-01 -0.10041850455E-01  0.12849383682E+00  0.13269838271E+00  0.20584514469E-01 0.  0.
         14    1    1    2    0    0  0.87011084770E-02  0.16826410221E-01 -0.13191610482E-01  0.23083672948E-01  0.00000000000E+00 0. -1.
     999901    1    3    3    0    0 -0.32651759359E-01 -0.67845597651E-02 -0.11530222633E+00  0.88814794434E+00  0.88000000000E+00 0. -1.
        -11    1    4    4    0    0  0.12697458700E-01 -0.14561504851E-01  0.97808972413E-01  0.99700145870E-01  0.51100000000E-03 0. -1.
         11    1    4    4    0    0  0.11253192182E-01  0.45196543957E-02  0.30684864404E-01  0.32998236841E-01  0.51100000000E-03 0.  1.
</event>
<event>
 8    1  0.1104109E+005  0.1043930E+01  0.7957747E-01            NaN
         13   -1    0    0    0    0  0.00000000000E+00  0.00000000000E+00  0.74505805969E-08  0.10566000000E+00  0.10566000000E+00 0. -1.
     999900   -1    0    0    0    0 -0.00000000000E+00 -0.00000000000E+00 -0.74505805969E-08  0.93827000000E+00  0.93827000000E+00 0. -1.
     999902    2    1    2    0    0  0.10467475561E-01 -0.16815826752E-01 -0.14521767262E-01  0.10193694259E+01  0.10190735031E+01 0.  0.
     999903    2    3    3    0    0  0.45072878346E-01 -0.92545902588E-02  0.11832824494E+00  0.12869337262E+00  0.21052287387E-01 0.  0.
         14    1    1    2    0    0 -0.10467475561E-01  0.16815826752E-01  0.14521767262E-01  0.24560574065E-01  0.00000000000E+00 0.  1.
     999901    1    3    3    0    0 -0.34605402785E-01 -0.75612364935E-02 -0.13285001220E+00  0.89067605331E+00  0.88000000000E+00 0. -1.
        -11    1    4    4    0    0  0.29811918811E-01 -0.13465721658E-01  0.95170446966E-01  0.10063672918E+00  0.51100000000E-03 0.  1.
         11    1    4    4    0    0  0.15260959535E-01  0.42111313993E-02  0.23157797971E-01  0.28056643446E-01  0.51100000000E-03 0. -1.
</event>
<event>
 8    1  0.1104109E+005  0.1043930E+01  0.7957747E-01            NaN
         13   -1    0    0    0    0  0.00000000000E+00  0.00000000000E+00  0.74505805969E-08  0.10566000000E+00  0.10566000000E+00 0.  1.
     999900   -1    0    0    0    0 -0.00000000000E+00 -0.00000000000E+00 -0.74505805969E-08  0.93827000000E+00  0.93827000000E+00 0. -1.
     999902    2    1    2    0    0 -0.13247126749E-01 -0.77833461399E-02 -0.17706559526E-01  0.10204866834E+01  0.10202173699E+01 0.  0.
     999903    2    3    3    0    0  0.90162881484E-02  0.11185417209E+00  0.59201054629E-01  0.12878966278E+00  0.22121552955E-01 0.  0.
         14    1    1    2    0    0  0.13247126749E-01  0.77833461399E-02  0.17706559526E-01  0.23443316627E-01  0.00000000000E+00 0.  1.
     999901    1    3    3    0    0 -0.22263414898E-01 -0.11963751823E+00 -0.76907614155E-01  0.89169702059E+00  0.88000000000E+00 0. -1.
        -11    1    4    4    0    0  0.81911592440E-02  0.76121469581E-01  0.28585205315E-01  0.81724832853E-01  0.51100000000E-03 0.  1.
         11    1    4    4    0    0  0.82512890439E-03  0.35732702508E-01  0.30615849314E-01  0.47064829932E-01  0.51100000000E-03 0. -1.
</event>
<event>
 8    1  0.1104109E+005  0.1043930E+01  0.7957747E-01            NaN
         13   -1    0    0    0    0  0.00000000000E+00  0.00000000000E+00  0.74505805969E-08  0.10566000000E+00  0.10566000000E+00 0. -1.
     999900   -1    0    0    0    0 -0.00000000000E+00 -0.00000000000E+00 -0.74505805969E-08  0.93827000000E+00  0.93827000000E+00 0. -1.
     999902    2    1    2    0    0  0.66082671808E-02 -0.21275297395E-01 -0.12988973911E-03  0.10216516620E+01  0.10214087302E+01 0.  0.
     999903    2    3    3    0    0  0.20887935864E-01 -0.31309477667E-01 -0.12559996560E+00  0.13258061101E+00  0.19638681174E-01 0.  0.
         14    1    1    2    0    0 -0.66082671808E-02  0.21275297395E-01  0.12988973911E-03  0.22278338038E-01  0.00000000000E+00 0.  1.
     999901    1    3    3    0    0 -0.14279668683E-01  0.10034180272E-01  0.12547007587E+00  0.88907105096E+00  0.88000000000E+00 0.  1.
        -11    1    4    4    0    0  0.97961078575E-02 -0.29615557579E-01 -0.90384863789E-01  0.95617622346E-01  0.51100000000E-03 0.  1.
         11    1    4    4    0    0  0.11091828006E-01 -0.16939200883E-02 -0.35215101815E-01  0.36962988659E-01  0.51100000000E-03 0. -1.
</event>
<event>
 8    1  0.1104109E+005  0.1043930E+01  0.7957747E-01            NaN
         13   -1    0    0    0    0  0.00000000000E+00  0.00000000000E+00  0.74505805969E-08  0.10566000000E+00  0.10566000000E+00 0.  1.
     999900   -1    0    0    0    0 -0.00000000000E+00 -0.00000000000E+00 -0.74505805969E-08  0.93827000000E+00  0.93827000000E+00 0. -1.
     999902    2    1    2    0    0 -0.20856723471E-01 -0.11032497188E-01  0.27451219488E-02  0.10201759561E+01  0.10198993709E+01 0.  0.
     999903    2    3    3    0    0  0.19586552101E-01 -0.10212535294E+00 -0.77061341524E-01  0.13096133715E+00  0.19980008319E-01 0.  0.
         14    1    1    2    0    0  0.20856723471E-01  0.11032497188E-01 -0.27451219488E-02  0.23754043923E-01  0.00000000000E+00 0.  1.
     999901    1    3    3    0    0 -0.40443275573E-01  0.91092855757E-01  0.79806463473E-01  0.88921461893E+00  0.88000000000E+00 0.  1.
        -11    1    4    4    0    0  0.38750088936E-02 -0.66464756174E-01 -0.53587501513E-01  0.85466139181E-01  0.51100000000E-03 0.  1.
         11    1    4    4    0    0  0.15711543208E-01 -0.35660596771E-01 -0.23473840011E-01  0.45495197965E-01  0.51100000000E-03 0. -1.
</event>
<event>
 8    1  0.1104109E+005  0.1043930E+01  0.7957747E-01            NaN
         13   -1    0    0    0    0  0.00000000000E+00  0.00000000000E+00  0.74505805969E-08  0.10566000000E+00  0.10566000000E+00 0.  1.
     999900   -1    0    0    0    0 -0.00000000000E+00 -0.00000000000E+00 -0.74505805969E-08  0.93827000000E+00  0.93827000000E+00 0.  1.
     999902    2    1    2    0    0  0.20787435901E-01 -0.35175369053E-02 -0.98693679228E-02  0.10206513621E+01  0.10203858623E+01 0.  0.
     999903    2    3    3    0    0 -0.60853585189E-01  0.15394042300E-01 -0.11286841625E+00  0.13068972920E+00  0.20009761723E-01 0.  0.
         14    1    1    2    0    0 -0.20787435901E-01  0.35175369053E-02  0.98693679228E-02  0.23278637856E-01  0.00000000000E+00 0.  1.
     999901    1    3    3    0    0  0.81641021090E-01 -0.18911579205E-01  0.10299904832E+00  0.88996163294E+00  0.88000000000E+00 0. -1.
        -11    1    4    4    0    0 -0.43642866424E-01  0.50674649419E-02 -0.61901000702E-01  0.75910302328E-01  0.51100000000E-03 0.  1.
         11    1    4    4    0    0 -0.17210718765E-01  0.10326577358E-01 -0.50967415545E-01  0.54779426874E-01  0.51100000000E-03 0. -1.
</event>
<event>
 8    1  0.1104109E+005  0.1043930E+01  0.7957747E-01            NaN
         13   -1    0    0    0    0  0.00000000000E+00  0.00000000000E+00  0.74505805969E-08  0.10566000000E+00  0.10566000000E+00 0.  1.
     999900   -1    0    0    0    0 -0.00000000000E+00 -0.00000000000E+00 -0.74505805969E-08  0.93827000000E+00  0.93827000000E+00 0.  1.
     999902    2    1    2    0    0 -0.15735553638E-01  0.14122458333E-01 -0.11108429846E-01  0.10200459323E+01  0.10197662748E+01 0.  0.
     999903    2    3    3    0    0  0.39743377541E-01 -0.11012510166E+00 -0.49982386737E-01  0.12873983867E+00  0.19199817798E-01 0.  0.
         14    1    1    2    0    0  0.15735553638E-01 -0.14122458333E-01  0.11108429846E-01  0.23884067729E-01  0.00000000000E+00 0. -1.
     999901    1    3    3    0    0 -0.55478931178E-01  0.12424755999E+00  0.38873956891E-01  0.89130609360E+00  0.88000000000E+00 0. -1.
        -11    1    4    4    0    0  0.27461037850E-01 -0.56875807616E-01 -0.19185932663E-01  0.66010053968E-01  0.51100000000E-03 0. -1.
         11    1    4    4    0    0  0.12282339691E-01 -0.53249294040E-01 -0.30796454074E-01  0.62729784700E-01  0.51100000000E-03 0.  1.
</event>
<event>
 8    1  0.1104109E+005  0.1043930E+01  0.7957747E-01            NaN
         13   -1    0    0    0    0  0.00000000000E+00  0.00000000000E+00  0.74505805969E-08  0.10566000000E+00  0.10566000000E+00 0. -1.
     999900   -1    0    0    0    0 -0.00000000000E+00 -0.00000000000E+00 -0.74505805969E-08  0.93827000000E+00  0.93827000000E+00 0.  1.
     999902    2    1    2    0    0  0.20147216361E-01 -0.95405257407E-02  0.72486600535E-02  0.10204891162E+01  0.10202198593E+01 0.  0.
     999903    2    3    3    0    0  0.95815835223E-01 -0.89991967182E-01 -0.10414015002E-01  0.13340955702E+00  0.20259066096E-01 0.  0.
         14    1    1    2    0    0 -0.20147216361E-01  0.95405257407E-02 -0.72486600535E-02  0.23440883752E-01  0.00000000000E+00 0. -1.
     999901    1    3    3    0    0 -0.75668618862E-01  0.80451441441E-01  0.17662675055E-01  0.88707955923E+00  0.88000000000E+00 0.  1.
        -11    1    4    4    0    0  0.38300398382E-01 -0.25536896728E-01 -0.95599900289E-02  0.47018168202E-01  0.51100000000E-03 0.  1.
         11    1    4    4    0    0  0.57515436840E-01 -0.64455070454E-01 -0.85402497298E-03  0.86391388818E-01  0.51100000000E-03 0. -1.
</event>
<event>
 8    1  0.1104109E+005  0.1043930E+01  0.7957747E-01            NaN
         13   -1    0    0    0    0  0.00000000000E+00  0.00000000000E+00  0.74505805969E-08  0.10566000000E+00  0.10566000000E+00 0.  1.
     999900   -1    0    0    0    0 -0.00000000000E+00 -0.00000000000E+00 -0.74505805969E-08  0.93827000000E+00  0.93827000000E+00 0.  1.
     999902    2    1    2    0    0 -0.91559278785E-02 -0.14599636709E-01 -0.16394578241E-01  0.10201442353E+01  0.10198669022E+01 0.  0.
     999903    2    3    3    0    0  0.35854478117E-01  0.12148675558E+00 -0.82142749234E-02  0.12850957906E+00  0.20066445039E-01 0.  0.
         14    1    1    2    0    0  0.91559278785E-02  0.14599636709E-01  0.16394578241E-01  0.23785764714E-01  0.00000000000E+00 0.  1.
     999901    1    3    3    0    0 -0.45010405995E-01 -0.13608639229E+00 -0.81803033172E-02  0.89163465622E+00  0.88000000000E+00 0. -1.
        -11    1    4    4    0    0  0.93817543372E-03  0.39718425723E-02  0.34419529748E-02  0.53631956746E-02  0.51100000000E-03 0.  1.
         11    1    4    4    0    0  0.34916302683E-01  0.11751491301E+00 -0.11656227898E-01  0.12314638339E+00  0.51100000000E-03 0. -1.
</event>
<event>
 8    1  0.1104109E+005  0.1043930E+01  0.7957747E-01            NaN
         13   -1    0    0    0    0  0.00000000000E+00  0.00000000000E+00  0.74505805969E-08  0.10566000000E+00  0.10566000000E+00 0.  1.
     999900   -1    0    0    0    0 -0.00000000000E+00 -0.00000000000E+00 -0.74505805969E-08  0.93827000000E+00  0.93827000000E+00 0.  1.
     999902    2    1    2    0    0 -0.13192809662E-01 -0.27456618480E-02  0.19414461524E-01  0.10202971796E+01  0.10200234431E+01 0.  0.
     999903    2    3    3    0    0  0.82916223982E-01  0.96870732306E-01 -0.27845050812E-02  0.12920057063E+00  0.20639646427E-01 0.  0.
         14    1    1    2    0    0  0.13192809662E-01  0.27456618480E-02 -0.19414461524E-01  0.23632820442E-01  0.00000000000E+00 0. -1.
     999901    1    3    3    0    0 -0.96109033644E-01 -0.99616394154E-01  0.22198966605E-01  0.89109660893E+00  0.88000000000E+00 0. -1.
        -11    1    4    4    0    0  0.62531569801E-01  0.58643774423E-01  0.73189461982E-03  0.85732644256E-01  0.51100000000E-03 0. -1.
         11    1    4    4    0    0  0.20384654181E-01  0.38226957883E-01 -0.35163997010E-02  0.43467926370E-01  0.51100000000E-03 0.  1.
</event>
<event>
 8    1  0.1104109E+005  0.1043930E+01  0.7957747E-01            NaN
         13   -1    0    0    0    0  0.00000000000E+00  0.00000000000E+00  0.74505805969E-08  0.10566000000E+00  0.10566000000E+00 0. -1.
     999900   -1    0    0    0    0 -0.00000000000E+00 -0.00000000000E+00 -0.74505805969E-08  0.93827000000E+00  0.93827000000E+00 0.  1.
     999902    2    1    2    0    0 -0.15759605506E-02  0.25077902368E-01 -0.10626167135E-02  0.10187801691E+01  0.10184696947E+01 0.  0.
     999903    2    3    3    0    0 -0.11294177299E+00  0.64666041233E-01  0.94160878933E-02  0.13081656167E+00  0.93149943258E-02 0.  0.
         14    1    1    2    0    0  0.15759605506E-02 -0.25077902368E-01  0.10626167135E-02  0.25149830877E-01  0.00000000000E+00 0.  1.
     999901    1    3    3    0    0  0.11136581244E+00 -0.39588138865E-01 -0.10478704607E-01  0.88796360746E+00  0.88000000000E+00 0. -1.
        -11    1    4    4    0    0 -0.76917433463E-01  0.41361434457E-01  0.26231256572E-02  0.87373919107E-01  0.51100000000E-03 0. -1.
         11    1    4    4    0    0 -0.36024339529E-01  0.23304606776E-01  0.67929622360E-02  0.43442642558E-01  0.51100000000E-03 0.  1.
</event>
<event>
 8    1  0.1104109E+005  0.1043930E+01  0.7957747E-01            NaN
         13   -1    0    0    0    0  0.00000000000E+00  0.00000000000E+00  0.74505805969E-08  0.10566000000E+00  0.10566000000E+00 0.  1.
     999900   -1    0    0    0    0 -0.00000000000E+00 -0.00000000000E+00 -0.74505805969E-08  0.93827000000E+00  0.93827000000E+00 0. -1.
     999902    2    1    2    0    0 -0.70636488135E-02  0.95914612250E-02  0.20083835177E-01  0.10205793748E+01  0.10203122113E+01 0.  0.
     999903    2    3    3    0    0 -0.39812055372E-01 -0.12289202599E+00 -0.10980638476E-02  0.12980835742E+00  0.12710393629E-01 0.  0.
         14    1    1    2    0    0  0.70636488135E-02 -0.95914612250E-02 -0.20083835177E-01  0.23350625225E-01  0.00000000000E+00 0. -1.
     999901    1    3    3    0    0  0.32748406558E-01  0.13248348722E+00  0.21181899025E-01  0.89077101736E+00  0.88000000000E+00 0.  1.
        -11    1    4    4    0    0 -0.13199668872E-01 -0.49137054275E-01 -0.60562412922E-02  0.51240809330E-01  0.51100000000E-03 0. -1.
         11    1    4    4    0    0 -0.26612386500E-01 -0.73754971715E-01  0.49581774446E-02  0.78567548088E-01  0.51100000000E-03 0.  1.
</event>
<event>
 8    1  0.1104109E+005  0.1043930E+01  0.7957747E-01            NaN
         13   -1    0    0    0    0  0.00000000000E+00  0.00000000000E+00  0.74505805969E-08  0.10566000000E+00  0.10566000000E+00 0.  1.
     999900   -1    0    0    0    0 -0.00000000000E+00 -0.00000000000E+00 -0.74505805969E-08  0.93827000000E+00  0.93827000000E+00 0.  1.
     999902    2    1    2    0    0  0.21258043183E-01 -0.67835100813E-02  0.10641372847E-01  0.10192083652E+01  0.10189085006E+01 0.  0.
     999903    2    3    3    0    0 -0.16530197554E-01 -0.72299433434E-01 -0.10319447294E+00  0.12865859845E+00  0.20086816643E-01 0.  0.
         14    1    1    2    0    0 -0.21258043183E-01  0.67835100813E-02 -0.10641372847E-01  0.24721634757E-01  0.00000000000E+00 0.  1.
     999901    1    3    3    0    0  0.37788240737E-01  0.65515923352E-01  0.11383584579E+00  0.89054976679E+00  0.88000000000E+00 0. -1.
        -11    1    4    4    0    0 -0.12292855902E-01 -0.38517311511E-01 -0.40013698131E-01  0.56886331851E-01  0.51100000000E-03 0.  1.
         11    1    4    4    0    0 -0.42373416522E-02 -0.33782121922E-01 -0.63180774811E-01  0.71772266598E-01  0.51100000000E-03 0. -1.
</event>
<event>
 8    1  0.1104109E+005  0.1043930E+01  0.7957747E-01            NaN
         13   -1    0    0    0    0  0.00000000000E+00  0.00000000000E+00  0.74505805969E-08  0.10566000000E+00  0.10566000000E+00 0.  1.
     999900   -1    0    0    0    0 -0.00000000000E+00 -0.00000000000E+00 -0.74505805969E-08  0.93827000000E+00  0.93827000000E+00 0. -1.
     999902    2    1    2    0    0  0.10161078223E-01  0.18046266433E-01 -0.30472179113E-02  0.10229967542E+01  0.10227825567E+01 0.  0.
     999903    2    3    3    0    0 -0.25577091064E-01 -0.54629737928E-01 -0.11579091619E+00  0.13211507863E+00  0.20205491275E-01 0.  0.
         14    1    1    2    0    0 -0.10161078223E-01 -0.18046266433E-01  0.30472179113E-02  0.20933245803E-01  0.00000000000E+00 0. -1.
     999901    1    3    3    0    0  0.35738169288E-01  0.72676004361E-01  0.11274369828E+00  0.89088167556E+00  0.88000000000E+00 0. -1.
        -11    1    4    4    0    0 -0.42247709342E-02 -0.10182119292E-01 -0.81591501084E-02  0.13724324909E-01  0.51100000000E-03 0. -1.
         11    1    4    4    0    0 -0.21352320130E-01 -0.44447618636E-01 -0.10763176608E+00  0.11839075372E+00  0.51100000000E-03 0.  1.
</event>
<event>
 8    1  0.1104109E+005  0.1043930E+01  0.7957747E-01            NaN
         13   -1    0    0    0    0  0.00000000000E+00  0.00000000000E+00  0.74505805969E-08  0.10566000000E+00  0.10566000000E+00 0. -1.
     999900   -1    0    0    0    0 -0.00000000000E+00 -0.00000000000E+00 -0.74505805969E-08  0.93827000000E+00  0.93827000000E+00 0. -1.
     999902    2    1    2    0    0 -0.51662650187E-02  0.19940864349E-01  0.11400621142E-01  0.10203863697E+01  0.10201147195E+01 0.  0.
     999903    2    3    3    0    0  0.16752196790E-01 -0.12053100235E+00  0.35989393647E-01  0.12863675684E+00  0.21067038973E-01 0.  0.
         14    1    1    2    0    0  0.51662650187E-02 -0.19940864349E-01 -0.11400621142E-01  0.23543630299E-01  0.00000000000E+00 0.  1.
     999901    1    3    3    0    0 -0.21918461809E-01  0.14047186670E+00 -0.24588772505E-01  0.89174961286E+00  0.88000000000E+00 0.  1.
        -11    1    4    4    0    0  0.16760205213E-01 -0.46212699081E-01  0.13227690483E-01  0.50909242301E-01  0.51100000000E-03 0. -1.
         11    1    4    4    0    0 -0.80084222672E-05 -0.74318303269E-01  0.22761703164E-01  0.77727514541E-01  0.51100000000E-03 0.  1.
</event>
<event>
 8    1  0.1104109E+005  0.1043930E+01  0.7957747E-01            NaN
         13   -1    0    0    0    0  0.00000000000E+00  0.00000000000E+00  0.74505805969E-08  0.10566000000E+00  0.10566000000E+00 0.  1.
     999900   -1    0    0    0    0 -0.00000000000E+00 -0.00000000000E+00 -0.74505805969E-08  0.93827000000E+00  0.93827000000E+00 0.  1.
     999902    2    1    2    0    0 -0.23306351570E-01  0.10245793786E-01  0.62982346269E-02  0.10177034853E+01  0.10173654967E+01 0.  0.
     999903    2    3    3    0    0 -0.11345639232E+00  0.61647518950E-01 -0.63354362130E-02  0.13151570789E+00  0.24155208921E-01 0.  0.
         14    1    1    2    0    0  0.23306351570E-01 -0.10245793786E-01 -0.62982346269E-02  0.26226514698E-01  0.00000000000E+00 0. -1.
     999901    1    3    3    0    0  0.90150040752E-01 -0.51401725164E-01  0.12633670840E-01  0.88618777741E+00  0.88000000000E+00 0. -1.
        -11    1    4    4    0    0 -0.44307488820E-01  0.28310197898E-01 -0.13866933737E-01  0.54379902931E-01  0.51100000000E-03 0.  1.
         11    1    4    4    0    0 -0.69148903502E-01  0.33337321052E-01  0.75314975237E-02  0.77135804957E-01  0.51100000000E-03 0. -1.
</event>
<event>
 8    1  0.1104109E+005  0.1043930E+01  0.7957747E-01            NaN
         13   -1    0    0    0    0  0.00000000000E+00  0.00000000000E+00  0.74505805969E-08  0.10566000000E+00  0.10566000000E+00 0. -1.
     999900   -1    0    0    0    0 -0.00000000000E+00 -0.00000000000E+00 -0.74505805969E-08  0.93827000000E+00  0.93827000000E+00 0.  1.
     999902    2    1    2    0    0 -0.18642479749E-01 -0.45505111759E-02  0.13040811221E-01  0.10207284492E+01  0.10204647250E+01 0.  0.
     999903    2    3    3    0    0  0.86380495544E-01 -0.94040406802E-01  0.12939057313E-01  0.12997692540E+00  0.20527878870E-01 0.  0.
         14    1    1    2    0    0  0.18642479749E-01  0.45505111759E-02 -0.13040811221E-01  0.23201550820E-01  0.00000000000E+00 0.  1.
     999901    1    3    3    0    0 -0.10502297529E+00  0.89489895626E-01  0.10175390838E-03  0.89075152378E+00  0.88000000000E+00 0. -1.
        -11    1    4    4    0    0  0.22679738041E-01 -0.29489338021E-01  0.12612364560E-01  0.39285168134E-01  0.51100000000E-03 0.  1.
         11    1    4    4    0    0  0.63700757504E-01 -0.64551068781E-01  0.32669275347E-03  0.90691757268E-01  0.51100000000E-03 0. -1.
</event>
<event>
 8    1  0.1104109E+005  0.1043930E+01  0.7957747E-01            NaN
         13   -1    0    0    0    0  0.00000000000E+00  0.00000000000E+00  0.74505805969E-08  0.10566000000E+00  0.10566000000E+00 0. -1.
     999900   -1    0    0    0    0 -0.00000000000E+00 -0.00000000000E+00 -0.74505805969E-08  0.93827000000E+00  0.93827000000E+00 0.  1.
     999902    2    1    2    0    0 -0.80458084352E-02 -0.11794437622E-01 -0.22985451772E-01  0.10168712715E+01  0.10165111943E+01 0.  0.
     999903    2    3    3    0    0 -0.14924114346E-01 -0.10179626796E+00  0.72031175204E-01  0.12716581469E+00  0.19936019338E-01 0.  0.
         14    1    1    2    0    0  0.80458084352E-02  0.11794437622E-01  0.22985451772E-01  0.27058728450E-01  0.00000000000E+00 0. -1.
     999901    1    3    3    0    0  0.68783059111E-02  0.90001830333E-01 -0.95016626976E-01  0.88970545685E+00  0.88000000000E+00 0.  1.
        -11    1    4    4    0    0  0.23142012299E-02 -0.43527606587E-01  0.35871879710E-01  0.56454060416E-01  0.51100000000E-03 0.  1.
         11    1    4    4    0    0 -0.17238315576E-01 -0.58268661368E-01  0.36159295494E-01  0.70711754279E-01  0.51100000000E-03 0. -1.
</event>
<event>
 8    1  0.1104109E+005  0.1043930E+01  0.7957747E-01            NaN
         13   -1    0    0    0    0  0.00000000000E+00  0.00000000000E+00  0.74505805969E-08  0.10566000000E+00  0.10566000000E+00 0.  1.
     999900   -1    0    0    0    0 -0.00000000000E+00 -0.00000000000E+00 -0.74505805969E-08  0.93827000000E+00  0.93827000000E+00 0.  1.
     999902    2    1    2    0    0 -0.95170570920E-02 -0.20644376225E-01  0.35131136853E-02  0.10209276824E+01  0.10206685192E+01 0.  0.
     999903    2    3    3    0    0 -0.40699428691E-01 -0.12501973870E+00  0.16165040914E-01  0.13412069789E+00  0.20992248403E-01 0.  0.
         14    1    1    2    0    0  0.95170570920E-02  0.20644376225E-01 -0.35131136853E-02  0.23002317561E-01  0.00000000000E+00 0.  1.
     999901    1    3    3    0    0  0.31182371599E-01  0.10437536248E+00 -0.12651927229E-01  0.88680698455E+00  0.88000000000E+00 0.  1.
        -11    1    4    4    0    0 -0.22122571807E-01 -0.38621752712E-01  0.14925730687E-02  0.44536915713E-01  0.51100000000E-03 0. -1.
         11    1    4    4    0    0 -0.18576856884E-01 -0.86397985989E-01  0.14672467845E-01  0.89583782172E-01  0.51100000000E-03 0.  1.
</event>
<event>
 8    1  0.1104109E+005  0.1043930E+01  0.7957747E-01            NaN
         13   -1    0    0    0    0  0.00000000000E+00  0.00000000000E+00  0.74505805969E-08  0.10566000000E+00  0.10566000000E+00 0.  1.
     999900   -1    0    0    0    0 -0.00000000000E+00 -0.00000000000E+00 -0.74505805969E-08  0.93827000000E+00  0.93827000000E+00 0. -1.
     999902    2    1    2    0    0  0.15308026314E-01 -0.16089711658E-01  0.70523445256E-02  0.10206287113E+01  0.10203626886E+01 0.  0.
     999903    2    3    3    0    0  0.11406785698E-01 -0.11720722518E+00  0.59286754369E-01  0.13329089245E+00  0.19593222613E-01 0.  0.
         14    1    1    2    0    0 -0.15308026314E-01  0.16089711658E-01 -0.70523445256E-02  0.23301288681E-01  0.00000000000E+00 0. -1.
     999901    1    3    3    0    0  0.39012406162E-02  0.10111751352E+00 -0.52234409844E-01  0.88733781887E+00  0.88000000000E+00 0. -1.
        -11    1    4    4    0    0  0.14205567452E-01 -0.57747714797E-01  0.24310597197E-01  0.64248447203E-01  0.51100000000E-03 0. -1.
         11    1    4    4    0    0 -0.27987817541E-02 -0.59459510385E-01  0.34976157172E-01  0.69042445249E-01  0.51100000000E-03 0.  1.
</event>
<event>
 8    1  0.1104109E+005  0.1043930E+01  0.7957747E-01            NaN
         13   -1    0    0    0    0  0.00000000000E+00  0.00000000000E+00  0.74505805969E-08  0.10566000000E+00  0.10566000000E+00 0. -1.
     999900   -1    0    0    0    0 -0.00000000000E+00 -0.00000000000E+00 -0.74505805969E-08  0.93827000000E+00  0.93827000000E+00 0. -1.
     999902    2    1    2    0    0  0.35366527230E-02  0.23540925183E-01 -0.34368906134E-02  0.10198780710E+01  0.10195944215E+01 0.  0.
     999903    2    3    3    0    0  0.86835230526E-01 -0.27883303346E-01 -0.90650058864E-01  0.13016506051E+00  0.20190937052E-01 0.  0.
         14    1    1    2    0    0 -0.35366527230E-02 -0.23540925183E-01  0.34368906134E-02  0.24051928988E-01  0.00000000000E+00 0.  1.
     999901    1    3    3    0    0 -0.83298577803E-01  0.51424228528E-01  0.87213168251E-01  0.88971301050E+00  0.88000000000E+00 0.  1.
        -11    1    4    4    0    0  0.25106498702E-01 -0.17966088385E-01 -0.30921452740E-01  0.43697985874E-01  0.51100000000E-03 0. -1.
         11    1    4    4    0    0  0.61728731825E-01 -0.99172149610E-02 -0.59728606124E-01  0.86467074634E-01  0.51100000000E-03 0.  1.
</event>
<event>
 8    1  0.1104109E+005  0.1043930E+01  0.7957747E-01            NaN
         13   -1    0    0    0    0  0.00000000000E+00  0.00000000000E+00  0.74505805969E-08  0.10566000000E+00  0.10566000000E+00 0.  1.
     999900   -1    0    0    0    0 -0.00000000000E+00 -0.00000000000E+00 -0.74505805969E-08  0.93827000000E+00  0.93827000000E+00 0.  1.
     999902    2    1    2    0    0 -0.22935044956E-01  0.48539410097E-02 -0.85644955841E-02  0.10189714821E+01  0.10186657714E+01 0.  0.
     999903    2    3    3    0    0 -0.79164841704E-01  0.97011243379E-01  0.34235866129E-01  0.13134170040E+00  0.20007354410E-01 0.  0.
         14    1    1    2    0    0  0.22935044956E-01 -0.48539410097E-02  0.85644955841E-02  0.24958517886E-01  0.00000000000E+00 0.  1.
     999901    1    3    3    0    0  0.56229796749E-01 -0.92157302369E-01 -0.42800361714E-01  0.88762978171E+00  0.88000000000E+00 0.  1.
        -11    1    4    4    0    0 -0.21258619161E-01  0.33979895753E-01  0.19164621816E-01  0.44430913274E-01  0.51100000000E-03 0.  1.
         11    1    4    4    0    0 -0.57906222543E-01  0.63031347626E-01  0.15071244313E-01  0.86910787126E-01  0.51100000000E-03 0. -1.
</event>
<event>
 8    1  0.1104109E+005  0.1043930E+01  0.7957747E-01            NaN
         13   -1    0    0    0    0  0.00000000000E+00  0.00000000000E+00  0.74505805969E-08  0.10566000000E+00  0.10566000000E+00 0.  1.
     999900   -1    0    0    0    0 -0.00000000000E+00 -0.00000000000E+00 -0.74505805969E-08  0.93827000000E+00  0.93827000000E+00 0.  1.
     999902    2    1    2    0    0 -0.14413352375E-01  0.31299755508E-02  0.17368002685E-01  0.10211442810E+01  0.10208900301E+01 0.  0.
     999903    2    3    3    0    0  0.58680313916E-01 -0.11344586273E+00  0.16505722989E-01  0.13045165519E+00  0.20781059589E-01 0.  0.
         14    1    1    2    0    0  0.14413352375E-01 -0.31299755508E-02 -0.17368002685E-01  0.22785719012E-01  0.00000000000E+00 0. -1.
     999901    1    3    3    0    0 -0.73093666291E-01  0.11657583829E+00  0.86227969623E-03  0.89069262580E+00  0.88000000000E+00 0. -1.
        -11    1    4    4    0    0  0.48730568297E-01 -0.94935344796E-01  0.58231740428E-02  0.10687169155E+00  0.51100000000E-03 0. -1.
         11    1    4    4    0    0  0.99497456191E-02 -0.18510517939E-01  0.10682548946E-01  0.23579963639E-01  0.51100000000E-03 0.  1.
</event>
<event>
 8    1  0.1104109E+005  0.1043930E+01  0.7957747E-01            NaN
         13   -1    0    0    0    0  0.00000000000E+00  0.00000000000E+00  0.74505805969E-08  0.10566000000E+00  0.10566000000E+00 0. -1.
     999900   -1    0    0    0    0 -0.00000000000E+00 -0.00000000000E+00 -0.74505805969E-08  0.93827000000E+00  0.93827000000E+00 0.  1.
     999902    2    1    2    0    0  0.21337562855E-01 -0.76038736192E-02 -0.12780883470E-01  0.10179211272E+01  0.10175887970E+01 0.  0.
     999903    2    3    3    0    0 -0.48900246922E-01  0.10838487567E+00  0.36871902010E-01  0.12615202087E+00  0.20402935778E-01 0.  0.
         14    1    1    2    0    0 -0.21337562855E-01  0.76038736192E-02  0.12780883470E-01  0.26008872811E-01  0.00000000000E+00 0. -1.
     999901    1    3    3    0    0  0.70237809777E-01 -0.11598874929E+00 -0.49652785480E-01  0.89176910632E+00  0.88000000000E+00 0.  1.
        -11    1    4    4    0    0 -0.14498245194E-01  0.43318794580E-01  0.50392419867E-02  0.45960550022E-01  0.51100000000E-03 0.  1.
         11    1    4    4    0    0 -0.34402001728E-01  0.65066081089E-01  0.31832660023E-01  0.80191470845E-01  0.51100000000E-03 0. -1.
</event>
<event>
 8    1  0.1104109E+005  0.1043930E+01  0.7957747E-01            NaN
         13   -1    0    0    0    0  0.00000000000E+00  0.00000000000E+00  0.74505805969E-08  0.10566000000E+00  0.10566000000E+00 0.  1.
     999900   -1    0    0    0    0 -0.00000000000E+00 -0.00000000000E+00 -0.74505805969E-08  0.93827000000E+00  0.93827000000E+00 0.  1.
     999902    2    1    2    0    0  0.64822982471E-02  0.17567356150E-01 -0.18700287361E-01  0.10174661957E+01  0.10171219821E+01 0.  0.
     999903    2    3    3    0    0 -0.86696031443E-01 -0.36616398794E-01  0.80777986131E-01  0.12532606804E+00  0.18016041664E-01 0.  0.
         14    1    1    2    0    0 -0.64822982471E-02 -0.17567356150E-01  0.18700287361E-01  0.26463804338E-01  0.00000000000E+00 0.  1.
     999901    1    3    3    0    0  0.93178329690E-01  0.54183754944E-01 -0.99478273492E-01  0.89214012763E+00  0.88000000000E+00 0. -1.
        -11    1    4    4    0    0 -0.53829247525E-01 -0.29669099807E-01  0.44521188731E-01  0.75896249838E-01  0.51100000000E-03 0.  1.
         11    1    4    4    0    0 -0.32866783918E-01 -0.69472989871E-02  0.36256797400E-01  0.49429818198E-01  0.51100000000E-03 0. -1.
</event>
<event>
 8    1  0.1104109E+005  0.1043930E+01  0.7957747E-01            NaN
         13   -1    0    0    0    0  0.00000000000E+00  0.00000000000E+00  0.74505805969E-08  0.10566000000E+00  0.10566000000E+00 0.  1.
     999900   -1    0    0    0    0 -0.00000000000E+00 -0.00000000000E+00 -0.74505805969E-08  0.93827000000E+00  0.93827000000E+00 0.  1.
     999902    2    1    2    0    0 -0.22598214819E-01  0.25722295376E-02  0.91803365685E-02  0.10194029892E+01  0.10191078845E+01 0.  0.
     999903    2    3    3    0    0 -0.48381307404E-02 -0.12782090143E+00 -0.58975236152E-02  0.12948999851E+00  0.19268849883E-01 0.  0.
         14    1    1    2    0    0  0.22598214819E-01 -0.25722295376E-02 -0.91803365685E-02  0.24527010770E-01  0.00000000000E+00 0.  1.
     999901    1    3    3    0    0 -0.17760084079E-01  0.13039313097E+00  0.15077860184E-01  0.88991299072E+00  0.88000000000E+00 0. -1.
        -11    1    4    4    0    0 -0.10029259171E-01 -0.36335747750E-01 -0.58681226720E-03  0.37702494263E-01  0.51100000000E-03 0. -1.
         11    1    4    4    0    0  0.51911284309E-02 -0.91485153684E-01 -0.53107113480E-02  0.91787504243E-01  0.51100000000E-03 0.  1.
</event>
<event>
 8    1  0.1104109E+005  0.1043930E+01  0.7957747E-01            NaN
         13   -1    0    0    0    0  0.00000000000E+00  0.00000000000E+00  0.74505805969E-08  0.10566000000E+00  0.10566000000E+00 0.  1.
     999900   -1    0    0    0    0 -0.00000000000E+00 -0.00000000000E+00 -0.74505805969E-08  0.93827000000E+00  0.93827000000E+00 0.  1.
     999902    2    1    2    0    0  0.31704033002E-02  0.21116810690E-01  0.38599697113E-02  0.10222304489E+01  0.10220001077E+01 0.  0.
     999903    2    3    3    0    0  0.12055069365E+00 -0.34222444618E-01  0.36867310005E-01  0.13210121659E+00  0.19694857746E-01 0.  0.
         14    1    1    2    0    0 -0.31704033002E-02 -0.21116810690E-01 -0.38599697113E-02  0.21699551078E-01  0.00000000000E+00 0.  1.
     999901    1    3    3    0    0 -0.11738029035E+00  0.55339255308E-01 -0.33007340294E-01  0.89012923233E+00  0.88000000000E+00 0. -1.
        -11    1    4    4    0    0  0.65541050325E-01 -0.28533348572E-01  0.22838819209E-01  0.75044347171E-01  0.51100000000E-03 0.  1.
         11    1    4    4    0    0  0.55009643326E-01 -0.56890960463E-02  0.14028490796E-01  0.57056869418E-01  0.51100000000E-03 0. -1.
</event>
<event>
 8    1  0.1104109E+005  0.1043930E+01  0.7957747E-01            NaN
         13   -1    0    0    0    0  0.00000000000E+00  0.00000000000E+00  0.74505805969E-08  0.10566000000E+00  0.10566000000E+00 0.  1.
     999900   -1    0    0    0    0 -0.00000000000E+00 -0.00000000000E+00 -0.74505805969E-08  0.93827000000E+00  0.93827000000E+00 0.  1.
     999902    2    1    2    0    0  0.60440931733E-02 -0.94322929600E-02  0.20736740555E-01  0.10203607060E+01  0.10200884563E+01 0.  0.
     999903    2    3    3    0    0 -0.41346957106E-01 -0.12305307668E+00 -0.66637510664E-02  0.13136892811E+00  0.19019967223E-01 0.  0.
         14    1    1    2    0    0 -0.60440931733E-02  0.94322929600E-02 -0.20736740555E-01  0.23569294042E-01  0.00000000000E+00 0. -1.
     999901    1    3    3    0    0  0.47391050279E-01  0.11362078372E+00  0.27400491622E-01  0.88899177785E+00  0.88000000000E+00 0.  1.
        -11    1    4    4    0    0 -0.40852508555E-01 -0.10142662744E+00 -0.83553767960E-02  0.10966476942E+00  0.51100000000E-03 0. -1.
         11    1    4    4    0    0 -0.49444855060E-03 -0.21626449234E-01  0.16916257296E-02  0.21704158690E-01  0.51100000000E-03 0.  1.
</event>
<event>
 7    1  0.1104109E+005  0.1043930E+01  0.7957747E-01            NaN
         13   -1    0    0    0    0  0.00000000000E+00  0.00000000000E+00  0.74505805969E-08  0.10566000000E+00  0.10566000000E+00 0.  1.
     999900   -1    0    0    0    0 -0.00000000000E+00 -0.00000000000E+00 -0.74505805969E-08  0.93827000000E+00  0.93827000000E+00 0. -1.
     999902    2    1    2    0    0 -0.14276546436E-01  0.14551723706E-01 -0.14489695695E-01  0.10189195277E+01  0.10186125271E+01 0.  0.
         14    1    1    2    0    0  0.14276546436E-01 -0.14551723706E-01  0.14489695695E-01  0.25010472252E-01  0.00000000000E+00 0.  1.
     999901    1    3    3    0    0  0.94152037527E-01  0.71711000762E-02 -0.70461091723E-01  0.88785178735E+00  0.88000000000E+00 0. -1.
        -11    1    3    3    0    0 -0.10086217622E+00  0.30293872918E-02  0.63754716166E-01  0.11936197357E+00  0.51100000000E-03 0.  1.
         11    1    3    3    0    0 -0.75664077385E-02  0.43512363381E-02 -0.77833201380E-02  0.11705766831E-01  0.51100000000E-03 0. -1.
</event>
<event>
 8    1  0.1104109E+005  0.1043930E+01  0.7957747E-01            NaN
         13   -1    0    0    0    0  0.00000000000E+00  0.00000000000E+00  0.74505805969E-08  0.10566000000E+00  0.10566000000E+00 0. -1.
     999900   -1    0    0    0    0 -0.00000000000E+00 -0.00000000000E+00 -0.74505805969E-08  0.93827000000E+00  0.93827000000E+00 0.  1.
     999902    2    1    2    0    0 -0.21350223436E-01  0.21413417727E-02  0.10345638512E-01  0.10201087989E+01  0.10198306291E+01 0.  0.
     999903    2    3    3    0    0 -0.10660545682E+00  0.57879286438E-01  0.50233677444E-01  0.13333586915E+00  0.23244277351E-01 0.  0.
         14    1    1    2    0    0  0.21350223436E-01 -0.21413417727E-02 -0.10345638512E-01  0.23821201094E-01  0.00000000000E+00 0.  1.
     999901    1    3    3    0    0  0.85255233389E-01 -0.55737944665E-01 -0.39888038932E-01  0.88677292975E+00  0.88000000000E+00 0.  1.
        -11    1    4    4    0    0 -0.11275076669E-01 -0.74609017217E-03  0.73288772739E-02  0.13478040196E-01  0.51100000000E-03 0. -1.
         11    1    4    4    0    0 -0.95330380156E-01  0.58625376610E-01  0.42904800170E-01  0.11985782896E+00  0.51100000000E-03 0.  1.
</event>
<event>
 8    1  0.1104109E+005  0.1043930E+01  0.7957747E-01            NaN
         13   -1    0    0    0    0  0.00000000000E+00  0.00000000000E+00  0.74505805969E-08  0.10566000000E+00  0.10566000000E+00 0.  1.
     999900   -1    0    0    0    0 -0.00000000000E+00 -0.00000000000E+00 -0.74505805969E-08  0.93827000000E+00  0.93827000000E+00 0.  1.
     999902    2    1    2    0    0  0.15634162193E-02  0.23615870198E-01  0.52041827176E-02  0.10196970243E+01  0.10194090367E+01 0.  0.
     999903    2    3    3    0    0 -0.11705642765E-01  0.24161668290E-01 -0.12544952308E+00  0.12995169178E+00  0.20713547954E-01 0.  0.
         14    1    1    2    0    0 -0.15634162193E-02 -0.23615870198E-01 -0.52041827176E-02  0.24232975741E-01  0.00000000000E+00 0.  1.
     999901    1    3    3    0    0  0.13269058984E-01 -0.54579809186E-03  0.13065370580E+00  0.88974533248E+00  0.88000000000E+00 0. -1.
        -11    1    4    4    0    0 -0.35522433130E-02  0.25204187451E-01 -0.88079929033E-01  0.91685356067E-01  0.51100000000E-03 0. -1.
         11    1    4    4    0    0 -0.81533994520E-02 -0.10425191604E-02 -0.37369594049E-01  0.38266335717E-01  0.51100000000E-03 0.  1.
</event>
<event>
 8    1  0.1104109E+005  0.1043930E+01  0.7957747E-01            NaN
         13   -1    0    0    0    0  0.00000000000E+00  0.00000000000E+00  0.74505805969E-08  0.10566000000E+00  0.10566000000E+00 0.  1.
     999900   -1    0    0    0    0 -0.00000000000E+00 -0.00000000000E+00 -0.74505805969E-08  0.93827000000E+00  0.93827000000E+00 0.  1.
     999902    2    1    2    0    0  0.15007056988E-01  0.17719919797E-01 -0.76087956266E-02  0.10194943480E+01  0.10192014642E+01 0.  0.
     999903    2    3    3    0    0 -0.28991563187E-02  0.12083488090E+00  0.48033335204E-01  0.13154762979E+00  0.19700356913E-01 0.  0.
         14    1    1    2    0    0 -0.15007056988E-01 -0.17719919797E-01  0.76087956266E-02  0.24435651985E-01  0.00000000000E+00 0. -1.
     999901    1    3    3    0    0  0.17906213307E-01 -0.10311496111E+00 -0.55642130830E-01  0.88794671822E+00  0.88000000000E+00 0.  1.
        -11    1    4    4    0    0 -0.10167226223E-01  0.85913152304E-01  0.37984815171E-01  0.94485710732E-01  0.51100000000E-03 0. -1.
         11    1    4    4    0    0  0.72680699040E-02  0.34921728601E-01  0.10048520032E-01  0.37061919060E-01  0.51100000000E-03 0.  1.
</event>
<event>
 8    1  0.1104109E+005  0.1043930E+01  0.7957747E-01            NaN
         13   -1    0    0    0    0  0.00000000000E+00  0.00000000000E+00  0.74505805969E-08  0.10566000000E+00  0.10566000000E+00 0.  1.
     999900   -1    0    0    0    0 -0.00000000000E+00 -0.00000000000E+00 -0.74505805969E-08  0.93827000000E+00  0.93827000000E+00 0.  1.
     999902    2    1    2    0    0 -0.16870916393E-01 -0.29290830522E-02  0.16294992625E-01  0.10202924423E+01  0.10200185948E+01 0.  0.
     999903    2    3    3    0    0 -0.83858234445E-01 -0.42664880588E-02 -0.97802122952E-01  0.13040074038E+00  0.19715258899E-01 0.  0.
         14    1    1    2    0    0  0.16870916393E-01  0.29290830522E-02 -0.16294992625E-01  0.23637557660E-01  0.00000000000E+00 0. -1.
     999901    1    3    3    0    0  0.66987318052E-01  0.13374050066E-02  0.11409711558E+00  0.88989170196E+00  0.88000000000E+00 0.  1.
        -11    1    4    4    0    0 -0.13267440505E-01  0.42135387748E-02 -0.25128776468E-01  0.28731435995E-01  0.51100000000E-03 0. -1.
         11    1    4    4    0    0 -0.70590793940E-01 -0.84800268336E-02 -0.72673346484E-01  0.10166930439E+00  0.51100000000E-03 0.  1.
</event>
<event>
 8    1  0.1104109E+005  0.1043930E+01  0.7957747E-01            NaN
         13   -1    0    0    0    0  0.00000000000E+00  0.00000000000E+00  0.74505805969E-08  0.10566000000E+00  0.10566000000E+00 0.  1.
     999900   -1    0    0    0    0 -0.00000000000E+00 -0.00000000000E+00 -0.74505805969E-08  0.93827000000E+00  0.93827000000E+00 0.  1.
     999902    2    1    2    0    0  0.43860149102E-02  0.91716780251E-02 -0.20860308720E-01  0.10207241972E+01  0.10204603752E+01 0.  0.
     999903    2    3    3    0    0 -0.10422369314E+00 -0.74431633243E-01 -0.11969358124E-01  0.13007015024E+00  0.19295911751E-01 0.  0.
         14    1    1    2    0    0 -0.43860149102E-02 -0.91716780251E-02  0.20860308720E-01  0.23205802819E-01  0.00000000000E+00 0.  1.
     999901    1    3    3    0    0  0.10860970805E+00  0.83603311269E-01 -0.88909505958E-02  0.89065404694E+00  0.88000000000E+00 0. -1.
        -11    1    4    4    0    0 -0.38106593013E-01 -0.17345857991E-01  0.20966842194E-03  0.41872381140E-01  0.51100000000E-03 0. -1.
         11    1    4    4    0    0 -0.66117100123E-01 -0.57085775253E-01 -0.12179026546E-01  0.88197769096E-01  0.51100000000E-03 0.  1.
</event>
<event>
 8    1  0.1104109E+005  0.1043930E+01  0.7957747E-01            NaN
         13   -1    0    0    0    0  0.00000000000E+00  0.00000000000E+00  0.74505805969E-08  0.10566000000E+00  0.10566000000E+00 0. -1.
     999900   -1    0    0    0    0 -0.00000000000E+00 -0.00000000000E+00 -0.74505805969E-08  0.93827000000E+00  0.93827000000E+00 0. -1.
     999902    2    1    2    0    0 -0.64484053547E-03 -0.22232961788E-01 -0.71062497232E-02  0.10205800708E+01  0.10203129234E+01 0.  0.
     999903    2    3    3    0    0 -0.77214709302E-01  0.10103211703E+00 -0.30902748659E-02  0.12868694237E+00  0.19523814519E-01 0.  0.
         14    1    1    2    0    0  0.64484053547E-03  0.22232961788E-01  0.71062497232E-02  0.23349929214E-01  0.00000000000E+00 0. -1.
     999901    1    3    3    0    0  0.76569868766E-01 -0.12326507882E+00 -0.40159748573E-02  0.89189312841E+00  0.88000000000E+00 0.  1.
        -11    1    4    4    0    0 -0.18119567684E-01  0.38633041822E-01  0.34505356612E-03  0.42675646878E-01  0.51100000000E-03 0.  1.
         11    1    4    4    0    0 -0.59095141617E-01  0.62399075211E-01 -0.34353284321E-02  0.86011295493E-01  0.51100000000E-03 0. -1.
</event>
<event>
 8    1  0.1104109E+005  0.1043930E+01  0.7957747E-01            NaN
         13   -1    0    0    0    0  0.00000000000E+00  0.00000000000E+00  0.74505805969E-08  0.10566000000E+00  0.10566000000E+00 0.  1.
     999900   -1    0    0    0    0 -0.00000000000E+00 -0.00000000000E+00 -0.74505805969E-08  0.93827000000E+00  0.93827000000E+00 0.  1.
     999902    2    1    2    0    0 -0.14711274514E-01 -0.44126163397E-02  0.17998750941E-01  0.10202688966E+01  0.10199944968E+01 0.  0.
     999903    2    3    3    0    0  0.75078165631E-01  0.10300235349E+00  0.69763520625E-02  0.12913388289E+00  0.19510880146E-01 0.  0.
         14    1    1    2    0    0  0.14711274514E-01  0.44126163397E-02 -0.17998750941E-01  0.23661103445E-01  0.00000000000E+00 0. -1.
     999901    1    3    3    0    0 -0.89789440145E-01 -0.10741496982E+00  0.11022398878E-01  0.89113501367E+00  0.88000000000E+00 0.  1.
        -11    1    4    4    0    0  0.49043199696E-01  0.79544829234E-01  0.98559168608E-02  0.93968162228E-01  0.51100000000E-03 0. -1.
         11    1    4    4    0    0  0.26034965936E-01  0.23457524251E-01 -0.28795647983E-02  0.35165720662E-01  0.51100000000E-03 0.  1.
</event>
<event>
 8    1  0.1104109E+005  0.1043930E+01  0.7957747E-01            NaN
         13   -1    0    0    0    0  0.00000000000E+00  0.00000000000E+00  0.74505805969E-08  0.10566000000E+00  0.10566000000E+00 0.  1.
     999900   -1    0    0    0    0 -0.00000000000E+00 -0.00000000000E+00 -0.74505805969E-08  0.93827000000E+00  0.93827000000E+00 0.  1.
     999902    2    1    2    0    0 -0.40227617958E-02  0.98077560696E-02  0.21236512225E-01  0.10201947068E+01  0.10199185632E+01 0.  0.
     999903    2    3    3    0    0 -0.11747789215E+00  0.54918127320E-01 -0.49424490129E-02  0.13137956843E+00  0.20472111425E-01 0.  0.
         14    1    1    2    0    0  0.40227617958E-02 -0.98077560696E-02 -0.21236512225E-01  0.23735293195E-01  0.00000000000E+00 0. -1.
     999901    1    3    3    0    0  0.11345513035E+00 -0.45110371251E-01  0.26178961238E-01  0.88881513838E+00  0.88000000000E+00 0. -1.
        -11    1    4    4    0    0 -0.92893370518E-01  0.38584634529E-01  0.35823923881E-02  0.10065310211E+00  0.51100000000E-03 0.  1.
         11    1    4    4    0    0 -0.24584521629E-01  0.16333492792E-01 -0.85248414010E-02  0.30726466318E-01  0.51100000000E-03 0. -1.
</event>
<event>
 8    1  0.1104109E+005  0.1043930E+01  0.7957747E-01            NaN
         13   -1    0    0    0    0  0.00000000000E+00  0.00000000000E+00  0.74505805969E-08  0.10566000000E+00  0.10566000000E+00 0. -1.
     999900   -1    0    0    0    0 -0.00000000000E+00 -0.00000000000E+00 -0.74505805969E-08  0.93827000000E+00  0.93827000000E+00 0. -1.
     999902    2    1    2    0    0  0.13408513005E-01  0.15692948576E-01 -0.12273826550E-01  0.10199153446E+01  0.10196325841E+01 0.  0.
     999903    2    3    3    0    0  0.79951700878E-01  0.94618366152E-01  0.41623114783E-01  0.13224305277E+00  0.20268982090E-01 0.  0.
         14    1    1    2    0    0 -0.13408513005E-01 -0.15692948576E-01  0.12273826550E-01  0.24014655404E-01  0.00000000000E+00 0. -1.
     999901    1    3    3    0    0 -0.66543187873E-01 -0.78925417576E-01 -0.53896941333E-01  0.88767229183E+00  0.88000000000E+00 0.  1.
        -11    1    4    4    0    0  0.61553418992E-01  0.75828292862E-01  0.23971924512E-01  0.10056673244E+00  0.51100000000E-03 0. -1.
         11    1    4    4    0    0  0.18398281886E-01  0.18790073290E-01  0.17651190270E-01  0.31676320329E-01  0.51100000000E-03 0.  1.
</event>
<event>
 8    1  0.1104109E+005  0.1043930E+01  0.7957747E-01            NaN
         13   -1    0    0    0    0  0.00000000000E+00  0.00000000000E+00  0.74505805969E-08  0.10566000000E+00  0.10566000000E+00 0.  1.
     999900   -1    0    0    0    0 -0.00000000000E+00 -0.00000000000E+00 -0.74505805969E-08  0.93827000000E+00  0.93827000000E+00 0. -1.
     999902    2    1    2    0    0 -0.16712863192E-01  0.57768620082E-02  0.14861261068E-01  0.10208313201E+01  0.10205699560E+01 0.  0.
     999903    2    3    3    0    0 -0.66701151851E-01  0.95559546498E-01  0.62167735287E-01  0.13358971723E+00  0.20017858347E-01 0.  0.
         14    1    1    2    0    0  0.16712863192E-01 -0.57768620082E-02 -0.14861261068E-01  0.23098679860E-01  0.00000000000E+00 0. -1.
     999901    1    3    3    0    0  0.49988288658E-01 -0.89782684490E-01 -0.47306474219E-01  0.88724160291E+00  0.88000000000E+00 0. -1.
        -11    1    4    4    0    0 -0.17836527940E-01  0.42531193210E-01  0.25057903388E-01  0.52490034940E-01  0.51100000000E-03 0. -1.
         11    1    4    4    0    0 -0.48864623910E-01  0.53028353288E-01  0.37109831899E-01  0.81099682286E-01  0.51100000000E-03 0.  1.
</event>
<event>
 8    1  0.1104109E+005  0.1043930E+01  0.7957747E-01            NaN
         13   -1    0    0    0    0  0.00000000000E+00  0.00000000000E+00  0.74505805969E-08  0.10566000000E+00  0.10566000000E+00 0. -1.
     999900   -1    0    0    0    0 -0.00000000000E+00 -0.00000000000E+00 -0.74505805969E-08  0.93827000000E+00  0.93827000000E+00 0. -1.
     999902    2    1    2    0    0 -0.96000839587E-03 -0.30415624911E-02  0.24368226029E-01  0.10193539312E+01  0.10190576303E+01 0.  0.
     999903    2    3    3    0    0  0.27549406495E-01 -0.11920226772E+00  0.42270789345E-01  0.13108223967E+00  0.20678092201E-01 0.  0.
         14    1    1    2    0    0  0.96000839587E-03  0.30415624911E-02 -0.24368226029E-01  0.24576068813E-01  0.00000000000E+00 0.  1.
     999901    1    3    3    0    0 -0.28509414891E-01  0.11616070523E+00 -0.17902563317E-01  0.88827169152E+00  0.88000000000E+00 0. -1.
        -11    1    4    4    0    0  0.23316881757E-02 -0.44040874368E-01  0.21812344957E-01  0.49204419501E-01  0.51100000000E-03 0. -1.
         11    1    4    4    0    0  0.25217718319E-01 -0.75161393353E-01  0.20458444388E-01  0.81877820170E-01  0.51100000000E-03 0.  1.
</event>
<event>
 8    1  0.1104109E+005  0.1043930E+01  0.7957747E-01            NaN
         13   -1    0    0    0    0  0.00000000000E+00  0.00000000000E+00  0.74505805969E-08  0.10566000000E+00  0.10566000000E+00 0. -1.
     999900   -1    0    0    0    0 -0.00000000000E+00 -0.00000000000E+00 -0.74505805969E-08  0.93827000000E+00  0.93827000000E+00 0. -1.
     999902    2    1    2    0    0  0.12316552561E-02  0.21495596631E-01 -0.11019569604E-01  0.10197430497E+01  0.10194561682E+01 0.  0.
     999903    2    3    3    0    0  0.37242552487E-01 -0.11519990237E+00  0.35013655454E-01  0.12727372142E+00  0.17737499042E-01 0.  0.
         14    1    1    2    0    0 -0.12316552561E-02 -0.21495596631E-01  0.11019569604E-01  0.24186950272E-01  0.00000000000E+00 0. -1.
     999901    1    3    3    0    0 -0.36010897231E-01  0.13669549901E+00 -0.46033225058E-01  0.89246932831E+00  0.88000000000E+00 0. -1.
        -11    1    4    4    0    0  0.14849680831E-01 -0.60302279650E-01  0.99294261327E-02  0.62894614842E-01  0.51100000000E-03 0.  1.
         11    1    4    4    0    0  0.22392871656E-01 -0.54897622724E-01  0.25084229321E-01  0.64379106575E-01  0.51100000000E-03 0. -1.
</event>
<event>
 8    1  0.1104109E+005  0.1043930E+01  0.7957747E-01            NaN
         13   -1    0    0    0    0  0.00000000000E+00  0.00000000000E+00  0.74505805969E-08  0.10566000000E+00  0.10566000000E+00 0. -1.
     999900   -1    0    0    0    0 -0.00000000000E+00 -0.00000000000E+00 -0.74505805969E-08  0.93827000000E+00  0.93827000000E+00 0. -1.
     999902    2    1    2    0    0 -0.21250361900E-01 -0.69448007308E-02  0.90168063937E-02  0.10198237573E+01  0.10195388100E+01 0.  0.
     999903    2    3    3    0    0 -0.91131306164E-01 -0.86072712546E-01 -0.37034630168E-01  0.13231865447E+00  0.20572692586E-01 0.  0.
         14    1    1    2    0    0  0.21250361900E-01  0.69448007308E-02 -0.90168063937E-02  0.24106242669E-01  0.00000000000E+00 0. -1.
     999901    1    3    3    0    0  0.69880944264E-01  0.79127911815E-01  0.46051436562E-01  0.88750510286E+00  0.88000000000E+00 0.  1.
        -11    1    4    4    0    0 -0.64693185536E-01 -0.63554941659E-01 -0.35992786141E-01  0.97571413023E-01  0.51100000000E-03 0.  1.
         11    1    4    4    0    0 -0.26438120628E-01 -0.22517770887E-01 -0.10418440277E-02  0.34747241445E-01  0.51100000000E-03 0. -1.
</event>
<event>
 8    1  0.1104109E+005  0.1043930E+01  0.7957747E-01            NaN
         13   -1    0    0    0    0  0.00000000000E+00  0.00000000000E+00  0.74505805969E-08  0.10566000000E+00  0.10566000000E+00 0. -1.
     999900   -1    0    0    0    0 -0.00000000000E+00 -0.00000000000E+00 -0.74505805969E-08  0.93827000000E+00  0.93827000000E+00 0.  1.
     999902    2    1    2    0    0 -0.13788085265E-01 -0.14519908693E-01  0.13335870787E-01  0.10198720597E+01  0.10195882667E+01 0.  0.
     999903    2    3    3    0    0  0.64916103599E-02 -0.12855013997E+00 -0.20584535271E-01  0.13163518042E+00  0.18352605810E-01 0.  0.
         14    1    1    2    0    0  0.13788085265E-01  0.14519908693E-01 -0.13335870787E-01  0.24057940339E-01  0.00000000000E+00 0.  1.
     999901    1    3    3    0    0 -0.20279695625E-01  0.11403023128E+00  0.33920406058E-01  0.88823687924E+00  0.88000000000E+00 0.  1.
        -11    1    4    4    0    0  0.70888889047E-02 -0.19215922952E-01 -0.66860093590E-03  0.20499077760E-01  0.51100000000E-03 0. -1.
         11    1    4    4    0    0 -0.59727854488E-03 -0.10933421702E+00 -0.19915934335E-01  0.11113610266E+00  0.51100000000E-03 0.  1.
</event>
<event>
 8    1  0.1104109E+005  0.1043930E+01  0.7957747E-01            NaN
         13   -1    0    0    0    0  0.00000000000E+00  0.00000000000E+00  0.74505805969E-08  0.10566000000E+00  0.10566000000E+00 0.  1.
     999900   -1    0    0    0    0 -0.00000000000E+00 -0.00000000000E+00 -0.74505805969E-08  0.93827000000E+00  0.93827000000E+00 0.  1.
     999902    2    1    2    0    0 -0.13869693961E-01  0.17837871225E-01  0.79077928552E-02  0.10199906757E+01  0.10197097073E+01 0.  0.
     999903    2    3    3    0    0 -0.97194657971E-01 -0.84171715041E-01 -0.18251664539E-02  0.13013465598E+00  0.20000457600E-01 0.  0.
         14    1    1    2    0    0  0.13869693961E-01 -0.17837871225E-01 -0.79077928552E-02  0.23939324306E-01  0.00000000000E+00 0. -1.
     999901    1    3    3    0    0  0.83324964011E-01  0.10200958627E+00  0.97329593091E-02  0.88985601971E+00  0.88000000000E+00 0.  1.
        -11    1    4    4    0    0 -0.24415606257E-01 -0.32543383463E-01 -0.39312663615E-02  0.40876761275E-01  0.51100000000E-03 0. -1.
         11    1    4    4    0    0 -0.72779051714E-01 -0.51628331578E-01  0.21060999076E-02  0.89257894709E-01  0.51100000000E-03 0.  1.
</event>
<event>
 7    1  0.1104109E+005  0.1043930E+01  0.7957747E-01            NaN
         13   -1    0    0    0    0  0.00000000000E+00  0.00000000000E+00  0.74505805969E-08  0.10566000000E+00  0.10566000000E+00 0.  1.
     999900   -1    0    0    0    0 -0.00000000000E+00 -0.00000000000E+00 -0.74505805969E-08  0.93827000000E+00  0.93827000000E+00 0. -1.
     999903    2    1    2    0    0 -0.50721255692E-01 -0.38234903211E-01 -0.67290918702E-01  0.94749865366E-01  0.20369478259E-01 0.  0.
         14    1    1    2    0    0 -0.50266156940E-02  0.47307763309E-01  0.47382714589E-01  0.67144716669E-01  0.00000000000E+00 0.  1.
     999901    1    1    2    0    0  0.55747871386E-01 -0.90728600983E-02  0.19908204113E-01  0.88203541797E+00  0.88000000000E+00 0.  1.
        -11    1    3    3    0    0 -0.14159644337E-01 -0.68543006114E-02 -0.61368685402E-02  0.16893763379E-01  0.51100000000E-03 0.  1.
         11    1    3    3    0    0 -0.36561611355E-01 -0.31380602599E-01 -0.61154050162E-01  0.77856101987E-01  0.51100000000E-03 0. -1.
</event>
<event>
 8    1  0.1104109E+005  0.1043930E+01  0.7957747E-01            NaN
         13   -1    0    0    0    0  0.00000000000E+00  0.00000000000E+00  0.74505805969E-08  0.10566000000E+00  0.10566000000E+00 0. -1.
     999900   -1    0    0    0    0 -0.00000000000E+00 -0.00000000000E+00 -0.74505805969E-08  0.93827000000E+00  0.93827000000E+00 0.  1.
     999902    2    1    2    0    0 -0.73375923495E-02  0.18907103901E-01  0.12344311829E-01  0.10201876144E+01  0.10199113038E+01 0.  0.
     999903    2    3    3    0    0 -0.90032963734E-01  0.94509832350E-01  0.15616953907E-01  0.13307713245E+00  0.20678272719E-01 0.  0.
         14    1    1    2    0    0  0.73375923495E-02 -0.18907103901E-01 -0.12344311829E-01  0.23742385600E-01  0.00000000000E+00 0.  1.
     999901    1    3    3    0    0  0.82695371384E-01 -0.75602728449E-01 -0.32726420775E-02  0.88711048195E+00  0.88000000000E+00 0.  1.
        -11    1    4    4    0    0 -0.38158669073E-01  0.36537170379E-01 -0.35629181456E-02  0.52952850267E-01  0.51100000000E-03 0. -1.
         11    1    4    4    0    0 -0.51874294661E-01  0.57972661971E-01  0.19179872052E-01  0.80124282184E-01  0.51100000000E-03 0.  1.
</event>
<event>
 8    1  0.1104109E+005  0.1043930E+01  0.7957747E-01            NaN
         13   -1    0    0    0    0  0.00000000000E+00  0.00000000000E+00  0.74505805969E-08  0.10566000000E+00  0.10566000000E+00 0. -1.
     999900   -1    0    0    0    0 -0.00000000000E+00 -0.00000000000E+00 -0.74505805969E-08  0.93827000000E+00  0.93827000000E+00 0. -1.
     999902    2    1    2    0    0  0.18380947957E-01 -0.52106159729E-02  0.14627539024E-01  0.10198681076E+01  0.10195842203E+01 0.  0.
     999903    2    3    3    0    0  0.48618849684E-01  0.11640821602E+00 -0.23819251162E-01  0.13015825230E+00  0.21427753356E-01 0.  0.
         14    1    1    2    0    0 -0.18380947957E-01  0.52106159729E-02 -0.14627539024E-01  0.24061892372E-01  0.00000000000E+00 0.  1.
     999901    1    3    3    0    0 -0.30237901726E-01 -0.12161883199E+00  0.38446790186E-01  0.88970985533E+00  0.88000000000E+00 0.  1.
        -11    1    4    4    0    0  0.36620839864E-01  0.76977981173E-01 -0.25274011019E-01  0.88914184762E-01  0.51100000000E-03 0.  1.
         11    1    4    4    0    0  0.11998009820E-01  0.39430234847E-01  0.14547598572E-02  0.41244067536E-01  0.51100000000E-03 0. -1.
</event>
<event>
 8    1  0.1104109E+005  0.1043930E+01  0.7957747E-01            NaN
         13   -1    0    0    0    0  0.00000000000E+00  0.00000000000E+00  0.74505805969E-08  0.10566000000E+00  0.10566000000E+00 0.  1.
     999900   -1    0    0    0    0 -0.00000000000E+00 -0.00000000000E+00 -0.74505805969E-08  0.93827000000E+00  0.93827000000E+00 0. -1.
     999902    2    1    2    0    0 -0.94330641955E-03  0.10557775148E-01 -0.20952043060E-01  0.10204492728E+01  0.10201790891E+01 0.  0.
     999903    2    3    3    0    0  0.19500458137E-01  0.84961485129E-01 -0.99291467511E-01  0.13360603691E+00  0.19825633762E-01 0.  0.
         14    1    1    2    0    0  0.94330641955E-03 -0.10557775148E-01  0.20952043060E-01  0.23480727234E-01  0.00000000000E+00 0.  1.
     999901    1    3    3    0    0 -0.20443764556E-01 -0.74403709981E-01  0.78339424452E-01  0.88684323586E+00  0.88000000000E+00 0.  1.
        -11    1    4    4    0    0  0.22374884406E-01  0.68592280282E-01 -0.74121545156E-01  0.10343984215E+00  0.51100000000E-03 0. -1.
         11    1    4    4    0    0 -0.28744262687E-02  0.16369204847E-01 -0.25169922356E-01  0.30166194756E-01  0.51100000000E-03 0.  1.
</event>
<event>
 8    1  0.1104109E+005  0.1043930E+01  0.7957747E-01            NaN
         13   -1    0    0    0    0  0.00000000000E+00  0.00000000000E+00  0.74505805969E-08  0.10566000000E+00  0.10566000000E+00 0. -1.
     999900   -1    0    0    0    0 -0.00000000000E+00 -0.00000000000E+00 -0.74505805969E-08  0.93827000000E+00  0.93827000000E+00 0.  1.
     999902    2    1    2    0    0 -0.10523180995E-01 -0.14559742381E-01  0.15624834252E-01  0.10201212016E+01  0.10198433248E+01 0.  0.
     999903    2    3    3    0    0  0.65394997474E-02 -0.44103333878E-01 -0.11961456032E+00  0.12913654812E+00  0.19512455049E-01 0.  0.
         14    1    1    2    0    0  0.10523180995E-01  0.14559742381E-01 -0.15624834252E-01  0.23808798413E-01  0.00000000000E+00 0. -1.
     999901    1    3    3    0    0 -0.17062680743E-01  0.29543591497E-01  0.13523939458E+00  0.89098465347E+00  0.88000000000E+00 0. -1.
        -11    1    4    4    0    0 -0.18952519581E-02 -0.15133274002E-01 -0.20672528842E-01  0.25694795811E-01  0.51100000000E-03 0.  1.
         11    1    4    4    0    0  0.84347517054E-02 -0.28970059876E-01 -0.98942031482E-01  0.10344175231E+00  0.51100000000E-03 0. -1.
</event>
<event>
 8    1  0.1396836E+005  0.1043930E+01  0.7957747E-01            NaN
         13   -1    0    0    0    0  0.00000000000E+00  0.00000000000E+00  0.74505805969E-08  0.10566000000E+00  0.10566000000E+00 0.  1.
     999900   -1    0    0    0    0 -0.00000000000E+00 -0.00000000000E+00 -0.74505805969E-08  0.93827000000E+00  0.93827000000E+00 0. -1.
     999902    2    1    2    0    0 -0.75026795345E-02 -0.10781306986E-01  0.19864556974E-01  0.10201155631E+01  0.10198375531E+01 0.  0.
     999903    2    3    3    0    0  0.12639788530E+00 -0.21510953782E-01  0.10723292656E-01  0.12987511846E+00  0.17703413489E-01 0.  0.
         14    1    1    2    0    0  0.75026795345E-02  0.10781306986E-01 -0.19864556974E-01  0.23814436889E-01  0.00000000000E+00 0. -1.
     999901    1    3    3    0    0 -0.13390056483E+00  0.10729646795E-01  0.91412643186E-02  0.89024044465E+00  0.88000000000E+00 0.  1.
        -11    1    4    4    0    0  0.54817079221E-01 -0.47041467028E-02  0.12088562930E-01  0.56333255234E-01  0.51100000000E-03 0. -1.
         11    1    4    4    0    0  0.71580806075E-01 -0.16806807079E-01 -0.13652702744E-02  0.73541863224E-01  0.51100000000E-03 0.  1.
</event>
<event>
 8    1  0.1104109E+005  0.1043930E+01  0.7957747E-01            NaN
         13   -1    0    0    0    0  0.00000000000E+00  0.00000000000E+00  0.74505805969E-08  0.10566000000E+00  0.10566000000E+00 0. -1.
     999900   -1    0    0    0    0 -0.00000000000E+00 -0.00000000000E+00 -0.74505805969E-08  0.93827000000E+00  0.93827000000E+00 0. -1.
     999902    2    1    2    0    0 -0.12162404875E-01 -0.17227417641E-01  0.13087919546E-01  0.10191106195E+01  0.10188083495E+01 0.  0.
     999903    2    3    3    0    0  0.81557063712E-01  0.60222716092E-01 -0.73360893362E-01  0.12655515384E+00  0.18869449209E-01 0.  0.
         14    1    1    2    0    0  0.12162404875E-01  0.17227417641E-01 -0.13087919546E-01  0.24819380512E-01  0.00000000000E+00 0.  1.
     999901    1    3    3    0    0 -0.93719468588E-01 -0.77450133733E-01  0.86448812908E-01  0.89255546565E+00  0.88000000000E+00 0.  1.
        -11    1    4    4    0    0  0.19796842727E-02  0.39805670702E-02 -0.81612304927E-02  0.93075704765E-02  0.51100000000E-03 0. -1.
         11    1    4    4    0    0  0.79577379440E-01  0.56242149021E-01 -0.65199662869E-01  0.11724758336E+00  0.51100000000E-03 0.  1.
</event>
<event>
 8    1  0.1104109E+005  0.1043930E+01  0.7957747E-01            NaN
         13   -1    0    0    0    0  0.00000000000E+00  0.00000000000E+00  0.74505805969E-08  0.10566000000E+00  0.10566000000E+00 0.  1.
     999900   -1    0    0    0    0 -0.00000000000E+00 -0.00000000000E+00 -0.74505805969E-08  0.93827000000E+00  0.93827000000E+00 0. -1.
     999902    2    1    2    0    0 -0.11760258937E-01 -0.84203108064E-02 -0.17416486560E-01  0.10212906686E+01  0.10210397105E+01 0.  0.
     999903    2    3    3    0    0 -0.12131999761E+00  0.78097849323E-02 -0.52111567850E-01  0.13366997196E+00  0.19300552821E-01 0.  0.
         14    1    1    2    0    0  0.11760258937E-01  0.84203108064E-02  0.17416486560E-01  0.22639331449E-01  0.00000000000E+00 0.  1.
     999901    1    3    3    0    0  0.10955973868E+00 -0.16230095739E-01  0.34695081290E-01  0.88762069659E+00  0.88000000000E+00 0.  1.
        -11    1    4    4    0    0 -0.99085780129E-01  0.13522825642E-01 -0.39990332483E-01  0.10770490449E+00  0.51100000000E-03 0. -1.
         11    1    4    4    0    0 -0.22234217484E-01 -0.57130407097E-02 -0.12121235367E-01  0.25965067477E-01  0.51100000000E-03 0.  1.
</event>
<event>
 8    1  0.1104109E+005  0.1043930E+01  0.7957747E-01            NaN
         13   -1    0    0    0    0  0.00000000000E+00  0.00000000000E+00  0.74505805969E-08  0.10566000000E+00  0.10566000000E+00 0. -1.
     999900   -1    0    0    0    0 -0.00000000000E+00 -0.00000000000E+00 -0.74505805969E-08  0.93827000000E+00  0.93827000000E+00 0.  1.
     999902    2    1    2    0    0 -0.90780640980E-02 -0.24549877490E-01  0.43141641416E-03  0.10177518822E+01  0.10174151561E+01 0.  0.
     999903    2    3    3    0    0 -0.77278683826E-01  0.92902717671E-01  0.32440610492E-01  0.12675747976E+00  0.20301614242E-01 0.  0.
         14    1    1    2    0    0  0.90780640980E-02  0.24549877490E-01 -0.43141641416E-03  0.26178117821E-01  0.00000000000E+00 0. -1.
     999901    1    3    3    0    0  0.68200619728E-01 -0.11745259516E+00 -0.32009194078E-01  0.89099440242E+00  0.88000000000E+00 0. -1.
        -11    1    4    4    0    0 -0.76557682707E-02  0.57272490690E-02  0.81575128321E-02  0.12578485852E-01  0.51100000000E-03 0. -1.
         11    1    4    4    0    0 -0.69622915556E-01  0.87175468602E-01  0.24283097660E-01  0.11417899391E+00  0.51100000000E-03 0.  1.
</event>
<event>
 8    1  0.1104109E+005  0.1043930E+01  0.7957747E-01            NaN
         13   -1    0    0    0    0  0.00000000000E+00  0.00000000000E+00  0.74505805969E-08  0.10566000000E+00  0.10566000000E+00 0. -1.
     999900   -1    0    0    0    0 -0.00000000000E+00 -0.00000000000E+00 -0.74505805969E-08  0.93827000000E+00  0.93827000000E+00 0. -1.
     999902    2    1    2    0    0  0.37441562658E-02 -0.81127038074E-02  0.21467725515E-01  0.10206770882E+01  0.10204121816E+01 0.  0.
     999903    2    3    3    0    0  0.99609479970E-01 -0.79251891193E-01  0.30750206533E-01  0.13256836245E+00  0.20636975618E-01 0.  0.
         14    1    1    2    0    0 -0.37441562658E-02  0.81127038074E-02 -0.21467725515E-01  0.23252911818E-01  0.00000000000E+00 0.  1.
     999901    1    3    3    0    0 -0.95865323704E-01  0.71139187386E-01 -0.92824810178E-02  0.88810872573E+00  0.88000000000E+00 0. -1.
        -11    1    4    4    0    0  0.25540627875E-01 -0.29057880474E-01  0.26373616681E-02  0.38780161004E-01  0.51100000000E-03 0.  1.
         11    1    4    4    0    0  0.74068852095E-01 -0.50194010719E-01  0.28112844865E-01  0.93788201444E-01  0.51100000000E-03 0. -1.
</event>
<event>
 8    1  0.1104109E+005  0.1043930E+01  0.7957747E-01            NaN
         13   -1    0    0    0    0  0.00000000000E+00  0.00000000000E+00  0.74505805969E-08  0.10566000000E+00  0.10566000000E+00 0.  1.
     999900   -1    0    0    0    0 -0.00000000000E+00 -0.00000000000E+00 -0.74505805969E-08  0.93827000000E+00  0.93827000000E+00 0. -1.
     999902    2    1    2    0    0  0.17489914499E-01 -0.54297569311E-02 -0.15000010021E-01  0.10202576602E+01  0.10199829967E+01 0.  0.
     999903    2    3    3    0    0 -0.19572814292E-01  0.10928098287E+00  0.61044009224E-01  0.12878982988E+00  0.23130519695E-01 0.  0.
         14    1    1    2    0    0 -0.17489914499E-01  0.54297569311E-02  0.15000010021E-01  0.23672339769E-01  0.00000000000E+00 0.  1.
     999901    1    3    3    0    0  0.37062728791E-01 -0.11471073980E+00 -0.76044019245E-01  0.89146783035E+00  0.88000000000E+00 0.  1.
        -11    1    4    4    0    0 -0.20581765582E-01  0.76242731320E-01  0.51864194663E-01  0.94481315415E-01  0.51100000000E-03 0. -1.
         11    1    4    4    0    0  0.10089512895E-02  0.33038251552E-01  0.91798145602E-02  0.34308514463E-01  0.51100000000E-03 0.  1.
</event>
<event>
 8    1  0.1104109E+005  0.1043930E+01  0.7957747E-01            NaN
         13   -1    0    0    0    0  0.00000000000E+00  0.00000000000E+00  0.74505805969E-08  0.10566000000E+00  0.10566000000E+00 0.  1.
     999900   -1    0    0    0    0 -0.00000000000E+00 -0.00000000000E+00 -0.74505805969E-08  0.93827000000E+00  0.93827000000E+00 0. -1.
     999902    2    1    2    0    0  0.90933008224E-03  0.23961777428E-01  0.60409715072E-02  0.10192017369E+01  0.10189017095E+01 0.  0.
     999903    2    3    3    0    0 -0.74091879625E-01  0.10124612448E+00 -0.34708216421E-01  0.13170044222E+00  0.19999046117E-01 0.  0.
         14    1    1    2    0    0 -0.90933008224E-03 -0.23961777428E-01 -0.60409715072E-02  0.24728263090E-01  0.00000000000E+00 0. -1.
     999901    1    3    3    0    0  0.75001209707E-01 -0.77284347052E-01  0.40749187928E-01  0.88750129469E+00  0.88000000000E+00 0.  1.
        -11    1    4    4    0    0 -0.50418501248E-01  0.53958938518E-01 -0.24745169323E-01  0.77885665176E-01  0.51100000000E-03 0. -1.
         11    1    4    4    0    0 -0.23673378377E-01  0.47287185962E-01 -0.99630470986E-02  0.53814777045E-01  0.51100000000E-03 0.  1.
</event>
<event>
 8    1  0.1104109E+005  0.1043930E+01  0.7957747E-01            NaN
         13   -1    0    0    0    0  0.00000000000E+00  0.00000000000E+00  0.74505805969E-08  0.10566000000E+00  0.10566000000E+00 0.  1.
     999900   -1    0    0    0    0 -0.00000000000E+00 -0.00000000000E+00 -0.74505805969E-08  0.93827000000E+00  0.93827000000E+00 0. -1.
     999902    2    1    2    0    0 -0.18988358142E-01 -0.15438618805E-01 -0.48256549898E-02  0.10189861502E+01  0.10186808032E+01 0.  0.
     999903    2    3    3    0    0 -0.72264853720E-01  0.89557010561E-01  0.54865311696E-01  0.12914038905E+00  0.20600253247E-01 0.  0.
         14    1    1    2    0    0  0.18988358142E-01  0.15438618805E-01  0.48256549898E-02  0.24943849776E-01  0.00000000000E+00 0. -1.
     999901    1    3    3    0    0  0.53276495578E-01 -0.10499562937E+00 -0.59690966685E-01  0.88984576117E+00  0.88000000000E+00 0. -1.
        -11    1    4    4    0    0 -0.45506013631E-01  0.40956794550E-01  0.32536887340E-01  0.69333732448E-01  0.51100000000E-03 0.  1.
         11    1    4    4    0    0 -0.26758840089E-01  0.48600216011E-01  0.22328424356E-01  0.59806656607E-01  0.51100000000E-03 0. -1.
</event>
<event>
 8    1  0.1104109E+005  0.1043930E+01  0.7957747E-01            NaN
         13   -1    0    0    0    0  0.00000000000E+00  0.00000000000E+00  0.74505805969E-08  0.10566000000E+00  0.10566000000E+00 0.  1.
     999900   -1    0    0    0    0 -0.00000000000E+00 -0.00000000000E+00 -0.74505805969E-08  0.93827000000E+00  0.93827000000E+00 0. -1.
     999902    2    1    2    0    0  0.16366980868E-01  0.13450902058E-02  0.20649952669E-01  0.10175461437E+01  0.10172040339E+01 0.  0.
     999903    2    3    3    0    0 -0.61605732654E-01  0.34313865909E-01 -0.10133331454E+00  0.12510757339E+00  0.20267130855E-01 0.  0.
         14    1    1    2    0    0 -0.16366980868E-01 -0.13450902058E-02 -0.20649952669E-01  0.26383856345E-01  0.00000000000E+00 0. -1.
     999901    1    3    3    0    0  0.77972713522E-01 -0.32968775704E-01  0.12198326721E+00  0.89243857027E+00  0.88000000000E+00 0.  1.
        -11    1    4    4    0    0 -0.13006080813E-01  0.17755074644E-01 -0.29406895950E-01  0.36734554090E-01  0.51100000000E-03 0.  1.
         11    1    4    4    0    0 -0.48599651841E-01  0.16558791266E-01 -0.71926418590E-01  0.88373019296E-01  0.51100000000E-03 0. -1.
</event>
<event>
 8    1  0.1104109E+005  0.1043930E+01  0.7957747E-01            NaN
         13   -1    0    0    0    0  0.00000000000E+00  0.00000000000E+00  0.74505805969E-08  0.10566000000E+00  0.10566000000E+00 0. -1.
     999900   -1    0    0    0    0 -0.00000000000E+00 -0.00000000000E+00 -0.74505805969E-08  0.93827000000E+00  0.93827000000E+00 0. -1.
     999902    2    1    2    0    0  0.93066983683E-03  0.25541482403E-01  0.68902247250E-02  0.10174590977E+01  0.10171146970E+01 0.  0.
     999903    2    3    3    0    0 -0.55931306305E-02 -0.10514169687E+00 -0.63916382285E-01  0.12497143457E+00  0.21130452047E-01 0.  0.
         14    1    1    2    0    0 -0.93066983683E-03 -0.25541482403E-01 -0.68902247250E-02  0.26470902260E-01  0.00000000000E+00 0.  1.
     999901    1    3    3    0    0  0.65238004673E-02  0.13068317927E+00  0.70806607010E-01  0.89248766317E+00  0.88000000000E+00 0.  1.
        -11    1    4    4    0    0 -0.10712156747E-01 -0.61883592702E-01 -0.29174216216E-01  0.69251175880E-01  0.51100000000E-03 0. -1.
         11    1    4    4    0    0  0.51190261169E-02 -0.43258104164E-01 -0.34742166069E-01  0.55720258689E-01  0.51100000000E-03 0.  1.
</event>
<event>
 8    1  0.1104109E+005  0.1043930E+01  0.7957747E-01            NaN
         13   -1    0    0    0    0  0.00000000000E+00  0.00000000000E+00  0.74505805969E-08  0.10566000000E+00  0.10566000000E+00 0. -1.
     999900   -1    0    0    0    0 -0.00000000000E+00 -0.00000000000E+00 -0.74505805969E-08  0.93827000000E+00  0.93827000000E+00 0. -1.
     999902    2    1    2    0    0 -0.10006446968E-01  0.34679518026E-02  0.21120168397E-01  0.10203033798E+01  0.10200297886E+01 0.  0.
     999903    2    3    3    0    0 -0.11884490058E+00  0.43210047940E-01 -0.28993470214E-01  0.13129459468E+00  0.20160125000E-01 0.  0.
         14    1    1    2    0    0  0.10006446968E-01 -0.34679518026E-02 -0.21120168397E-01  0.23626620235E-01  0.00000000000E+00 0.  1.
     999901    1    3    3    0    0  0.10883845361E+00 -0.39742096138E-01  0.50113638611E-01  0.88900878509E+00  0.88000000000E+00 0.  1.
        -11    1    4    4    0    0 -0.11001273763E+00  0.37649413038E-01 -0.21047910895E-01  0.11816749307E+00  0.51100000000E-03 0. -1.
         11    1    4    4    0    0 -0.88321629443E-02  0.55606349019E-02 -0.79455593188E-02  0.13127101610E-01  0.51100000000E-03 0.  1.
</event>
<event>
 8    1  0.1104109E+005  0.1043930E+01  0.7957747E-01            NaN
         13   -1    0    0    0    0  0.00000000000E+00  0.00000000000E+00  0.74505805969E-08  0.10566000000E+00  0.10566000000E+00 0. -1.
     999900   -1    0    0    0    0 -0.00000000000E+00 -0.00000000000E+00 -0.74505805969E-08  0.93827000000E+00  0.93827000000E+00 0. -1.
     999902    2    1    2    0    0 -0.86933871678E-02 -0.11727296231E-01  0.18345496804E-01  0.10204851347E+01  0.10202157852E+01 0.  0.
     999903    2    3    3    0    0 -0.16503563268E-02  0.52161170083E-01 -0.11530236480E+00  0.12807654477E+00  0.19632999058E-01 0.  0.
         14    1    1    2    0    0  0.86933871678E-02  0.11727296231E-01 -0.18345496804E-01  0.23444865330E-01  0.00000000000E+00 0.  1.
     999901    1    3    3    0    0 -0.70430308409E-02 -0.63888466315E-01  0.13364786160E+00  0.89240858990E+00  0.88000000000E+00 0.  1.
        -11    1    4    4    0    0 -0.58129959398E-02  0.38489681813E-01 -0.64857750371E-01  0.75644136798E-01  0.51100000000E-03 0. -1.
         11    1    4    4    0    0  0.41626396130E-02  0.13671488271E-01 -0.50444614429E-01  0.52432407974E-01  0.51100000000E-03 0.  1.
</event>
<event>
 8    1  0.1104109E+005  0.1043930E+01  0.7957747E-01            NaN
         13   -1    0    0    0    0  0.00000000000E+00  0.00000000000E+00  0.74505805969E-08  0.10566000000E+00  0.10566000000E+00 0.  1.
     999900   -1    0    0    0    0 -0.00000000000E+00 -0.00000000000E+00 -0.74505805969E-08  0.93827000000E+00  0.93827000000E+00 0. -1.
     999902    2    1    2    0    0 -0.84989708211E-02 -0.21792443685E-01 -0.21731602639E-02  0.10204381773E+01  0.10201677352E+01 0.  0.
     999903    2    3    3    0    0 -0.33607953464E-01 -0.10341228330E+00 -0.74581034365E-01  0.13334451854E+00  0.19870457130E-01 0.  0.
         14    1    1    2    0    0  0.84989708211E-02  0.21792443685E-01  0.21731602639E-02  0.23491822669E-01  0.00000000000E+00 0.  1.
     999901    1    3    3    0    0  0.25108982643E-01  0.81619839611E-01  0.72407874101E-01  0.88709365879E+00  0.88000000000E+00 0.  1.
        -11    1    4    4    0    0 -0.12544094648E-01 -0.18266962365E-01 -0.21158747157E-01  0.30642942530E-01  0.51100000000E-03 0.  1.
         11    1    4    4    0    0 -0.21063858816E-01 -0.85145320930E-01 -0.53422287207E-01  0.10270157602E+00  0.51100000000E-03 0. -1.
</event>
<event>
 8    1  0.1104109E+005  0.1043930E+01  0.7957747E-01            NaN
         13   -1    0    0    0    0  0.00000000000E+00  0.00000000000E+00  0.74505805969E-08  0.10566000000E+00  0.10566000000E+00 0. -1.
     999900   -1    0    0    0    0 -0.00000000000E+00 -0.00000000000E+00 -0.74505805969E-08  0.93827000000E+00  0.93827000000E+00 0. -1.
     999902    2    1    2    0    0 -0.18122581731E-01 -0.26227940495E-02 -0.11577541437E-01  0.10222655941E+01  0.10220360064E+01 0.  0.
     999903    2    3    3    0    0 -0.80713836112E-01 -0.77824650123E-01 -0.71974101651E-01  0.13478560629E+00  0.20383543545E-01 0.  0.
         14    1    1    2    0    0  0.18122581731E-01  0.26227940495E-02  0.11577541437E-01  0.21664405899E-01  0.00000000000E+00 0. -1.
     999901    1    3    3    0    0  0.62591254381E-01  0.75201856074E-01  0.60396560214E-01  0.88747998781E+00  0.88000000000E+00 0. -1.
        -11    1    4    4    0    0 -0.10499364138E-01 -0.10438168883E-01 -0.20622163793E-02  0.14956800271E-01  0.51100000000E-03 0. -1.
         11    1    4    4    0    0 -0.70214471974E-01 -0.67386481240E-01 -0.69911885272E-01  0.11982880602E+00  0.51100000000E-03 0.  1.
</event>
<event>
 8    1  0.1104109E+005  0.1043930E+01  0.7957747E-01            NaN
         13   -1    0    0    0    0  0.00000000000E+00  0.00000000000E+00  0.74505805969E-08  0.10566000000E+00  0.10566000000E+00 0.  1.
     999900   -1    0    0    0    0 -0.00000000000E+00 -0.00000000000E+00 -0.74505805969E-08  0.93827000000E+00  0.93827000000E+00 0. -1.
     999902    2    1    2    0    0  0.14946402828E-01 -0.64062165628E-02  0.18096934275E-01  0.10196003145E+01  0.10193099959E+01 0.  0.
     999903    2    3    3    0    0  0.23674449144E-01 -0.32745556634E-01  0.12480360645E+00  0.13272024731E+00  0.20148767771E-01 0.  0.
         14    1    1    2    0    0 -0.14946402828E-01  0.64062165628E-02 -0.18096934275E-01  0.24329685536E-01  0.00000000000E+00 0. -1.
     999901    1    3    3    0    0 -0.87280463158E-02  0.26339340071E-01 -0.10670667217E+00  0.88688006715E+00  0.88000000000E+00 0. -1.
        -11    1    4    4    0    0  0.17569475861E-01 -0.28664050701E-01  0.11799720553E+00  0.12269440052E+00  0.51100000000E-03 0.  1.
         11    1    4    4    0    0  0.61049732825E-02 -0.40815059333E-02  0.68064009140E-02  0.10025846790E-01  0.51100000000E-03 0. -1.
</event>
<event>
 8    1  0.1104109E+005  0.1043930E+01  0.7957747E-01            NaN
         13   -1    0    0    0    0  0.00000000000E+00  0.00000000000E+00  0.74505805969E-08  0.10566000000E+00  0.10566000000E+00 0. -1.
     999900   -1    0    0    0    0 -0.00000000000E+00 -0.00000000000E+00 -0.74505805969E-08  0.93827000000E+00  0.93827000000E+00 0. -1.
     999902    2    1    2    0    0  0.15097650669E-01 -0.17120296207E-01  0.36515339307E-02  0.10208133978E+01  0.10205516233E+01 0.  0.
     999903    2    3    3    0    0  0.44429853204E-01 -0.97666972069E-01 -0.76108981506E-01  0.13305786560E+00  0.19974214475E-01 0.  0.
         14    1    1    2    0    0 -0.15097650669E-01  0.17120296207E-01 -0.36515339307E-02  0.23116602215E-01  0.00000000000E+00 0.  1.
     999901    1    3    3    0    0 -0.29332202535E-01  0.80546675862E-01  0.79760515437E-01  0.88775553218E+00  0.88000000000E+00 0.  1.
        -11    1    4    4    0    0  0.12894819603E-01 -0.13615208880E-01 -0.81076316960E-02  0.20436367049E-01  0.51100000000E-03 0.  1.
         11    1    4    4    0    0  0.31535033601E-01 -0.84051763189E-01 -0.68001349810E-01  0.11262149855E+00  0.51100000000E-03 0. -1.
</event>
<event>
 8    1  0.1104109E+005  0.1043930E+01  0.7957747E-01            NaN
         13   -1    0    0    0    0  0.00000000000E+00  0.00000000000E+00  0.74505805969E-08  0.10566000000E+00  0.10566000000E+00 0.  1.
     999900   -1    0    0    0    0 -0.00000000000E+00 -0.00000000000E+00 -0.74505805969E-08  0.93827000000E+00  0.93827000000E+00 0. -1.
     999902    2    1    2    0    0 -0.17878745772E-01 -0.96211380689E-02  0.13252909620E-01  0.10196842692E+01  0.10193959748E+01 0.  0.
     999903    2    3    3    0    0  0.47491792650E-03  0.12448350799E+00  0.28660724328E-01  0.12920220099E+00  0.19375301660E-01 0.  0.
         14    1    1    2    0    0  0.17878745772E-01  0.96211380689E-02 -0.13252909620E-01  0.24245730789E-01  0.00000000000E+00 0.  1.
     999901    1    3    3    0    0 -0.18353663699E-01 -0.13410464606E+00 -0.15407814708E-01  0.89048206822E+00  0.88000000000E+00 0. -1.
        -11    1    4    4    0    0 -0.41973636065E-02  0.76027441754E-01  0.89084709219E-02  0.76664279401E-01  0.51100000000E-03 0.  1.
         11    1    4    4    0    0  0.46722815330E-02  0.48456066233E-01  0.19752253406E-01  0.52537921591E-01  0.51100000000E-03 0. -1.
</event>
<event>
 8    1  0.1104109E+005  0.1043930E+01  0.7957747E-01            NaN
         13   -1    0    0    0    0  0.00000000000E+00  0.00000000000E+00  0.74505805969E-08  0.10566000000E+00  0.10566000000E+00 0. -1.
     999900   -1    0    0    0    0 -0.00000000000E+00 -0.00000000000E+00 -0.74505805969E-08  0.93827000000E+00  0.93827000000E+00 0. -1.
     999902    2    1    2    0    0  0.91050466203E-02 -0.22079931821E-01 -0.27669317530E-02  0.10198866813E+01  0.10196032373E+01 0.  0.
     999903    2    3    3    0    0 -0.11069509449E+00  0.55973639179E-01 -0.21816978184E-01  0.12814269447E+00  0.23624508087E-01 0.  0.
         14    1    1    2    0    0 -0.91050466203E-02  0.22079931821E-01  0.27669317530E-02  0.24043318709E-01  0.00000000000E+00 0. -1.
     999901    1    3    3    0    0  0.11980014111E+00 -0.78053571000E-01  0.19050046431E-01  0.89174398682E+00  0.88000000000E+00 0. -1.
        -11    1    4    4    0    0 -0.57542830973E-01  0.20207059287E-01 -0.19506496361E-01  0.64033328531E-01  0.51100000000E-03 0. -1.
         11    1    4    4    0    0 -0.53152263519E-01  0.35766579892E-01 -0.23104818229E-02  0.64109365943E-01  0.51100000000E-03 0.  1.
</event>
<event>
 8    1  0.1104109E+005  0.1043930E+01  0.7957747E-01            NaN
         13   -1    0    0    0    0  0.00000000000E+00  0.00000000000E+00  0.74505805969E-08  0.10566000000E+00  0.10566000000E+00 0.  1.
     999900   -1    0    0    0    0 -0.00000000000E+00 -0.00000000000E+00 -0.74505805969E-08  0.93827000000E+00  0.93827000000E+00 0.  1.
     999902    2    1    2    0    0  0.29558201953E-01  0.10418268514E-01  0.19130366499E-01  0.10072121768E+01  0.10065426819E+01 0.  0.
     999903    2    3    3    0    0  0.93171777920E-01 -0.52609591805E-01  0.55000406732E-01  0.12194054725E+00  0.19892284218E-01 0.  0.
         14    1    1    2    0    0 -0.29558201953E-01 -0.10418268514E-01 -0.19130366499E-01  0.36717823246E-01  0.00000000000E+00 0. -1.
     999901    1    3    3    0    0 -0.63613575967E-01  0.63027860320E-01 -0.35870040233E-01  0.88527162951E+00  0.88000000000E+00 0. -1.
        -11    1    4    4    0    0  0.48377429947E-01 -0.16251385953E-01  0.28434235011E-01  0.58423027270E-01  0.51100000000E-03 0. -1.
         11    1    4    4    0    0  0.44794347973E-01 -0.36358205852E-01  0.26566171721E-01  0.63517519977E-01  0.51100000000E-03 0.  1.
</event>
<event>
 8    1  0.1104109E+005  0.1043930E+01  0.7957747E-01            NaN
         13   -1    0    0    0    0  0.00000000000E+00  0.00000000000E+00  0.74505805969E-08  0.10566000000E+00  0.10566000000E+00 0. -1.
     999900   -1    0    0    0    0 -0.00000000000E+00 -0.00000000000E+00 -0.74505805969E-08  0.93827000000E+00  0.93827000000E+00 0.  1.
     999902    2    1    2    0    0 -0.13415290481E-01  0.13688137089E-01  0.12645628475E-01  0.10209681396E+01  0.10207098975E+01 0.  0.
     999903    2    3    3    0    0 -0.45405891752E-01 -0.95045694725E-01 -0.72798864380E-01  0.12959436492E+00  0.19991139830E-01 0.  0.
         14    1    1    2    0    0  0.13415290481E-01 -0.13688137089E-01 -0.12645628475E-01  0.22961860447E-01  0.00000000000E+00 0. -1.
     999901    1    3    3    0    0  0.31990601272E-01  0.10873383181E+00  0.85444492854E-01  0.89137377464E+00  0.88000000000E+00 0. -1.
        -11    1    4    4    0    0 -0.19310858492E-01 -0.51825720752E-01 -0.48501786134E-01  0.73562891232E-01  0.51100000000E-03 0.  1.
         11    1    4    4    0    0 -0.26095033260E-01 -0.43219973973E-01 -0.24297078246E-01  0.56031473685E-01  0.51100000000E-03 0. -1.
</event>
<event>
 8    1  0.1104109E+005  0.1043930E+01  0.7957747E-01            NaN
         13   -1    0    0    0    0  0.00000000000E+00  0.00000000000E+00  0.74505805969E-08  0.10566000000E+00  0.10566000000E+00 0.  1.
     999900   -1    0    0    0    0 -0.00000000000E+00 -0.00000000000E+00 -0.74505805969E-08  0.93827000000E+00  0.93827000000E+00 0. -1.
     999902    2    1    2    0    0 -0.13850111819E-01 -0.78201348119E-03 -0.20258710696E-01  0.10193769452E+01  0.10190812057E+01 0.  0.
     999903    2    3    3    0    0  0.34463722097E-01 -0.12122556562E+00 -0.24201980843E-01  0.12985098985E+00  0.19802974270E-01 0.  0.
         14    1    1    2    0    0  0.13850111819E-01  0.78201348119E-03  0.20258710696E-01  0.24553054831E-01  0.00000000000E+00 0.  1.
     999901    1    3    3    0    0 -0.48313833916E-01  0.12044355213E+00  0.39432701477E-02  0.88952595531E+00  0.88000000000E+00 0.  1.
        -11    1    4    4    0    0  0.33398254514E-02 -0.80269480903E-02 -0.70484115781E-02  0.11203908089E-01  0.51100000000E-03 0. -1.
         11    1    4    4    0    0  0.31123896646E-01 -0.11319861753E+00 -0.17153569265E-01  0.11864708177E+00  0.51100000000E-03 0.  1.
</event>
<event>
 8    1  0.1104109E+005  0.1043930E+01  0.7957747E-01            NaN
         13   -1    0    0    0    0  0.00000000000E+00  0.00000000000E+00  0.74505805969E-08  0.10566000000E+00  0.10566000000E+00 0. -1.
     999900   -1    0    0    0    0 -0.00000000000E+00 -0.00000000000E+00 -0.74505805969E-08  0.93827000000E+00  0.93827000000E+00 0. -1.
     999902    2    1    2    0    0  0.13301387368E-01 -0.16208909210E-01  0.11101485974E-01  0.10202045151E+01  0.10199286024E+01 0.  0.
     999903    2    3    3    0    0  0.10877698344E+00  0.63453159561E-01 -0.28344814199E-01  0.13058794305E+00  0.19774903127E-01 0.  0.
         14    1    1    2    0    0 -0.13301387368E-01  0.16208909210E-01 -0.11101485974E-01  0.23725484916E-01  0.00000000000E+00 0.  1.
     999901    1    3    3    0    0 -0.95475596067E-01 -0.79662068771E-01  0.39446300173E-01  0.88961657204E+00  0.88000000000E+00 0.  1.
        -11    1    4    4    0    0  0.43439803844E-01  0.20350687923E-01 -0.20606584106E-02  0.48017439447E-01  0.51100000000E-03 0.  1.
         11    1    4    4    0    0  0.65337179591E-01  0.43102471638E-01 -0.26284155789E-01  0.82570503600E-01  0.51100000000E-03 0. -1.
</event>
<event>
 8    1  0.1104109E+005  0.1043930E+01  0.7957747E-01            NaN
         13   -1    0    0    0    0  0.00000000000E+00  0.00000000000E+00  0.74505805969E-08  0.10566000000E+00  0.10566000000E+00 0. -1.
     999900   -1    0    0    0    0 -0.00000000000E+00 -0.00000000000E+00 -0.74505805969E-08  0.93827000000E+00  0.93827000000E+00 0. -1.
     999902    2    1    2    0    0  0.14514955387E-01  0.50808565450E-02  0.18137893983E-01  0.10201501297E+01  0.10198729357E+01 0.  0.
     999903    2    3    3    0    0  0.10197340451E+00 -0.20537560717E-01  0.80724998316E-01  0.13323275517E+00  0.20348834585E-01 0.  0.
         14    1    1    2    0    0 -0.14514955387E-01 -0.50808565450E-02 -0.18137893983E-01  0.23779870295E-01  0.00000000000E+00 0. -1.
     999901    1    3    3    0    0 -0.87458449123E-01  0.25618417262E-01 -0.62587104334E-01  0.88691737454E+00  0.88000000000E+00 0. -1.
        -11    1    4    4    0    0  0.70396555774E-01 -0.73160580834E-02  0.45672958896E-01  0.84234672588E-01  0.51100000000E-03 0. -1.
         11    1    4    4    0    0  0.31576848736E-01 -0.13221502634E-01  0.35052039420E-01  0.48998082580E-01  0.51100000000E-03 0.  1.
</event>
<event>
 8    1  0.1104109E+005  0.1043930E+01  0.7957747E-01            NaN
         13   -1    0    0    0    0  0.00000000000E+00  0.00000000000E+00  0.74505805969E-08  0.10566000000E+00  0.10566000000E+00 0. -1.
     999900   -1    0    0    0    0 -0.00000000000E+00 -0.00000000000E+00 -0.74505805969E-08  0.93827000000E+00  0.93827000000E+00 0. -1.
     999902    2    1    2    0    0  0.64871147061E-02 -0.16432102911E-01  0.13752435233E-01  0.10215419197E+01  0.10212965620E+01 0.  0.
     999903    2    3    3    0    0 -0.10603467354E-01 -0.12349670077E+00  0.47802178034E-01  0.13423458791E+00  0.19235585411E-01 0.  0.
         14    1    1    2    0    0 -0.64871147061E-02  0.16432102911E-01 -0.13752435233E-01  0.22388080268E-01  0.00000000000E+00 0.  1.
     999901    1    3    3    0    0  0.17090582060E-01  0.10706459786E+00 -0.34049742801E-01  0.88730733182E+00  0.88000000000E+00 0.  1.
        -11    1    4    4    0    0 -0.13776924556E-01 -0.56764106437E-01  0.18425969286E-01  0.61251488920E-01  0.51100000000E-03 0.  1.
         11    1    4    4    0    0  0.31734572019E-02 -0.66732594337E-01  0.29376208748E-01  0.72983098995E-01  0.51100000000E-03 0. -1.
</event>
<event>
 8    1  0.1104109E+005  0.1043930E+01  0.7957747E-01            NaN
         13   -1    0    0    0    0  0.00000000000E+00  0.00000000000E+00  0.74505805969E-08  0.10566000000E+00  0.10566000000E+00 0. -1.
     999900   -1    0    0    0    0 -0.00000000000E+00 -0.00000000000E+00 -0.74505805969E-08  0.93827000000E+00  0.93827000000E+00 0.  1.
     999902    2    1    2    0    0 -0.16304675858E-01 -0.14258747018E-01 -0.14492487429E-01  0.10178687929E+01  0.10175351066E+01 0.  0.
     999903    2    3    3    0    0  0.40750641358E-01 -0.73120549261E-01  0.93987264749E-01  0.12742627508E+00  0.19915324515E-01 0.  0.
         14    1    1    2    0    0  0.16304675858E-01  0.14258747018E-01  0.14492487429E-01  0.26061207057E-01  0.00000000000E+00 0. -1.
     999901    1    3    3    0    0 -0.57055317216E-01  0.58861802243E-01 -0.10847975218E+00  0.89044251786E+00  0.88000000000E+00 0.  1.
        -11    1    4    4    0    0  0.15476696529E-01 -0.43053354077E-01  0.40779711264E-01  0.61289194843E-01  0.51100000000E-03 0. -1.
         11    1    4    4    0    0  0.25273944829E-01 -0.30067195184E-01  0.53207553485E-01  0.66137080237E-01  0.51100000000E-03 0.  1.
</event>
<event>
 8    1  0.1104109E+005  0.1043930E+01  0.7957747E-01            NaN
         13   -1    0    0    0    0  0.00000000000E+00  0.00000000000E+00  0.74505805969E-08  0.10566000000E+00  0.10566000000E+00 0. -1.
     999900   -1    0    0    0    0 -0.00000000000E+00 -0.00000000000E+00 -0.74505805969E-08  0.93827000000E+00  0.93827000000E+00 0.  1.
     999902    2    1    2    0    0 -0.17468790946E-01 -0.25606506880E-01  0.46110380200E-02  0.10125913095E+01  0.10121062427E+01 0.  0.
     999903    2    3    3    0    0  0.61352412278E-01  0.96491886265E-01  0.31532621249E-01  0.12026537613E+00  0.19865847228E-01 0.  0.
         14    1    1    2    0    0  0.17468790946E-01  0.25606506880E-01 -0.46110380200E-02  0.31338690517E-01  0.00000000000E+00 0. -1.
     999901    1    3    3    0    0 -0.78821203223E-01 -0.12209839315E+00 -0.26921583229E-01  0.89232593335E+00  0.88000000000E+00 0.  1.
        -11    1    4    4    0    0  0.32317445046E-01  0.34361940389E-01  0.86041066058E-02  0.47952601318E-01  0.51100000000E-03 0. -1.
         11    1    4    4    0    0  0.29034967231E-01  0.62129945876E-01  0.22928514643E-01  0.72312774815E-01  0.51100000000E-03 0.  1.
</event>
<event>
 8    1  0.1104109E+005  0.1043930E+01  0.7957747E-01            NaN
         13   -1    0    0    0    0  0.00000000000E+00  0.00000000000E+00  0.74505805969E-08  0.10566000000E+00  0.10566000000E+00 0.  1.
     999900   -1    0    0    0    0 -0.00000000000E+00 -0.00000000000E+00 -0.74505805969E-08  0.93827000000E+00  0.93827000000E+00 0. -1.
     999902    2    1    2    0    0  0.10871909992E-01 -0.20435775178E-01 -0.46095661241E-02  0.10203277240E+01  0.10200547029E+01 0.  0.
     999903    2    3    3    0    0 -0.10515766765E+00  0.10828440121E-01  0.70925998187E-01  0.12895466205E+00  0.20577110159E-01 0.  0.
         14    1    1    2    0    0 -0.10871909992E-01  0.20435775178E-01  0.46095661241E-02  0.23602276031E-01  0.00000000000E+00 0. -1.
     999901    1    3    3    0    0  0.11602957765E+00 -0.31264215300E-01 -0.75535564311E-01  0.89137306192E+00  0.88000000000E+00 0. -1.
        -11    1    4    4    0    0 -0.93613919621E-01  0.28578003095E-02  0.61899973181E-01  0.11226575956E+00  0.51100000000E-03 0. -1.
         11    1    4    4    0    0 -0.11543748033E-01  0.79706398118E-02  0.90260250064E-02  0.16688902483E-01  0.51100000000E-03 0.  1.
</event>
<event>
 8    1  0.1104109E+005  0.1043930E+01  0.7957747E-01            NaN
         13   -1    0    0    0    0  0.00000000000E+00  0.00000000000E+00  0.74505805969E-08  0.10566000000E+00  0.10566000000E+00 0. -1.
     999900   -1    0    0    0    0 -0.00000000000E+00 -0.00000000000E+00 -0.74505805969E-08  0.93827000000E+00  0.93827000000E+00 0. -1.
     999902    2    1    2    0    0 -0.15454494289E-01 -0.15061767584E-01 -0.42992351044E-02  0.10219258718E+01  0.10216889476E+01 0.  0.
     999903    2    3    3    0    0 -0.22118867463E-01 -0.71621785933E-01 -0.10917068405E+00  0.13387099152E+00  0.19603050685E-01 0.  0.
         14    1    1    2    0    0  0.15454494289E-01  0.15061767584E-01  0.42992351044E-02  0.22004128225E-01  0.00000000000E+00 0. -1.
     999901    1    3    3    0    0  0.66643731747E-02  0.56560018349E-01  0.10487144894E+00  0.88805488026E+00  0.88000000000E+00 0.  1.
        -11    1    4    4    0    0 -0.17331242347E-01 -0.33324039583E-01 -0.66153164483E-01  0.76074738695E-01  0.51100000000E-03 0.  1.
         11    1    4    4    0    0 -0.47876251166E-02 -0.38297746350E-01 -0.43017519566E-01  0.57796252823E-01  0.51100000000E-03 0. -1.
</event>
<event>
 8    1  0.1104109E+005  0.1043930E+01  0.7957747E-01            NaN
         13   -1    0    0    0    0  0.00000000000E+00  0.00000000000E+00  0.74505805969E-08  0.10566000000E+00  0.10566000000E+00 0. -1.
     999900   -1    0    0    0    0 -0.00000000000E+00 -0.00000000000E+00 -0.74505805969E-08  0.93827000000E+00  0.93827000000E+00 0.  1.
     999902    2    1    2    0    0 -0.57770242492E-02 -0.22806231310E-01 -0.25946229727E-02  0.10202608161E+01  0.10199862267E+01 0.  0.
     999903    2    3    3    0    0 -0.10976185106E+00  0.45571469900E-01  0.48809960518E-01  0.13001883476E+00  0.19951499438E-01 0.  0.
         14    1    1    2    0    0  0.57770242492E-02  0.22806231310E-01  0.25946229727E-02  0.23669183850E-01  0.00000000000E+00 0. -1.
     999901    1    3    3    0    0  0.10398482681E+00 -0.68377701210E-01 -0.51404583490E-01  0.89024198139E+00  0.88000000000E+00 0.  1.
        -11    1    4    4    0    0 -0.13684819632E-01  0.13446185927E-01  0.71549381888E-02  0.20482394046E-01  0.51100000000E-03 0. -1.
         11    1    4    4    0    0 -0.96077031425E-01  0.32125283973E-01  0.41655022329E-01  0.10953644071E+00  0.51100000000E-03 0.  1.
</event>
<event>
 8    1  0.1104109E+005  0.1043930E+01  0.7957747E-01            NaN
         13   -1    0    0    0    0  0.00000000000E+00  0.00000000000E+00  0.74505805969E-08  0.10566000000E+00  0.10566000000E+00 0. -1.
     999900   -1    0    0    0    0 -0.00000000000E+00 -0.00000000000E+00 -0.74505805969E-08  0.93827000000E+00  0.93827000000E+00 0. -1.
     999902    2    1    2    0    0 -0.12647312850E-01  0.12102859072E-01 -0.15482383360E-01  0.10205604062E+01  0.10202928035E+01 0.  0.
     999903    2    3    3    0    0  0.30058356407E-01 -0.56290635722E-01  0.10917467343E+00  0.12812507177E+00  0.20610294465E-01 0.  0.
         14    1    1    2    0    0  0.12647312850E-01 -0.12102859072E-01  0.15482383360E-01  0.23369593804E-01  0.00000000000E+00 0. -1.
     999901    1    3    3    0    0 -0.42705669257E-01  0.68393494794E-01 -0.12465705679E+00  0.89243533442E+00  0.88000000000E+00 0. -1.
        -11    1    4    4    0    0  0.13862770076E-01 -0.29237449123E-01  0.74669898631E-01  0.81380954209E-01  0.51100000000E-03 0.  1.
         11    1    4    4    0    0  0.16195586331E-01 -0.27053186599E-01  0.34504774802E-01  0.46744117565E-01  0.51100000000E-03 0. -1.
</event>
<event>
 8    1  0.1104109E+005  0.1043930E+01  0.7957747E-01            NaN
         13   -1    0    0    0    0  0.00000000000E+00  0.00000000000E+00  0.74505805969E-08  0.10566000000E+00  0.10566000000E+00 0. -1.
     999900   -1    0    0    0    0 -0.00000000000E+00 -0.00000000000E+00 -0.74505805969E-08  0.93827000000E+00  0.93827000000E+00 0. -1.
     999902    2    1    2    0    0 -0.21829959825E-01 -0.50460793600E-02  0.61350173853E-02  0.10206996642E+01  0.10204352777E+01 0.  0.
     999903    2    3    3    0    0  0.19012229041E-01  0.76636096107E-01 -0.10040053739E+00  0.12958245159E+00  0.21835470534E-01 0.  0.
         14    1    1    2    0    0  0.21829959825E-01  0.50460793600E-02 -0.61350173853E-02  0.23230335796E-01  0.00000000000E+00 0.  1.
     999901    1    3    3    0    0 -0.40842188866E-01 -0.81682175467E-01  0.10653555477E+00  0.89111721261E+00  0.88000000000E+00 0.  1.
        -11    1    4    4    0    0 -0.19787704985E-02  0.32062285829E-01 -0.46913875181E-01  0.56860166292E-01  0.51100000000E-03 0. -1.
         11    1    4    4    0    0  0.20990999539E-01  0.44573810278E-01 -0.53486662207E-01  0.72722285301E-01  0.51100000000E-03 0.  1.
</event>
<event>
 8    1  0.1104109E+005  0.1043930E+01  0.7957747E-01            NaN
         13   -1    0    0    0    0  0.00000000000E+00  0.00000000000E+00  0.74505805969E-08  0.10566000000E+00  0.10566000000E+00 0.  1.
     999900   -1    0    0    0    0 -0.00000000000E+00 -0.00000000000E+00 -0.74505805969E-08  0.93827000000E+00  0.93827000000E+00 0.  1.
     999902    2    1    2    0    0 -0.22110418055E-01  0.39088922730E-02  0.66458002576E-02  0.10205138371E+01  0.10202451543E+01 0.  0.
     999903    2    3    3    0    0  0.12317156991E+00  0.85826844173E-02 -0.27687932949E-01  0.12792910406E+00  0.18823812818E-01 0.  0.
         14    1    1    2    0    0  0.22110418055E-01 -0.39088922730E-02 -0.66458002576E-02  0.23416162932E-01  0.00000000000E+00 0.  1.
     999901    1    3    3    0    0 -0.14528198797E+00 -0.46737921443E-02  0.34333733206E-01  0.89258473301E+00  0.88000000000E+00 0.  1.
        -11    1    4    4    0    0  0.97027007286E-01 -0.83821165633E-03 -0.23297393177E-01  0.99789640703E-01  0.51100000000E-03 0.  1.
         11    1    4    4    0    0  0.26144562625E-01  0.94208960737E-02 -0.43905397713E-02  0.28139463359E-01  0.51100000000E-03 0. -1.
</event>
<event>
 8    1  0.1104109E+005  0.1043930E+01  0.7957747E-01            NaN
         13   -1    0    0    0    0  0.00000000000E+00  0.00000000000E+00  0.74505805969E-08  0.10566000000E+00  0.10566000000E+00 0.  1.
     999900   -1    0    0    0    0 -0.00000000000E+00 -0.00000000000E+00 -0.74505805969E-08  0.93827000000E+00  0.93827000000E+00 0. -1.
     999902    2    1    2    0    0 -0.58451558707E-02 -0.51908949676E-03  0.23185241441E-01  0.10200136725E+01  0.10197332501E+01 0.  0.
     999903    2    3    3    0    0  0.11156254003E+00  0.61890917375E-01  0.13763435357E-01  0.12997527644E+00  0.20674968941E-01 0.  0.
         14    1    1    2    0    0  0.58451558707E-02  0.51908949676E-03 -0.23185241441E-01  0.23916327514E-01  0.00000000000E+00 0. -1.
     999901    1    3    3    0    0 -0.11740769590E+00 -0.62410006872E-01  0.94218060844E-02  0.89003839605E+00  0.88000000000E+00 0. -1.
        -11    1    4    4    0    0  0.51095592089E-01  0.21858584806E-01  0.14554521781E-01  0.57451305345E-01  0.51100000000E-03 0. -1.
         11    1    4    4    0    0  0.60466947939E-01  0.40032332569E-01 -0.79108642366E-03  0.72523971090E-01  0.51100000000E-03 0.  1.
</event>
<event>
 8    1  0.1104109E+005  0.1043930E+01  0.7957747E-01            NaN
         13   -1    0    0    0    0  0.00000000000E+00  0.00000000000E+00  0.74505805969E-08  0.10566000000E+00  0.10566000000E+00 0.  1.
     999900   -1    0    0    0    0 -0.00000000000E+00 -0.00000000000E+00 -0.74505805969E-08  0.93827000000E+00  0.93827000000E+00 0. -1.
     999902    2    1    2    0    0  0.19725627900E-01  0.53119653094E-02  0.11792652448E-01  0.10203422061E+01  0.10200695238E+01 0.  0.
     999903    2    3    3    0    0  0.56618427400E-01 -0.11296424242E+00  0.30471003342E-01  0.13146695003E+00  0.19710670176E-01 0.  0.
         14    1    1    2    0    0 -0.19725627900E-01 -0.53119653094E-02 -0.11792652448E-01  0.23587793947E-01  0.00000000000E+00 0. -1.
     999901    1    3    3    0    0 -0.36892799500E-01  0.11827620773E+00 -0.18678350894E-01  0.88887525602E+00  0.88000000000E+00 0. -1.
        -11    1    4    4    0    0  0.18177311469E-01 -0.37728342697E-01  0.70569790393E-03  0.41887965163E-01  0.51100000000E-03 0. -1.
         11    1    4    4    0    0  0.38441115931E-01 -0.75235899727E-01  0.29765305438E-01  0.89578984872E-01  0.51100000000E-03 0.  1.
</event>
<event>
 8    1  0.1104109E+005  0.1043930E+01  0.7957747E-01            NaN
         13   -1    0    0    0    0  0.00000000000E+00  0.00000000000E+00  0.74505805969E-08  0.10566000000E+00  0.10566000000E+00 0.  1.
     999900   -1    0    0    0    0 -0.00000000000E+00 -0.00000000000E+00 -0.74505805969E-08  0.93827000000E+00  0.93827000000E+00 0. -1.
     999902    2    1    2    0    0  0.15421808493E-02 -0.18679817924E-02  0.23169458215E-01  0.10206342607E+01  0.10203683661E+01 0.  0.
     999903    2    3    3    0    0 -0.25749381528E-01 -0.41712475619E-01 -0.11683724381E+00  0.12825861684E+00  0.19909042693E-01 0.  0.
         14    1    1    2    0    0 -0.15421808493E-02  0.18679817924E-02 -0.23169458215E-01  0.23295739347E-01  0.00000000000E+00 0. -1.
     999901    1    3    3    0    0  0.27291562377E-01  0.39844493827E-01  0.14000670202E+00  0.89237564382E+00  0.88000000000E+00 0.  1.
        -11    1    4    4    0    0 -0.28607787563E-01 -0.37936526387E-01 -0.99257622320E-01  0.11004509191E+00  0.51100000000E-03 0.  1.
         11    1    4    4    0    0  0.28584060345E-02 -0.37759492322E-02 -0.17579621488E-01  0.18213524929E-01  0.51100000000E-03 0. -1.
</event>
<event>
 8    1  0.1104109E+005  0.1043930E+01  0.7957747E-01            NaN
         13   -1    0    0    0    0  0.00000000000E+00  0.00000000000E+00  0.74505805969E-08  0.10566000000E+00  0.10566000000E+00 0.  1.
     999900   -1    0    0    0    0 -0.00000000000E+00 -0.00000000000E+00 -0.74505805969E-08  0.93827000000E+00  0.93827000000E+00 0. -1.
     999902    2    1    2    0    0 -0.14327340650E-01  0.18705359884E-01  0.28668589171E-02  0.10201943294E+01  0.10199181770E+01 0.  0.
     999903    2    3    3    0    0  0.12202249289E+00  0.24976344179E-01  0.27788437915E-01  0.12932302139E+00  0.20950895889E-01 0.  0.
         14    1    1    2    0    0  0.14327340650E-01 -0.18705359884E-01 -0.28668589171E-02  0.23735670594E-01  0.00000000000E+00 0.  1.
     999901    1    3    3    0    0 -0.13634983354E+00 -0.62709842951E-02 -0.24921578998E-01  0.89087130802E+00  0.88000000000E+00 0. -1.
        -11    1    4    4    0    0  0.41595513960E-01  0.18735557162E-01  0.93089984116E-02  0.46563144827E-01  0.51100000000E-03 0.  1.
         11    1    4    4    0    0  0.80426978933E-01  0.62407870174E-02  0.18479439504E-01  0.82759876560E-01  0.51100000000E-03 0. -1.
</event>
<event>
 8    1  0.1104109E+005  0.1043930E+01  0.7957747E-01            NaN
         13   -1    0    0    0    0  0.00000000000E+00  0.00000000000E+00  0.74505805969E-08  0.10566000000E+00  0.10566000000E+00 0. -1.
     999900   -1    0    0    0    0 -0.00000000000E+00 -0.00000000000E+00 -0.74505805969E-08  0.93827000000E+00  0.93827000000E+00 0.  1.
     999902    2    1    2    0    0  0.98489385018E-02 -0.14280446129E-02 -0.22101554874E-01  0.10196911958E+01  0.10194030681E+01 0.  0.
     999903    2    3    3    0    0  0.11456089833E+00  0.57130809101E-01  0.17691709392E-01  0.13065956658E+00  0.19256089533E-01 0.  0.
         14    1    1    2    0    0 -0.98489385018E-02  0.14280446129E-02  0.22101554874E-01  0.24238804196E-01  0.00000000000E+00 0. -1.
     999901    1    3    3    0    0 -0.10471195982E+00 -0.58558853714E-01 -0.39793264266E-01  0.88903162922E+00  0.88000000000E+00 0.  1.
        -11    1    4    4    0    0  0.46656648352E-01  0.28532209014E-01 -0.77813795260E-03  0.54697316263E-01  0.51100000000E-03 0. -1.
         11    1    4    4    0    0  0.67904249974E-01  0.28598600087E-01  0.18469847345E-01  0.75962250318E-01  0.51100000000E-03 0.  1.
</event>
<event>
 8    1  0.1104109E+005  0.1043930E+01  0.7957747E-01            NaN
         13   -1    0    0    0    0  0.00000000000E+00  0.00000000000E+00  0.74505805969E-08  0.10566000000E+00  0.10566000000E+00 0. -1.
     999900   -1    0    0    0    0 -0.00000000000E+00 -0.00000000000E+00 -0.74505805969E-08  0.93827000000E+00  0.93827000000E+00 0. -1.
     999902    2    1    2    0    0  0.16148226165E-01  0.12777631381E-01 -0.10848638316E-01  0.10206549914E+01  0.10203895753E+01 0.  0.
     999903    2    3    3    0    0 -0.27675793022E-01 -0.11388450170E+00  0.47953199761E-01  0.12856671282E+00  0.22231982161E-01 0.  0.
         14    1    1    2    0    0 -0.16148226165E-01 -0.12777631381E-01  0.10848638316E-01  0.23275008600E-01  0.00000000000E+00 0. -1.
     999901    1    3    3    0    0  0.43824019187E-01  0.12666213309E+00 -0.58801838077E-01  0.89208827858E+00  0.88000000000E+00 0. -1.
        -11    1    4    4    0    0  0.27236352787E-02 -0.37485726645E-02  0.40206021338E-02  0.61560010291E-02  0.51100000000E-03 0.  1.
         11    1    4    4    0    0 -0.30399428301E-01 -0.11013592904E+00  0.43932597627E-01  0.12241071179E+00  0.51100000000E-03 0. -1.
</event>
<event>
 8    1  0.1104109E+005  0.1043930E+01  0.7957747E-01            NaN
         13   -1    0    0    0    0  0.00000000000E+00  0.00000000000E+00  0.74505805969E-08  0.10566000000E+00  0.10566000000E+00 0. -1.
     999900   -1    0    0    0    0 -0.00000000000E+00 -0.00000000000E+00 -0.74505805969E-08  0.93827000000E+00  0.93827000000E+00 0.  1.
     999902    2    1    2    0    0 -0.52935505547E-02 -0.57081873841E-02  0.22266950788E-01  0.10203413973E+01  0.10200686961E+01 0.  0.
     999903    2    3    3    0    0 -0.54829698563E-01 -0.54329088305E-01 -0.10128649061E+00  0.12900348445E+00  0.20615531519E-01 0.  0.
         14    1    1    2    0    0  0.52935505547E-02  0.57081873841E-02 -0.22266950788E-01  0.23588602716E-01  0.00000000000E+00 0.  1.
     999901    1    3    3    0    0  0.49536148008E-01  0.48620900921E-01  0.12355344140E+00  0.89133791283E+00  0.88000000000E+00 0. -1.
        -11    1    4    4    0    0 -0.40607909308E-01 -0.27180808275E-01 -0.68201492668E-01  0.83901748254E-01  0.51100000000E-03 0.  1.
         11    1    4    4    0    0 -0.14221789254E-01 -0.27148280030E-01 -0.33084997946E-01  0.45101736200E-01  0.51100000000E-03 0. -1.
</event>
<event>
 8    1  0.1104109E+005  0.1043930E+01  0.7957747E-01            NaN
         13   -1    0    0    0    0  0.00000000000E+00  0.00000000000E+00  0.74505805969E-08  0.10566000000E+00  0.10566000000E+00 0.  1.
     999900   -1    0    0    0    0 -0.00000000000E+00 -0.00000000000E+00 -0.74505805969E-08  0.93827000000E+00  0.93827000000E+00 0.  1.
     999902    2    1    2    0    0  0.31083886752E-02 -0.11576248253E-01 -0.19571878436E-01  0.10209794002E+01  0.10207214143E+01 0.  0.
     999903    2    3    3    0    0 -0.88123242039E-01  0.16767403493E-01  0.90352697169E-01  0.12900967802E+00  0.20809505753E-01 0.  0.
         14    1    1    2    0    0 -0.31083886752E-02  0.11576248253E-01  0.19571878436E-01  0.22950599759E-01  0.00000000000E+00 0.  1.
     999901    1    3    3    0    0  0.91231630715E-01 -0.28343651746E-01 -0.10992457561E+00  0.89196972222E+00  0.88000000000E+00 0.  1.
        -11    1    4    4    0    0 -0.73708353756E-01  0.20806064892E-01  0.80306819605E-01  0.11097414179E+00  0.51100000000E-03 0. -1.
         11    1    4    4    0    0 -0.14414888283E-01 -0.40386613984E-02  0.10045877564E-01  0.18035536231E-01  0.51100000000E-03 0.  1.
</event>
<event>
 8    1  0.1104109E+005  0.1043930E+01  0.7957747E-01            NaN
         13   -1    0    0    0    0  0.00000000000E+00  0.00000000000E+00  0.74505805969E-08  0.10566000000E+00  0.10566000000E+00 0. -1.
     999900   -1    0    0    0    0 -0.00000000000E+00 -0.00000000000E+00 -0.74505805969E-08  0.93827000000E+00  0.93827000000E+00 0. -1.
     999902    2    1    2    0    0 -0.11832584436E-01 -0.13413445226E-01  0.15088832481E-01  0.10205290720E+01  0.10202607428E+01 0.  0.
     999903    2    3    3    0    0 -0.31777576448E-02 -0.12394545389E+00  0.43995842981E-01  0.13310141507E+00  0.20193533899E-01 0.  0.
         14    1    1    2    0    0  0.11832584436E-01  0.13413445226E-01 -0.15088832481E-01  0.23400928035E-01  0.00000000000E+00 0.  1.
     999901    1    3    3    0    0 -0.86548267913E-02  0.11053200866E+00 -0.28907010500E-01  0.88742765689E+00  0.88000000000E+00 0.  1.
        -11    1    4    4    0    0 -0.98454060074E-02 -0.53960593793E-01  0.13640463905E-01  0.56524340584E-01  0.51100000000E-03 0.  1.
         11    1    4    4    0    0  0.66676483626E-02 -0.69984860093E-01  0.30355379076E-01  0.76577074486E-01  0.51100000000E-03 0. -1.
</event>
<event>
 8    1  0.1104109E+005  0.1043930E+01  0.7957747E-01            NaN
         13   -1    0    0    0    0  0.00000000000E+00  0.00000000000E+00  0.74505805969E-08  0.10566000000E+00  0.10566000000E+00 0.  1.
     999900   -1    0    0    0    0 -0.00000000000E+00 -0.00000000000E+00 -0.74505805969E-08  0.93827000000E+00  0.93827000000E+00 0.  1.
     999902    2    1    2    0    0  0.16802267123E-03 -0.89089750416E-02 -0.22831016333E-01  0.10194217692E+01  0.10191271217E+01 0.  0.
     999903    2    3    3    0    0 -0.37675591724E-01 -0.77219805632E-01  0.93347605122E-01  0.12835724812E+00  0.19479711733E-01 0.  0.
         14    1    1    2    0    0 -0.16802267123E-03  0.89089750416E-02  0.22831016333E-01  0.24508230754E-01  0.00000000000E+00 0.  1.
     999901    1    3    3    0    0  0.37843614396E-01  0.68310830591E-01 -0.11617862145E+00  0.89106452113E+00  0.88000000000E+00 0.  1.
        -11    1    4    4    0    0 -0.26405251240E-01 -0.59819255046E-01  0.58155656702E-01  0.87509554306E-01  0.51100000000E-03 0. -1.
         11    1    4    4    0    0 -0.11270340484E-01 -0.17400550586E-01  0.35191948420E-01  0.40847693814E-01  0.51100000000E-03 0.  1.
</event>
<event>
 8    1  0.1104109E+005  0.1043930E+01  0.7957747E-01            NaN
         13   -1    0    0    0    0  0.00000000000E+00  0.00000000000E+00  0.74505805969E-08  0.10566000000E+00  0.10566000000E+00 0. -1.
     999900   -1    0    0    0    0 -0.00000000000E+00 -0.00000000000E+00 -0.74505805969E-08  0.93827000000E+00  0.93827000000E+00 0. -1.
     999902    2    1    2    0    0 -0.68100696778E-02 -0.77341043128E-02  0.18036232383E-01  0.10231574437E+01  0.10229465555E+01 0.  0.
     999903    2    3    3    0    0 -0.63868877061E-01  0.83271870396E-01  0.81315242361E-01  0.13437061430E+00  0.20732956627E-01 0.  0.
         14    1    1    2    0    0  0.68100696778E-02  0.77341043128E-02 -0.18036232383E-01  0.20772556345E-01  0.00000000000E+00 0.  1.
     999901    1    3    3    0    0  0.57058807383E-01 -0.91005974709E-01 -0.63279009978E-01  0.88878682936E+00  0.88000000000E+00 0.  1.
        -11    1    4    4    0    0 -0.57906544501E-01  0.72192033901E-01  0.62298973649E-01  0.11156290106E+00  0.51100000000E-03 0. -1.
         11    1    4    4    0    0 -0.59623325595E-02  0.11079836495E-01  0.19016268713E-01  0.22807713236E-01  0.51100000000E-03 0.  1.
</event>
<event>
 8    1  0.1104109E+005  0.1043930E+01  0.7957747E-01            NaN
         13   -1    0    0    0    0  0.00000000000E+00  0.00000000000E+00  0.74505805969E-08  0.10566000000E+00  0.10566000000E+00 0.  1.
     999900   -1    0    0    0    0 -0.00000000000E+00 -0.00000000000E+00 -0.74505805969E-08  0.93827000000E+00  0.93827000000E+00 0. -1.
     999902    2    1    2    0    0  0.21052062314E-01 -0.16197818888E-01 -0.13310210373E-01  0.10142193897E+01  0.10137841240E+01 0.  0.
     999903    2    3    3    0    0  0.12136071522E+00  0.27198045465E-01 -0.19227189274E-01  0.12743867411E+00  0.20069229586E-01 0.  0.
         14    1    1    2    0    0 -0.21052062314E-01  0.16197818888E-01  0.13310210373E-01  0.29710610303E-01  0.00000000000E+00 0.  1.
     999901    1    3    3    0    0 -0.10030865291E+00 -0.43395864353E-01  0.59169789011E-02  0.88678071558E+00  0.88000000000E+00 0. -1.
        -11    1    4    4    0    0  0.60738225051E-01  0.15628588651E-01 -0.19628940138E-01  0.65718651672E-01  0.51100000000E-03 0.  1.
         11    1    4    4    0    0  0.60622490171E-01  0.11569456814E-01  0.40175086421E-03  0.61720022442E-01  0.51100000000E-03 0. -1.
</event>
<event>
 8    1  0.1104109E+005  0.1043930E+01  0.7957747E-01            NaN
         13   -1    0    0    0    0  0.00000000000E+00  0.00000000000E+00  0.74505805969E-08  0.10566000000E+00  0.10566000000E+00 0.  1.
     999900   -1    0    0    0    0 -0.00000000000E+00 -0.00000000000E+00 -0.74505805969E-08  0.93827000000E+00  0.93827000000E+00 0. -1.
     999902    2    1    2    0    0  0.33290323092E-02  0.20798786700E-01 -0.11973899024E-01  0.10197009628E+01  0.10194130700E+01 0.  0.
     999903    2    3    3    0    0 -0.99462531022E-01 -0.77078872253E-01 -0.15072040650E-01  0.12832240122E+00  0.20137641893E-01 0.  0.
         14    1    1    2    0    0 -0.33290323092E-02 -0.20798786700E-01  0.11973899024E-01  0.24229037169E-01  0.00000000000E+00 0. -1.
     999901    1    3    3    0    0  0.10279156333E+00  0.97877658953E-01  0.30981416264E-02  0.89137856161E+00  0.88000000000E+00 0. -1.
        -11    1    4    4    0    0 -0.62937158519E-01 -0.37078961525E-01 -0.49644568023E-02  0.73217772859E-01  0.51100000000E-03 0.  1.
         11    1    4    4    0    0 -0.36525372503E-01 -0.39999910728E-01 -0.10107583848E-01  0.55104628363E-01  0.51100000000E-03 0. -1.
</event>
<event>
 8    1  0.1104109E+005  0.1043930E+01  0.7957747E-01            NaN
         13   -1    0    0    0    0  0.00000000000E+00  0.00000000000E+00  0.74505805969E-08  0.10566000000E+00  0.10566000000E+00 0.  1.
     999900   -1    0    0    0    0 -0.00000000000E+00 -0.00000000000E+00 -0.74505805969E-08  0.93827000000E+00  0.93827000000E+00 0.  1.
     999902    2    1    2    0    0 -0.12238543195E-01 -0.19567898824E-01  0.68073014865E-02  0.10198670834E+01  0.10195831716E+01 0.  0.
     999903    2    3    3    0    0 -0.49889778717E-01 -0.42217276961E-01 -0.11159107553E+00  0.13085145608E+00  0.19956125007E-01 0.  0.
         14    1    1    2    0    0  0.12238543195E-01  0.19567898824E-01 -0.68073014865E-02  0.24062916644E-01  0.00000000000E+00 0. -1.
     999901    1    3    3    0    0  0.37651235522E-01  0.22649378138E-01  0.11839837702E+00  0.88901562728E+00  0.88000000000E+00 0. -1.
        -11    1    4    4    0    0 -0.37917028861E-01 -0.21439610802E-01 -0.81078600144E-01  0.92039983221E-01  0.51100000000E-03 0.  1.
         11    1    4    4    0    0 -0.11972749856E-01 -0.20777666159E-01 -0.30512475385E-01  0.38811472856E-01  0.51100000000E-03 0. -1.
</event>
<event>
 8    1  0.1104109E+005  0.1043930E+01  0.7957747E-01            NaN
         13   -1    0    0    0    0  0.00000000000E+00  0.00000000000E+00  0.74505805969E-08  0.10566000000E+00  0.10566000000E+00 0.  1.
     999900   -1    0    0    0    0 -0.00000000000E+00 -0.00000000000E+00 -0.74505805969E-08  0.93827000000E+00  0.93827000000E+00 0. -1.
     999902    2    1    2    0    0  0.54189794542E-02 -0.11580101359E-01 -0.19178268761E-01  0.10208807033E+01  0.10206204683E+01 0.  0.
     999903    2    3    3    0    0  0.15838606191E-01 -0.12118399929E+00  0.45179172490E-01  0.13168811263E+00  0.19083454906E-01 0.  0.
         14    1    1    2    0    0 -0.54189794542E-02  0.11580101359E-01  0.19178268761E-01  0.23049296702E-01  0.00000000000E+00 0.  1.
     999901    1    3    3    0    0 -0.10419626737E-01  0.10960389793E+00 -0.64357441251E-01  0.88919259067E+00  0.88000000000E+00 0. -1.
        -11    1    4    4    0    0  0.48026150214E-02 -0.12739811695E-01 -0.17005436234E-03  0.13625635859E-01  0.51100000000E-03 0. -1.
         11    1    4    4    0    0  0.11035991169E-01 -0.10844418759E+00  0.45349226852E-01  0.11806247677E+00  0.51100000000E-03 0.  1.
</event>
<event>
 8    1  0.1104109E+005  0.1043930E+01  0.7957747E-01            NaN
         13   -1    0    0    0    0  0.00000000000E+00  0.00000000000E+00  0.74505805969E-08  0.10566000000E+00  0.10566000000E+00 0.  1.
     999900   -1    0    0    0    0 -0.00000000000E+00 -0.00000000000E+00 -0.74505805969E-08  0.93827000000E+00  0.93827000000E+00 0. -1.
     999902    2    1    2    0    0  0.13591478300E-01  0.24855284222E-02 -0.19582848609E-01  0.10199634797E+01  0.10196818650E+01 0.  0.
     999903    2    3    3    0    0 -0.84507824516E-01 -0.94515443740E-01 -0.19095130421E-01  0.12921497444E+00  0.16035713410E-01 0.  0.
         14    1    1    2    0    0 -0.13591478300E-01 -0.24855284222E-02  0.19582848609E-01  0.23966520264E-01  0.00000000000E+00 0.  1.
     999901    1    3    3    0    0  0.98099302817E-01  0.97000972162E-01 -0.48771818770E-03  0.89074850529E+00  0.88000000000E+00 0.  1.
        -11    1    4    4    0    0 -0.22865038404E-01 -0.17969040495E-01 -0.88391969250E-02  0.30398830912E-01  0.51100000000E-03 0.  1.
         11    1    4    4    0    0 -0.61642786112E-01 -0.76546403244E-01 -0.10255933496E-01  0.98816143530E-01  0.51100000000E-03 0. -1.
</event>
<event>
 8    1  0.1104109E+005  0.1043930E+01  0.7957747E-01            NaN
         13   -1    0    0    0    0  0.00000000000E+00  0.00000000000E+00  0.74505805969E-08  0.10566000000E+00  0.10566000000E+00 0.  1.
     999900   -1    0    0    0    0 -0.00000000000E+00 -0.00000000000E+00 -0.74505805969E-08  0.93827000000E+00  0.93827000000E+00 0. -1.
     999902    2    1    2    0    0 -0.49647805646E-02 -0.95523058800E-02  0.23047615893E-01  0.10184920718E+01  0.10181743525E+01 0.  0.
     999903    2    3    3    0    0  0.87268774186E-01  0.90705516973E-01  0.11278746535E-01  0.12793204239E+00  0.19901446913E-01 0.  0.
         14    1    1    2    0    0  0.49647805646E-02  0.95523058800E-02 -0.23047615893E-01  0.25437928218E-01  0.00000000000E+00 0.  1.
     999901    1    3    3    0    0 -0.92233554751E-01 -0.10025782285E+00  0.11768869358E-01  0.89056002939E+00  0.88000000000E+00 0.  1.
        -11    1    4    4    0    0  0.66324510301E-01  0.75315170783E-01  0.21511766176E-02  0.10038029836E+00  0.51100000000E-03 0. -1.
         11    1    4    4    0    0  0.20944263886E-01  0.15390346190E-01  0.91275699174E-02  0.27551744031E-01  0.51100000000E-03 0.  1.
</event>
<event>
 8    1  0.1104109E+005  0.1043930E+01  0.7957747E-01            NaN
         13   -1    0    0    0    0  0.00000000000E+00  0.00000000000E+00  0.74505805969E-08  0.10566000000E+00  0.10566000000E+00 0.  1.
     999900   -1    0    0    0    0 -0.00000000000E+00 -0.00000000000E+00 -0.74505805969E-08  0.93827000000E+00  0.93827000000E+00 0.  1.
     999902    2    1    2    0    0 -0.21432270010E-02 -0.17909809251E-01  0.15392698879E-01  0.10202173479E+01  0.10199417371E+01 0.  0.
     999903    2    3    3    0    0  0.11542435753E+00  0.52136206490E-01  0.19069232835E-01  0.12963209196E+00  0.19996931937E-01 0.  0.
         14    1    1    2    0    0  0.21432270010E-02  0.17909809251E-01 -0.15392698879E-01  0.23712652069E-01  0.00000000000E+00 0. -1.
     999901    1    3    3    0    0 -0.11756758453E+00 -0.70046015740E-01 -0.36765339560E-02  0.89058525597E+00  0.88000000000E+00 0. -1.
        -11    1    4    4    0    0  0.42602193486E-01  0.17268765275E-01 -0.25641849397E-02  0.46043385077E-01  0.51100000000E-03 0. -1.
         11    1    4    4    0    0  0.72822164042E-01  0.34867441214E-01  0.21633417775E-01  0.83588706882E-01  0.51100000000E-03 0.  1.
</event>
<event>
 8    1  0.1104109E+005  0.1043930E+01  0.7957747E-01            NaN
         13   -1    0    0    0    0  0.00000000000E+00  0.00000000000E+00  0.74505805969E-08  0.10566000000E+00  0.10566000000E+00 0.  1.
     999900   -1    0    0    0    0 -0.00000000000E+00 -0.00000000000E+00 -0.74505805969E-08  0.93827000000E+00  0.93827000000E+00 0.  1.
     999902    2    1    2    0    0 -0.12497442309E-01  0.16006527618E-01  0.10764132252E-01  0.10209460592E+01  0.10206873147E+01 0.  0.
     999903    2    3    3    0    0  0.30205312241E-01  0.12348068780E+00  0.33837568304E-01  0.13307973831E+00  0.20134412666E-01 0.  0.
         14    1    1    2    0    0  0.12497442309E-01 -0.16006527618E-01 -0.10764132252E-01  0.22983940780E-01  0.00000000000E+00 0. -1.
     999901    1    3    3    0    0 -0.42702754550E-01 -0.10747416018E+00 -0.23073436052E-01  0.88786632091E+00  0.88000000000E+00 0. -1.
        -11    1    4    4    0    0  0.24426217470E-01  0.70570959894E-01  0.27019511698E-01  0.79417980418E-01  0.51100000000E-03 0. -1.
         11    1    4    4    0    0  0.57790947715E-02  0.52909727905E-01  0.68180566063E-02  0.53661757893E-01  0.51100000000E-03 0.  1.
</event>
<event>
 8    1  0.1104109E+005  0.1043930E+01  0.7957747E-01            NaN
         13   -1    0    0    0    0  0.00000000000E+00  0.00000000000E+00  0.74505805969E-08  0.10566000000E+00  0.10566000000E+00 0.  1.
     999900   -1    0    0    0    0 -0.00000000000E+00 -0.00000000000E+00 -0.74505805969E-08  0.93827000000E+00  0.93827000000E+00 0. -1.
     999902    2    1    2    0    0  0.17780054820E-01 -0.84090371362E-02 -0.12032519522E-01  0.10208730318E+01  0.10206126216E+01 0.  0.
     999903    2    3    3    0    0 -0.35811908237E-01  0.11488572914E+00 -0.45190390751E-01  0.13004580823E+00  0.19710841956E-01 0.  0.
         14    1    1    2    0    0 -0.17780054820E-01  0.84090371362E-02  0.12032519522E-01  0.23056968166E-01  0.00000000000E+00 0. -1.
     999901    1    3    3    0    0  0.53591963057E-01 -0.12329476627E+00  0.33157871228E-01  0.89082722361E+00  0.88000000000E+00 0.  1.
        -11    1    4    4    0    0 -0.29740772174E-01  0.65509158997E-01 -0.22652539136E-01  0.75427860186E-01  0.51100000000E-03 0.  1.
         11    1    4    4    0    0 -0.60711360631E-02  0.49376570139E-01 -0.22537851614E-01  0.54617948041E-01  0.51100000000E-03 0. -1.
</event>
<event>
 8    1  0.1104109E+005  0.1043930E+01  0.7957747E-01            NaN
         13   -1    0    0    0    0  0.00000000000E+00  0.00000000000E+00  0.74505805969E-08  0.10566000000E+00  0.10566000000E+00 0. -1.
     999900   -1    0    0    0    0 -0.00000000000E+00 -0.00000000000E+00 -0.74505805969E-08  0.93827000000E+00  0.93827000000E+00 0.  1.
     999902    2    1    2    0    0  0.22833568230E-01  0.32357019373E-02  0.60005405969E-02  0.10201004366E+01  0.10198220691E+01 0.  0.
     999903    2    3    3    0    0 -0.90275497694E-01 -0.64985755022E-01  0.61101438777E-01  0.12853779887E+00  0.20390342774E-01 0.  0.
         14    1    1    2    0    0 -0.22833568230E-01 -0.32357019373E-02 -0.60005405969E-02  0.23829563416E-01  0.00000000000E+00 0.  1.
     999901    1    3    3    0    0  0.11310906592E+00  0.68221456959E-01 -0.55100898180E-01  0.89156263771E+00  0.88000000000E+00 0.  1.
        -11    1    4    4    0    0 -0.28063079740E-01 -0.12388477532E-01  0.95635417002E-02  0.32136167645E-01  0.51100000000E-03 0. -1.
         11    1    4    4    0    0 -0.62212417954E-01 -0.52597277490E-01  0.51537897076E-01  0.96401631227E-01  0.51100000000E-03 0.  1.
</event>
<event>
 8    1  0.1104109E+005  0.1043930E+01  0.7957747E-01            NaN
         13   -1    0    0    0    0  0.00000000000E+00  0.00000000000E+00  0.74505805969E-08  0.10566000000E+00  0.10566000000E+00 0.  1.
     999900   -1    0    0    0    0 -0.00000000000E+00 -0.00000000000E+00 -0.74505805969E-08  0.93827000000E+00  0.93827000000E+00 0. -1.
     999902    2    1    2    0    0 -0.22063642547E-01 -0.61017817028E-02 -0.50066014072E-04  0.10210381113E+01  0.10207814586E+01 0.  0.
     999903    2    3    3    0    0  0.39983342071E-01 -0.61204476072E-01  0.10653383937E+00  0.13073127422E+00  0.19913603244E-01 0.  0.
         14    1    1    2    0    0  0.22063642547E-01  0.61017817028E-02  0.50066014072E-04  0.22891888716E-01  0.00000000000E+00 0.  1.
     999901    1    3    3    0    0 -0.62046984619E-01  0.55102694370E-01 -0.10658390539E+00  0.89030683706E+00  0.88000000000E+00 0.  1.
        -11    1    4    4    0    0  0.92357705197E-02 -0.38404345432E-02  0.20843054751E-01  0.23124498847E-01  0.51100000000E-03 0. -1.
         11    1    4    4    0    0  0.30747571552E-01 -0.57364041529E-01  0.85690784622E-01  0.10760677538E+00  0.51100000000E-03 0.  1.
</event>
<event>
 8    1  0.1104109E+005  0.1043930E+01  0.7957747E-01            NaN
         13   -1    0    0    0    0  0.00000000000E+00  0.00000000000E+00  0.74505805969E-08  0.10566000000E+00  0.10566000000E+00 0. -1.
     999900   -1    0    0    0    0 -0.00000000000E+00 -0.00000000000E+00 -0.74505805969E-08  0.93827000000E+00  0.93827000000E+00 0.  1.
     999902    2    1    2    0    0 -0.14811339219E-01  0.16896977338E-01 -0.44414679598E-02  0.10210256281E+01  0.10207686922E+01 0.  0.
     999903    2    3    3    0    0  0.11953881112E+00  0.17070043287E-01  0.42465693069E-01  0.12959404097E+00  0.20257507912E-01 0.  0.
         14    1    1    2    0    0  0.14811339219E-01 -0.16896977338E-01  0.44414679598E-02  0.22904371859E-01  0.00000000000E+00 0.  1.
     999901    1    3    3    0    0 -0.13435015033E+00 -0.17306594963E-03 -0.46907161029E-01  0.89143158717E+00  0.88000000000E+00 0.  1.
        -11    1    4    4    0    0  0.28357925065E-01  0.12907229458E-01  0.10695165052E-01  0.32945654687E-01  0.51100000000E-03 0. -1.
         11    1    4    4    0    0  0.91180886051E-01  0.41628138295E-02  0.31770528018E-01  0.96648386285E-01  0.51100000000E-03 0.  1.
</event>
<event>
 8    1  0.1104109E+005  0.1043930E+01  0.7957747E-01            NaN
         13   -1    0    0    0    0  0.00000000000E+00  0.00000000000E+00  0.74505805969E-08  0.10566000000E+00  0.10566000000E+00 0.  1.
     999900   -1    0    0    0    0 -0.00000000000E+00 -0.00000000000E+00 -0.74505805969E-08  0.93827000000E+00  0.93827000000E+00 0. -1.
     999902    2    1    2    0    0  0.48404334328E-02 -0.10759631828E-02  0.23841638075E-01  0.10195781787E+01  0.10192873252E+01 0.  0.
     999903    2    3    3    0    0  0.11311466666E+00 -0.50887402269E-01 -0.31846844814E-01  0.12979972532E+00  0.21196500788E-01 0.  0.
         14    1    1    2    0    0 -0.48404334328E-02  0.10759631828E-02 -0.23841638075E-01  0.24351821260E-01  0.00000000000E+00 0. -1.
     999901    1    3    3    0    0 -0.10827423323E+00  0.49811439087E-01  0.55688482889E-01  0.88977845342E+00  0.88000000000E+00 0.  1.
        -11    1    4    4    0    0  0.90545306437E-01 -0.35121054144E-01 -0.17267918638E-01  0.98642704226E-01  0.51100000000E-03 0.  1.
         11    1    4    4    0    0  0.22569360222E-01 -0.15766348126E-01 -0.14578926176E-01  0.31157021094E-01  0.51100000000E-03 0. -1.
</event>
<event>
 8    1  0.1104109E+005  0.1043930E+01  0.7957747E-01            NaN
         13   -1    0    0    0    0  0.00000000000E+00  0.00000000000E+00  0.74505805969E-08  0.10566000000E+00  0.10566000000E+00 0.  1.
     999900   -1    0    0    0    0 -0.00000000000E+00 -0.00000000000E+00 -0.74505805969E-08  0.93827000000E+00  0.93827000000E+00 0. -1.
     999902    2    1    2    0    0  0.12379810619E-01  0.20841656396E-01  0.15878987608E-01  0.10149511008E+01  0.10145373135E+01 0.  0.
     999903    2    3    3    0    0  0.78013494496E-01  0.45827165023E-01 -0.85875344574E-01  0.12630831529E+00  0.19823756640E-01 0.  0.
         14    1    1    2    0    0 -0.12379810619E-01 -0.20841656396E-01 -0.15878987608E-01  0.28978899216E-01  0.00000000000E+00 0. -1.
     999901    1    3    3    0    0 -0.65633683876E-01 -0.24985508627E-01  0.10175433218E+00  0.88864278550E+00  0.88000000000E+00 0.  1.
        -11    1    4    4    0    0  0.47042159549E-01  0.24702469894E-01 -0.37183838086E-01  0.64854265316E-01  0.51100000000E-03 0.  1.
         11    1    4    4    0    0  0.30971334947E-01  0.21124695129E-01 -0.48691506488E-01  0.61454049970E-01  0.51100000000E-03 0. -1.
</event>
<event>
 8    1  0.1104109E+005  0.1043930E+01  0.7957747E-01            NaN
         13   -1    0    0    0    0  0.00000000000E+00  0.00000000000E+00  0.74505805969E-08  0.10566000000E+00  0.10566000000E+00 0.  1.
     999900   -1    0    0    0    0 -0.00000000000E+00 -0.00000000000E+00 -0.74505805969E-08  0.93827000000E+00  0.93827000000E+00 0. -1.
     999902    2    1    2    0    0 -0.20049596214E-01  0.11928067627E-01 -0.44652529403E-02  0.10201770299E+01  0.10199004700E+01 0.  0.
     999903    2    3    3    0    0 -0.71947310575E-01 -0.90401460254E-01 -0.58677578966E-01  0.13107429042E+00  0.19712225128E-01 0.  0.
         14    1    1    2    0    0  0.20049596214E-01 -0.11928067627E-01  0.44652529403E-02  0.23752970119E-01  0.00000000000E+00 0. -1.
     999901    1    3    3    0    0  0.51897714361E-01  0.10232952788E+00  0.54212326026E-01  0.88910273947E+00  0.88000000000E+00 0.  1.
        -11    1    4    4    0    0 -0.19005603179E-01 -0.37638958420E-01 -0.16760362765E-01  0.45377031901E-01  0.51100000000E-03 0.  1.
         11    1    4    4    0    0 -0.52941707395E-01 -0.52762501834E-01 -0.41917216201E-01  0.85697258514E-01  0.51100000000E-03 0. -1.
</event>
<event>
 8    1  0.1104109E+005  0.1043930E+01  0.7957747E-01            NaN
         13   -1    0    0    0    0  0.00000000000E+00  0.00000000000E+00  0.74505805969E-08  0.10566000000E+00  0.10566000000E+00 0. -1.
     999900   -1    0    0    0    0 -0.00000000000E+00 -0.00000000000E+00 -0.74505805969E-08  0.93827000000E+00  0.93827000000E+00 0. -1.
     999902    2    1    2    0    0  0.13713886156E-01  0.10433289252E-01  0.14368733961E-01  0.10214937634E+01  0.10212473373E+01 0.  0.
     999903    2    3    3    0    0 -0.11026515641E+00 -0.41844579719E-01 -0.48497753227E-01  0.12904994229E+00  0.19811157669E-01 0.  0.
         14    1    1    2    0    0 -0.13713886156E-01 -0.10433289252E-01 -0.14368733961E-01  0.22436236622E-01  0.00000000000E+00 0.  1.
     999901    1    3    3    0    0  0.12397904257E+00  0.52277868971E-01  0.62866487189E-01  0.89244382108E+00  0.88000000000E+00 0.  1.
        -11    1    4    4    0    0 -0.52151381207E-01 -0.14801411915E-01 -0.31637243272E-01  0.62769615574E-01  0.51100000000E-03 0. -1.
         11    1    4    4    0    0 -0.58113775202E-01 -0.27043167804E-01 -0.16860509955E-01  0.66280326720E-01  0.51100000000E-03 0.  1.
</event>
<event>
 8    1  0.1104109E+005  0.1043930E+01  0.7957747E-01            NaN
         13   -1    0    0    0    0  0.00000000000E+00  0.00000000000E+00  0.74505805969E-08  0.10566000000E+00  0.10566000000E+00 0.  1.
     999900   -1    0    0    0    0 -0.00000000000E+00 -0.00000000000E+00 -0.74505805969E-08  0.93827000000E+00  0.93827000000E+00 0. -1.
     999902    2    1    2    0    0  0.48147168625E-03  0.12066272101E-02  0.23676918413E-01  0.10202174668E+01  0.10199418588E+01 0.  0.
     999903    2    3    3    0    0  0.10349942763E+00 -0.38047322077E-01  0.70081830367E-01  0.13212569925E+00  0.19647066351E-01 0.  0.
         14    1    1    2    0    0 -0.48147168625E-03 -0.12066272101E-02 -0.23676918413E-01  0.23712533178E-01  0.00000000000E+00 0. -1.
     999901    1    3    3    0    0 -0.10301795595E+00  0.39253949287E-01 -0.46404911954E-01  0.88809176758E+00  0.88000000000E+00 0. -1.
        -11    1    4    4    0    0  0.45199946620E-01 -0.92568751876E-02  0.21199961400E-01  0.50778188202E-01  0.51100000000E-03 0.  1.
         11    1    4    4    0    0  0.58299481013E-01 -0.28790446889E-01  0.48881868966E-01  0.81347511045E-01  0.51100000000E-03 0. -1.
</event>
<event>
 8    1  0.1104109E+005  0.1043930E+01  0.7957747E-01            NaN
         13   -1    0    0    0    0  0.00000000000E+00  0.00000000000E+00  0.74505805969E-08  0.10566000000E+00  0.10566000000E+00 0. -1.
     999900   -1    0    0    0    0 -0.00000000000E+00 -0.00000000000E+00 -0.74505805969E-08  0.93827000000E+00  0.93827000000E+00 0. -1.
     999902    2    1    2    0    0  0.22356109847E-01  0.41108705943E-02  0.69522065724E-02  0.10201596807E+01  0.10198827119E+01 0.  0.
     999903    2    3    3    0    0  0.11214587203E+00 -0.11522122501E-01 -0.66387116324E-01  0.13241802448E+00  0.20440843239E-01 0.  0.
         14    1    1    2    0    0 -0.22356109847E-01 -0.41108705943E-02 -0.69522065724E-02  0.23770319324E-01  0.00000000000E+00 0. -1.
     999901    1    3    3    0    0 -0.89789762185E-01  0.15632993095E-01  0.73339322896E-01  0.88774165620E+00  0.88000000000E+00 0.  1.
        -11    1    4    4    0    0  0.11380554043E-01  0.48918946832E-02 -0.87813922480E-02  0.15192814576E-01  0.51100000000E-03 0.  1.
         11    1    4    4    0    0  0.10076531799E+00 -0.16414017184E-01 -0.57605724076E-01  0.11722520990E+00  0.51100000000E-03 0. -1.
</event>
<event>
 8    1  0.1104109E+005  0.1043930E+01  0.7957747E-01            NaN
         13   -1    0    0    0    0  0.00000000000E+00  0.00000000000E+00  0.74505805969E-08  0.10566000000E+00  0.10566000000E+00 0.  1.
     999900   -1    0    0    0    0 -0.00000000000E+00 -0.00000000000E+00 -0.74505805969E-08  0.93827000000E+00  0.93827000000E+00 0.  1.
     999902    2    1    2    0    0 -0.75222634098E-03  0.89550476784E-02 -0.23218682618E-01  0.10190328928E+01  0.10187287032E+01 0.  0.
     999903    2    3    3    0    0  0.16222980083E-01  0.73126948470E-01 -0.10790654636E+00  0.13247876320E+00  0.17206518385E-01 0.  0.
         14    1    1    2    0    0  0.75222634098E-03 -0.89550476784E-02  0.23218682618E-01  0.24897107179E-01  0.00000000000E+00 0.  1.
     999901    1    3    3    0    0 -0.16975206424E-01 -0.64171900791E-01  0.84687863747E-01  0.88655412962E+00  0.88000000000E+00 0. -1.
        -11    1    4    4    0    0 -0.13122524336E-02  0.33128417747E-01 -0.48104338364E-01  0.58425187713E-01  0.51100000000E-03 0.  1.
         11    1    4    4    0    0  0.17535232517E-01  0.39998530723E-01 -0.59802208000E-01  0.74053575485E-01  0.51100000000E-03 0. -1.
</event>
<event>
 8    1  0.1104109E+005  0.1043930E+01  0.7957747E-01            NaN
         13   -1    0    0    0    0  0.00000000000E+00  0.00000000000E+00  0.74505805969E-08  0.10566000000E+00  0.10566000000E+00 0.  1.
     999900   -1    0    0    0    0 -0.00000000000E+00 -0.00000000000E+00 -0.74505805969E-08  0.93827000000E+00  0.93827000000E+00 0.  1.
     999902    2    1    2    0    0  0.16079199164E-01  0.18163277373E-02 -0.17512693210E-01  0.10200860466E+01  0.10198073388E+01 0.  0.
     999903    2    3    3    0    0 -0.41895522201E-01  0.11375380559E+00  0.40319091777E-01  0.12922377740E+00  0.19442027068E-01 0.  0.
         14    1    1    2    0    0 -0.16079199164E-01 -0.18163277373E-02  0.17512693210E-01  0.23843953441E-01  0.00000000000E+00 0.  1.
     999901    1    3    3    0    0  0.57974721365E-01 -0.11193747785E+00 -0.57831784987E-01  0.89086226916E+00  0.88000000000E+00 0. -1.
        -11    1    4    4    0    0 -0.32209600041E-01  0.59624959477E-01  0.23124662126E-01  0.71607298838E-01  0.51100000000E-03 0. -1.
         11    1    4    4    0    0 -0.96859221600E-02  0.54128846111E-01  0.17194429651E-01  0.57616478558E-01  0.51100000000E-03 0.  1.
</event>
<event>
 8    1  0.1104109E+005  0.1043930E+01  0.7957747E-01            NaN
         13   -1    0    0    0    0  0.00000000000E+00  0.00000000000E+00  0.74505805969E-08  0.10566000000E+00  0.10566000000E+00 0.  1.
     999900   -1    0    0    0    0 -0.00000000000E+00 -0.00000000000E+00 -0.74505805969E-08  0.93827000000E+00  0.93827000000E+00 0.  1.
     999902    2    1    2    0    0 -0.11120903258E-01  0.29943705958E-02  0.20044273178E-01  0.10208126119E+01  0.10205508194E+01 0.  0.
     999903    2    3    3    0    0  0.37176119351E-01 -0.79670386341E-01 -0.91642683543E-01  0.12860185165E+00  0.20263772881E-01 0.  0.
         14    1    1    2    0    0  0.11120903258E-01 -0.29943705958E-02 -0.20044273178E-01  0.23117388083E-01  0.00000000000E+00 0. -1.
     999901    1    3    3    0    0 -0.48297022609E-01  0.82664756937E-01  0.11168695672E+00  0.89221076027E+00  0.88000000000E+00 0.  1.
        -11    1    4    4    0    0  0.13428305841E-01 -0.42988068792E-01 -0.34886757636E-01  0.56970522515E-01  0.51100000000E-03 0. -1.
         11    1    4    4    0    0  0.23747813510E-01 -0.36682317549E-01 -0.56755925907E-01  0.71631329136E-01  0.51100000000E-03 0.  1.
</event>
<event>
 7    1  0.1104109E+005  0.1043930E+01  0.7957747E-01            NaN
         13   -1    0    0    0    0  0.00000000000E+00  0.00000000000E+00  0.74505805969E-08  0.10566000000E+00  0.10566000000E+00 0. -1.
     999900   -1    0    0    0    0 -0.00000000000E+00 -0.00000000000E+00 -0.74505805969E-08  0.93827000000E+00  0.93827000000E+00 0.  1.
     999903    2    1    2    0    0 -0.68469764005E-01 -0.90262337362E-01  0.10234627754E-01  0.11543133299E+00  0.19602216772E-01 0.  0.
         14    1    1    2    0    0  0.30368301626E-01 -0.25780849316E-01 -0.40552780495E-02  0.40041618538E-01  0.00000000000E+00 0.  1.
     999901    1    1    2    0    0  0.38101462379E-01  0.11604318668E+00 -0.61793497047E-02  0.88845704847E+00  0.88000000000E+00 0. -1.
        -11    1    3    3    0    0 -0.35046636163E-01 -0.36650439504E-01 -0.32953690374E-02  0.50819700907E-01  0.51100000000E-03 0. -1.
         11    1    3    3    0    0 -0.33423127842E-01 -0.53611897858E-01  0.13529996792E-01  0.64611632086E-01  0.51100000000E-03 0.  1.
</event>
<event>
 8    1  0.1104109E+005  0.1043930E+01  0.7957747E-01            NaN
         13   -1    0    0    0    0  0.00000000000E+00  0.00000000000E+00  0.74505805969E-08  0.10566000000E+00  0.10566000000E+00 0.  1.
     999900   -1    0    0    0    0 -0.00000000000E+00 -0.00000000000E+00 -0.74505805969E-08  0.93827000000E+00  0.93827000000E+00 0.  1.
     999902    2    1    2    0    0  0.40448875556E-02 -0.33385298459E-02  0.22690187574E-01  0.10206415585E+01  0.10203758324E+01 0.  0.
     999903    2    3    3    0    0 -0.36141508531E-01 -0.87671150993E-01 -0.85385206349E-01  0.12912194108E+00  0.19733292912E-01 0.  0.
         14    1    1    2    0    0 -0.40448875556E-02  0.33385298459E-02 -0.22690187574E-01  0.23288441532E-01  0.00000000000E+00 0. -1.
     999901    1    3    3    0    0  0.40186396087E-01  0.84332621147E-01  0.10807539392E+00  0.89151961739E+00  0.88000000000E+00 0. -1.
        -11    1    4    4    0    0 -0.32760632236E-01 -0.73524274458E-01 -0.62110487230E-01  0.10167129243E+00  0.51100000000E-03 0. -1.
         11    1    4    4    0    0 -0.33808762948E-02 -0.14146876534E-01 -0.23274719119E-01  0.27450648649E-01  0.51100000000E-03 0.  1.
</event>
<event>
 8    1  0.1104109E+005  0.1043930E+01  0.7957747E-01            NaN
         13   -1    0    0    0    0  0.00000000000E+00  0.00000000000E+00  0.74505805969E-08  0.10566000000E+00  0.10566000000E+00 0. -1.
     999900   -1    0    0    0    0 -0.00000000000E+00 -0.00000000000E+00 -0.74505805969E-08  0.93827000000E+00  0.93827000000E+00 0.  1.
     999902    2    1    2    0    0  0.10894507243E-01  0.32847745465E-02 -0.12395195562E-01  0.10271038030E+01  0.10269659689E+01 0.  0.
     999903    2    3    3    0    0  0.77772681085E-01  0.85693744461E-01  0.70425021754E-01  0.13686612865E+00  0.19510144043E-01 0.  0.
         14    1    1    2    0    0 -0.10894507243E-01 -0.32847745465E-02  0.12395195562E-01  0.16826196983E-01  0.00000000000E+00 0.  1.
     999901    1    3    3    0    0 -0.66878173842E-01 -0.82408969915E-01 -0.82820217317E-01  0.89023767436E+00  0.88000000000E+00 0.  1.
        -11    1    4    4    0    0  0.40720924561E-01  0.57435183571E-01  0.47493464383E-01  0.84928701209E-01  0.51100000000E-03 0.  1.
         11    1    4    4    0    0  0.37051756524E-01  0.28258560890E-01  0.22931557371E-01  0.51937427445E-01  0.51100000000E-03 0. -1.
</event>
<event>
 8    1  0.1104109E+005  0.1043930E+01  0.7957747E-01            NaN
         13   -1    0    0    0    0  0.00000000000E+00  0.00000000000E+00  0.74505805969E-08  0.10566000000E+00  0.10566000000E+00 0. -1.
     999900   -1    0    0    0    0 -0.00000000000E+00 -0.00000000000E+00 -0.74505805969E-08  0.93827000000E+00  0.93827000000E+00 0.  1.
     999902    2    1    2    0    0 -0.87572032341E-02 -0.63389114029E-02  0.21019965465E-01  0.10202929665E+01  0.10200191312E+01 0.  0.
     999903    2    3    3    0    0  0.11749853719E+00 -0.45549985978E-01 -0.22577442427E-01  0.12935034523E+00  0.18467902931E-01 0.  0.
         14    1    1    2    0    0  0.87572032341E-02  0.63389114029E-02 -0.21019965465E-01  0.23637033537E-01  0.00000000000E+00 0.  1.
     999901    1    3    3    0    0 -0.12625574043E+00  0.39211074575E-01  0.43597407892E-01  0.89094262124E+00  0.88000000000E+00 0.  1.
        -11    1    4    4    0    0  0.88440420171E-01 -0.29495746247E-01 -0.23458199991E-01  0.96136648758E-01  0.51100000000E-03 0. -1.
         11    1    4    4    0    0  0.29058117022E-01 -0.16054239731E-01  0.88075756415E-03  0.33213696469E-01  0.51100000000E-03 0.  1.
</event>
<event>
 8    1  0.1104109E+005  0.1043930E+01  0.7957747E-01            NaN
         13   -1    0    0    0    0  0.00000000000E+00  0.00000000000E+00  0.74505805969E-08  0.10566000000E+00  0.10566000000E+00 0. -1.
     999900   -1    0    0    0    0 -0.00000000000E+00 -0.00000000000E+00 -0.74505805969E-08  0.93827000000E+00  0.93827000000E+00 0. -1.
     999902    2    1    2    0    0 -0.17178876397E-02  0.22236985895E-01  0.71984079269E-02  0.10204938792E+01  0.10202247330E+01 0.  0.
     999903    2    3    3    0    0 -0.16130568179E-02  0.98270692034E-01 -0.86369996448E-01  0.13227308363E+00  0.19407769083E-01 0.  0.
         14    1    1    2    0    0  0.17178876397E-02 -0.22236985895E-01 -0.71984079269E-02  0.23436120761E-01  0.00000000000E+00 0.  1.
     999901    1    3    3    0    0 -0.10483082177E-03 -0.76033706139E-01  0.93568404375E-01  0.88822079561E+00  0.88000000000E+00 0.  1.
        -11    1    4    4    0    0 -0.88624665081E-02  0.73924227333E-01 -0.68855164140E-01  0.10141316211E+00  0.51100000000E-03 0. -1.
         11    1    4    4    0    0  0.72494096902E-02  0.24346464701E-01 -0.17514832307E-01  0.30859921518E-01  0.51100000000E-03 0.  1.
</event>
<event>
 8    1  0.1104109E+005  0.1043930E+01  0.7957747E-01            NaN
         13   -1    0    0    0    0  0.00000000000E+00  0.00000000000E+00  0.74505805969E-08  0.10566000000E+00  0.10566000000E+00 0.  1.
     999900   -1    0    0    0    0 -0.00000000000E+00 -0.00000000000E+00 -0.74505805969E-08  0.93827000000E+00  0.93827000000E+00 0.  1.
     999902    2    1    2    0    0 -0.36435019058E-02  0.10246364775E-01  0.21514766394E-01  0.10198229830E+01  0.10195380171E+01 0.  0.
     999903    2    3    3    0    0  0.11480865735E+00  0.55478643088E-01 -0.15575151077E-01  0.12996201910E+00  0.19713787986E-01 0.  0.
         14    1    1    2    0    0  0.36435019058E-02 -0.10246364775E-01 -0.21514766394E-01  0.24107017033E-01  0.00000000000E+00 0. -1.
     999901    1    3    3    0    0 -0.11845215925E+00 -0.45232278313E-01  0.37089917471E-01  0.88986096387E+00  0.88000000000E+00 0.  1.
        -11    1    4    4    0    0  0.99631603400E-01  0.41380640267E-01 -0.91693953794E-02  0.10827350884E+00  0.51100000000E-03 0. -1.
         11    1    4    4    0    0  0.15177053949E-01  0.14098002821E-01 -0.64057556976E-02  0.21688510257E-01  0.51100000000E-03 0.  1.
</event>
<event>
 8    1  0.1104109E+005  0.1043930E+01  0.7957747E-01            NaN
         13   -1    0    0    0    0  0.00000000000E+00  0.00000000000E+00  0.74505805969E-08  0.10566000000E+00  0.10566000000E+00 0. -1.
     999900   -1    0    0    0    0 -0.00000000000E+00 -0.00000000000E+00 -0.74505805969E-08  0.93827000000E+00  0.93827000000E+00 0.  1.
     999902    2    1    2    0    0 -0.14309725897E-01  0.17288137678E-01  0.40656665570E-02  0.10211225976E+01  0.10208678571E+01 0.  0.
     999903    2    3    3    0    0 -0.89509249852E-01 -0.89262880510E-01 -0.27463024858E-01  0.13095286870E+00  0.20363409323E-01 0.  0.
         14    1    1    2    0    0  0.14309725897E-01 -0.17288137678E-01 -0.40656665570E-02  0.22807402398E-01  0.00000000000E+00 0.  1.
     999901    1    3    3    0    0  0.75199523955E-01  0.10655101819E+00  0.31528691415E-01  0.89016972891E+00  0.88000000000E+00 0. -1.
        -11    1    4    4    0    0 -0.64931394889E-01 -0.51048699212E-01 -0.18267858754E-01  0.84593330222E-01  0.51100000000E-03 0. -1.
         11    1    4    4    0    0 -0.24577854962E-01 -0.38214181298E-01 -0.91951661042E-02  0.46359538474E-01  0.51100000000E-03 0.  1.
</event>
<event>
 8    1  0.1104109E+005  0.1043930E+01  0.7957747E-01            NaN
         13   -1    0    0    0    0  0.00000000000E+00  0.00000000000E+00  0.74505805969E-08  0.10566000000E+00  0.10566000000E+00 0. -1.
     999900   -1    0    0    0    0 -0.00000000000E+00 -0.00000000000E+00 -0.74505805969E-08  0.93827000000E+00  0.93827000000E+00 0. -1.
     999902    2    1    2    0    0  0.15041244918E-01  0.14741952178E-01  0.88693011432E-02  0.10210776761E+01  0.10208219198E+01 0.  0.
     999903    2    3    3    0    0 -0.57380765245E-01 -0.56289284984E-01 -0.98579006351E-01  0.12875737323E+00  0.19990118680E-01 0.  0.
         14    1    1    2    0    0 -0.15041244918E-01 -0.14741952178E-01 -0.88693011432E-02  0.22852323852E-01  0.00000000000E+00 0.  1.
     999901    1    3    3    0    0  0.72422010162E-01  0.71031237162E-01  0.10744830749E+00  0.89232030291E+00  0.88000000000E+00 0.  1.
        -11    1    4    4    0    0 -0.10660616254E-01 -0.18061059596E-01 -0.36930045377E-01  0.42472814661E-01  0.51100000000E-03 0. -1.
         11    1    4    4    0    0 -0.46720148990E-01 -0.38228225388E-01 -0.61648960974E-01  0.86284558573E-01  0.51100000000E-03 0.  1.
</event>
<event>
 8    1  0.1104109E+005  0.1043930E+01  0.7957747E-01            NaN
         13   -1    0    0    0    0  0.00000000000E+00  0.00000000000E+00  0.74505805969E-08  0.10566000000E+00  0.10566000000E+00 0. -1.
     999900   -1    0    0    0    0 -0.00000000000E+00 -0.00000000000E+00 -0.74505805969E-08  0.93827000000E+00  0.93827000000E+00 0.  1.
     999902    2    1    2    0    0 -0.10795261664E-01 -0.17797164312E-01 -0.12089393972E-01  0.10198586440E+01  0.10195745307E+01 0.  0.
     999903    2    3    3    0    0 -0.79130857386E-01  0.95526068524E-02 -0.10339742820E+00  0.13207774721E+00  0.20013951677E-01 0.  0.
         14    1    1    2    0    0  0.10795261664E-01  0.17797164312E-01  0.12089393972E-01  0.24071355976E-01  0.00000000000E+00 0.  1.
     999901    1    3    3    0    0  0.68335595722E-01 -0.27349771164E-01  0.91308034231E-01  0.88778089681E+00  0.88000000000E+00 0. -1.
        -11    1    4    4    0    0 -0.68054395866E-01  0.42720323316E-02 -0.76323021182E-01  0.10234801288E+00  0.51100000000E-03 0.  1.
         11    1    4    4    0    0 -0.11076461520E-01  0.52805745209E-02 -0.27074407021E-01  0.29729734335E-01  0.51100000000E-03 0. -1.
</event>
<event>
 8    1  0.1104109E+005  0.1043930E+01  0.7957747E-01            NaN
         13   -1    0    0    0    0  0.00000000000E+00  0.00000000000E+00  0.74505805969E-08  0.10566000000E+00  0.10566000000E+00 0.  1.
     999900   -1    0    0    0    0 -0.00000000000E+00 -0.00000000000E+00 -0.74505805969E-08  0.93827000000E+00  0.93827000000E+00 0.  1.
     999902    2    1    2    0    0 -0.67684538059E-02 -0.18416463973E-01 -0.12684096741E-01  0.10205662584E+01  0.10202987912E+01 0.  0.
     999903    2    3    3    0    0  0.28312786648E-01 -0.66259177213E-01  0.10691391027E+00  0.13049699034E+00  0.20173939277E-01 0.  0.
         14    1    1    2    0    0  0.67684538059E-02  0.18416463973E-01  0.12684096741E-01  0.23363741616E-01  0.00000000000E+00 0. -1.
     999901    1    3    3    0    0 -0.35081240454E-01  0.47842713241E-01 -0.11959800701E+00  0.89006926805E+00  0.88000000000E+00 0.  1.
        -11    1    4    4    0    0  0.13838219707E-01 -0.54104215117E-01  0.82265138369E-01  0.99431265354E-01  0.51100000000E-03 0. -1.
         11    1    4    4    0    0  0.14474566940E-01 -0.12154962096E-01  0.24648771896E-01  0.31065724982E-01  0.51100000000E-03 0.  1.
</event>
<event>
 8    1  0.1104109E+005  0.1043930E+01  0.7957747E-01            NaN
         13   -1    0    0    0    0  0.00000000000E+00  0.00000000000E+00  0.74505805969E-08  0.10566000000E+00  0.10566000000E+00 0. -1.
     999900   -1    0    0    0    0 -0.00000000000E+00 -0.00000000000E+00 -0.74505805969E-08  0.93827000000E+00  0.93827000000E+00 0.  1.
     999902    2    1    2    0    0  0.85469957268E-02  0.21362539847E-01  0.48997366088E-02  0.10204051905E+01  0.10201339795E+01 0.  0.
     999903    2    3    3    0    0  0.61774048111E-03  0.70162739689E-01 -0.10943433005E+00  0.13163265973E+00  0.20690405285E-01 0.  0.
         14    1    1    2    0    0 -0.85469957268E-02 -0.21362539847E-01 -0.48997366088E-02  0.23524809532E-01  0.00000000000E+00 0.  1.
     999901    1    3    3    0    0  0.79292552457E-02 -0.48800199842E-01  0.11433406666E+00  0.88877253074E+00  0.88000000000E+00 0. -1.
        -11    1    4    4    0    0  0.47877574953E-02  0.55560384690E-01 -0.70860413115E-01  0.90173933244E-01  0.51100000000E-03 0. -1.
         11    1    4    4    0    0 -0.41700170142E-02  0.14602354998E-01 -0.38573916934E-01  0.41458726488E-01  0.51100000000E-03 0.  1.
</event>
<event>
 8    1  0.1104109E+005  0.1043930E+01  0.7957747E-01            NaN
         13   -1    0    0    0    0  0.00000000000E+00  0.00000000000E+00  0.74505805969E-08  0.10566000000E+00  0.10566000000E+00 0. -1.
     999900   -1    0    0    0    0 -0.00000000000E+00 -0.00000000000E+00 -0.74505805969E-08  0.93827000000E+00  0.93827000000E+00 0. -1.
     999902    2    1    2    0    0 -0.19321201890E-01 -0.57791947661E-02  0.22671383900E-01  0.10135869681E+01  0.10131326875E+01 0.  0.
     999903    2    3    3    0    0  0.73121762034E-01  0.44762518803E-01  0.88520590765E-01  0.12485962838E+00  0.20088719151E-01 0.  0.
         14    1    1    2    0    0  0.19321201890E-01  0.57791947661E-02 -0.22671383900E-01  0.30343031862E-01  0.00000000000E+00 0.  1.
     999901    1    3    3    0    0 -0.92442963924E-01 -0.50541713569E-01 -0.65849206864E-01  0.88872733976E+00  0.88000000000E+00 0. -1.
        -11    1    4    4    0    0  0.50251267101E-01  0.24362425125E-01  0.45497506637E-01  0.72034726586E-01  0.51100000000E-03 0. -1.
         11    1    4    4    0    0  0.22870494933E-01  0.20400093678E-01  0.43023084128E-01  0.52824901793E-01  0.51100000000E-03 0.  1.
</event>
<event>
 8    1  0.1104109E+005  0.1043930E+01  0.7957747E-01            NaN
         13   -1    0    0    0    0  0.00000000000E+00  0.00000000000E+00  0.74505805969E-08  0.10566000000E+00  0.10566000000E+00 0. -1.
     999900   -1    0    0    0    0 -0.00000000000E+00 -0.00000000000E+00 -0.74505805969E-08  0.93827000000E+00  0.93827000000E+00 0. -1.
     999902    2    1    2    0    0 -0.46789392157E-02 -0.20305236070E-01 -0.11091124738E-01  0.10203247436E+01  0.10200516527E+01 0.  0.
     999903    2    3    3    0    0  0.65081037708E-01 -0.76577576080E-01 -0.84283172936E-01  0.13274933461E+00  0.20471100927E-01 0.  0.
         14    1    1    2    0    0  0.46789392157E-02  0.20305236070E-01  0.11091124738E-01  0.23605256448E-01  0.00000000000E+00 0. -1.
     999901    1    3    3    0    0 -0.69759976923E-01  0.56272340010E-01  0.73192048198E-01  0.88757540894E+00  0.88000000000E+00 0. -1.
        -11    1    4    4    0    0  0.65635483753E-01 -0.70435464469E-01 -0.77761317533E-01  0.12375885830E+00  0.51100000000E-03 0. -1.
         11    1    4    4    0    0 -0.55444604516E-03 -0.61421116113E-02 -0.65218554031E-02  0.89904763145E-02  0.51100000000E-03 0.  1.
</event>
<event>
 8    1  0.1104109E+005  0.1043930E+01  0.7957747E-01            NaN
         13   -1    0    0    0    0  0.00000000000E+00  0.00000000000E+00  0.74505805969E-08  0.10566000000E+00  0.10566000000E+00 0. -1.
     999900   -1    0    0    0    0 -0.00000000000E+00 -0.00000000000E+00 -0.74505805969E-08  0.93827000000E+00  0.93827000000E+00 0.  1.
     999902    2    1    2    0    0 -0.11789555951E-01  0.14108223592E-01  0.12668430808E-01  0.10216023324E+01  0.10213583116E+01 0.  0.
     999903    2    3    3    0    0 -0.26462567606E-01  0.82645271628E-01 -0.96963153259E-01  0.13203406155E+00  0.22374805335E-01 0.  0.
         14    1    1    2    0    0  0.11789555951E-01 -0.14108223592E-01 -0.12668430808E-01  0.22327667626E-01  0.00000000000E+00 0.  1.
     999901    1    3    3    0    0  0.14673011655E-01 -0.68537048036E-01  0.10963158407E+00  0.88956827082E+00  0.88000000000E+00 0. -1.
        -11    1    4    4    0    0  0.16358498366E-02  0.23270072412E-01 -0.32402397614E-01  0.39929297100E-01  0.51100000000E-03 0. -1.
         11    1    4    4    0    0 -0.28098417443E-01  0.59375199216E-01 -0.64560755645E-01  0.92104764455E-01  0.51100000000E-03 0.  1.
</event>
<event>
 8    1  0.1104109E+005  0.1043930E+01  0.7957747E-01            NaN
         13   -1    0    0    0    0  0.00000000000E+00  0.00000000000E+00  0.74505805969E-08  0.10566000000E+00  0.10566000000E+00 0. -1.
     999900   -1    0    0    0    0 -0.00000000000E+00 -0.00000000000E+00 -0.74505805969E-08  0.93827000000E+00  0.93827000000E+00 0. -1.
     999902    2    1    2    0    0  0.39193231567E-02 -0.13282357423E-01 -0.18502007789E-01  0.10208192578E+01  0.10205576175E+01 0.  0.
     999903    2    3    3    0    0  0.48370396852E-01 -0.11797182457E-01  0.11791534814E+00  0.12919837497E+00  0.17587551330E-01 0.  0.
         14    1    1    2    0    0 -0.39193231567E-02  0.13282357423E-01  0.18502007789E-01  0.23110742198E-01  0.00000000000E+00 0. -1.
     999901    1    3    3    0    0 -0.44451073696E-01 -0.14851749663E-02 -0.13641735593E+00  0.89162088283E+00  0.88000000000E+00 0. -1.
        -11    1    4    4    0    0  0.26968626968E-01 -0.20924532774E-02  0.81342241971E-01  0.85723431167E-01  0.51100000000E-03 0. -1.
         11    1    4    4    0    0  0.21401769884E-01 -0.97047291794E-02  0.36573106174E-01  0.43474943805E-01  0.51100000000E-03 0.  1.
</event>
<event>
 8    1  0.1104109E+005  0.1043930E+01  0.7957747E-01            NaN
         13   -1    0    0    0    0  0.00000000000E+00  0.00000000000E+00  0.74505805969E-08  0.10566000000E+00  0.10566000000E+00 0.  1.
     999900   -1    0    0    0    0 -0.00000000000E+00 -0.00000000000E+00 -0.74505805969E-08  0.93827000000E+00  0.93827000000E+00 0. -1.
     999902    2    1    2    0    0 -0.17404625976E-01 -0.89077773175E-02 -0.14024747239E-01  0.10198683492E+01  0.10195844677E+01 0.  0.
     999903    2    3    3    0    0  0.85320067365E-01  0.95456310078E-02 -0.93814655451E-01  0.13011595652E+00  0.27537966470E-01 0.  0.
         14    1    1    2    0    0  0.17404625976E-01  0.89077773175E-02  0.14024747239E-01  0.24061650758E-01  0.00000000000E+00 0.  1.
     999901    1    3    3    0    0 -0.10272469334E+00 -0.18453408325E-01  0.79789908212E-01  0.88975239272E+00  0.88000000000E+00 0.  1.
        -11    1    4    4    0    0  0.11299429643E-01 -0.76875288572E-02 -0.19513279969E-01  0.23828647179E-01  0.51100000000E-03 0.  1.
         11    1    4    4    0    0  0.74020637721E-01  0.17233159865E-01 -0.74301375482E-01  0.10628730934E+00  0.51100000000E-03 0. -1.
</event>
<event>
 8    1  0.1104109E+005  0.1043930E+01  0.7957747E-01            NaN
         13   -1    0    0    0    0  0.00000000000E+00  0.00000000000E+00  0.74505805969E-08  0.10566000000E+00  0.10566000000E+00 0. -1.
     999900   -1    0    0    0    0 -0.00000000000E+00 -0.00000000000E+00 -0.74505805969E-08  0.93827000000E+00  0.93827000000E+00 0.  1.
     999902    2    1    2    0    0  0.12285099157E-01  0.41802181221E-02 -0.18812487938E-01  0.10210759503E+01  0.10208201549E+01 0.  0.
     999903    2    3    3    0    0 -0.69017072932E-02  0.99454543695E-01  0.81114286811E-01  0.13010418254E+00  0.20217095828E-01 0.  0.
         14    1    1    2    0    0 -0.12285099157E-01 -0.41802181221E-02  0.18812487938E-01  0.22854049691E-01  0.00000000000E+00 0. -1.
     999901    1    3    3    0    0  0.19186806450E-01 -0.95274325573E-01 -0.99926774749E-01  0.89097176777E+00  0.88000000000E+00 0.  1.
        -11    1    4    4    0    0 -0.11267737273E-01  0.71329216476E-01  0.49442079354E-01  0.87519137097E-01  0.51100000000E-03 0. -1.
         11    1    4    4    0    0  0.43660299799E-02  0.28125327219E-01  0.31672207458E-01  0.42585045441E-01  0.51100000000E-03 0.  1.
</event>
<event>
 8    1  0.1104109E+005  0.1043930E+01  0.7957747E-01            NaN
         13   -1    0    0    0    0  0.00000000000E+00  0.00000000000E+00  0.74505805969E-08  0.10566000000E+00  0.10566000000E+00 0. -1.
     999900   -1    0    0    0    0 -0.00000000000E+00 -0.00000000000E+00 -0.74505805969E-08  0.93827000000E+00  0.93827000000E+00 0. -1.
     999902    2    1    2    0    0  0.50480678039E-02 -0.18025129418E-01 -0.13777444590E-01  0.10206876624E+01  0.10204229995E+01 0.  0.
     999903    2    3    3    0    0  0.42669023949E-01  0.31397937221E-01 -0.11938523955E+00  0.13219963082E+00  0.20431125776E-01 0.  0.
         14    1    1    2    0    0 -0.50480678039E-02  0.18025129418E-01  0.13777444590E-01  0.23242337630E-01  0.00000000000E+00 0.  1.
     999901    1    3    3    0    0 -0.37620956145E-01 -0.49423066638E-01  0.10560779495E+00  0.88848803155E+00  0.88000000000E+00 0.  1.
        -11    1    4    4    0    0  0.12814451562E-01  0.22017841696E-01 -0.53133003360E-01  0.58926841836E-01  0.51100000000E-03 0.  1.
         11    1    4    4    0    0  0.29854572387E-01  0.93800955246E-02 -0.66252236185E-01  0.73272788981E-01  0.51100000000E-03 0. -1.
</event>
<event>
 8    1  0.1104109E+005  0.1043930E+01  0.7957747E-01            NaN
         13   -1    0    0    0    0  0.00000000000E+00  0.00000000000E+00  0.74505805969E-08  0.10566000000E+00  0.10566000000E+00 0. -1.
     999900   -1    0    0    0    0 -0.00000000000E+00 -0.00000000000E+00 -0.74505805969E-08  0.93827000000E+00  0.93827000000E+00 0. -1.
     999902    2    1    2    0    0 -0.21814443535E-01  0.12197668608E-01 -0.68051540432E-02  0.10180270429E+01  0.10176974486E+01 0.  0.
     999903    2    3    3    0    0 -0.68167514832E-01 -0.39869183685E-01 -0.10138925424E+00  0.13021753834E+00  0.20987246858E-01 0.  0.
         14    1    1    2    0    0  0.21814443535E-01 -0.12197668608E-01  0.68051540432E-02  0.25902957124E-01  0.00000000000E+00 0. -1.
     999901    1    3    3    0    0  0.46353071298E-01  0.52066852293E-01  0.94584100199E-01  0.88780950453E+00  0.88000000000E+00 0.  1.
        -11    1    4    4    0    0 -0.51696850696E-01 -0.39749460907E-01 -0.82049513689E-01  0.10480919727E+00  0.51100000000E-03 0. -1.
         11    1    4    4    0    0 -0.16470664136E-01 -0.11972277801E-03 -0.19339740553E-01  0.25408341077E-01  0.51100000000E-03 0.  1.
</event>
<event>
 8    1  0.1104109E+005  0.1043930E+01  0.7957747E-01            NaN
         13   -1    0    0    0    0  0.00000000000E+00  0.00000000000E+00  0.74505805969E-08  0.10566000000E+00  0.10566000000E+00 0.  1.
     999900   -1    0    0    0    0 -0.00000000000E+00 -0.00000000000E+00 -0.74505805969E-08  0.93827000000E+00  0.93827000000E+00 0. -1.
     999902    2    1    2    0    0  0.16295575998E-01 -0.18625617104E-01 -0.15020806727E-02  0.10191365401E+01  0.10188349089E+01 0.  0.
     999903    2    3    3    0    0  0.31598801203E-01 -0.12675824362E+00 -0.88256559391E-02  0.13235557027E+00  0.19338257840E-01 0.  0.
         14    1    1    2    0    0 -0.16295575998E-01  0.18625617104E-01  0.15020806727E-02  0.24793459943E-01  0.00000000000E+00 0. -1.
     999901    1    3    3    0    0 -0.15303225205E-01  0.10813262652E+00  0.73235752664E-02  0.88678096979E+00  0.88000000000E+00 0. -1.
        -11    1    4    4    0    0  0.11429000171E-01 -0.47738076630E-01 -0.12707707463E-01  0.50707918073E-01  0.51100000000E-03 0.  1.
         11    1    4    4    0    0  0.20169801032E-01 -0.79020166989E-01  0.38820515237E-02  0.81647652199E-01  0.51100000000E-03 0. -1.
</event>
<event>
 8    1  0.1104109E+005  0.1043930E+01  0.7957747E-01            NaN
         13   -1    0    0    0    0  0.00000000000E+00  0.00000000000E+00  0.74505805969E-08  0.10566000000E+00  0.10566000000E+00 0. -1.
     999900   -1    0    0    0    0 -0.00000000000E+00 -0.00000000000E+00 -0.74505805969E-08  0.93827000000E+00  0.93827000000E+00 0. -1.
     999902    2    1    2    0    0  0.18280127528E-01 -0.88056948188E-02  0.93655572826E-02  0.10215823606E+01  0.10213378983E+01 0.  0.
     999903    2    3    3    0    0 -0.11045271605E+00  0.23745676854E-01  0.61355459536E-01  0.13010342829E+00  0.19968725209E-01 0.  0.
         14    1    1    2    0    0 -0.18280127528E-01  0.88056948188E-02 -0.93655572826E-02  0.22347639403E-01  0.00000000000E+00 0.  1.
     999901    1    3    3    0    0  0.12873284357E+00 -0.32551371673E-01 -0.51989902254E-01  0.89147893231E+00  0.88000000000E+00 0. -1.
        -11    1    4    4    0    0 -0.64046053066E-02 -0.20969093842E-02  0.76023852592E-02  0.10172186625E-01  0.51100000000E-03 0. -1.
         11    1    4    4    0    0 -0.10404811074E+00  0.25842586238E-01  0.53753074277E-01  0.11993124166E+00  0.51100000000E-03 0.  1.
</event>
<event>
 8    1  0.1104109E+005  0.1043930E+01  0.7957747E-01            NaN
         13   -1    0    0    0    0  0.00000000000E+00  0.00000000000E+00  0.74505805969E-08  0.10566000000E+00  0.10566000000E+00 0. -1.
     999900   -1    0    0    0    0 -0.00000000000E+00 -0.00000000000E+00 -0.74505805969E-08  0.93827000000E+00  0.93827000000E+00 0. -1.
     999902    2    1    2    0    0 -0.15494302820E-01 -0.55819384905E-02  0.17109819405E-01  0.10201817921E+01  0.10199053444E+01 0.  0.
     999903    2    3    3    0    0  0.31820985843E-01  0.11061013683E+00 -0.53349420647E-01  0.12849583877E+00  0.20441193403E-01 0.  0.
         14    1    1    2    0    0  0.15494302820E-01  0.55819384905E-02 -0.17109819405E-01  0.23748207875E-01  0.00000000000E+00 0.  1.
     999901    1    3    3    0    0 -0.47315288663E-01 -0.11619207532E+00  0.70459240052E-01  0.89168595336E+00  0.88000000000E+00 0. -1.
        -11    1    4    4    0    0  0.12941164065E-01  0.78763666108E-01 -0.38190737697E-01  0.88487187734E-01  0.51100000000E-03 0. -1.
         11    1    4    4    0    0  0.18879821778E-01  0.31846470721E-01 -0.15158682949E-01  0.40008651033E-01  0.51100000000E-03 0.  1.
</event>
<event>
 8    1  0.1104109E+005  0.1043930E+01  0.7957747E-01            NaN
         13   -1    0    0    0    0  0.00000000000E+00  0.00000000000E+00  0.74505805969E-08  0.10566000000E+00  0.10566000000E+00 0. -1.
     999900   -1    0    0    0    0 -0.00000000000E+00 -0.00000000000E+00 -0.74505805969E-08  0.93827000000E+00  0.93827000000E+00 0.  1.
     999902    2    1    2    0    0 -0.20965488851E-01 -0.58752049806E-02  0.10141910808E-01  0.10199106721E+01  0.10196278002E+01 0.  0.
     999903    2    3    3    0    0  0.12323671635E+00  0.39042167713E-02  0.27731465286E-01  0.12794693660E+00  0.19971310775E-01 0.  0.
         14    1    1    2    0    0  0.20965488851E-01  0.58752049806E-02 -0.10141910808E-01  0.24019327867E-01  0.00000000000E+00 0.  1.
     999901    1    3    3    0    0 -0.14420220520E+00 -0.97794217519E-02 -0.17589554478E-01  0.89196373553E+00  0.88000000000E+00 0. -1.
        -11    1    4    4    0    0  0.60474795795E-01  0.11872862691E-01  0.13042307628E-01  0.62996259446E-01  0.51100000000E-03 0. -1.
         11    1    4    4    0    0  0.62761920554E-01 -0.79686459200E-02  0.14689157658E-01  0.64950677157E-01  0.51100000000E-03 0.  1.
</event>
<event>
 7    1  0.1104109E+005  0.1043930E+01  0.7957747E-01            NaN
         13   -1    0    0    0    0  0.00000000000E+00  0.00000000000E+00  0.74505805969E-08  0.10566000000E+00  0.10566000000E+00 0.  1.
     999900   -1    0    0    0    0 -0.00000000000E+00 -0.00000000000E+00 -0.74505805969E-08  0.93827000000E+00  0.93827000000E+00 0.  1.
     999903    2    1    2    0    0  0.23666776813E-01 -0.50526637751E-01 -0.76602070644E-01  0.97140213651E-01  0.21337442068E-01 0.  0.
         14    1    1    2    0    0 -0.22996199116E-01 -0.50822259101E-02 -0.50689667476E-01  0.55893618445E-01  0.00000000000E+00 0. -1.
     999901    1    1    2    0    0 -0.67057769631E-03  0.55608863661E-01  0.12729173812E+00  0.89089616790E+00  0.88000000000E+00 0.  1.
        -11    1    3    3    0    0  0.33724008629E-02 -0.30948726979E-01 -0.45748185506E-01  0.55338543415E-01  0.51100000000E-03 0. -1.
         11    1    3    3    0    0  0.20294375950E-01 -0.19577910773E-01 -0.30853885139E-01  0.41801670236E-01  0.51100000000E-03 0.  1.
</event>
<event>
 8    1  0.1104109E+005  0.1043930E+01  0.7957747E-01            NaN
         13   -1    0    0    0    0  0.00000000000E+00  0.00000000000E+00  0.74505805969E-08  0.10566000000E+00  0.10566000000E+00 0. -1.
     999900   -1    0    0    0    0 -0.00000000000E+00 -0.00000000000E+00 -0.74505805969E-08  0.93827000000E+00  0.93827000000E+00 0. -1.
     999902    2    1    2    0    0  0.13898208515E-01  0.37976239845E-02 -0.18289342021E-01  0.10206473417E+01  0.10203817491E+01 0.  0.
     999903    2    3    3    0    0  0.20502812202E-01  0.66102783185E-01  0.10735408198E+00  0.12951782041E+00  0.21448161523E-01 0.  0.
         14    1    1    2    0    0 -0.13898208515E-01 -0.37976239845E-02  0.18289342021E-01  0.23282658341E-01  0.00000000000E+00 0. -1.
     999901    1    3    3    0    0 -0.66046036871E-02 -0.62305159201E-01 -0.12564342400E+00  0.89112952125E+00  0.88000000000E+00 0. -1.
        -11    1    4    4    0    0  0.19861171883E-01  0.46477585157E-01  0.61312794919E-01  0.79461638621E-01  0.51100000000E-03 0. -1.
         11    1    4    4    0    0  0.64164031867E-03  0.19625198028E-01  0.46041287059E-01  0.50056181786E-01  0.51100000000E-03 0.  1.
</event>
<event>
 8    1  0.1104109E+005  0.1043930E+01  0.7957747E-01            NaN
         13   -1    0    0    0    0  0.00000000000E+00  0.00000000000E+00  0.74505805969E-08  0.10566000000E+00  0.10566000000E+00 0. -1.
     999900   -1    0    0    0    0 -0.00000000000E+00 -0.00000000000E+00 -0.74505805969E-08  0.93827000000E+00  0.93827000000E+00 0. -1.
     999902    2    1    2    0    0 -0.23041478841E-01 -0.48425812080E-02 -0.82595930960E-02  0.10189784225E+01  0.10186728839E+01 0.  0.
     999903    2    3    3    0    0 -0.12999531289E+00 -0.14274871695E-01 -0.64803245864E-02  0.13245078251E+00  0.19966518123E-01 0.  0.
         14    1    1    2    0    0  0.23041478841E-01  0.48425812080E-02  0.82595930960E-02  0.24951577466E-01  0.00000000000E+00 0. -1.
     999901    1    3    3    0    0  0.10695383405E+00  0.94322904870E-02 -0.17792685096E-02  0.88652764002E+00  0.88000000000E+00 0.  1.
        -11    1    4    4    0    0 -0.95624815072E-01 -0.19232555858E-01 -0.37365884575E-02  0.97612599990E-01  0.51100000000E-03 0. -1.
         11    1    4    4    0    0 -0.34370497820E-01  0.49576841630E-02 -0.27437361289E-02  0.34838182525E-01  0.51100000000E-03 0.  1.
</event>
<event>
 8    1  0.1104109E+005  0.1043930E+01  0.7957747E-01            NaN
         13   -1    0    0    0    0  0.00000000000E+00  0.00000000000E+00  0.74505805969E-08  0.10566000000E+00  0.10566000000E+00 0.  1.
     999900   -1    0    0    0    0 -0.00000000000E+00 -0.00000000000E+00 -0.74505805969E-08  0.93827000000E+00  0.93827000000E+00 0. -1.
     999902    2    1    2    0    0 -0.15261991970E-01  0.16937262247E-02  0.17265566862E-01  0.10208237907E+01  0.10205622543E+01 0.  0.
     999903    2    3    3    0    0  0.95279544752E-01  0.97990523393E-02  0.87412450360E-01  0.13110152344E+00  0.19299220102E-01 0.  0.
         14    1    1    2    0    0  0.15261991970E-01 -0.16937262247E-02 -0.17265566862E-01  0.23106209262E-01  0.00000000000E+00 0. -1.
     999901    1    3    3    0    0 -0.11054153672E+00 -0.81053261146E-02 -0.70146883499E-01  0.88972226729E+00  0.88000000000E+00 0. -1.
        -11    1    4    4    0    0  0.49043014504E-01  0.36353678327E-02  0.32029312822E-01  0.58690469173E-01  0.51100000000E-03 0. -1.
         11    1    4    4    0    0  0.46236530248E-01  0.61636845067E-02  0.55383137538E-01  0.72411054271E-01  0.51100000000E-03 0.  1.
</event>
<event>
 8    1  0.1104109E+005  0.1043930E+01  0.7957747E-01            NaN
         13   -1    0    0    0    0  0.00000000000E+00  0.00000000000E+00  0.74505805969E-08  0.10566000000E+00  0.10566000000E+00 0.  1.
     999900   -1    0    0    0    0 -0.00000000000E+00 -0.00000000000E+00 -0.74505805969E-08  0.93827000000E+00  0.93827000000E+00 0. -1.
     999902    2    1    2    0    0 -0.13848228434E-01 -0.75911867257E-03 -0.19366556243E-01  0.10201095636E+01  0.10198314118E+01 0.  0.
     999903    2    3    3    0    0 -0.11123632758E-01 -0.56953805879E-01 -0.11793964487E+00  0.13282047870E+00  0.19080055579E-01 0.  0.
         14    1    1    2    0    0  0.13848228434E-01  0.75911867257E-03  0.19366556243E-01  0.23820436449E-01  0.00000000000E+00 0.  1.
     999901    1    3    3    0    0 -0.27245956765E-02  0.56194687207E-01  0.98573088625E-01  0.88728908485E+00  0.88000000000E+00 0.  1.
        -11    1    4    4    0    0 -0.68479682047E-03 -0.22953525513E-01 -0.65878846974E-01  0.69768308563E-01  0.51100000000E-03 0.  1.
         11    1    4    4    0    0 -0.10438835937E-01 -0.34000280366E-01 -0.52060797894E-01  0.63052170138E-01  0.51100000000E-03 0. -1.
</event>
<event>
 8    1  0.1104109E+005  0.1043930E+01  0.7957747E-01            NaN
         13   -1    0    0    0    0  0.00000000000E+00  0.00000000000E+00  0.74505805969E-08  0.10566000000E+00  0.10566000000E+00 0. -1.
     999900   -1    0    0    0    0 -0.00000000000E+00 -0.00000000000E+00 -0.74505805969E-08  0.93827000000E+00  0.93827000000E+00 0.  1.
     999902    2    1    2    0    0  0.16710863924E-01  0.28502511335E-03 -0.17088741489E-01  0.10200268768E+01  0.10197467676E+01 0.  0.
     999903    2    3    3    0    0 -0.97899231847E-01 -0.33573781455E-01 -0.76203712255E-01  0.12998391571E+00  0.19425606430E-01 0.  0.
         14    1    1    2    0    0 -0.16710863924E-01 -0.28502511335E-03  0.17088741489E-01  0.23903123187E-01  0.00000000000E+00 0. -1.
     999901    1    3    3    0    0  0.11461009577E+00  0.33858806568E-01  0.59114970767E-01  0.89004296110E+00  0.88000000000E+00 0. -1.
        -11    1    4    4    0    0 -0.27118324470E-01 -0.49810955839E-02 -0.30009193927E-01  0.40755707286E-01  0.51100000000E-03 0.  1.
         11    1    4    4    0    0 -0.70780907377E-01 -0.28592685871E-01 -0.46194518329E-01  0.89228208427E-01  0.51100000000E-03 0. -1.
</event>
<event>
 8    1  0.1104109E+005  0.1043930E+01  0.7957747E-01            NaN
         13   -1    0    0    0    0  0.00000000000E+00  0.00000000000E+00  0.74505805969E-08  0.10566000000E+00  0.10566000000E+00 0.  1.
     999900   -1    0    0    0    0 -0.00000000000E+00 -0.00000000000E+00 -0.74505805969E-08  0.93827000000E+00  0.93827000000E+00 0.  1.
     999902    2    1    2    0    0  0.12987027466E-01 -0.17465654802E-01  0.10231948468E-01  0.10198799532E+01  0.10195963487E+01 0.  0.
     999903    2    3    3    0    0 -0.87772710163E-01 -0.92340652225E-01 -0.19793693556E-01  0.13046422977E+00  0.19956959734E-01 0.  0.
         14    1    1    2    0    0 -0.12987027466E-01  0.17465654802E-01 -0.10231948468E-01  0.24050046767E-01  0.00000000000E+00 0. -1.
     999901    1    3    3    0    0  0.10075973763E+00  0.74874997424E-01  0.30025642023E-01  0.88941572346E+00  0.88000000000E+00 0.  1.
        -11    1    4    4    0    0 -0.28950854811E-01 -0.24908527358E-01  0.23967232634E-02  0.38269989977E-01  0.51100000000E-03 0.  1.
         11    1    4    4    0    0 -0.58821855352E-01 -0.67432124868E-01 -0.22190416819E-01  0.92194239792E-01  0.51100000000E-03 0. -1.
</event>
<event>
 8    1  0.1104109E+005  0.1043930E+01  0.7957747E-01            NaN
         13   -1    0    0    0    0  0.00000000000E+00  0.00000000000E+00  0.74505805969E-08  0.10566000000E+00  0.10566000000E+00 0.  1.
     999900   -1    0    0    0    0 -0.00000000000E+00 -0.00000000000E+00 -0.74505805969E-08  0.93827000000E+00  0.93827000000E+00 0. -1.
     999902    2    1    2    0    0  0.20204250855E-01 -0.52176510367E-02  0.11525201111E-01  0.10200916717E+01  0.10198130970E+01 0.  0.
     999903    2    3    3    0    0 -0.80899814891E-01 -0.95359351436E-01  0.27537404425E-01  0.12958398005E+00  0.19887515842E-01 0.  0.
         14    1    1    2    0    0 -0.20204250855E-01  0.52176510367E-02 -0.11525201111E-01  0.23838328289E-01  0.00000000000E+00 0. -1.
     999901    1    3    3    0    0  0.10110406575E+00  0.90141700399E-01 -0.16012203314E-01  0.89050769167E+00  0.88000000000E+00 0.  1.
        -11    1    4    4    0    0 -0.61249556704E-01 -0.57764502863E-01  0.17652741561E-01  0.86023987312E-01  0.51100000000E-03 0.  1.
         11    1    4    4    0    0 -0.19650258187E-01 -0.37594848573E-01  0.98846628638E-02  0.43559992734E-01  0.51100000000E-03 0. -1.
</event>
<event>
 8    1  0.1104109E+005  0.1043930E+01  0.7957747E-01            NaN
         13   -1    0    0    0    0  0.00000000000E+00  0.00000000000E+00  0.74505805969E-08  0.10566000000E+00  0.10566000000E+00 0. -1.
     999900   -1    0    0    0    0 -0.00000000000E+00 -0.00000000000E+00 -0.74505805969E-08  0.93827000000E+00  0.93827000000E+00 0. -1.
     999902    2    1    2    0    0  0.24491254358E-01  0.29267379719E-02  0.89928169608E-02  0.10176762747E+01  0.10173375752E+01 0.  0.
     999903    2    3    3    0    0  0.12836644219E+00  0.44706333350E-02 -0.18381389029E-01  0.13114269642E+00  0.19042093348E-01 0.  0.
         14    1    1    2    0    0 -0.24491254358E-01 -0.29267379719E-02 -0.89928169608E-02  0.26253725299E-01  0.00000000000E+00 0.  1.
     999901    1    3    3    0    0 -0.10387518783E+00 -0.15438953631E-02  0.27374205989E-01  0.88653357828E+00  0.88000000000E+00 0. -1.
        -11    1    4    4    0    0  0.24348697306E-01 -0.42415937318E-02 -0.91204994865E-02  0.26349474563E-01  0.51100000000E-03 0.  1.
         11    1    4    4    0    0  0.10401774489E+00  0.87122270667E-02 -0.92608895422E-02  0.10479322186E+00  0.51100000000E-03 0. -1.
</event>
<event>
 8    1  0.1104109E+005  0.1043930E+01  0.7957747E-01            NaN
         13   -1    0    0    0    0  0.00000000000E+00  0.00000000000E+00  0.74505805969E-08  0.10566000000E+00  0.10566000000E+00 0. -1.
     999900   -1    0    0    0    0 -0.00000000000E+00 -0.00000000000E+00 -0.74505805969E-08  0.93827000000E+00  0.93827000000E+00 0. -1.
     999902    2    1    2    0    0  0.11641911521E-01  0.97957579235E-02 -0.17499895266E-01  0.10207408363E+01  0.10204773969E+01 0.  0.
     999903    2    3    3    0    0  0.11489308032E+00  0.50979431202E-01 -0.40232860713E-01  0.13345639123E+00  0.19814211302E-01 0.  0.
         14    1    1    2    0    0 -0.11641911521E-01 -0.97957579235E-02  0.17499895266E-01  0.23189163665E-01  0.00000000000E+00 0. -1.
     999901    1    3    3    0    0 -0.10325116879E+00 -0.41183673278E-01  0.22732965447E-01  0.88728444510E+00  0.88000000000E+00 0.  1.
        -11    1    4    4    0    0  0.53760198455E-01  0.15122027652E-01 -0.11744844255E-01  0.57070457732E-01  0.51100000000E-03 0. -1.
         11    1    4    4    0    0  0.61132881861E-01  0.35857403549E-01 -0.28488016459E-01  0.76385933500E-01  0.51100000000E-03 0.  1.
</event>
<event>
 8    1  0.1104109E+005  0.1043930E+01  0.7957747E-01            NaN
         13   -1    0    0    0    0  0.00000000000E+00  0.00000000000E+00  0.74505805969E-08  0.10566000000E+00  0.10566000000E+00 0. -1.
     999900   -1    0    0    0    0 -0.00000000000E+00 -0.00000000000E+00 -0.74505805969E-08  0.93827000000E+00  0.93827000000E+00 0.  1.
     999902    2    1    2    0    0 -0.22337738298E-01 -0.47650855040E-03 -0.70878889226E-02  0.10204898681E+01  0.10202206287E+01 0.  0.
     999903    2    3    3    0    0 -0.30166473793E-01  0.81583619175E-01  0.95351470802E-01  0.13072081041E+00  0.20739436603E-01 0.  0.
         14    1    1    2    0    0  0.22337738298E-01  0.47650855040E-03  0.70878889226E-02  0.23440131869E-01  0.00000000000E+00 0.  1.
     999901    1    3    3    0    0  0.78287354953E-02 -0.82060127725E-01 -0.10243935972E+00  0.88976905772E+00  0.88000000000E+00 0.  1.
        -11    1    4    4    0    0 -0.27237180620E-01  0.47145884977E-01  0.52178146846E-01  0.75414976017E-01  0.51100000000E-03 0.  1.
         11    1    4    4    0    0 -0.29292931736E-02  0.34437734198E-01  0.43173323956E-01  0.55305834390E-01  0.51100000000E-03 0. -1.
</event>
<event>
 8    1  0.1104109E+005  0.1043930E+01  0.7957747E-01            NaN
         13   -1    0    0    0    0  0.00000000000E+00  0.00000000000E+00  0.74505805969E-08  0.10566000000E+00  0.10566000000E+00 0. -1.
     999900   -1    0    0    0    0 -0.00000000000E+00 -0.00000000000E+00 -0.74505805969E-08  0.93827000000E+00  0.93827000000E+00 0. -1.
     999902    2    1    2    0    0  0.43324621744E-02 -0.14220627064E-01 -0.16097606219E-01  0.10220181450E+01  0.10217832252E+01 0.  0.
     999903    2    3    3    0    0 -0.86594930663E-01  0.71964855026E-01 -0.65519758287E-01  0.13177195592E+00  0.19833992692E-01 0.  0.
         14    1    1    2    0    0 -0.43324621744E-02  0.14220627064E-01  0.16097606219E-01  0.21911854978E-01  0.00000000000E+00 0. -1.
     999901    1    3    3    0    0  0.90927392837E-01 -0.86185482091E-01  0.49422152068E-01  0.89024618910E+00  0.88000000000E+00 0.  1.
        -11    1    4    4    0    0 -0.62261921041E-01  0.52214537921E-01 -0.36589606449E-01  0.89117704207E-01  0.51100000000E-03 0.  1.
         11    1    4    4    0    0 -0.24333009622E-01  0.19750317106E-01 -0.28930151838E-01  0.42654251715E-01  0.51100000000E-03 0. -1.
</event>
<event>
 8    1  0.1104109E+005  0.1043930E+01  0.7957747E-01            NaN
         13   -1    0    0    0    0  0.00000000000E+00  0.00000000000E+00  0.74505805969E-08  0.10566000000E+00  0.10566000000E+00 0.  1.
     999900   -1    0    0    0    0 -0.00000000000E+00 -0.00000000000E+00 -0.74505805969E-08  0.93827000000E+00  0.93827000000E+00 0. -1.
     999902    2    1    2    0    0 -0.61053135575E-02 -0.14488321964E-01  0.16214265525E-01  0.10213448559E+01  0.10210951111E+01 0.  0.
     999903    2    3    3    0    0  0.62145915553E-01 -0.67937748780E-01  0.95037065461E-01  0.13357906175E+00  0.18266619724E-01 0.  0.
         14    1    1    2    0    0  0.61053135575E-02  0.14488321964E-01 -0.16214265525E-01  0.22585144088E-01  0.00000000000E+00 0. -1.
     999901    1    3    3    0    0 -0.68251229111E-01  0.53449426816E-01 -0.78822799935E-01  0.88776579417E+00  0.88000000000E+00 0.  1.
        -11    1    4    4    0    0  0.32894828775E-01 -0.48472552431E-01  0.55754335065E-01  0.80873142011E-01  0.51100000000E-03 0. -1.
         11    1    4    4    0    0  0.29251086779E-01 -0.19465196349E-01  0.39282730396E-01  0.52705919734E-01  0.51100000000E-03 0.  1.
</event>
<event>
 8    1  0.1104109E+005  0.1043930E+01  0.7957747E-01            NaN
         13   -1    0    0    0    0  0.00000000000E+00  0.00000000000E+00  0.74505805969E-08  0.10566000000E+00  0.10566000000E+00 0.  1.
     999900   -1    0    0    0    0 -0.00000000000E+00 -0.00000000000E+00 -0.74505805969E-08  0.93827000000E+00  0.93827000000E+00 0.  1.
     999902    2    1    2    0    0 -0.47195832751E-02 -0.46711958541E-02 -0.21389258804E-01  0.10215336849E+01  0.10212881447E+01 0.  0.
     999903    2    3    3    0    0 -0.86338538890E-01 -0.27009144279E-01  0.91555598864E-01  0.13028894932E+00  0.20222399954E-01 0.  0.
         14    1    1    2    0    0  0.47195832751E-02  0.46711958541E-02  0.21389258804E-01  0.22396315080E-01  0.00000000000E+00 0.  1.
     999901    1    3    3    0    0  0.81618955615E-01  0.22337948425E-01 -0.11294485767E+00  0.89124473560E+00  0.88000000000E+00 0.  1.
        -11    1    4    4    0    0 -0.46043265345E-01 -0.20865301035E-01  0.39403185526E-01  0.64095360374E-01  0.51100000000E-03 0.  1.
         11    1    4    4    0    0 -0.40295273545E-01 -0.61438432437E-02  0.52152413339E-01  0.66193588949E-01  0.51100000000E-03 0. -1.
</event>
<event>
 8    1  0.1104109E+005  0.1043930E+01  0.7957747E-01            NaN
         13   -1    0    0    0    0  0.00000000000E+00  0.00000000000E+00  0.74505805969E-08  0.10566000000E+00  0.10566000000E+00 0.  1.
     999900   -1    0    0    0    0 -0.00000000000E+00 -0.00000000000E+00 -0.74505805969E-08  0.93827000000E+00  0.93827000000E+00 0. -1.
     999902    2    1    2    0    0 -0.16129914495E-02 -0.23722498759E-03  0.23392081821E-01  0.10204811725E+01  0.10202117310E+01 0.  0.
     999903    2    3    3    0    0 -0.12537424160E+00  0.28633389596E-01 -0.11664927236E-01  0.13066132937E+00  0.19943445221E-01 0.  0.
         14    1    1    2    0    0  0.16129914495E-02  0.23722498759E-03 -0.23392081821E-01  0.23448827456E-01  0.00000000000E+00 0. -1.
     999901    1    3    3    0    0  0.12376125015E+00 -0.28870614584E-01  0.35057009057E-01  0.88981984318E+00  0.88000000000E+00 0.  1.
        -11    1    4    4    0    0 -0.68128274160E-01  0.24684360842E-01 -0.21679728968E-02  0.72496487071E-01  0.51100000000E-03 0. -1.
         11    1    4    4    0    0 -0.57245967444E-01  0.39490287544E-02 -0.94969543391E-02  0.58164842297E-01  0.51100000000E-03 0.  1.
</event>
<event>
 8    1  0.1104109E+005  0.1043930E+01  0.7957747E-01            NaN
         13   -1    0    0    0    0  0.00000000000E+00  0.00000000000E+00  0.74505805969E-08  0.10566000000E+00  0.10566000000E+00 0.  1.
     999900   -1    0    0    0    0 -0.00000000000E+00 -0.00000000000E+00 -0.74505805969E-08  0.93827000000E+00  0.93827000000E+00 0.  1.
     999902    2    1    2    0    0 -0.44677516772E-02 -0.16536108883E-01 -0.17703464994E-01  0.10192963569E+01  0.10189986490E+01 0.  0.
     999903    2    3    3    0    0  0.10287551397E-01  0.49139446237E-01  0.11493135549E+00  0.12681498835E+00  0.18769813692E-01 0.  0.
         14    1    1    2    0    0  0.44677516772E-02  0.16536108883E-01  0.17703464994E-01  0.24633643150E-01  0.00000000000E+00 0.  1.
     999901    1    3    3    0    0 -0.14755303074E-01 -0.65675555119E-01 -0.13263482048E+00  0.89248136850E+00  0.88000000000E+00 0.  1.
        -11    1    4    4    0    0 -0.13411117815E-02  0.24039961222E-01  0.37282144986E-01  0.44383981031E-01  0.51100000000E-03 0.  1.
         11    1    4    4    0    0  0.11628663178E-01  0.25099485015E-01  0.77649210504E-01  0.82431007323E-01  0.51100000000E-03 0. -1.
</event>
<event>
 8    1  0.1104109E+005  0.1043930E+01  0.7957747E-01            NaN
         13   -1    0    0    0    0  0.00000000000E+00  0.00000000000E+00  0.74505805969E-08  0.10566000000E+00  0.10566000000E+00 0. -1.
     999900   -1    0    0    0    0 -0.00000000000E+00 -0.00000000000E+00 -0.74505805969E-08  0.93827000000E+00  0.93827000000E+00 0. -1.
     999902    2    1    2    0    0  0.21345077367E-01 -0.29400706562E-02  0.10946111675E-01  0.10197623832E+01  0.10194759656E+01 0.  0.
     999903    2    3    3    0    0  0.25364345944E-01 -0.12291982161E+00 -0.30501206163E-01  0.13064530688E+00  0.19627532801E-01 0.  0.
         14    1    1    2    0    0 -0.21345077367E-01  0.29400706562E-02 -0.10946111675E-01  0.24167616847E-01  0.00000000000E+00 0. -1.
     999901    1    3    3    0    0 -0.40192685775E-02  0.11997975095E+00  0.41447317837E-01  0.88911707627E+00  0.88000000000E+00 0.  1.
        -11    1    4    4    0    0  0.10354756862E-01 -0.49106701472E-01 -0.22145712018E-01  0.54857841745E-01  0.51100000000E-03 0. -1.
         11    1    4    4    0    0  0.15009589083E-01 -0.73813120137E-01 -0.83554941446E-02  0.75787465139E-01  0.51100000000E-03 0.  1.
</event>
<event>
 8    1  0.1104109E+005  0.1043930E+01  0.7957747E-01            NaN
         13   -1    0    0    0    0  0.00000000000E+00  0.00000000000E+00  0.74505805969E-08  0.10566000000E+00  0.10566000000E+00 0.  1.
     999900   -1    0    0    0    0 -0.00000000000E+00 -0.00000000000E+00 -0.74505805969E-08  0.93827000000E+00  0.93827000000E+00 0. -1.
     999902    2    1    2    0    0  0.22576758528E-02  0.18734930537E-01 -0.83388616177E-02  0.10232991654E+01  0.10230911741E+01 0.  0.
     999903    2    3    3    0    0  0.10446789150E+00  0.23570062089E-01  0.76929591596E-01  0.13327612314E+00  0.19372009540E-01 0.  0.
         14    1    1    2    0    0 -0.22576758528E-02 -0.18734930537E-01  0.83388616177E-02  0.20630834582E-01  0.00000000000E+00 0.  1.
     999901    1    3    3    0    0 -0.10221021565E+00 -0.48351315519E-02 -0.85268453214E-01  0.89002304228E+00  0.88000000000E+00 0.  1.
        -11    1    4    4    0    0  0.79408540475E-01  0.94367401408E-02  0.58910731873E-01  0.99325242590E-01  0.51100000000E-03 0. -1.
         11    1    4    4    0    0  0.25059351025E-01  0.14133321948E-01  0.18018859724E-01  0.33950880546E-01  0.51100000000E-03 0.  1.
</event>
<event>
 8    1  0.1104109E+005  0.1043930E+01  0.7957747E-01            NaN
         13   -1    0    0    0    0  0.00000000000E+00  0.00000000000E+00  0.74505805969E-08  0.10566000000E+00  0.10566000000E+00 0. -1.
     999900   -1    0    0    0    0 -0.00000000000E+00 -0.00000000000E+00 -0.74505805969E-08  0.93827000000E+00  0.93827000000E+00 0.  1.
     999902    2    1    2    0    0  0.20835858790E-01  0.86107281250E-03 -0.12211878925E-01  0.10197638161E+01  0.10194774329E+01 0.  0.
     999903    2    3    3    0    0 -0.64883351766E-01 -0.42964695972E-01 -0.10142126268E+00  0.13002970119E+00  0.23783108133E-01 0.  0.
         14    1    1    2    0    0 -0.20835858790E-01 -0.86107281250E-03  0.12211878925E-01  0.24166183910E-01  0.00000000000E+00 0. -1.
     999901    1    3    3    0    0  0.85719210556E-01  0.43825768785E-01  0.89209383751E-01  0.88973411490E+00  0.88000000000E+00 0. -1.
        -11    1    4    4    0    0 -0.26907631371E-01 -0.47039073248E-02 -0.30544752829E-01  0.40980366231E-01  0.51100000000E-03 0.  1.
         11    1    4    4    0    0 -0.37975720396E-01 -0.38260788648E-01 -0.70876509847E-01  0.89049334959E-01  0.51100000000E-03 0. -1.
</event>
<event>
 8    1  0.1104109E+005  0.1043930E+01  0.7957747E-01            NaN
         13   -1    0    0    0    0  0.00000000000E+00  0.00000000000E+00  0.74505805969E-08  0.10566000000E+00  0.10566000000E+00 0.  1.
     999900   -1    0    0    0    0 -0.00000000000E+00 -0.00000000000E+00 -0.74505805969E-08  0.93827000000E+00  0.93827000000E+00 0.  1.
     999902    2    1    2    0    0 -0.31654776810E-02  0.20924508352E-01  0.11098598676E-01  0.10200336783E+01  0.10197537304E+01 0.  0.
     999903    2    3    3    0    0  0.12199253731E+00  0.38312705200E-01  0.20004966316E-01  0.13096326404E+00  0.20028362676E-01 0.  0.
         14    1    1    2    0    0  0.31654776810E-02 -0.20924508352E-01 -0.11098598676E-01  0.23896321711E-01  0.00000000000E+00 0. -1.
     999901    1    3    3    0    0 -0.12515801499E+00 -0.17388196848E-01 -0.89063676395E-02  0.88907041425E+00  0.88000000000E+00 0. -1.
        -11    1    4    4    0    0  0.54304794874E-01  0.25591608737E-01  0.15153609145E-01  0.61917963267E-01  0.51100000000E-03 0.  1.
         11    1    4    4    0    0  0.67687742438E-01  0.12721096463E-01  0.48513571709E-02  0.69045300774E-01  0.51100000000E-03 0. -1.
</event>
<event>
 8    1  0.1104109E+005  0.1043930E+01  0.7957747E-01            NaN
         13   -1    0    0    0    0  0.00000000000E+00  0.00000000000E+00  0.74505805969E-08  0.10566000000E+00  0.10566000000E+00 0.  1.
     999900   -1    0    0    0    0 -0.00000000000E+00 -0.00000000000E+00 -0.74505805969E-08  0.93827000000E+00  0.93827000000E+00 0.  1.
     999902    2    1    2    0    0 -0.14902078424E-01 -0.82438886736E-02 -0.22539746147E-01  0.10156798000E+01  0.10152868473E+01 0.  0.
     999903    2    3    3    0    0 -0.66121111767E-01 -0.16412062007E-01  0.10316016365E+00  0.12523576712E+00  0.20015513980E-01 0.  0.
         14    1    1    2    0    0  0.14902078424E-01  0.82438886736E-02  0.22539746147E-01  0.28250199967E-01  0.00000000000E+00 0.  1.
     999901    1    3    3    0    0  0.51219033343E-01  0.81681733333E-02 -0.12569990980E+00  0.89044403292E+00  0.88000000000E+00 0.  1.
        -11    1    4    4    0    0 -0.23454358675E-01 -0.51489642794E-02  0.54421909939E-01  0.59486336048E-01  0.51100000000E-03 0.  1.
         11    1    4    4    0    0 -0.42666753092E-01 -0.11263097728E-01  0.48738253713E-01  0.65749431069E-01  0.51100000000E-03 0. -1.
</event>
<event>
 8    1  0.1104109E+005  0.1043930E+01  0.7957747E-01            NaN
         13   -1    0    0    0    0  0.00000000000E+00  0.00000000000E+00  0.74505805969E-08  0.10566000000E+00  0.10566000000E+00 0. -1.
     999900   -1    0    0    0    0 -0.00000000000E+00 -0.00000000000E+00 -0.74505805969E-08  0.93827000000E+00  0.93827000000E+00 0.  1.
     999902    2    1    2    0    0  0.23006770157E-01  0.20832553480E-02 -0.28608923922E-02  0.10206526262E+01  0.10203871556E+01 0.  0.
     999903    2    3    3    0    0  0.73135173508E-01 -0.10834857061E+00  0.55414749731E-02  0.13229535303E+00  0.19575140680E-01 0.  0.
         14    1    1    2    0    0 -0.23006770157E-01 -0.20832553480E-02  0.28608923922E-02  0.23277373803E-01  0.00000000000E+00 0. -1.
     999901    1    3    3    0    0 -0.50128403351E-01  0.11043182595E+00 -0.84023673653E-02  0.88835727316E+00  0.88000000000E+00 0. -1.
        -11    1    4    4    0    0  0.11943954833E-01 -0.33074878888E-01  0.12380601889E-02  0.35190902014E-01  0.51100000000E-03 0. -1.
         11    1    4    4    0    0  0.61191218675E-01 -0.75273691719E-01  0.43034147842E-02  0.97104451019E-01  0.51100000000E-03 0.  1.
</event>
<event>
 8    1  0.1104109E+005  0.1043930E+01  0.7957747E-01            NaN
         13   -1    0    0    0    0  0.00000000000E+00  0.00000000000E+00  0.74505805969E-08  0.10566000000E+00  0.10566000000E+00 0. -1.
     999900   -1    0    0    0    0 -0.00000000000E+00 -0.00000000000E+00 -0.74505805969E-08  0.93827000000E+00  0.93827000000E+00 0. -1.
     999902    2    1    2    0    0 -0.16329336263E-01  0.37929888769E-03 -0.16577230103E-01  0.10206577924E+01  0.10203924409E+01 0.  0.
     999903    2    3    3    0    0 -0.81968378621E-01  0.10189911834E+00  0.16175347690E-02  0.13220643911E+00  0.19330822855E-01 0.  0.
         14    1    1    2    0    0  0.16329336263E-01 -0.37929888769E-03  0.16577230103E-01  0.23272207637E-01  0.00000000000E+00 0. -1.
     999901    1    3    3    0    0  0.65639042358E-01 -0.10151981945E+00 -0.18194764872E-01  0.88845135325E+00  0.88000000000E+00 0.  1.
        -11    1    4    4    0    0 -0.47143494161E-01  0.65150882463E-01 -0.74710686644E-02  0.80766481385E-01  0.51100000000E-03 0. -1.
         11    1    4    4    0    0 -0.34824884461E-01  0.36748235875E-01  0.90886034334E-02  0.51439957728E-01  0.51100000000E-03 0.  1.
</event>
<event>
 8    1  0.1104109E+005  0.1043930E+01  0.7957747E-01            NaN
         13   -1    0    0    0    0  0.00000000000E+00  0.00000000000E+00  0.74505805969E-08  0.10566000000E+00  0.10566000000E+00 0.  1.
     999900   -1    0    0    0    0 -0.00000000000E+00 -0.00000000000E+00 -0.74505805969E-08  0.93827000000E+00  0.93827000000E+00 0. -1.
     999902    2    1    2    0    0  0.17483028123E-01  0.30620072178E-02  0.22763631939E-01  0.10150645345E+01  0.10146540268E+01 0.  0.
     999903    2    3    3    0    0 -0.10064447542E+00 -0.26303557469E-01  0.67092544285E-01  0.12558069767E+00  0.21163992061E-01 0.  0.
         14    1    1    2    0    0 -0.17483028123E-01 -0.30620072178E-02 -0.22763631939E-01  0.28865465518E-01  0.00000000000E+00 0. -1.
     999901    1    3    3    0    0  0.11812750354E+00  0.29365564687E-01 -0.44328912346E-01  0.88948383681E+00  0.88000000000E+00 0. -1.
        -11    1    4    4    0    0 -0.70792737848E-01 -0.23655608604E-01  0.37788474587E-01  0.83662593094E-01  0.51100000000E-03 0. -1.
         11    1    4    4    0    0 -0.29851737572E-01 -0.26479488646E-02  0.29304069698E-01  0.41918104574E-01  0.51100000000E-03 0.  1.
</event>
<event>
 8    1  0.1104109E+005  0.1043930E+01  0.7957747E-01            NaN
         13   -1    0    0    0    0  0.00000000000E+00  0.00000000000E+00  0.74505805969E-08  0.10566000000E+00  0.10566000000E+00 0. -1.
     999900   -1    0    0    0    0 -0.00000000000E+00 -0.00000000000E+00 -0.74505805969E-08  0.93827000000E+00  0.93827000000E+00 0. -1.
     999902    2    1    2    0    0  0.62792700215E-02 -0.20221248454E-01  0.99551534592E-02  0.10205327095E+01  0.10202644647E+01 0.  0.
     999903    2    3    3    0    0  0.85944585334E-01  0.64588055266E-01  0.71719099966E-01  0.13072713214E+00  0.19694292232E-01 0.  0.
         14    1    1    2    0    0 -0.62792700215E-02  0.20221248454E-01 -0.99551534592E-02  0.23397290472E-01  0.00000000000E+00 0.  1.
     999901    1    3    3    0    0 -0.79665315313E-01 -0.84809303720E-01 -0.61763946507E-01  0.88980557739E+00  0.88000000000E+00 0. -1.
        -11    1    4    4    0    0  0.68482105500E-01  0.57361944751E-01  0.65682847001E-01  0.11088141860E+00  0.51100000000E-03 0.  1.
         11    1    4    4    0    0  0.17462479834E-01  0.72261105149E-02  0.60362529651E-02  0.19845713542E-01  0.51100000000E-03 0. -1.
</event>
<event>
 8    1  0.1104109E+005  0.1043930E+01  0.7957747E-01            NaN
         13   -1    0    0    0    0  0.00000000000E+00  0.00000000000E+00  0.74505805969E-08  0.10566000000E+00  0.10566000000E+00 0.  1.
     999900   -1    0    0    0    0 -0.00000000000E+00 -0.00000000000E+00 -0.74505805969E-08  0.93827000000E+00  0.93827000000E+00 0.  1.
     999902    2    1    2    0    0 -0.19891390833E-01 -0.72122868160E-02  0.96734314767E-02  0.10206650094E+01  0.10203998244E+01 0.  0.
     999903    2    3    3    0    0 -0.31899638435E-01  0.27057043193E-01 -0.12162511027E+00  0.13018317801E+00  0.20132607138E-01 0.  0.
         14    1    1    2    0    0  0.19891390833E-01  0.72122868160E-02 -0.96734314767E-02  0.23264990585E-01  0.00000000000E+00 0. -1.
     999901    1    3    3    0    0  0.12008247603E-01 -0.34269330009E-01  0.13129854175E+00  0.89048183140E+00  0.88000000000E+00 0. -1.
        -11    1    4    4    0    0 -0.23664656163E-01  0.70417519347E-02 -0.68542723692E-01  0.72855804942E-01  0.51100000000E-03 0. -1.
         11    1    4    4    0    0 -0.82349822728E-02  0.20015291258E-01 -0.53082386582E-01  0.57327373073E-01  0.51100000000E-03 0.  1.
</event>
<event>
 8    1  0.1104109E+005  0.1043930E+01  0.7957747E-01            NaN
         13   -1    0    0    0    0  0.00000000000E+00  0.00000000000E+00  0.74505805969E-08  0.10566000000E+00  0.10566000000E+00 0. -1.
     999900   -1    0    0    0    0 -0.00000000000E+00 -0.00000000000E+00 -0.74505805969E-08  0.93827000000E+00  0.93827000000E+00 0. -1.
     999902    2    1    2    0    0  0.15220244232E-01 -0.16413127827E-01  0.28028921954E-02  0.10213711258E+01  0.10211219682E+01 0.  0.
     999903    2    3    3    0    0 -0.20094983285E-01 -0.12868751138E+00 -0.19668914594E-01  0.13325081607E+00  0.20115413066E-01 0.  0.
         14    1    1    2    0    0 -0.15220244232E-01  0.16413127827E-01 -0.28028921954E-02  0.22558874178E-01  0.00000000000E+00 0. -1.
     999901    1    3    3    0    0  0.35315227517E-01  0.11227438355E+00  0.22471806790E-01  0.88812030975E+00  0.88000000000E+00 0.  1.
        -11    1    4    4    0    0 -0.11596473252E-01 -0.10687727673E+00 -0.21960645510E-01  0.10972584721E+00  0.51100000000E-03 0.  1.
         11    1    4    4    0    0 -0.84985100328E-02 -0.21810234648E-01  0.22917309155E-02  0.23524968858E-01  0.51100000000E-03 0. -1.
</event>
<event>
 8    1  0.1104109E+005  0.1043930E+01  0.7957747E-01            NaN
         13   -1    0    0    0    0  0.00000000000E+00  0.00000000000E+00  0.74505805969E-08  0.10566000000E+00  0.10566000000E+00 0. -1.
     999900   -1    0    0    0    0 -0.00000000000E+00 -0.00000000000E+00 -0.74505805969E-08  0.93827000000E+00  0.93827000000E+00 0. -1.
     999902    2    1    2    0    0 -0.19879288887E-01  0.50475173568E-02 -0.12240271275E-01  0.10200451136E+01  0.10197654367E+01 0.  0.
     999903    2    3    3    0    0 -0.83536797562E-02  0.63002861933E-01 -0.11356259296E+00  0.13226255321E+00  0.23617279380E-01 0.  0.
         14    1    1    2    0    0  0.19879288887E-01 -0.50475173568E-02  0.12240271275E-01  0.23884886414E-01  0.00000000000E+00 0. -1.
     999901    1    3    3    0    0 -0.11525609131E-01 -0.57955344576E-01  0.10132232169E+00  0.88778256037E+00  0.88000000000E+00 0.  1.
        -11    1    4    4    0    0 -0.89138648039E-02  0.39772848118E-01 -0.49557676765E-01  0.64168223292E-01  0.51100000000E-03 0. -1.
         11    1    4    4    0    0  0.56018504775E-03  0.23230013814E-01 -0.64004916196E-01  0.68094329921E-01  0.51100000000E-03 0.  1.
</event>
<event>
 8    1  0.1104109E+005  0.1043930E+01  0.7957747E-01            NaN
         13   -1    0    0    0    0  0.00000000000E+00  0.00000000000E+00  0.74505805969E-08  0.10566000000E+00  0.10566000000E+00 0. -1.
     999900   -1    0    0    0    0 -0.00000000000E+00 -0.00000000000E+00 -0.74505805969E-08  0.93827000000E+00  0.93827000000E+00 0.  1.
     999902    2    1    2    0    0 -0.14229621394E-02 -0.23036590768E-01  0.71900788550E-02  0.10197554975E+01  0.10194689148E+01 0.  0.
     999903    2    3    3    0    0 -0.47028733645E-01  0.18191474165E-01 -0.11668347423E+00  0.12895569012E+00  0.21723382260E-01 0.  0.
         14    1    1    2    0    0  0.14229621394E-02  0.23036590768E-01 -0.71900788550E-02  0.24174502465E-01  0.00000000000E+00 0.  1.
     999901    1    3    3    0    0  0.45605771506E-01 -0.41228064933E-01  0.12387355308E+00  0.89079980741E+00  0.88000000000E+00 0. -1.
        -11    1    4    4    0    0 -0.12343507779E-01  0.12341411967E-01 -0.22949374900E-01  0.28837606748E-01  0.51100000000E-03 0.  1.
         11    1    4    4    0    0 -0.34685225866E-01  0.58500621980E-02 -0.93734099326E-01  0.10011808337E+00  0.51100000000E-03 0. -1.
</event>
<event>
 8    1  0.1104109E+005  0.1043930E+01  0.7957747E-01            NaN
         13   -1    0    0    0    0  0.00000000000E+00  0.00000000000E+00  0.74505805969E-08  0.10566000000E+00  0.10566000000E+00 0. -1.
     999900   -1    0    0    0    0 -0.00000000000E+00 -0.00000000000E+00 -0.74505805969E-08  0.93827000000E+00  0.93827000000E+00 0. -1.
     999902    2    1    2    0    0 -0.16034405009E-01 -0.14093160754E-01 -0.10762270079E-01  0.10200229763E+01  0.10197427746E+01 0.  0.
     999903    2    3    3    0    0 -0.84974461304E-01  0.44249270144E-01 -0.88926673158E-01  0.13195414762E+00  0.18035711575E-01 0.  0.
         14    1    1    2    0    0  0.16034405009E-01  0.14093160754E-01  0.10762270079E-01  0.23907023681E-01  0.00000000000E+00 0. -1.
     999901    1    3    3    0    0  0.68940056295E-01 -0.58342430897E-01  0.78164403079E-01  0.88806882870E+00  0.88000000000E+00 0.  1.
        -11    1    4    4    0    0 -0.70659993341E-02  0.82564423404E-02 -0.15907794238E-01  0.19272161924E-01  0.51100000000E-03 0.  1.
         11    1    4    4    0    0 -0.77908461970E-01  0.35992827803E-01 -0.73018878920E-01  0.11268198569E+00  0.51100000000E-03 0. -1.
</event>
<event>
 8    1  0.1104109E+005  0.1043930E+01  0.7957747E-01            NaN
         13   -1    0    0    0    0  0.00000000000E+00  0.00000000000E+00  0.74505805969E-08  0.10566000000E+00  0.10566000000E+00 0.  1.
     999900   -1    0    0    0    0 -0.00000000000E+00 -0.00000000000E+00 -0.74505805969E-08  0.93827000000E+00  0.93827000000E+00 0. -1.
     999902    2    1    2    0    0  0.22774251074E-01 -0.96170647089E-03 -0.65420000657E-02  0.10202152545E+01  0.10199395944E+01 0.  0.
     999903    2    3    3    0    0 -0.19882012333E-01  0.12664154139E+00 -0.58721177683E-02  0.12998910655E+00  0.20719836772E-01 0.  0.
         14    1    1    2    0    0 -0.22774251074E-01  0.96170647089E-03  0.65420000657E-02  0.23714745543E-01  0.00000000000E+00 0.  1.
     999901    1    3    3    0    0  0.42656263406E-01 -0.12760324786E+00 -0.66988229735E-03  0.89022614791E+00  0.88000000000E+00 0.  1.
        -11    1    4    4    0    0 -0.38356898882E-02  0.40223182964E-01 -0.11195422467E-01  0.41931081191E-01  0.51100000000E-03 0.  1.
         11    1    4    4    0    0 -0.16046322444E-01  0.86418358423E-01  0.53233046982E-02  0.88058025361E-01  0.51100000000E-03 0. -1.
</event>
<event>
 8    1  0.1104109E+005  0.1043930E+01  0.7957747E-01            NaN
         13   -1    0    0    0    0  0.00000000000E+00  0.00000000000E+00  0.74505805969E-08  0.10566000000E+00  0.10566000000E+00 0.  1.
     999900   -1    0    0    0    0 -0.00000000000E+00 -0.00000000000E+00 -0.74505805969E-08  0.93827000000E+00  0.93827000000E+00 0. -1.
     999902    2    1    2    0    0 -0.71577027941E-02 -0.10017367507E-01 -0.14189549828E-01  0.10251437368E+01  0.10249715886E+01 0.  0.
     999903    2    3    3    0    0 -0.67424296966E-01 -0.11377375196E+00 -0.31000000965E-01  0.13684196321E+00  0.16559600788E-01 0.  0.
         14    1    1    2    0    0  0.71577027941E-02  0.10017367507E-01  0.14189549828E-01  0.18786263210E-01  0.00000000000E+00 0.  1.
     999901    1    3    3    0    0  0.60266594172E-01  0.10375638445E+00  0.16810451137E-01  0.88830177359E+00  0.88000000000E+00 0.  1.
        -11    1    4    4    0    0 -0.34704918995E-01 -0.72686224596E-01 -0.22508450658E-01  0.83633785759E-01  0.51100000000E-03 0. -1.
         11    1    4    4    0    0 -0.32719377971E-01 -0.41087527361E-01 -0.84915503074E-02  0.53208177446E-01  0.51100000000E-03 0.  1.
</event>
<event>
 8    1  0.1104109E+005  0.1043930E+01  0.7957747E-01            NaN
         13   -1    0    0    0    0  0.00000000000E+00  0.00000000000E+00  0.74505805969E-08  0.10566000000E+00  0.10566000000E+00 0.  1.
     999900   -1    0    0    0    0 -0.00000000000E+00 -0.00000000000E+00 -0.74505805969E-08  0.93827000000E+00  0.93827000000E+00 0. -1.
     999902    2    1    2    0    0  0.73176347615E-02  0.45596677112E-02 -0.20927804030E-01  0.10212957046E+01  0.10210448594E+01 0.  0.
     999903    2    3    3    0    0 -0.65222601072E-01  0.69182678579E-01 -0.91341159864E-01  0.13315367762E+00  0.18613534676E-01 0.  0.
         14    1    1    2    0    0 -0.73176347615E-02 -0.45596677112E-02  0.20927804030E-01  0.22634295431E-01  0.00000000000E+00 0.  1.
     999901    1    3    3    0    0  0.72540235833E-01 -0.64623010868E-01  0.70413355834E-01  0.88814202695E+00  0.88000000000E+00 0.  1.
        -11    1    4    4    0    0 -0.49672457229E-01  0.42255581643E-01 -0.68407644012E-01  0.94513248105E-01  0.51100000000E-03 0. -1.
         11    1    4    4    0    0 -0.15550143843E-01  0.26927096936E-01 -0.22933515853E-01  0.38640429517E-01  0.51100000000E-03 0.  1.
</event>
<event>
 8    1  0.1104109E+005  0.1043930E+01  0.7957747E-01            NaN
         13   -1    0    0    0    0  0.00000000000E+00  0.00000000000E+00  0.74505805969E-08  0.10566000000E+00  0.10566000000E+00 0. -1.
     999900   -1    0    0    0    0 -0.00000000000E+00 -0.00000000000E+00 -0.74505805969E-08  0.93827000000E+00  0.93827000000E+00 0.  1.
     999902    2    1    2    0    0 -0.18205868301E-01 -0.57637975951E-02  0.11840894283E-01  0.10214604254E+01  0.10212132583E+01 0.  0.
     999903    2    3    3    0    0 -0.15198139779E-02  0.29068261527E-01  0.12818137277E+00  0.13296349034E+00  0.20038756843E-01 0.  0.
         14    1    1    2    0    0  0.18205868301E-01  0.57637975951E-02 -0.11840894283E-01  0.22469574556E-01  0.00000000000E+00 0. -1.
     999901    1    3    3    0    0 -0.16686054323E-01 -0.34832059122E-01 -0.11634047849E+00  0.88849693510E+00  0.88000000000E+00 0.  1.
        -11    1    4    4    0    0  0.90565151617E-03  0.26315546158E-01  0.72090502878E-01  0.76750439089E-01  0.51100000000E-03 0.  1.
         11    1    4    4    0    0 -0.24254654940E-02  0.27527153687E-02  0.56090869893E-01  0.56213051252E-01  0.51100000000E-03 0. -1.
</event>
<event>
 8    1  0.1104109E+005  0.1043930E+01  0.7957747E-01            NaN
         13   -1    0    0    0    0  0.00000000000E+00  0.00000000000E+00  0.74505805969E-08  0.10566000000E+00  0.10566000000E+00 0.  1.
     999900   -1    0    0    0    0 -0.00000000000E+00 -0.00000000000E+00 -0.74505805969E-08  0.93827000000E+00  0.93827000000E+00 0.  1.
     999902    2    1    2    0    0  0.19715266886E-02  0.12995394196E-01  0.20487945894E-01  0.10195882023E+01  0.10192975911E+01 0.  0.
     999903    2    3    3    0    0 -0.28936083366E-01 -0.20368712660E-01 -0.12039317705E+00  0.12722284284E+00  0.20951211973E-01 0.  0.
         14    1    1    2    0    0 -0.19715266886E-02 -0.12995394196E-01 -0.20487945894E-01  0.24341797689E-01  0.00000000000E+00 0. -1.
     999901    1    3    3    0    0  0.30907610055E-01  0.33364106856E-01  0.14088112295E+00  0.89236535947E+00  0.88000000000E+00 0. -1.
        -11    1    4    4    0    0 -0.17389965612E-01 -0.38728916009E-02 -0.32654882122E-01  0.37202320368E-01  0.51100000000E-03 0.  1.
         11    1    4    4    0    0 -0.11546117754E-01 -0.16495821059E-01 -0.87738294929E-01  0.90020522470E-01  0.51100000000E-03 0. -1.
</event>
<event>
 8    1  0.1104109E+005  0.1043930E+01  0.7957747E-01            NaN
         13   -1    0    0    0    0  0.00000000000E+00  0.00000000000E+00  0.74505805969E-08  0.10566000000E+00  0.10566000000E+00 0. -1.
     999900   -1    0    0    0    0 -0.00000000000E+00 -0.00000000000E+00 -0.74505805969E-08  0.93827000000E+00  0.93827000000E+00 0.  1.
     999902    2    1    2    0    0  0.97391894412E-03 -0.17425351663E-01 -0.16430726054E-01  0.10199600155E+01  0.10196783184E+01 0.  0.
     999903    2    3    3    0    0 -0.26916542562E-01 -0.61244978192E-01 -0.11336988892E+00  0.13311434751E+00  0.19780045076E-01 0.  0.
         14    1    1    2    0    0 -0.97391894412E-03  0.17425351663E-01  0.16430726054E-01  0.23969984509E-01  0.00000000000E+00 0. -1.
     999901    1    3    3    0    0  0.27890461506E-01  0.43819626528E-01  0.96939162866E-01  0.88684566798E+00  0.88000000000E+00 0. -1.
        -11    1    4    4    0    0 -0.13042701809E-01 -0.37918366962E-01 -0.49434182215E-01  0.63654647244E-01  0.51100000000E-03 0.  1.
         11    1    4    4    0    0 -0.13873840753E-01 -0.23326611230E-01 -0.63935706705E-01  0.69459700270E-01  0.51100000000E-03 0. -1.
</event>
<event>
 8    1  0.1104109E+005  0.1043930E+01  0.7957747E-01            NaN
         13   -1    0    0    0    0  0.00000000000E+00  0.00000000000E+00  0.74505805969E-08  0.10566000000E+00  0.10566000000E+00 0.  1.
     999900   -1    0    0    0    0 -0.00000000000E+00 -0.00000000000E+00 -0.74505805969E-08  0.93827000000E+00  0.93827000000E+00 0.  1.
     999902    2    1    2    0    0  0.93541000411E-03 -0.10188905685E-01  0.21215855412E-01  0.10203757793E+01  0.10201038818E+01 0.  0.
     999903    2    3    3    0    0 -0.71012011026E-01 -0.27363112119E-01 -0.10169158094E+00  0.12876060299E+00  0.21134560150E-01 0.  0.
         14    1    1    2    0    0 -0.93541000411E-03  0.10188905685E-01 -0.21215855412E-01  0.23554220679E-01  0.00000000000E+00 0. -1.
     999901    1    3    3    0    0  0.71947421030E-01  0.17174206434E-01  0.12290743635E+00  0.89161517633E+00  0.88000000000E+00 0. -1.
        -11    1    4    4    0    0 -0.59764723593E-01 -0.17059513440E-01 -0.90699439072E-01  0.10995225579E+00  0.51100000000E-03 0. -1.
         11    1    4    4    0    0 -0.11247287433E-01 -0.10303598679E-01 -0.10992141868E-01  0.18808347194E-01  0.51100000000E-03 0.  1.
</event>
<event>
 7    1  0.1104109E+005  0.1043930E+01  0.7957747E-01            NaN
         13   -1    0    0    0    0  0.00000000000E+00  0.00000000000E+00  0.74505805969E-08  0.10566000000E+00  0.10566000000E+00 0. -1.
     999900   -1    0    0    0    0 -0.00000000000E+00 -0.00000000000E+00 -0.74505805969E-08  0.93827000000E+00  0.93827000000E+00 0.  1.
     999903    2    1    2    0    0  0.33299064845E-01 -0.64248754825E-01  0.67940774912E-01  0.10119774474E+00  0.19705441583E-01 0.  0.
         14    1    1    2    0    0 -0.10892797805E-01 -0.51035999243E-01 -0.91882233205E-02  0.52988203504E-01  0.00000000000E+00 0.  1.
     999901    1    1    2    0    0 -0.22406267040E-01  0.11528475407E+00 -0.58752551592E-01  0.88974405176E+00  0.88000000000E+00 0.  1.
        -11    1    3    3    0    0  0.11536545738E-01 -0.42956700187E-01  0.38201726083E-01  0.58634486228E-01  0.51100000000E-03 0.  1.
         11    1    3    3    0    0  0.21762519107E-01 -0.21292054638E-01  0.29739048829E-01  0.42563258509E-01  0.51100000000E-03 0. -1.
</event>
<event>
 8    1  0.1104109E+005  0.1043930E+01  0.7957747E-01            NaN
         13   -1    0    0    0    0  0.00000000000E+00  0.00000000000E+00  0.74505805969E-08  0.10566000000E+00  0.10566000000E+00 0. -1.
     999900   -1    0    0    0    0 -0.00000000000E+00 -0.00000000000E+00 -0.74505805969E-08  0.93827000000E+00  0.93827000000E+00 0. -1.
     999902    2    1    2    0    0  0.23154069123E-01 -0.26795150872E-02  0.40542921615E-03  0.10206178767E+01  0.10203516037E+01 0.  0.
     999903    2    3    3    0    0  0.15306122325E-01 -0.12737483451E+00 -0.19969407638E-01  0.13155902215E+00  0.21221998454E-01 0.  0.
         14    1    1    2    0    0 -0.23154069123E-01  0.26795150872E-02 -0.40542921615E-03  0.23312123260E-01  0.00000000000E+00 0. -1.
     999901    1    3    3    0    0  0.78479467982E-02  0.12469531943E+00  0.20374836854E-01  0.88905885459E+00  0.88000000000E+00 0.  1.
        -11    1    4    4    0    0 -0.39948425490E-02 -0.40250719596E-01 -0.10687422292E-01  0.41839709742E-01  0.51100000000E-03 0.  1.
         11    1    4    4    0    0  0.19300964873E-01 -0.87124114918E-01 -0.92819853451E-02  0.89719312404E-01  0.51100000000E-03 0. -1.
</event>
<event>
 7    1  0.1104109E+005  0.1043930E+01  0.7957747E-01            NaN
         13   -1    0    0    0    0  0.00000000000E+00  0.00000000000E+00  0.74505805969E-08  0.10566000000E+00  0.10566000000E+00 0. -1.
     999900   -1    0    0    0    0 -0.00000000000E+00 -0.00000000000E+00 -0.74505805969E-08  0.93827000000E+00  0.93827000000E+00 0. -1.
     999903    2    1    2    0    0 -0.58847334402E-01 -0.76692019380E-01  0.55526442907E-01  0.11320465610E+00  0.19683335534E-01 0.  0.
         14    1    1    2    0    0 -0.31761961982E-01 -0.15803325823E-01 -0.19588069103E-01  0.40524804592E-01  0.00000000000E+00 0.  1.
     999901    1    1    2    0    0  0.90609296384E-01  0.92495345203E-01 -0.35938373804E-01  0.89020053931E+00  0.88000000000E+00 0. -1.
        -11    1    3    3    0    0 -0.39697098562E-01 -0.43401552068E-01  0.42794286054E-01  0.72740404151E-01  0.51100000000E-03 0. -1.
         11    1    3    3    0    0 -0.19150235840E-01 -0.33290467311E-01  0.12732156853E-01  0.40464251947E-01  0.51100000000E-03 0.  1.
</event>
<event>
 7    1  0.1104109E+005  0.1043930E+01  0.7957747E-01            NaN
         13   -1    0    0    0    0  0.00000000000E+00  0.00000000000E+00  0.74505805969E-08  0.10566000000E+00  0.10566000000E+00 0. -1.
     999900   -1    0    0    0    0 -0.00000000000E+00 -0.00000000000E+00 -0.74505805969E-08  0.93827000000E+00  0.93827000000E+00 0.  1.
     999902    2    1    2    0    0  0.11564167759E-01 -0.20990544537E-01  0.20897928803E-02  0.10198738122E+01  0.10195900611E+01 0.  0.
         14    1    1    2    0    0 -0.11564167759E-01  0.20990544537E-01 -0.20897928803E-02  0.24056187774E-01  0.00000000000E+00 0.  1.
     999901    1    3    3    0    0 -0.67797589064E-01 -0.38520280656E-01  0.10393912824E+00  0.88954126800E+00  0.88000000000E+00 0. -1.
        -11    1    3    3    0    0  0.11478772941E-01  0.18689415177E-02 -0.15410687563E-01  0.19313352449E-01  0.51100000000E-03 0. -1.
         11    1    3    3    0    0  0.67882983882E-01  0.15660794601E-01 -0.86438647795E-01  0.11101919177E+00  0.51100000000E-03 0.  1.
</event>
<event>
 8    1  0.1104109E+005  0.1043930E+01  0.7957747E-01            NaN
         13   -1    0    0    0    0  0.00000000000E+00  0.00000000000E+00  0.74505805969E-08  0.10566000000E+00  0.10566000000E+00 0. -1.
     999900   -1    0    0    0    0 -0.00000000000E+00 -0.00000000000E+00 -0.74505805969E-08  0.93827000000E+00  0.93827000000E+00 0.  1.
     999902    2    1    2    0    0 -0.81600343931E-02  0.86357655892E-02 -0.20835649006E-01  0.10199448613E+01  0.10196628037E+01 0.  0.
     999903    2    3    3    0    0 -0.49997108910E-01 -0.11714882478E+00  0.11811394883E-01  0.12941808829E+00  0.19646233284E-01 0.  0.
         14    1    1    2    0    0  0.81600343931E-02 -0.86357655892E-02  0.20835649006E-01  0.23985138693E-01  0.00000000000E+00 0. -1.
     999901    1    3    3    0    0  0.41837074517E-01  0.12578459037E+00 -0.32647043889E-01  0.89052677301E+00  0.88000000000E+00 0. -1.
        -11    1    4    4    0    0 -0.21859605837E-01 -0.64275038219E-01  0.14646401615E-01  0.69454309490E-01  0.51100000000E-03 0.  1.
         11    1    4    4    0    0 -0.28137503073E-01 -0.52873786559E-01 -0.28350067325E-02  0.59963778804E-01  0.51100000000E-03 0. -1.
</event>
<event>
 8    1  0.1104109E+005  0.1043930E+01  0.7957747E-01            NaN
         13   -1    0    0    0    0  0.00000000000E+00  0.00000000000E+00  0.74505805969E-08  0.10566000000E+00  0.10566000000E+00 0.  1.
     999900   -1    0    0    0    0 -0.00000000000E+00 -0.00000000000E+00 -0.74505805969E-08  0.93827000000E+00  0.93827000000E+00 0. -1.
     999902    2    1    2    0    0  0.11100189683E-01 -0.62468546864E-02 -0.26933017782E-01  0.10141369664E+01  0.10136992462E+01 0.  0.
     999903    2    3    3    0    0 -0.92308803102E-01  0.71603251071E-01  0.33532986566E-01  0.12261568430E+00  0.16192719152E-01 0.  0.
         14    1    1    2    0    0 -0.11100189683E-01  0.62468546864E-02  0.26933017782E-01  0.29793033603E-01  0.00000000000E+00 0.  1.
     999901    1    3    3    0    0  0.10340899278E+00 -0.77850105757E-01 -0.60466004348E-01  0.89152128210E+00  0.88000000000E+00 0. -1.
        -11    1    4    4    0    0 -0.52270264007E-01  0.47474999895E-01  0.14206186515E-01  0.72028695467E-01  0.51100000000E-03 0. -1.
         11    1    4    4    0    0 -0.40038539094E-01  0.24128251176E-01  0.19326800051E-01  0.50586988830E-01  0.51100000000E-03 0.  1.
</event>
<event>
 8    1  0.1104109E+005  0.1043930E+01  0.7957747E-01            NaN
         13   -1    0    0    0    0  0.00000000000E+00  0.00000000000E+00  0.74505805969E-08  0.10566000000E+00  0.10566000000E+00 0. -1.
     999900   -1    0    0    0    0 -0.00000000000E+00 -0.00000000000E+00 -0.74505805969E-08  0.93827000000E+00  0.93827000000E+00 0. -1.
     999902    2    1    2    0    0  0.18673217890E-01 -0.61127262001E-03  0.12321484642E-01  0.10215496134E+01  0.10213044262E+01 0.  0.
     999903    2    3    3    0    0  0.10631545248E+00 -0.77931548674E-01 -0.87871223449E-02  0.13357148323E+00  0.19693295765E-01 0.  0.
         14    1    1    2    0    0 -0.18673217890E-01  0.61127262001E-03 -0.12321484642E-01  0.22380386600E-01  0.00000000000E+00 0.  1.
     999901    1    3    3    0    0 -0.87642234591E-01  0.77320276054E-01  0.21108606987E-01  0.88797813017E+00  0.88000000000E+00 0. -1.
        -11    1    4    4    0    0  0.40702825971E-01 -0.38458070972E-01 -0.10516232790E-01  0.56978904325E-01  0.51100000000E-03 0. -1.
         11    1    4    4    0    0  0.65612626509E-01 -0.39473477701E-01  0.17291104446E-02  0.76592578904E-01  0.51100000000E-03 0.  1.
</event>
<event>
 8    1  0.1104109E+005  0.1043930E+01  0.7957747E-01            NaN
         13   -1    0    0    0    0  0.00000000000E+00  0.00000000000E+00  0.74505805969E-08  0.10566000000E+00  0.10566000000E+00 0. -1.
     999900   -1    0    0    0    0 -0.00000000000E+00 -0.00000000000E+00 -0.74505805969E-08  0.93827000000E+00  0.93827000000E+00 0. -1.
     999902    2    1    2    0    0  0.14434723406E-01 -0.13489617296E-01 -0.13988212199E-01  0.10197225405E+01  0.10194351664E+01 0.  0.
     999903    2    3    3    0    0 -0.91920282285E-01  0.37286065296E-01 -0.80263595901E-01  0.12939564343E+00  0.21480194376E-01 0.  0.
         14    1    1    2    0    0 -0.14434723406E-01  0.13489617296E-01  0.13988212199E-01  0.24207459493E-01  0.00000000000E+00 0. -1.
     999901    1    3    3    0    0  0.10635500569E+00 -0.50775682591E-01  0.66275383702E-01  0.89032689708E+00  0.88000000000E+00 0.  1.
        -11    1    4    4    0    0 -0.25872533317E-01  0.63390838163E-02 -0.33289271550E-01  0.42638113059E-01  0.51100000000E-03 0. -1.
         11    1    4    4    0    0 -0.66047748968E-01  0.30946981479E-01 -0.46974324350E-01  0.86757530368E-01  0.51100000000E-03 0.  1.
</event>
<event>
 8    1  0.1104109E+005  0.1043930E+01  0.7957747E-01            NaN
         13   -1    0    0    0    0  0.00000000000E+00  0.00000000000E+00  0.74505805969E-08  0.10566000000E+00  0.10566000000E+00 0.  1.
     999900   -1    0    0    0    0 -0.00000000000E+00 -0.00000000000E+00 -0.74505805969E-08  0.93827000000E+00  0.93827000000E+00 0. -1.
     999902    2    1    2    0    0  0.32118915668E-02 -0.23787932911E-01  0.50196855827E-02  0.10194069651E+01  0.10191119571E+01 0.  0.
     999903    2    3    3    0    0 -0.47382644200E-01  0.59104252495E-01 -0.10077426430E+00  0.12776618465E+00  0.20744106611E-01 0.  0.
         14    1    1    2    0    0 -0.32118915668E-02  0.23787932911E-01 -0.50196855827E-02  0.24523034946E-01  0.00000000000E+00 0. -1.
     999901    1    3    3    0    0  0.50594535767E-01 -0.82892185406E-01  0.10579394989E+00  0.89164078041E+00  0.88000000000E+00 0. -1.
        -11    1    4    4    0    0 -0.22245043089E-03  0.10673830339E-01 -0.17519223221E-01  0.20522291334E-01  0.51100000000E-03 0. -1.
         11    1    4    4    0    0 -0.47160193769E-01  0.48430422156E-01 -0.83255041083E-01  0.10724389331E+00  0.51100000000E-03 0.  1.
</event>
<event>
 8    1  0.1104109E+005  0.1043930E+01  0.7957747E-01            NaN
         13   -1    0    0    0    0  0.00000000000E+00  0.00000000000E+00  0.74505805969E-08  0.10566000000E+00  0.10566000000E+00 0.  1.
     999900   -1    0    0    0    0 -0.00000000000E+00 -0.00000000000E+00 -0.74505805969E-08  0.93827000000E+00  0.93827000000E+00 0.  1.
     999902    2    1    2    0    0 -0.21504330874E-02 -0.16854818697E-01  0.15877136993E-01  0.10206750488E+01  0.10204100953E+01 0.  0.
     999903    2    3    3    0    0  0.10588237354E+00  0.70182661850E-01 -0.11174402778E-01  0.12939597011E+00  0.21949185673E-01 0.  0.
         14    1    1    2    0    0  0.21504330874E-02  0.16854818697E-01 -0.15877136993E-01  0.23254951190E-01  0.00000000000E+00 0. -1.
     999901    1    3    3    0    0 -0.10803280663E+00 -0.87037480546E-01  0.27051539771E-01  0.89127907870E+00  0.88000000000E+00 0. -1.
        -11    1    4    4    0    0  0.71962667530E-01  0.51093079178E-01 -0.17454128112E-01  0.89966860382E-01  0.51100000000E-03 0. -1.
         11    1    4    4    0    0  0.33919706011E-01  0.19089582671E-01  0.62797253345E-02  0.39429109725E-01  0.51100000000E-03 0.  1.
</event>
<event>
 8    1  0.1214467E+005  0.1043930E+01  0.7957747E-01            NaN
         13   -1    0    0    0    0  0.00000000000E+00  0.00000000000E+00  0.74505805969E-08  0.10566000000E+00  0.10566000000E+00 0.  1.
     999900   -1    0    0    0    0 -0.00000000000E+00 -0.00000000000E+00 -0.74505805969E-08  0.93827000000E+00  0.93827000000E+00 0.  1.
     999902    2    1    2    0    0  0.18507586488E-01  0.14858976001E-01 -0.40972021049E-03  0.10201921021E+01  0.10199158972E+01 0.  0.
     999903    2    3    3    0    0  0.13107638169E+00 -0.32052258964E-02 -0.67310882254E-02  0.13281506346E+00  0.20080891972E-01 0.  0.
         14    1    1    2    0    0 -0.18507586488E-01 -0.14858976001E-01  0.40972021049E-03  0.23737897886E-01  0.00000000000E+00 0. -1.
     999901    1    3    3    0    0 -0.11256879520E+00  0.18064201897E-01  0.63213680149E-02  0.88737703866E+00  0.88000000000E+00 0.  1.
        -11    1    4    4    0    0  0.90700179469E-01  0.29519022851E-02  0.30995534652E-02  0.90802558529E-01  0.51100000000E-03 0.  1.
         11    1    4    4    0    0  0.40376202220E-01 -0.61571281815E-02 -0.98306416906E-02  0.42012504927E-01  0.51100000000E-03 0. -1.
</event>
<event>
 8    1  0.1104109E+005  0.1043930E+01  0.7957747E-01            NaN
         13   -1    0    0    0    0  0.00000000000E+00  0.00000000000E+00  0.74505805969E-08  0.10566000000E+00  0.10566000000E+00 0.  1.
     999900   -1    0    0    0    0 -0.00000000000E+00 -0.00000000000E+00 -0.74505805969E-08  0.93827000000E+00  0.93827000000E+00 0. -1.
     999902    2    1    2    0    0 -0.13497819350E-01  0.15142573227E-01  0.11774302845E-01  0.10204753020E+01  0.10202057239E+01 0.  0.
     999903    2    3    3    0    0  0.10875207372E+00 -0.15705929313E-01 -0.63104488671E-01  0.12834106328E+00  0.20385344744E-01 0.  0.
         14    1    1    2    0    0  0.13497819350E-01 -0.15142573227E-01 -0.11774302845E-01  0.23454698008E-01  0.00000000000E+00 0. -1.
     999901    1    3    3    0    0 -0.12224989307E+00  0.30848502540E-01  0.74878791516E-01  0.89213423871E+00  0.88000000000E+00 0.  1.
        -11    1    4    4    0    0  0.10069174261E+00 -0.93415004764E-02 -0.54177026689E-01  0.11472358956E+00  0.51100000000E-03 0.  1.
         11    1    4    4    0    0  0.80603311098E-02 -0.63644288365E-02 -0.89274619820E-02  0.13617473718E-01  0.51100000000E-03 0. -1.
</event>
<event>
 8    1  0.1104109E+005  0.1043930E+01  0.7957747E-01            NaN
         13   -1    0    0    0    0  0.00000000000E+00  0.00000000000E+00  0.74505805969E-08  0.10566000000E+00  0.10566000000E+00 0.  1.
     999900   -1    0    0    0    0 -0.00000000000E+00 -0.00000000000E+00 -0.74505805969E-08  0.93827000000E+00  0.93827000000E+00 0. -1.
     999902    2    1    2    0    0  0.95168632927E-02  0.16779484436E-01  0.17333105325E-02  0.10245618264E+01  0.10243787434E+01 0.  0.
     999903    2    3    3    0    0  0.71467349470E-01 -0.10028250779E+00 -0.49229738280E-01  0.13319287631E+00  0.12353613221E-01 0.  0.
         14    1    1    2    0    0 -0.95168632927E-02 -0.16779484436E-01 -0.17333105325E-02  0.19368173643E-01  0.00000000000E+00 0.  1.
     999901    1    3    3    0    0 -0.61950486178E-01  0.11706199223E+00  0.50963048812E-01  0.89136895005E+00  0.88000000000E+00 0. -1.
        -11    1    4    4    0    0  0.59318781889E-01 -0.86721103686E-01 -0.37659362144E-01  0.11161431981E+00  0.51100000000E-03 0.  1.
         11    1    4    4    0    0  0.12148567582E-01 -0.13561404106E-01 -0.11570376136E-01  0.21578556498E-01  0.51100000000E-03 0. -1.
</event>
<event>
 8    1  0.1104109E+005  0.1043930E+01  0.7957747E-01            NaN
         13   -1    0    0    0    0  0.00000000000E+00  0.00000000000E+00  0.74505805969E-08  0.10566000000E+00  0.10566000000E+00 0.  1.
     999900   -1    0    0    0    0 -0.00000000000E+00 -0.00000000000E+00 -0.74505805969E-08  0.93827000000E+00  0.93827000000E+00 0. -1.
     999902    2    1    2    0    0 -0.14200823871E-01 -0.15317481570E-01 -0.11107507437E-01  0.10202727524E+01  0.10199984431E+01 0.  0.
     999903    2    3    3    0    0  0.17906755110E-01 -0.69058736306E-01 -0.10980332205E+00  0.13254538275E+00  0.20536504480E-01 0.  0.
         14    1    1    2    0    0  0.14200823871E-01  0.15317481570E-01  0.11107507437E-01  0.23657247552E-01  0.00000000000E+00 0.  1.
     999901    1    3    3    0    0 -0.32107578981E-01  0.53741254736E-01  0.98695814613E-01  0.88772736970E+00  0.88000000000E+00 0.  1.
        -11    1    4    4    0    0  0.82201923208E-02 -0.18873418706E-01 -0.48746921743E-01  0.52917870288E-01  0.51100000000E-03 0.  1.
         11    1    4    4    0    0  0.96865627892E-02 -0.50185317600E-01 -0.61056400308E-01  0.79627512462E-01  0.51100000000E-03 0. -1.
</event>
<event>
 8    1  0.1141774E+005  0.1043930E+01  0.7957747E-01            NaN
         13   -1    0    0    0    0  0.00000000000E+00  0.00000000000E+00  0.74505805969E-08  0.10566000000E+00  0.10566000000E+00 0.  1.
     999900   -1    0    0    0    0 -0.00000000000E+00 -0.00000000000E+00 -0.74505805969E-08  0.93827000000E+00  0.93827000000E+00 0. -1.
     999902    2    1    2    0    0 -0.11118764825E-01  0.18737951545E-01 -0.74874277096E-02  0.10208909173E+01  0.10206309155E+01 0.  0.
     999903    2    3    3    0    0 -0.10445284436E+00  0.44558837264E-01  0.65349473346E-01  0.13258737529E+00  0.20321706252E-01 0.  0.
         14    1    1    2    0    0  0.11118764825E-01 -0.18737951545E-01  0.74874277096E-02  0.23039082730E-01  0.00000000000E+00 0.  1.
     999901    1    3    3    0    0  0.93334079539E-01 -0.25820885719E-01 -0.72836901055E-01  0.88830354198E+00  0.88000000000E+00 0. -1.
        -11    1    4    4    0    0 -0.29814727162E-01  0.22945794364E-01  0.19854517408E-01  0.42542806880E-01  0.51100000000E-03 0.  1.
         11    1    4    4    0    0 -0.74638117202E-01  0.21613042900E-01  0.45494955938E-01  0.90044568407E-01  0.51100000000E-03 0. -1.
</event>
<event>
 8    1  0.1104109E+005  0.1043930E+01  0.7957747E-01            NaN
         13   -1    0    0    0    0  0.00000000000E+00  0.00000000000E+00  0.74505805969E-08  0.10566000000E+00  0.10566000000E+00 0.  1.
     999900   -1    0    0    0    0 -0.00000000000E+00 -0.00000000000E+00 -0.74505805969E-08  0.93827000000E+00  0.93827000000E+00 0.  1.
     999902    2    1    2    0    0 -0.22904716028E-01 -0.56771079949E-02 -0.32395911569E-02  0.10201108791E+01  0.10198327584E+01 0.  0.
     999903    2    3    3    0    0 -0.10116877452E+00 -0.26941357086E-01  0.79024590420E-01  0.13256097809E+00  0.19146001214E-01 0.  0.
         14    1    1    2    0    0  0.22904716028E-01  0.56771079949E-02  0.32395911569E-02  0.23819120940E-01  0.00000000000E+00 0. -1.
     999901    1    3    3    0    0  0.78264058488E-01  0.21264249091E-01 -0.82264181577E-01  0.88754990097E+00  0.88000000000E+00 0.  1.
        -11    1    4    4    0    0 -0.52884168884E-01 -0.49568452624E-02  0.44129805070E-01  0.69057993383E-01  0.51100000000E-03 0.  1.
         11    1    4    4    0    0 -0.48284605632E-01 -0.21984511824E-01  0.34894785350E-01  0.63502984708E-01  0.51100000000E-03 0. -1.
</event>
<event>
 8    1  0.1104109E+005  0.1043930E+01  0.7957747E-01            NaN
         13   -1    0    0    0    0  0.00000000000E+00  0.00000000000E+00  0.74505805969E-08  0.10566000000E+00  0.10566000000E+00 0. -1.
     999900   -1    0    0    0    0 -0.00000000000E+00 -0.00000000000E+00 -0.74505805969E-08  0.93827000000E+00  0.93827000000E+00 0.  1.
     999902    2    1    2    0    0  0.19386167773E-01  0.10995932463E-01 -0.88122798520E-02  0.10199635587E+01  0.10196819459E+01 0.  0.
     999903    2    3    3    0    0 -0.91937058521E-01  0.37774558920E-01 -0.80841153695E-01  0.12962760290E+00  0.19715051922E-01 0.  0.
         14    1    1    2    0    0 -0.19386167773E-01 -0.10995932463E-01  0.88122798520E-02  0.23966441285E-01  0.00000000000E+00 0. -1.
     999901    1    3    3    0    0  0.11132322629E+00 -0.26778626456E-01  0.72028873843E-01  0.89033595581E+00  0.88000000000E+00 0. -1.
        -11    1    4    4    0    0 -0.27836510556E-01  0.59622869406E-02 -0.14098307435E-01  0.31771741831E-01  0.51100000000E-03 0. -1.
         11    1    4    4    0    0 -0.64100547965E-01  0.31812271979E-01 -0.66742846261E-01  0.97855861071E-01  0.51100000000E-03 0.  1.
</event>
<event>
 8    1  0.1104109E+005  0.1043930E+01  0.7957747E-01            NaN
         13   -1    0    0    0    0  0.00000000000E+00  0.00000000000E+00  0.74505805969E-08  0.10566000000E+00  0.10566000000E+00 0. -1.
     999900   -1    0    0    0    0 -0.00000000000E+00 -0.00000000000E+00 -0.74505805969E-08  0.93827000000E+00  0.93827000000E+00 0. -1.
     999902    2    1    2    0    0  0.12691076338E-01 -0.19497896392E-01 -0.10147791792E-01  0.10185487262E+01  0.10182324384E+01 0.  0.
     999903    2    3    3    0    0 -0.94703685741E-01  0.65009373184E-01  0.47630953552E-01  0.12612870347E+00  0.21088750721E-01 0.  0.
         14    1    1    2    0    0 -0.12691076338E-01  0.19497896392E-01  0.10147791792E-01  0.25381273817E-01  0.00000000000E+00 0. -1.
     999901    1    3    3    0    0  0.10739476208E+00 -0.84507269576E-01 -0.57778745344E-01  0.89242002272E+00  0.88000000000E+00 0. -1.
        -11    1    4    4    0    0 -0.34595392751E-01  0.30697285982E-01  0.99115583846E-02  0.47303960478E-01  0.51100000000E-03 0.  1.
         11    1    4    4    0    0 -0.60108292990E-01  0.34312087202E-01  0.37719395168E-01  0.78824742988E-01  0.51100000000E-03 0. -1.
</event>
<event>
 8    1  0.1104109E+005  0.1043930E+01  0.7957747E-01            NaN
         13   -1    0    0    0    0  0.00000000000E+00  0.00000000000E+00  0.74505805969E-08  0.10566000000E+00  0.10566000000E+00 0.  1.
     999900   -1    0    0    0    0 -0.00000000000E+00 -0.00000000000E+00 -0.74505805969E-08  0.93827000000E+00  0.93827000000E+00 0. -1.
     999902    2    1    2    0    0  0.10533930313E-01 -0.21406822994E-01 -0.35570459507E-02  0.10198080528E+01  0.10195227297E+01 0.  0.
     999903    2    3    3    0    0 -0.36156080144E-01  0.12031826457E+00 -0.61629587071E-03  0.12724174969E+00  0.20157780674E-01 0.  0.
         14    1    1    2    0    0 -0.10533930313E-01  0.21406822994E-01  0.35570459507E-02  0.24121947152E-01  0.00000000000E+00 0.  1.
     999901    1    3    3    0    0  0.46690010457E-01 -0.14172508757E+00 -0.29407500800E-02  0.89256630316E+00  0.88000000000E+00 0. -1.
        -11    1    4    4    0    0 -0.36029186716E-01  0.10189583651E+00  0.43086764607E-02  0.10816510346E+00  0.51100000000E-03 0. -1.
         11    1    4    4    0    0 -0.12689342840E-03  0.18422428070E-01 -0.49249723314E-02  0.19076646230E-01  0.51100000000E-03 0.  1.
</event>
<event>
 8    1  0.1104109E+005  0.1043930E+01  0.7957747E-01            NaN
         13   -1    0    0    0    0  0.00000000000E+00  0.00000000000E+00  0.74505805969E-08  0.10566000000E+00  0.10566000000E+00 0.  1.
     999900   -1    0    0    0    0 -0.00000000000E+00 -0.00000000000E+00 -0.74505805969E-08  0.93827000000E+00  0.93827000000E+00 0.  1.
     999902    2    1    2    0    0 -0.20891265079E-01 -0.44593512257E-02 -0.84847926273E-02  0.10209447335E+01  0.10206859588E+01 0.  0.
     999903    2    3    3    0    0  0.48142690902E-02 -0.91659368496E-01 -0.93062363069E-01  0.13222769028E+00  0.19973523384E-01 0.  0.
         14    1    1    2    0    0  0.20891265079E-01  0.44593512257E-02  0.84847926273E-02  0.22985266496E-01  0.00000000000E+00 0.  1.
     999901    1    3    3    0    0 -0.25705534169E-01  0.87200017270E-01  0.84577570442E-01  0.88871704323E+00  0.88000000000E+00 0. -1.
        -11    1    4    4    0    0  0.73156583349E-02 -0.75544995335E-01 -0.65775945383E-01  0.10043555789E+00  0.51100000000E-03 0.  1.
         11    1    4    4    0    0 -0.25013892447E-02 -0.16114373160E-01 -0.27286417686E-01  0.31792132386E-01  0.51100000000E-03 0. -1.
</event>
<event>
 8    1  0.1104109E+005  0.1043930E+01  0.7957747E-01            NaN
         13   -1    0    0    0    0  0.00000000000E+00  0.00000000000E+00  0.74505805969E-08  0.10566000000E+00  0.10566000000E+00 0. -1.
     999900   -1    0    0    0    0 -0.00000000000E+00 -0.00000000000E+00 -0.74505805969E-08  0.93827000000E+00  0.93827000000E+00 0.  1.
     999902    2    1    2    0    0 -0.20936366963E-01  0.63345355381E-02  0.92388349762E-02  0.10201852348E+01  0.10199088682E+01 0.  0.
     999903    2    3    3    0    0  0.66430584314E-01  0.10337849836E+00  0.38019985791E-01  0.13008475198E+00  0.19400693874E-01 0.  0.
         14    1    1    2    0    0  0.20936366963E-01 -0.63345355381E-02 -0.92388349762E-02  0.23744765187E-01  0.00000000000E+00 0.  1.
     999901    1    3    3    0    0 -0.87366951276E-01 -0.97043962823E-01 -0.28781150815E-01  0.89010048283E+00  0.88000000000E+00 0. -1.
        -11    1    4    4    0    0  0.64048136155E-01  0.91306016304E-01  0.37813705455E-01  0.11776709982E+00  0.51100000000E-03 0.  1.
         11    1    4    4    0    0  0.23824481589E-02  0.12072482056E-01  0.20628033602E-03  0.12317652163E-01  0.51100000000E-03 0. -1.
</event>
<event>
 8    1  0.1104109E+005  0.1043930E+01  0.7957747E-01            NaN
         13   -1    0    0    0    0  0.00000000000E+00  0.00000000000E+00  0.74505805969E-08  0.10566000000E+00  0.10566000000E+00 0.  1.
     999900   -1    0    0    0    0 -0.00000000000E+00 -0.00000000000E+00 -0.74505805969E-08  0.93827000000E+00  0.93827000000E+00 0. -1.
     999902    2    1    2    0    0 -0.75301988350E-02 -0.21992570647E-01 -0.71590340631E-02  0.10196065786E+01  0.10193164113E+01 0.  0.
     999903    2    3    3    0    0 -0.10548012809E-01  0.10383233706E+00 -0.72119634972E-01  0.12828122038E+00  0.19037199379E-01 0.  0.
         14    1    1    2    0    0  0.75301988350E-02  0.21992570647E-01  0.71590340631E-02  0.24323421365E-01  0.00000000000E+00 0. -1.
     999901    1    3    3    0    0  0.30178139742E-02 -0.12582490771E+00  0.64960600909E-01  0.89132535826E+00  0.88000000000E+00 0.  1.
        -11    1    4    4    0    0 -0.15397583684E-01  0.88458420564E-01 -0.58444793565E-01  0.10713558124E+00  0.51100000000E-03 0.  1.
         11    1    4    4    0    0  0.48495708748E-02  0.15373916494E-01 -0.13674841407E-01  0.21145639138E-01  0.51100000000E-03 0. -1.
</event>
<event>
 8    1  0.1104109E+005  0.1043930E+01  0.7957747E-01            NaN
         13   -1    0    0    0    0  0.00000000000E+00  0.00000000000E+00  0.74505805969E-08  0.10566000000E+00  0.10566000000E+00 0.  1.
     999900   -1    0    0    0    0 -0.00000000000E+00 -0.00000000000E+00 -0.74505805969E-08  0.93827000000E+00  0.93827000000E+00 0. -1.
     999902    2    1    2    0    0  0.11592868672E-01  0.18003476968E-01 -0.55990738219E-02  0.10217970062E+01  0.10215572683E+01 0.  0.
     999903    2    3    3    0    0  0.10583330790E+00  0.75356720877E-01 -0.29252239290E-01  0.13459346292E+00  0.19503392345E-01 0.  0.
         14    1    1    2    0    0 -0.11592868672E-01 -0.18003476968E-01  0.55990738219E-02  0.22132993802E-01  0.00000000000E+00 0.  1.
     999901    1    3    3    0    0 -0.94240439233E-01 -0.57353243909E-01  0.23653165468E-01  0.88720354328E+00  0.88000000000E+00 0. -1.
        -11    1    4    4    0    0  0.42313719930E-02  0.34404387362E-02 -0.57003013346E-02  0.79054211744E-02  0.51100000000E-03 0. -1.
         11    1    4    4    0    0  0.10160193591E+00  0.71916282141E-01 -0.23551937955E-01  0.12668804174E+00  0.51100000000E-03 0.  1.
</event>
<event>
 8    1  0.1104109E+005  0.1043930E+01  0.7957747E-01            NaN
         13   -1    0    0    0    0  0.00000000000E+00  0.00000000000E+00  0.74505805969E-08  0.10566000000E+00  0.10566000000E+00 0.  1.
     999900   -1    0    0    0    0 -0.00000000000E+00 -0.00000000000E+00 -0.74505805969E-08  0.93827000000E+00  0.93827000000E+00 0.  1.
     999902    2    1    2    0    0  0.22662682498E-02  0.18254988850E-01  0.16171432303E-01  0.10194372294E+01  0.10191429580E+01 0.  0.
     999903    2    3    3    0    0  0.85431041430E-01  0.29967122834E-01 -0.89952646963E-01  0.12909130011E+00  0.19406024245E-01 0.  0.
         14    1    1    2    0    0 -0.22662682498E-02 -0.18254988850E-01 -0.16171432303E-01  0.24492770616E-01  0.00000000000E+00 0. -1.
     999901    1    3    3    0    0 -0.83164773180E-01 -0.11712133984E-01  0.10612407927E+00  0.89034592928E+00  0.88000000000E+00 0. -1.
        -11    1    4    4    0    0  0.71048697211E-01  0.24224745240E-01 -0.62990630442E-01  0.97994062584E-01  0.51100000000E-03 0. -1.
         11    1    4    4    0    0  0.14382344219E-01  0.57423775938E-02 -0.26962016522E-01  0.31097237523E-01  0.51100000000E-03 0.  1.
</event>
<event>
 8    1  0.1104109E+005  0.1043930E+01  0.7957747E-01            NaN
         13   -1    0    0    0    0  0.00000000000E+00  0.00000000000E+00  0.74505805969E-08  0.10566000000E+00  0.10566000000E+00 0. -1.
     999900   -1    0    0    0    0 -0.00000000000E+00 -0.00000000000E+00 -0.74505805969E-08  0.93827000000E+00  0.93827000000E+00 0.  1.
     999902    2    1    2    0    0  0.14617366074E-01 -0.12180983752E-02  0.17957706620E-01  0.10207431420E+01  0.10204797556E+01 0.  0.
     999903    2    3    3    0    0  0.10489957002E-02  0.12782518345E+00 -0.17330166238E-01  0.13052884019E+00  0.19926503562E-01 0.  0.
         14    1    1    2    0    0 -0.14617366074E-01  0.12180983752E-02 -0.17957706620E-01  0.23186857951E-01  0.00000000000E+00 0. -1.
     999901    1    3    3    0    0  0.13568370373E-01 -0.12904328183E+00  0.35287872858E-01  0.89021430186E+00  0.88000000000E+00 0. -1.
        -11    1    4    4    0    0  0.54387701988E-02  0.11721146003E+00 -0.19142300487E-01  0.11888984554E+00  0.51100000000E-03 0. -1.
         11    1    4    4    0    0 -0.43897744986E-02  0.10613723419E-01  0.18121342487E-02  0.11638994652E-01  0.51100000000E-03 0.  1.
</event>
<event>
 8    1  0.1104109E+005  0.1043930E+01  0.7957747E-01            NaN
         13   -1    0    0    0    0  0.00000000000E+00  0.00000000000E+00  0.74505805969E-08  0.10566000000E+00  0.10566000000E+00 0.  1.
     999900   -1    0    0    0    0 -0.00000000000E+00 -0.00000000000E+00 -0.74505805969E-08  0.93827000000E+00  0.93827000000E+00 0. -1.
     999902    2    1    2    0    0  0.12405342253E-01 -0.18706576957E-01 -0.72756068862E-02  0.10203341742E+01  0.10200613041E+01 0.  0.
     999903    2    3    3    0    0 -0.78321818015E-01 -0.10299520449E+00  0.12292309608E-01  0.13144785209E+00  0.19624413821E-01 0.  0.
         14    1    1    2    0    0 -0.12405342253E-01  0.18706576957E-01  0.72756068862E-02  0.23595825763E-01  0.00000000000E+00 0. -1.
     999901    1    3    3    0    0  0.90727160268E-01  0.84288627538E-01 -0.19567916494E-01  0.88888632215E+00  0.88000000000E+00 0. -1.
        -11    1    4    4    0    0 -0.75802322511E-01 -0.94623184726E-01  0.75237596197E-02  0.12147595345E+00  0.51100000000E-03 0. -1.
         11    1    4    4    0    0 -0.25194955035E-02 -0.83720197694E-02  0.47685499879E-02  0.99718986456E-02  0.51100000000E-03 0.  1.
</event>
<event>
 8    1  0.1104109E+005  0.1043930E+01  0.7957747E-01            NaN
         13   -1    0    0    0    0  0.00000000000E+00  0.00000000000E+00  0.74505805969E-08  0.10566000000E+00  0.10566000000E+00 0. -1.
     999900   -1    0    0    0    0 -0.00000000000E+00 -0.00000000000E+00 -0.74505805969E-08  0.93827000000E+00  0.93827000000E+00 0. -1.
     999902    2    1    2    0    0 -0.21063127837E-01  0.16869509849E-02  0.14473487583E-01  0.10183178349E+01  0.10179956925E+01 0.  0.
     999903    2    3    3    0    0 -0.98636281259E-01  0.32482870766E-01  0.79117223858E-01  0.13200818504E+00  0.19554358417E-01 0.  0.
         14    1    1    2    0    0  0.21063127837E-01 -0.16869509849E-02 -0.14473487583E-01  0.25612165092E-01  0.00000000000E+00 0.  1.
     999901    1    3    3    0    0  0.77573153423E-01 -0.30795919781E-01 -0.64643736274E-01  0.88630964987E+00  0.88000000000E+00 0. -1.
        -11    1    4    4    0    0 -0.66821212049E-01  0.12196914800E-01  0.50014772757E-01  0.84353883878E-01  0.51100000000E-03 0.  1.
         11    1    4    4    0    0 -0.31815069210E-01  0.20285955966E-01  0.29102451100E-01  0.47654301163E-01  0.51100000000E-03 0. -1.
</event>
<event>
 8    1  0.1104109E+005  0.1043930E+01  0.7957747E-01            NaN
         13   -1    0    0    0    0  0.00000000000E+00  0.00000000000E+00  0.74505805969E-08  0.10566000000E+00  0.10566000000E+00 0. -1.
     999900   -1    0    0    0    0 -0.00000000000E+00 -0.00000000000E+00 -0.74505805969E-08  0.93827000000E+00  0.93827000000E+00 0. -1.
     999902    2    1    2    0    0  0.12575294613E-01  0.55346770728E-03  0.19799992811E-01  0.10204676029E+01  0.10201978458E+01 0.  0.
     999903    2    3    3    0    0 -0.38712322261E-01  0.10139233125E-01  0.12610878361E+00  0.13253524878E+00  0.77922346530E-02 0.  0.
         14    1    1    2    0    0 -0.12575294613E-01 -0.55346770728E-03 -0.19799992811E-01  0.23462397073E-01  0.00000000000E+00 0.  1.
     999901    1    3    3    0    0  0.51287616873E-01 -0.95857654173E-02 -0.10630879080E+00  0.88793235415E+00  0.88000000000E+00 0. -1.
        -11    1    4    4    0    0 -0.31160609822E-01  0.10149035190E-01  0.10913338686E+00  0.11394886471E+00  0.51100000000E-03 0.  1.
         11    1    4    4    0    0 -0.75517124390E-02 -0.98020653539E-05  0.16975396757E-01  0.18586384072E-01  0.51100000000E-03 0. -1.
</event>
<event>
 8    1  0.1104109E+005  0.1043930E+01  0.7957747E-01            NaN
         13   -1    0    0    0    0  0.00000000000E+00  0.00000000000E+00  0.74505805969E-08  0.10566000000E+00  0.10566000000E+00 0.  1.
     999900   -1    0    0    0    0 -0.00000000000E+00 -0.00000000000E+00 -0.74505805969E-08  0.93827000000E+00  0.93827000000E+00 0. -1.
     999902    2    1    2    0    0 -0.23418156835E-01  0.97816541318E-03 -0.24678250880E-02  0.10203618639E+01  0.10200896413E+01 0.  0.
     999903    2    3    3    0    0  0.42119644971E-01  0.12118723890E+00  0.70024515755E-03  0.12976910544E+00  0.19470978847E-01 0.  0.
         14    1    1    2    0    0  0.23418156835E-01 -0.97816541318E-03  0.24678250880E-02  0.23568136070E-01  0.00000000000E+00 0.  1.
     999901    1    3    3    0    0 -0.65537801806E-01 -0.12020907349E+00 -0.31680702456E-02  0.89059275849E+00  0.88000000000E+00 0. -1.
        -11    1    4    4    0    0  0.14202424297E-01  0.20920795067E-01 -0.38775894033E-02  0.25586819707E-01  0.51100000000E-03 0.  1.
         11    1    4    4    0    0  0.27917220674E-01  0.10026644383E+00  0.45778345609E-02  0.10418228573E+00  0.51100000000E-03 0. -1.
</event>
<event>
 8    1  0.1104109E+005  0.1043930E+01  0.7957747E-01            NaN
         13   -1    0    0    0    0  0.00000000000E+00  0.00000000000E+00  0.74505805969E-08  0.10566000000E+00  0.10566000000E+00 0.  1.
     999900   -1    0    0    0    0 -0.00000000000E+00 -0.00000000000E+00 -0.74505805969E-08  0.93827000000E+00  0.93827000000E+00 0.  1.
     999902    2    1    2    0    0  0.13173509913E-01  0.17616199603E-01 -0.22423234498E-01  0.10125186438E+01  0.10120312894E+01 0.  0.
     999903    2    3    3    0    0 -0.10116106266E-01  0.60554900040E-01 -0.10936454204E+00  0.12688614149E+00  0.19242097656E-01 0.  0.
         14    1    1    2    0    0 -0.13173509913E-01 -0.17616199603E-01  0.22423234498E-01  0.31411356182E-01  0.00000000000E+00 0. -1.
     999901    1    3    3    0    0  0.23289616179E-01 -0.42938700437E-01  0.86941307544E-01  0.88563250232E+00  0.88000000000E+00 0. -1.
        -11    1    4    4    0    0 -0.66437011471E-02  0.39824720516E-01 -0.88447323945E-01  0.97228274504E-01  0.51100000000E-03 0.  1.
         11    1    4    4    0    0 -0.34724051191E-02  0.20730179524E-01 -0.20917218097E-01  0.29657866988E-01  0.51100000000E-03 0. -1.
</event>
<event>
 8    1  0.1104109E+005  0.1043930E+01  0.7957747E-01            NaN
         13   -1    0    0    0    0  0.00000000000E+00  0.00000000000E+00  0.74505805969E-08  0.10566000000E+00  0.10566000000E+00 0.  1.
     999900   -1    0    0    0    0 -0.00000000000E+00 -0.00000000000E+00 -0.74505805969E-08  0.93827000000E+00  0.93827000000E+00 0.  1.
     999902    2    1    2    0    0 -0.78786851094E-02  0.11024455324E-01 -0.18954991853E-01  0.10206296993E+01  0.10203636995E+01 0.  0.
     999903    2    3    3    0    0  0.89328637895E-01  0.10637730540E-02 -0.95101539268E-01  0.13195271893E+00  0.19659097174E-01 0.  0.
         14    1    1    2    0    0  0.78786851094E-02 -0.11024455324E-01  0.18954991853E-01  0.23300300650E-01  0.00000000000E+00 0.  1.
     999901    1    3    3    0    0 -0.97207323005E-01  0.99606822696E-02  0.76146547415E-01  0.88867698042E+00  0.88000000000E+00 0. -1.
        -11    1    4    4    0    0  0.24746626495E-01  0.33043373973E-02 -0.15375498207E-01  0.29325436649E-01  0.51100000000E-03 0. -1.
         11    1    4    4    0    0  0.64582011400E-01 -0.22405643432E-02 -0.79726041061E-01  0.10262728229E+00  0.51100000000E-03 0.  1.
</event>
<event>
 8    1  0.1104109E+005  0.1043930E+01  0.7957747E-01            NaN
         13   -1    0    0    0    0  0.00000000000E+00  0.00000000000E+00  0.74505805969E-08  0.10566000000E+00  0.10566000000E+00 0. -1.
     999900   -1    0    0    0    0 -0.00000000000E+00 -0.00000000000E+00 -0.74505805969E-08  0.93827000000E+00  0.93827000000E+00 0. -1.
     999902    2    1    2    0    0  0.17154291589E-01  0.12839938740E-02 -0.17670867890E-01  0.10192687362E+01  0.10189703522E+01 0.  0.
     999903    2    3    3    0    0  0.10159712268E+00 -0.80326425418E-01 -0.10278802300E-01  0.13143682931E+00  0.19891615450E-01 0.  0.
         14    1    1    2    0    0 -0.17154291589E-01 -0.12839938740E-02  0.17670867890E-01  0.24661263799E-01  0.00000000000E+00 0. -1.
     999901    1    3    3    0    0 -0.84442831090E-01  0.81610419292E-01 -0.73920655903E-02  0.88783190689E+00  0.88000000000E+00 0. -1.
        -11    1    4    4    0    0  0.26728907543E-01 -0.21454153369E-01  0.60363409517E-02  0.34805369246E-01  0.51100000000E-03 0. -1.
         11    1    4    4    0    0  0.74868215136E-01 -0.58872272049E-01 -0.16315143251E-01  0.96631460064E-01  0.51100000000E-03 0.  1.
</event>
<event>
 8    1  0.1104109E+005  0.1043930E+01  0.7957747E-01            NaN
         13   -1    0    0    0    0  0.00000000000E+00  0.00000000000E+00  0.74505805969E-08  0.10566000000E+00  0.10566000000E+00 0. -1.
     999900   -1    0    0    0    0 -0.00000000000E+00 -0.00000000000E+00 -0.74505805969E-08  0.93827000000E+00  0.93827000000E+00 0.  1.
     999902    2    1    2    0    0 -0.16394367482E-01  0.12407687693E-01 -0.86370578373E-02  0.10216292205E+01  0.10213857936E+01 0.  0.
     999903    2    3    3    0    0  0.29973678560E-01 -0.77655384538E-01  0.97123463174E-01  0.12952684941E+00  0.20382773716E-01 0.  0.
         14    1    1    2    0    0  0.16394367482E-01 -0.12407687693E-01  0.86370578373E-02  0.22300779518E-01  0.00000000000E+00 0. -1.
     999901    1    3    3    0    0 -0.46368046041E-01  0.90063072231E-01 -0.10576052101E+00  0.89210237108E+00  0.88000000000E+00 0. -1.
        -11    1    4    4    0    0  0.15462519854E-01 -0.46491805445E-01  0.71368540328E-01  0.86569666531E-01  0.51100000000E-03 0.  1.
         11    1    4    4    0    0  0.14511158706E-01 -0.31163579092E-01  0.25754922846E-01  0.42957182876E-01  0.51100000000E-03 0. -1.
</event>
<event>
 8    1  0.1104109E+005  0.1043930E+01  0.7957747E-01            NaN
         13   -1    0    0    0    0  0.00000000000E+00  0.00000000000E+00  0.74505805969E-08  0.10566000000E+00  0.10566000000E+00 0.  1.
     999900   -1    0    0    0    0 -0.00000000000E+00 -0.00000000000E+00 -0.74505805969E-08  0.93827000000E+00  0.93827000000E+00 0.  1.
     999902    2    1    2    0    0 -0.45850716426E-03 -0.21531748849E-01  0.76750938871E-02  0.10210666340E+01  0.10208106277E+01 0.  0.
     999903    2    3    3    0    0 -0.76490617959E-01 -0.92756524813E-01 -0.52755778153E-01  0.13286297446E+00  0.20366892789E-01 0.  0.
         14    1    1    2    0    0  0.45850716426E-03  0.21531748849E-01 -0.76750938871E-02  0.22863365970E-01  0.00000000000E+00 0. -1.
     999901    1    3    3    0    0  0.76032110795E-01  0.71224775964E-01  0.60430872040E-01  0.88820365957E+00  0.88000000000E+00 0. -1.
        -11    1    4    4    0    0 -0.54975677221E-01 -0.63064997906E-01 -0.26497523151E-01  0.87760463199E-01  0.51100000000E-03 0. -1.
         11    1    4    4    0    0 -0.21514940739E-01 -0.29691526907E-01 -0.26258255001E-01  0.45102511258E-01  0.51100000000E-03 0.  1.
</event>
<event>
 8    1  0.1104109E+005  0.1043930E+01  0.7957747E-01            NaN
         13   -1    0    0    0    0  0.00000000000E+00  0.00000000000E+00  0.74505805969E-08  0.10566000000E+00  0.10566000000E+00 0. -1.
     999900   -1    0    0    0    0 -0.00000000000E+00 -0.00000000000E+00 -0.74505805969E-08  0.93827000000E+00  0.93827000000E+00 0. -1.
     999902    2    1    2    0    0 -0.16908467095E-01 -0.44713721029E-03  0.15988969407E-01  0.10206546196E+01  0.10203891949E+01 0.  0.
     999903    2    3    3    0    0 -0.89323664423E-01  0.52250752848E-01 -0.78112396020E-01  0.13111760776E+00  0.19530039752E-01 0.  0.
         14    1    1    2    0    0  0.16908467095E-01  0.44713721029E-03 -0.15988969407E-01  0.23275380424E-01  0.00000000000E+00 0.  1.
     999901    1    3    3    0    0  0.72415197328E-01 -0.52697890058E-01  0.94101365427E-01  0.88953701182E+00  0.88000000000E+00 0.  1.
        -11    1    4    4    0    0 -0.86513116809E-01  0.47067463044E-01 -0.69009353690E-01  0.12025979160E+00  0.51100000000E-03 0.  1.
         11    1    4    4    0    0 -0.28105476142E-02  0.51832898040E-02 -0.91030423303E-02  0.10857816159E-01  0.51100000000E-03 0. -1.
</event>
<event>
 8    1  0.1104109E+005  0.1043930E+01  0.7957747E-01            NaN
         13   -1    0    0    0    0  0.00000000000E+00  0.00000000000E+00  0.74505805969E-08  0.10566000000E+00  0.10566000000E+00 0.  1.
     999900   -1    0    0    0    0 -0.00000000000E+00 -0.00000000000E+00 -0.74505805969E-08  0.93827000000E+00  0.93827000000E+00 0.  1.
     999902    2    1    2    0    0 -0.18043281788E-02  0.90892920379E-02 -0.21953335848E-01  0.10201010306E+01  0.10198226771E+01 0.  0.
     999903    2    3    3    0    0  0.89386274591E-01  0.92120343641E-01 -0.20499366651E-01  0.13149988516E+00  0.19898039285E-01 0.  0.
         14    1    1    2    0    0  0.18043281788E-02 -0.90892920379E-02  0.21953335848E-01  0.23828969445E-01  0.00000000000E+00 0.  1.
     999901    1    3    3    0    0 -0.91190602769E-01 -0.83031051603E-01 -0.14539691973E-02  0.88860114539E+00  0.88000000000E+00 0.  1.
        -11    1    4    4    0    0  0.44873907593E-01  0.39272240267E-01 -0.18253947787E-01  0.62365408433E-01  0.51100000000E-03 0. -1.
         11    1    4    4    0    0  0.44512366998E-01  0.52848103374E-01 -0.22454188638E-02  0.69134476731E-01  0.51100000000E-03 0.  1.
</event>
<event>
 8    1  0.1104109E+005  0.1043930E+01  0.7957747E-01            NaN
         13   -1    0    0    0    0  0.00000000000E+00  0.00000000000E+00  0.74505805969E-08  0.10566000000E+00  0.10566000000E+00 0. -1.
     999900   -1    0    0    0    0 -0.00000000000E+00 -0.00000000000E+00 -0.74505805969E-08  0.93827000000E+00  0.93827000000E+00 0.  1.
     999902    2    1    2    0    0  0.16366641122E-01 -0.65214421776E-02 -0.16055857149E-01  0.10200933329E+01  0.10198147975E+01 0.  0.
     999903    2    3    3    0    0 -0.11160898869E-01  0.13249753702E-01 -0.12944347827E+00  0.13217136658E+00  0.20335546213E-01 0.  0.
         14    1    1    2    0    0 -0.16366641122E-01  0.65214421776E-02  0.16055857149E-01  0.23836667101E-01  0.00000000000E+00 0. -1.
     999901    1    3    3    0    0  0.27527539990E-01 -0.19771195880E-01  0.11338762112E+00  0.88792196632E+00  0.88000000000E+00 0. -1.
        -11    1    4    4    0    0 -0.14588544720E-01  0.17739295604E-02 -0.68645157097E-01  0.70202501216E-01  0.51100000000E-03 0. -1.
         11    1    4    4    0    0  0.34276458511E-02  0.11475824141E-01 -0.60798321177E-01  0.61968865366E-01  0.51100000000E-03 0.  1.
</event>
<event>
 8    1  0.1104109E+005  0.1043930E+01  0.7957747E-01            NaN
         13   -1    0    0    0    0  0.00000000000E+00  0.00000000000E+00  0.74505805969E-08  0.10566000000E+00  0.10566000000E+00 0.  1.
     999900   -1    0    0    0    0 -0.00000000000E+00 -0.00000000000E+00 -0.74505805969E-08  0.93827000000E+00  0.93827000000E+00 0. -1.
     999902    2    1    2    0    0  0.18002412659E-01 -0.54194524472E-02  0.14370912638E-01  0.10202660938E+01  0.10199916283E+01 0.  0.
     999903    2    3    3    0    0 -0.15045497183E-01  0.22841546925E-01  0.12714745044E+00  0.13200408521E+00  0.22594271563E-01 0.  0.
         14    1    1    2    0    0 -0.18002412659E-01  0.54194524472E-02 -0.14370912638E-01  0.23663906195E-01  0.00000000000E+00 0. -1.
     999901    1    3    3    0    0  0.33047909842E-01 -0.28260999372E-01 -0.11277653780E+00  0.88826200859E+00  0.88000000000E+00 0. -1.
        -11    1    4    4    0    0 -0.15983846152E-01  0.44009397725E-02  0.50138941534E-01  0.52811231645E-01  0.51100000000E-03 0. -1.
         11    1    4    4    0    0  0.93834896907E-03  0.18440607152E-01  0.77008508908E-01  0.79192853567E-01  0.51100000000E-03 0.  1.
</event>
<event>
 8    1  0.1104109E+005  0.1043930E+01  0.7957747E-01            NaN
         13   -1    0    0    0    0  0.00000000000E+00  0.00000000000E+00  0.74505805969E-08  0.10566000000E+00  0.10566000000E+00 0. -1.
     999900   -1    0    0    0    0 -0.00000000000E+00 -0.00000000000E+00 -0.74505805969E-08  0.93827000000E+00  0.93827000000E+00 0.  1.
     999902    2    1    2    0    0  0.21572182750E-01 -0.15480002357E-02 -0.84956779730E-02  0.10206935649E+01  0.10204290379E+01 0.  0.
     999903    2    3    3    0    0  0.60422628230E-01  0.10430336201E+00  0.49023513411E-01  0.13163657829E+00  0.19869538193E-01 0.  0.
         14    1    1    2    0    0 -0.21572182750E-01  0.15480002357E-02  0.84956779730E-02  0.23236435130E-01  0.00000000000E+00 0.  1.
     999901    1    3    3    0    0 -0.38850445481E-01 -0.10585136225E+00 -0.57519191384E-01  0.88905698658E+00  0.88000000000E+00 0. -1.
        -11    1    4    4    0    0  0.39544542014E-01  0.59754299231E-01  0.19520104916E-01  0.74267373029E-01  0.51100000000E-03 0.  1.
         11    1    4    4    0    0  0.20878086217E-01  0.44549062782E-01  0.29503408494E-01  0.57369205264E-01  0.51100000000E-03 0. -1.
</event>
<event>
 8    1  0.1104109E+005  0.1043930E+01  0.7957747E-01            NaN
         13   -1    0    0    0    0  0.00000000000E+00  0.00000000000E+00  0.74505805969E-08  0.10566000000E+00  0.10566000000E+00 0.  1.
     999900   -1    0    0    0    0 -0.00000000000E+00 -0.00000000000E+00 -0.74505805969E-08  0.93827000000E+00  0.93827000000E+00 0.  1.
     999902    2    1    2    0    0  0.14608383428E-01  0.18253871880E-01  0.39610048260E-02  0.10202171709E+01  0.10199415559E+01 0.  0.
     999903    2    3    3    0    0 -0.49418873188E-01 -0.64013601867E-01 -0.97431203883E-01  0.12828230398E+00  0.20580179144E-01 0.  0.
         14    1    1    2    0    0 -0.14608383428E-01 -0.18253871880E-01 -0.39610048260E-02  0.23712829106E-01  0.00000000000E+00 0.  1.
     999901    1    3    3    0    0  0.64027256616E-01  0.82267473747E-01  0.10139220871E+00  0.89193486691E+00  0.88000000000E+00 0. -1.
        -11    1    4    4    0    0 -0.36302467313E-01 -0.58961841947E-01 -0.83655080090E-01  0.10859466600E+00  0.51100000000E-03 0.  1.
         11    1    4    4    0    0 -0.13116405874E-01 -0.50517599202E-02 -0.13776123793E-01  0.19687637977E-01  0.51100000000E-03 0. -1.
</event>
<event>
 8    1  0.1104109E+005  0.1043930E+01  0.7957747E-01            NaN
         13   -1    0    0    0    0  0.00000000000E+00  0.00000000000E+00  0.74505805969E-08  0.10566000000E+00  0.10566000000E+00 0.  1.
     999900   -1    0    0    0    0 -0.00000000000E+00 -0.00000000000E+00 -0.74505805969E-08  0.93827000000E+00  0.93827000000E+00 0. -1.
     999902    2    1    2    0    0  0.12874041528E-01  0.13843470465E-01 -0.14467284031E-01  0.10201248550E+01  0.10198470645E+01 0.  0.
     999903    2    3    3    0    0 -0.49275782185E-02 -0.12039761457E+00  0.39013428731E-01  0.12816198965E+00  0.19585232909E-01 0.  0.
         14    1    1    2    0    0 -0.12874041528E-01 -0.13843470465E-01  0.14467284031E-01  0.23805144970E-01  0.00000000000E+00 0.  1.
     999901    1    3    3    0    0  0.17801619747E-01  0.13424108504E+00 -0.53480712762E-01  0.89196286538E+00  0.88000000000E+00 0. -1.
        -11    1    4    4    0    0 -0.62363007900E-02 -0.54480642900E-01  0.84331881065E-02  0.55483436096E-01  0.51100000000E-03 0.  1.
         11    1    4    4    0    0  0.13087225716E-02 -0.65916971673E-01  0.30580240625E-01  0.72678553555E-01  0.51100000000E-03 0. -1.
</event>
<event>
 8    1  0.1104109E+005  0.1043930E+01  0.7957747E-01            NaN
         13   -1    0    0    0    0  0.00000000000E+00  0.00000000000E+00  0.74505805969E-08  0.10566000000E+00  0.10566000000E+00 0. -1.
     999900   -1    0    0    0    0 -0.00000000000E+00 -0.00000000000E+00 -0.74505805969E-08  0.93827000000E+00  0.93827000000E+00 0.  1.
     999902    2    1    2    0    0 -0.14596877407E-01  0.14928313577E-01  0.95435823165E-02  0.10209734467E+01  0.10207153254E+01 0.  0.
     999903    2    3    3    0    0 -0.50079163198E-01 -0.49602069924E-02 -0.11906893482E+00  0.13069499283E+00  0.19267684633E-01 0.  0.
         14    1    1    2    0    0  0.14596877407E-01 -0.14928313577E-01 -0.95435823165E-02  0.22956553307E-01  0.00000000000E+00 0. -1.
     999901    1    3    3    0    0  0.35482285790E-01  0.19888520570E-01  0.12861251713E+00  0.89027845387E+00  0.88000000000E+00 0. -1.
        -11    1    4    4    0    0 -0.35517898775E-01  0.28992105212E-02 -0.64763234335E-01  0.73922014296E-01  0.51100000000E-03 0. -1.
         11    1    4    4    0    0 -0.14561264423E-01 -0.78594175136E-02 -0.54305700483E-01  0.56772978531E-01  0.51100000000E-03 0.  1.
</event>
<event>
 8    1  0.1104109E+005  0.1043930E+01  0.7957747E-01            NaN
         13   -1    0    0    0    0  0.00000000000E+00  0.00000000000E+00  0.74505805969E-08  0.10566000000E+00  0.10566000000E+00 0.  1.
     999900   -1    0    0    0    0 -0.00000000000E+00 -0.00000000000E+00 -0.74505805969E-08  0.93827000000E+00  0.93827000000E+00 0. -1.
     999902    2    1    2    0    0 -0.21222152107E-01 -0.10613848710E-01  0.29782213042E-02  0.10200154997E+01  0.10197351206E+01 0.  0.
     999903    2    3    3    0    0  0.85828605163E-01  0.85550377342E-01 -0.33637139092E-01  0.12757608568E+00  0.21419243304E-01 0.  0.
         14    1    1    2    0    0  0.21222152107E-01  0.10613848710E-01 -0.29782213042E-02  0.23914500342E-01  0.00000000000E+00 0.  1.
     999901    1    3    3    0    0 -0.10705075727E+00 -0.96164226052E-01  0.36615360396E-01  0.89243941398E+00  0.88000000000E+00 0.  1.
        -11    1    4    4    0    0  0.55307509652E-01  0.66303100441E-01 -0.29540764760E-01  0.91257545746E-01  0.51100000000E-03 0. -1.
         11    1    4    4    0    0  0.30521095511E-01  0.19247276901E-01 -0.40963743319E-02  0.36318539934E-01  0.51100000000E-03 0.  1.
</event>
<event>
 8    1  0.1104109E+005  0.1043930E+01  0.7957747E-01            NaN
         13   -1    0    0    0    0  0.00000000000E+00  0.00000000000E+00  0.74505805969E-08  0.10566000000E+00  0.10566000000E+00 0. -1.
     999900   -1    0    0    0    0 -0.00000000000E+00 -0.00000000000E+00 -0.74505805969E-08  0.93827000000E+00  0.93827000000E+00 0. -1.
     999902    2    1    2    0    0 -0.16948180662E-02  0.46167087322E-02  0.23129956095E-01  0.10202829859E+01  0.10200089166E+01 0.  0.
     999903    2    3    3    0    0  0.87777807005E-01  0.11376299308E-01 -0.91078648537E-01  0.12837791914E+00  0.18740499336E-01 0.  0.
         14    1    1    2    0    0  0.16948180662E-02 -0.46167087322E-02 -0.23129956095E-01  0.23647014119E-01  0.00000000000E+00 0.  1.
     999901    1    3    3    0    0 -0.89472625071E-01 -0.67595905756E-02  0.11420860463E+00  0.89190506674E+00  0.88000000000E+00 0.  1.
        -11    1    4    4    0    0  0.40366592410E-01  0.14350078385E-01 -0.46530924943E-01  0.63251676891E-01  0.51100000000E-03 0.  1.
         11    1    4    4    0    0  0.47411214595E-01 -0.29737790769E-02 -0.44547723595E-01  0.65126242252E-01  0.51100000000E-03 0. -1.
</event>
<event>
 8    1  0.1104109E+005  0.1043930E+01  0.7957747E-01            NaN
         13   -1    0    0    0    0  0.00000000000E+00  0.00000000000E+00  0.74505805969E-08  0.10566000000E+00  0.10566000000E+00 0. -1.
     999900   -1    0    0    0    0 -0.00000000000E+00 -0.00000000000E+00 -0.74505805969E-08  0.93827000000E+00  0.93827000000E+00 0.  1.
     999902    2    1    2    0    0 -0.10943641700E-01  0.19642474229E-01 -0.10099093558E-01  0.10192808260E+01  0.10189827381E+01 0.  0.
     999903    2    3    3    0    0 -0.48614086765E-01  0.28820226894E-02 -0.12034454377E+00  0.13144410991E+00  0.20569621478E-01 0.  0.
         14    1    1    2    0    0  0.10943641700E-01 -0.19642474229E-01  0.10099093558E-01  0.24649173986E-01  0.00000000000E+00 0.  1.
     999901    1    3    3    0    0  0.37670445065E-01  0.16760451540E-01  0.11024545021E+00  0.88783671610E+00  0.88000000000E+00 0. -1.
        -11    1    4    4    0    0 -0.29254780784E-01 -0.67832248642E-02 -0.83177543869E-01  0.88434265211E-01  0.51100000000E-03 0. -1.
         11    1    4    4    0    0 -0.19359305981E-01  0.96652475536E-02 -0.37166999903E-01  0.43009844700E-01  0.51100000000E-03 0.  1.
</event>
<event>
 8    1  0.1104109E+005  0.1043930E+01  0.7957747E-01            NaN
         13   -1    0    0    0    0  0.00000000000E+00  0.00000000000E+00  0.74505805969E-08  0.10566000000E+00  0.10566000000E+00 0. -1.
     999900   -1    0    0    0    0 -0.00000000000E+00 -0.00000000000E+00 -0.74505805969E-08  0.93827000000E+00  0.93827000000E+00 0.  1.
     999902    2    1    2    0    0 -0.96692602480E-02  0.20085832759E-01 -0.61049082052E-02  0.10208171210E+01  0.10205554318E+01 0.  0.
     999903    2    3    3    0    0 -0.35229934796E-01  0.25204938328E-01  0.12248343334E+00  0.13108990724E+00  0.17491001003E-01 0.  0.
         14    1    1    2    0    0  0.96692602480E-02 -0.20085832759E-01  0.61049082052E-02  0.23112878998E-01  0.00000000000E+00 0.  1.
     999901    1    3    3    0    0  0.25560674548E-01 -0.51191055691E-02 -0.12858834154E+00  0.88972721376E+00  0.88000000000E+00 0.  1.
        -11    1    4    4    0    0 -0.14383204534E-01  0.45305089606E-02  0.24245167338E-01  0.28556809071E-01  0.51100000000E-03 0.  1.
         11    1    4    4    0    0 -0.20846730262E-01  0.20674429368E-01  0.98238266002E-01  0.10253309817E+00  0.51100000000E-03 0. -1.
</event>
<event>
 8    1  0.1104109E+005  0.1043930E+01  0.7957747E-01            NaN
         13   -1    0    0    0    0  0.00000000000E+00  0.00000000000E+00  0.74505805969E-08  0.10566000000E+00  0.10566000000E+00 0. -1.
     999900   -1    0    0    0    0 -0.00000000000E+00 -0.00000000000E+00 -0.74505805969E-08  0.93827000000E+00  0.93827000000E+00 0. -1.
     999902    2    1    2    0    0  0.62216528245E-02 -0.23106787548E-01 -0.69762114914E-02  0.10190041074E+01  0.10186992053E+01 0.  0.
     999903    2    3    3    0    0 -0.13522110531E-01 -0.11626338044E+00  0.56546117729E-01  0.13159041961E+00  0.20458592238E-01 0.  0.
         14    1    1    2    0    0 -0.62216528245E-02  0.23106787548E-01  0.69762114914E-02  0.24925892591E-01  0.00000000000E+00 0. -1.
     999901    1    3    3    0    0  0.19743763355E-01  0.93156592895E-01 -0.63522329221E-01  0.88741368780E+00  0.88000000000E+00 0. -1.
        -11    1    4    4    0    0  0.44325574211E-03 -0.72416408848E-01  0.39673979795E-01  0.82574926824E-01  0.51100000000E-03 0.  1.
         11    1    4    4    0    0 -0.13965366273E-01 -0.43846971595E-01  0.16872137935E-01  0.49015492782E-01  0.51100000000E-03 0. -1.
</event>
<event>
 8    1  0.1104109E+005  0.1043930E+01  0.7957747E-01            NaN
         13   -1    0    0    0    0  0.00000000000E+00  0.00000000000E+00  0.74505805969E-08  0.10566000000E+00  0.10566000000E+00 0.  1.
     999900   -1    0    0    0    0 -0.00000000000E+00 -0.00000000000E+00 -0.74505805969E-08  0.93827000000E+00  0.93827000000E+00 0.  1.
     999902    2    1    2    0    0 -0.14349611763E-01  0.62307316250E-02 -0.17787185173E-01  0.10202420847E+01  0.10199670554E+01 0.  0.
     999903    2    3    3    0    0  0.62959745628E-01  0.11040455457E+00 -0.23677830770E-01  0.13071208419E+00  0.19285073083E-01 0.  0.
         14    1    1    2    0    0  0.14349611763E-01 -0.62307316250E-02  0.17787185173E-01  0.23687915289E-01  0.00000000000E+00 0. -1.
     999901    1    3    3    0    0 -0.77309357392E-01 -0.10417382294E+00  0.58906455973E-02  0.88953000052E+00  0.88000000000E+00 0.  1.
        -11    1    4    4    0    0  0.49419620778E-01  0.84405839004E-01 -0.98754306712E-02  0.98307831976E-01  0.51100000000E-03 0. -1.
         11    1    4    4    0    0  0.13540124850E-01  0.25998715564E-01 -0.13802400099E-01  0.32404252212E-01  0.51100000000E-03 0.  1.
</event>
<event>
 8    1  0.1104109E+005  0.1043930E+01  0.7957747E-01            NaN
         13   -1    0    0    0    0  0.00000000000E+00  0.00000000000E+00  0.74505805969E-08  0.10566000000E+00  0.10566000000E+00 0.  1.
     999900   -1    0    0    0    0 -0.00000000000E+00 -0.00000000000E+00 -0.74505805969E-08  0.93827000000E+00  0.93827000000E+00 0. -1.
     999902    2    1    2    0    0 -0.19956674755E-02  0.23324502507E-01 -0.77458958106E-03  0.10205074661E+01  0.10202386354E+01 0.  0.
     999903    2    3    3    0    0 -0.11365267370E+00  0.64252098489E-01  0.38609701126E-03  0.13250763369E+00  0.22646445955E-01 0.  0.
         14    1    1    2    0    0  0.19956674755E-02 -0.23324502507E-01  0.77458958106E-03  0.23422533913E-01  0.00000000000E+00 0. -1.
     999901    1    3    3    0    0  0.11165700622E+00 -0.40927595982E-01 -0.11606865923E-02  0.88799983240E+00  0.88000000000E+00 0. -1.
        -11    1    4    4    0    0 -0.59456082666E-01  0.21598754296E-01 -0.40968607253E-02  0.63392249857E-01  0.51100000000E-03 0. -1.
         11    1    4    4    0    0 -0.54196591034E-01  0.42653344194E-01  0.44829577365E-02  0.69115383828E-01  0.51100000000E-03 0.  1.
</event>
<event>
 8    1  0.1104109E+005  0.1043930E+01  0.7957747E-01            NaN
         13   -1    0    0    0    0  0.00000000000E+00  0.00000000000E+00  0.74505805969E-08  0.10566000000E+00  0.10566000000E+00 0. -1.
     999900   -1    0    0    0    0 -0.00000000000E+00 -0.00000000000E+00 -0.74505805969E-08  0.93827000000E+00  0.93827000000E+00 0.  1.
     999902    2    1    2    0    0  0.18725152632E-01 -0.14234309817E-01  0.10730438657E-01  0.10180767752E+01  0.10177484616E+01 0.  0.
     999903    2    3    3    0    0 -0.22826822543E-01  0.12267734202E+00  0.53612916659E-02  0.12650501997E+00  0.20099317269E-01 0.  0.
         14    1    1    2    0    0 -0.18725152632E-01  0.14234309817E-01 -0.10730438657E-01  0.25853224767E-01  0.00000000000E+00 0.  1.
     999901    1    3    3    0    0  0.41551975175E-01 -0.13691165184E+00  0.53691469907E-02  0.89157175527E+00  0.88000000000E+00 0. -1.
        -11    1    4    4    0    0 -0.22808907687E-01  0.85774098792E-01  0.99570655741E-02  0.89313193702E-01  0.51100000000E-03 0.  1.
         11    1    4    4    0    0 -0.17914856051E-04  0.36903243232E-01 -0.45957739082E-02  0.37191826264E-01  0.51100000000E-03 0. -1.
</event>
<event>
 8    1  0.1104109E+005  0.1043930E+01  0.7957747E-01            NaN
         13   -1    0    0    0    0  0.00000000000E+00  0.00000000000E+00  0.74505805969E-08  0.10566000000E+00  0.10566000000E+00 0.  1.
     999900   -1    0    0    0    0 -0.00000000000E+00 -0.00000000000E+00 -0.74505805969E-08  0.93827000000E+00  0.93827000000E+00 0.  1.
     999902    2    1    2    0    0 -0.13117150151E-01  0.43007669321E-02 -0.18470843561E-01  0.10208707657E+01  0.10206103037E+01 0.  0.
     999903    2    3    3    0    0 -0.22631439713E-01  0.91252086656E-01  0.88072531731E-01  0.13013929971E+00  0.18448335964E-01 0.  0.
         14    1    1    2    0    0  0.13117150151E-01 -0.43007669321E-02  0.18470843561E-01  0.23059234292E-01  0.00000000000E+00 0.  1.
     999901    1    3    3    0    0  0.95142895627E-02 -0.86951319724E-01 -0.10654337529E+00  0.89073146600E+00  0.88000000000E+00 0.  1.
        -11    1    4    4    0    0 -0.18693336411E-01  0.57532507077E-01  0.66565615129E-01  0.89948165269E-01  0.51100000000E-03 0.  1.
         11    1    4    4    0    0 -0.39381033026E-02  0.33719579579E-01  0.21506916601E-01  0.40191134437E-01  0.51100000000E-03 0. -1.
</event>
<event>
 8    1  0.1104109E+005  0.1043930E+01  0.7957747E-01            NaN
         13   -1    0    0    0    0  0.00000000000E+00  0.00000000000E+00  0.74505805969E-08  0.10566000000E+00  0.10566000000E+00 0. -1.
     999900   -1    0    0    0    0 -0.00000000000E+00 -0.00000000000E+00 -0.74505805969E-08  0.93827000000E+00  0.93827000000E+00 0.  1.
     999902    2    1    2    0    0 -0.18100590725E-01  0.59381141724E-02  0.15644730363E-01  0.10192794387E+01  0.10189813168E+01 0.  0.
     999903    2    3    3    0    0 -0.33947308570E-01  0.12508763436E+00 -0.36634168385E-03  0.13096413372E+00  0.18765236055E-01 0.  0.
         14    1    1    2    0    0  0.18100590725E-01 -0.59381141724E-02 -0.15644730363E-01  0.24650561305E-01  0.00000000000E+00 0.  1.
     999901    1    3    3    0    0  0.15846717845E-01 -0.11914952019E+00  0.16011072047E-01  0.88831530498E+00  0.88000000000E+00 0. -1.
        -11    1    4    4    0    0 -0.28479581512E-01  0.10727933146E+00 -0.69140271065E-02  0.11121153903E+00  0.51100000000E-03 0. -1.
         11    1    4    4    0    0 -0.54677270578E-02  0.17808302909E-01  0.65476854226E-02  0.19752594692E-01  0.51100000000E-03 0.  1.
</event>
<event>
 8    1  0.1104109E+005  0.1043930E+01  0.7957747E-01            NaN
         13   -1    0    0    0    0  0.00000000000E+00  0.00000000000E+00  0.74505805969E-08  0.10566000000E+00  0.10566000000E+00 0.  1.
     999900   -1    0    0    0    0 -0.00000000000E+00 -0.00000000000E+00 -0.74505805969E-08  0.93827000000E+00  0.93827000000E+00 0.  1.
     999902    2    1    2    0    0 -0.59947874562E-02  0.11755152429E-01 -0.21096005630E-01  0.10190470231E+01  0.10187431829E+01 0.  0.
     999903    2    3    3    0    0  0.10689490104E+00  0.32328920726E-01 -0.64863936236E-01  0.13051846788E+00  0.18869585331E-01 0.  0.
         14    1    1    2    0    0  0.59947874562E-02 -0.11755152429E-01  0.21096005630E-01  0.24882976888E-01  0.00000000000E+00 0.  1.
     999901    1    3    3    0    0 -0.11288968850E+00 -0.20573768297E-01  0.43767930606E-01  0.88852855523E+00  0.88000000000E+00 0. -1.
        -11    1    4    4    0    0  0.37121644918E-01  0.18908303997E-01 -0.17894493686E-01  0.45343296161E-01  0.51100000000E-03 0. -1.
         11    1    4    4    0    0  0.69773256122E-01  0.13420616729E-01 -0.46969442550E-01  0.85175171721E-01  0.51100000000E-03 0.  1.
</event>
<event>
 8    1  0.1104109E+005  0.1043930E+01  0.7957747E-01            NaN
         13   -1    0    0    0    0  0.00000000000E+00  0.00000000000E+00  0.74505805969E-08  0.10566000000E+00  0.10566000000E+00 0.  1.
     999900   -1    0    0    0    0 -0.00000000000E+00 -0.00000000000E+00 -0.74505805969E-08  0.93827000000E+00  0.93827000000E+00 0. -1.
     999902    2    1    2    0    0 -0.83539511437E-02 -0.19945200779E-01  0.96174800547E-02  0.10202636641E+01  0.10199891415E+01 0.  0.
     999903    2    3    3    0    0 -0.52261093465E-01  0.81450771927E-01  0.84605026340E-01  0.13018944664E+00  0.20635682630E-01 0.  0.
         14    1    1    2    0    0  0.83539511437E-02  0.19945200779E-01 -0.96174800547E-02  0.23666335931E-01  0.00000000000E+00 0.  1.
     999901    1    3    3    0    0  0.43907142321E-01 -0.10139597271E+00 -0.74987546285E-01  0.89007421743E+00  0.88000000000E+00 0. -1.
        -11    1    4    4    0    0 -0.41071927516E-01  0.45523855629E-01  0.52917916579E-01  0.80993158213E-01  0.51100000000E-03 0. -1.
         11    1    4    4    0    0 -0.11189165949E-01  0.35926916298E-01  0.31687109761E-01  0.49196288430E-01  0.51100000000E-03 0.  1.
</event>
<event>
 8    1  0.1104109E+005  0.1043930E+01  0.7957747E-01            NaN
         13   -1    0    0    0    0  0.00000000000E+00  0.00000000000E+00  0.74505805969E-08  0.10566000000E+00  0.10566000000E+00 0.  1.
     999900   -1    0    0    0    0 -0.00000000000E+00 -0.00000000000E+00 -0.74505805969E-08  0.93827000000E+00  0.93827000000E+00 0. -1.
     999902    2    1    2    0    0  0.82560544937E-02 -0.17609891065E-01 -0.87239307011E-02  0.10226138637E+01  0.10223916748E+01 0.  0.
     999903    2    3    3    0    0 -0.10428598881E+00 -0.22064719096E-02  0.77162997667E-01  0.13116586114E+00  0.19233276898E-01 0.  0.
         14    1    1    2    0    0 -0.82560544937E-02  0.17609891065E-01  0.87239307011E-02  0.21316136282E-01  0.00000000000E+00 0.  1.
     999901    1    3    3    0    0  0.11254204330E+00 -0.15403419156E-01 -0.85886928368E-01  0.89144800258E+00  0.88000000000E+00 0. -1.
        -11    1    4    4    0    0 -0.39980610159E-01  0.77974370183E-02  0.25369836940E-01  0.47991029996E-01  0.51100000000E-03 0.  1.
         11    1    4    4    0    0 -0.64305378648E-01 -0.10003908928E-01  0.51793160727E-01  0.83174831145E-01  0.51100000000E-03 0. -1.
</event>
<event>
 8    1  0.1104109E+005  0.1043930E+01  0.7957747E-01            NaN
         13   -1    0    0    0    0  0.00000000000E+00  0.00000000000E+00  0.74505805969E-08  0.10566000000E+00  0.10566000000E+00 0.  1.
     999900   -1    0    0    0    0 -0.00000000000E+00 -0.00000000000E+00 -0.74505805969E-08  0.93827000000E+00  0.93827000000E+00 0. -1.
     999902    2    1    2    0    0  0.53345848280E-02  0.18564345006E-01 -0.13640307616E-01  0.10202836326E+01  0.10200095785E+01 0.  0.
     999903    2    3    3    0    0  0.32987593988E-01 -0.11928559599E+00  0.26886914683E-01  0.12820193738E+00  0.19889590173E-01 0.  0.
         14    1    1    2    0    0 -0.53345848280E-02 -0.18564345006E-01  0.13640307616E-01  0.23646367431E-01  0.00000000000E+00 0.  1.
     999901    1    3    3    0    0 -0.27653009160E-01  0.13784994100E+00 -0.40527222300E-01  0.89208169519E+00  0.88000000000E+00 0. -1.
        -11    1    4    4    0    0  0.27104672233E-01 -0.99267181572E-01  0.14465567830E-01  0.10391414903E+00  0.51100000000E-03 0. -1.
         11    1    4    4    0    0  0.58829217557E-02 -0.20018414422E-01  0.12421346853E-01  0.24287788352E-01  0.51100000000E-03 0.  1.
</event>
<event>
 8    1  0.1104109E+005  0.1043930E+01  0.7957747E-01            NaN
         13   -1    0    0    0    0  0.00000000000E+00  0.00000000000E+00  0.74505805969E-08  0.10566000000E+00  0.10566000000E+00 0.  1.
     999900   -1    0    0    0    0 -0.00000000000E+00 -0.00000000000E+00 -0.74505805969E-08  0.93827000000E+00  0.93827000000E+00 0. -1.
     999902    2    1    2    0    0 -0.64962823995E-02 -0.15374832802E-01 -0.23750976406E-01  0.10149007725E+01  0.10144855258E+01 0.  0.
     999903    2    3    3    0    0 -0.90522065567E-01  0.41067207328E-01  0.71403644929E-01  0.12400210369E+00  0.19931917586E-01 0.  0.
         14    1    1    2    0    0  0.64962823995E-02  0.15374832802E-01  0.23750976406E-01  0.29029227495E-01  0.00000000000E+00 0.  1.
     999901    1    3    3    0    0  0.84025783167E-01 -0.56442040130E-01 -0.95154621335E-01  0.89089866881E+00  0.88000000000E+00 0. -1.
        -11    1    4    4    0    0 -0.48466782317E-01  0.12226214538E-01  0.29874635107E-01  0.58234562365E-01  0.51100000000E-03 0. -1.
         11    1    4    4    0    0 -0.42055283250E-01  0.28840992791E-01  0.41529009822E-01  0.65767541327E-01  0.51100000000E-03 0.  1.
</event>
<event>
 8    1  0.1104109E+005  0.1043930E+01  0.7957747E-01            NaN
         13   -1    0    0    0    0  0.00000000000E+00  0.00000000000E+00  0.74505805969E-08  0.10566000000E+00  0.10566000000E+00 0. -1.
     999900   -1    0    0    0    0 -0.00000000000E+00 -0.00000000000E+00 -0.74505805969E-08  0.93827000000E+00  0.93827000000E+00 0.  1.
     999902    2    1    2    0    0  0.23432388926E-01  0.50905813027E-02  0.14813689906E-02  0.10199053185E+01  0.10196223190E+01 0.  0.
     999903    2    3    3    0    0 -0.92124200017E-01 -0.85050859191E-01 -0.14003464004E-01  0.12765054286E+00  0.19443436160E-01 0.  0.
         14    1    1    2    0    0 -0.23432388926E-01 -0.50905813027E-02 -0.14813689906E-02  0.24024681535E-01  0.00000000000E+00 0.  1.
     999901    1    3    3    0    0  0.11555658894E+00  0.90141440494E-01  0.15484832994E-01  0.89225477561E+00  0.88000000000E+00 0.  1.
        -11    1    4    4    0    0 -0.42544347158E-01 -0.51566612631E-01 -0.10935441116E-01  0.67742025411E-01  0.51100000000E-03 0. -1.
         11    1    4    4    0    0 -0.49579852859E-01 -0.33484246561E-01 -0.30680228882E-02  0.59908517447E-01  0.51100000000E-03 0.  1.
</event>
<event>
 8    1  0.1104109E+005  0.1043930E+01  0.7957747E-01            NaN
         13   -1    0    0    0    0  0.00000000000E+00  0.00000000000E+00  0.74505805969E-08  0.10566000000E+00  0.10566000000E+00 0. -1.
     999900   -1    0    0    0    0 -0.00000000000E+00 -0.00000000000E+00 -0.74505805969E-08  0.93827000000E+00  0.93827000000E+00 0.  1.
     999902    2    1    2    0    0  0.26220342101E-01  0.94728238407E-02  0.89973330665E-02  0.10146350732E+01  0.10142120780E+01 0.  0.
     999903    2    3    3    0    0  0.55379867438E-01  0.37226189174E-01 -0.10520391010E+00  0.12634320052E+00  0.21024336833E-01 0.  0.
         14    1    1    2    0    0 -0.26220342101E-01 -0.94728238407E-02 -0.89973330665E-02  0.29294926758E-01  0.00000000000E+00 0.  1.
     999901    1    3    3    0    0 -0.29159525337E-01 -0.27753365333E-01  0.11420124317E+00  0.88829187272E+00  0.88000000000E+00 0. -1.
        -11    1    4    4    0    0  0.42648177102E-02 -0.21442643330E-02 -0.12551742725E-01  0.13438523210E-01  0.51100000000E-03 0.  1.
         11    1    4    4    0    0  0.51115049728E-01  0.39370453507E-01 -0.92652167375E-01  0.11290467731E+00  0.51100000000E-03 0. -1.
</event>
<event>
 8    1  0.1104109E+005  0.1043930E+01  0.7957747E-01            NaN
         13   -1    0    0    0    0  0.00000000000E+00  0.00000000000E+00  0.74505805969E-08  0.10566000000E+00  0.10566000000E+00 0.  1.
     999900   -1    0    0    0    0 -0.00000000000E+00 -0.00000000000E+00 -0.74505805969E-08  0.93827000000E+00  0.93827000000E+00 0. -1.
     999902    2    1    2    0    0 -0.21035750777E-01 -0.99148674086E-02  0.60648623485E-02  0.10198968986E+01  0.10196136983E+01 0.  0.
     999903    2    3    3    0    0 -0.59680074383E-01 -0.11633156680E+00  0.91529113169E-02  0.13263851816E+00  0.20358192494E-01 0.  0.
         14    1    1    2    0    0  0.21035750777E-01  0.99148674086E-02 -0.60648623485E-02  0.24033101377E-01  0.00000000000E+00 0. -1.
     999901    1    3    3    0    0  0.38644323606E-01  0.10641669939E+00 -0.30880489685E-02  0.88725838046E+00  0.88000000000E+00 0. -1.
        -11    1    4    4    0    0 -0.15953508518E-01 -0.52903002663E-01  0.50135400372E-02  0.55485483052E-01  0.51100000000E-03 0.  1.
         11    1    4    4    0    0 -0.43726565865E-01 -0.63428564137E-01  0.41393712797E-02  0.77153035108E-01  0.51100000000E-03 0. -1.
</event>
<event>
 8    1  0.1104109E+005  0.1043930E+01  0.7957747E-01            NaN
         13   -1    0    0    0    0  0.00000000000E+00  0.00000000000E+00  0.74505805969E-08  0.10566000000E+00  0.10566000000E+00 0.  1.
     999900   -1    0    0    0    0 -0.00000000000E+00 -0.00000000000E+00 -0.74505805969E-08  0.93827000000E+00  0.93827000000E+00 0. -1.
     999902    2    1    2    0    0  0.98987175456E-02 -0.17718113870E-01  0.92395975896E-02  0.10216300822E+01  0.10213866744E+01 0.  0.
     999903    2    3    3    0    0  0.41547662025E-01 -0.12561738740E+00 -0.10838846958E-01  0.13424794762E+00  0.19977352216E-01 0.  0.
         14    1    1    2    0    0 -0.98987175456E-02  0.17718113870E-01 -0.92395975896E-02  0.22299917753E-01  0.00000000000E+00 0. -1.
     999901    1    3    3    0    0 -0.31648944480E-01  0.10789927353E+00  0.20078444547E-01  0.88738213462E+00  0.88000000000E+00 0. -1.
        -11    1    4    4    0    0  0.31075733486E-01 -0.88372207084E-01 -0.16572144281E-01  0.95132777126E-01  0.51100000000E-03 0. -1.
         11    1    4    4    0    0  0.10471928539E-01 -0.37245180313E-01  0.57332973233E-02  0.39115170498E-01  0.51100000000E-03 0.  1.
</event>
<event>
 8    1  0.1104109E+005  0.1043930E+01  0.7957747E-01            NaN
         13   -1    0    0    0    0  0.00000000000E+00  0.00000000000E+00  0.74505805969E-08  0.10566000000E+00  0.10566000000E+00 0.  1.
     999900   -1    0    0    0    0 -0.00000000000E+00 -0.00000000000E+00 -0.74505805969E-08  0.93827000000E+00  0.93827000000E+00 0. -1.
     999902    2    1    2    0    0 -0.23447355474E-01 -0.97380648578E-03  0.47167486734E-02  0.10199931143E+01  0.10197122039E+01 0.  0.
     999903    2    3    3    0    0 -0.59453491484E-01  0.10504493451E+00 -0.48566130860E-01  0.13129998364E+00  0.17659578734E-01 0.  0.
         14    1    1    2    0    0  0.23447355474E-01  0.97380648578E-03 -0.47167486734E-02  0.23936885676E-01  0.00000000000E+00 0. -1.
     999901    1    3    3    0    0  0.36006136009E-01 -0.10601874100E+00  0.53282879533E-01  0.88869313068E+00  0.88000000000E+00 0.  1.
        -11    1    4    4    0    0 -0.29712527145E-01  0.36941179203E-01 -0.23125934627E-01  0.52749928566E-01  0.51100000000E-03 0.  1.
         11    1    4    4    0    0 -0.29740964339E-01  0.68103755308E-01 -0.25440196232E-01  0.78550055075E-01  0.51100000000E-03 0. -1.
</event>
<event>
 8    1  0.1104109E+005  0.1043930E+01  0.7957747E-01            NaN
         13   -1    0    0    0    0  0.00000000000E+00  0.00000000000E+00  0.74505805969E-08  0.10566000000E+00  0.10566000000E+00 0. -1.
     999900   -1    0    0    0    0 -0.00000000000E+00 -0.00000000000E+00 -0.74505805969E-08  0.93827000000E+00  0.93827000000E+00 0.  1.
     999902    2    1    2    0    0 -0.58768772007E-02 -0.15170965337E-01  0.17626807740E-01  0.10199424985E+01  0.10196603847E+01 0.  0.
     999903    2    3    3    0    0 -0.39268989196E-01 -0.11036304126E+00 -0.55664739280E-01  0.13115218845E+00  0.19500742177E-01 0.  0.
         14    1    1    2    0    0  0.58768772007E-02  0.15170965337E-01 -0.17626807740E-01  0.23987501454E-01  0.00000000000E+00 0.  1.
     999901    1    3    3    0    0  0.33392111995E-01  0.95192075928E-01  0.73291547021E-01  0.88879031010E+00  0.88000000000E+00 0.  1.
        -11    1    4    4    0    0 -0.22478136030E-02 -0.31128987658E-01 -0.16795462050E-01  0.35445947654E-01  0.51100000000E-03 0.  1.
         11    1    4    4    0    0 -0.37021175593E-01 -0.79234053607E-01 -0.38869277230E-01  0.95706240793E-01  0.51100000000E-03 0. -1.
</event>
<event>
 8    1  0.1104109E+005  0.1043930E+01  0.7957747E-01            NaN
         13   -1    0    0    0    0  0.00000000000E+00  0.00000000000E+00  0.74505805969E-08  0.10566000000E+00  0.10566000000E+00 0.  1.
     999900   -1    0    0    0    0 -0.00000000000E+00 -0.00000000000E+00 -0.74505805969E-08  0.93827000000E+00  0.93827000000E+00 0. -1.
     999902    2    1    2    0    0  0.13569435719E-01  0.20349296828E-02 -0.18918174145E-01  0.10205597660E+01  0.10202921484E+01 0.  0.
     999903    2    3    3    0    0 -0.78368083879E-01 -0.99451674593E-01 -0.17856208509E-01  0.12996829617E+00  0.23253422887E-01 0.  0.
         14    1    1    2    0    0 -0.13569435719E-01 -0.20349296828E-02  0.18918174145E-01  0.23370234006E-01  0.00000000000E+00 0.  1.
     999901    1    3    3    0    0  0.91937519598E-01  0.10148660428E+00 -0.10619656363E-02  0.89059146983E+00  0.88000000000E+00 0.  1.
        -11    1    4    4    0    0 -0.66623383613E-01 -0.76499927214E-01 -0.61027586304E-02  0.10162882904E+00  0.51100000000E-03 0. -1.
         11    1    4    4    0    0 -0.11744700266E-01 -0.22951747379E-01 -0.11753449878E-01  0.28339467128E-01  0.51100000000E-03 0.  1.
</event>
<event>
 8    1  0.1104109E+005  0.1043930E+01  0.7957747E-01            NaN
         13   -1    0    0    0    0  0.00000000000E+00  0.00000000000E+00  0.74505805969E-08  0.10566000000E+00  0.10566000000E+00 0.  1.
     999900   -1    0    0    0    0 -0.00000000000E+00 -0.00000000000E+00 -0.74505805969E-08  0.93827000000E+00  0.93827000000E+00 0. -1.
     999902    2    1    2    0    0  0.93830477232E-02  0.10667263235E-01  0.12420493776E-01  0.10250593679E+01  0.10248856556E+01 0.  0.
     999903    2    3    3    0    0 -0.10775401003E+00 -0.33307933006E-01 -0.67067957486E-01  0.13266185444E+00  0.19511832864E-01 0.  0.
         14    1    1    2    0    0 -0.93830477232E-02 -0.10667263235E-01 -0.12420493776E-01  0.18870632081E-01  0.00000000000E+00 0. -1.
     999901    1    3    3    0    0  0.11713705776E+00  0.43975196241E-01  0.79488451261E-01  0.89239751348E+00  0.88000000000E+00 0.  1.
        -11    1    4    4    0    0 -0.37279987814E-01 -0.15087104381E-01 -0.34188155738E-01  0.52787397395E-01  0.51100000000E-03 0. -1.
         11    1    4    4    0    0 -0.70474022221E-01 -0.18220828625E-01 -0.32879801747E-01  0.79874457042E-01  0.51100000000E-03 0.  1.
</event>
<event>
 8    1  0.1104109E+005  0.1043930E+01  0.7957747E-01            NaN
         13   -1    0    0    0    0  0.00000000000E+00  0.00000000000E+00  0.74505805969E-08  0.10566000000E+00  0.10566000000E+00 0.  1.
     999900   -1    0    0    0    0 -0.00000000000E+00 -0.00000000000E+00 -0.74505805969E-08  0.93827000000E+00  0.93827000000E+00 0.  1.
     999902    2    1    2    0    0 -0.18432544451E-01 -0.71603762940E-02  0.69246975666E-02  0.10229781237E+01  0.10227635408E+01 0.  0.
     999903    2    3    3    0    0 -0.11700966892E+00 -0.60396125568E-01  0.24977559071E-01  0.13569158585E+00  0.21198429369E-01 0.  0.
         14    1    1    2    0    0  0.18432544451E-01  0.71603762940E-02 -0.69246975666E-02  0.20951876289E-01  0.00000000000E+00 0. -1.
     999901    1    3    3    0    0  0.98577124469E-01  0.53235749274E-01 -0.18052861505E-01  0.88728653787E+00  0.88000000000E+00 0.  1.
        -11    1    4    4    0    0 -0.82704945986E-01 -0.52633903408E-01  0.15409460619E-01  0.99237837925E-01  0.51100000000E-03 0.  1.
         11    1    4    4    0    0 -0.34304722935E-01 -0.77622221599E-02  0.95680984519E-02  0.36453747921E-01  0.51100000000E-03 0. -1.
</event>
<event>
 7    1  0.1325377E+005  0.1043930E+01  0.7957747E-01            NaN
         13   -1    0    0    0    0  0.00000000000E+00  0.00000000000E+00  0.74505805969E-08  0.10566000000E+00  0.10566000000E+00 0. -1.
     999900   -1    0    0    0    0 -0.00000000000E+00 -0.00000000000E+00 -0.74505805969E-08  0.93827000000E+00  0.93827000000E+00 0. -1.
     999903    2    1    2    0    0  0.33008815199E-02 -0.58278206309E-01  0.91637453221E-01  0.11048435421E+00  0.20053043210E-01 0.  0.
         14    1    1    2    0    0  0.32168000046E-01 -0.29254496319E-01 -0.10139058639E-01  0.44647578792E-01  0.00000000000E+00 0.  1.
     999901    1    1    2    0    0 -0.35468881566E-01  0.87532702628E-01 -0.81498394582E-01  0.88879806700E+00  0.88000000000E+00 0. -1.
        -11    1    3    3    0    0  0.14231104095E-02 -0.49269543640E-01  0.60647904246E-01  0.78153327404E-01  0.51100000000E-03 0.  1.
         11    1    3    3    0    0  0.18777711105E-02 -0.90086626684E-02  0.30989548974E-01  0.32331026802E-01  0.51100000000E-03 0. -1.
</event>
<event>
 8    1  0.1104109E+005  0.1043930E+01  0.7957747E-01            NaN
         13   -1    0    0    0    0  0.00000000000E+00  0.00000000000E+00  0.74505805969E-08  0.10566000000E+00  0.10566000000E+00 0. -1.
     999900   -1    0    0    0    0 -0.00000000000E+00 -0.00000000000E+00 -0.74505805969E-08  0.93827000000E+00  0.93827000000E+00 0.  1.
     999902    2    1    2    0    0  0.20367725991E-01 -0.26638514129E-02  0.10977829359E-01  0.10206393773E+01  0.10203736009E+01 0.  0.
     999903    2    3    3    0    0  0.11763877951E+00 -0.47524822673E-01  0.37258056219E-01  0.13375448350E+00  0.20114867370E-01 0.  0.
         14    1    1    2    0    0 -0.20367725991E-01  0.26638514129E-02 -0.10977829359E-01  0.23290622659E-01  0.00000000000E+00 0. -1.
     999901    1    3    3    0    0 -0.97271053518E-01  0.44860971260E-01 -0.26280226860E-01  0.88688489384E+00  0.88000000000E+00 0.  1.
        -11    1    4    4    0    0  0.41836927565E-01 -0.24312066365E-01  0.69817136529E-02  0.48891824731E-01  0.51100000000E-03 0. -1.
         11    1    4    4    0    0  0.75801851944E-01 -0.23212756308E-01  0.30276342566E-01  0.84862658771E-01  0.51100000000E-03 0.  1.
</event>
<event>
 8    1  0.1104109E+005  0.1043930E+01  0.7957747E-01            NaN
         13   -1    0    0    0    0  0.00000000000E+00  0.00000000000E+00  0.74505805969E-08  0.10566000000E+00  0.10566000000E+00 0. -1.
     999900   -1    0    0    0    0 -0.00000000000E+00 -0.00000000000E+00 -0.74505805969E-08  0.93827000000E+00  0.93827000000E+00 0.  1.
     999902    2    1    2    0    0  0.12051196862E-01  0.77317784738E-02 -0.18706677093E-01  0.10203725911E+01  0.10201006192E+01 0.  0.
     999903    2    3    3    0    0  0.80172542110E-01  0.33055025824E-01  0.94831662877E-01  0.13010704695E+00  0.20359964176E-01 0.  0.
         14    1    1    2    0    0 -0.12051196862E-01 -0.77317784738E-02  0.18706677093E-01  0.23557408857E-01  0.00000000000E+00 0. -1.
     999901    1    3    3    0    0 -0.68121345248E-01 -0.25323247351E-01 -0.11353833997E+00  0.89026554419E+00  0.88000000000E+00 0. -1.
        -11    1    4    4    0    0  0.41127355600E-01  0.27507550996E-01  0.56571305262E-01  0.75157823548E-01  0.51100000000E-03 0.  1.
         11    1    4    4    0    0  0.39045186511E-01  0.55474748283E-02  0.38260357616E-01  0.54949223402E-01  0.51100000000E-03 0. -1.
</event>
<event>
 8    1  0.1104109E+005  0.1043930E+01  0.7957747E-01            NaN
         13   -1    0    0    0    0  0.00000000000E+00  0.00000000000E+00  0.74505805969E-08  0.10566000000E+00  0.10566000000E+00 0.  1.
     999900   -1    0    0    0    0 -0.00000000000E+00 -0.00000000000E+00 -0.74505805969E-08  0.93827000000E+00  0.93827000000E+00 0. -1.
     999902    2    1    2    0    0 -0.31024328435E-03  0.44758647429E-02 -0.21333815080E-01  0.10221295119E+01  0.10218969996E+01 0.  0.
     999903    2    3    3    0    0 -0.51516840767E-01  0.77264717778E-01 -0.95272034367E-01  0.13455574424E+00  0.20116318708E-01 0.  0.
         14    1    1    2    0    0  0.31024328435E-03 -0.44758647429E-02  0.21333815080E-01  0.21800488113E-01  0.00000000000E+00 0.  1.
     999901    1    3    3    0    0  0.51206597483E-01 -0.72788853035E-01  0.73938219287E-01  0.88757376765E+00  0.88000000000E+00 0. -1.
        -11    1    4    4    0    0 -0.11356420021E-01  0.12770622158E-01 -0.29345725645E-01  0.33963065242E-01  0.51100000000E-03 0.  1.
         11    1    4    4    0    0 -0.40160420746E-01  0.64494095620E-01 -0.65926308722E-01  0.10059267899E+00  0.51100000000E-03 0. -1.
</event>
<event>
 8    1  0.1104109E+005  0.1043930E+01  0.7957747E-01            NaN
         13   -1    0    0    0    0  0.00000000000E+00  0.00000000000E+00  0.74505805969E-08  0.10566000000E+00  0.10566000000E+00 0. -1.
     999900   -1    0    0    0    0 -0.00000000000E+00 -0.00000000000E+00 -0.74505805969E-08  0.93827000000E+00  0.93827000000E+00 0.  1.
     999902    2    1    2    0    0  0.78240586257E-02 -0.14752309205E-01 -0.16738971770E-01  0.10202859797E+01  0.10200119806E+01 0.  0.
     999903    2    3    3    0    0 -0.45186743275E-01  0.11754548191E+00 -0.18257417195E-01  0.12881800140E+00  0.20048992893E-01 0.  0.
         14    1    1    2    0    0 -0.78240586257E-02  0.14752309205E-01  0.16738971770E-01  0.23644020305E-01  0.00000000000E+00 0. -1.
     999901    1    3    3    0    0  0.53010801900E-01 -0.13229779112E+00  0.15184454252E-02  0.89146797830E+00  0.88000000000E+00 0. -1.
        -11    1    4    4    0    0 -0.23551701346E-01  0.53945204392E-01  0.11966353105E-02  0.58876657261E-01  0.51100000000E-03 0.  1.
         11    1    4    4    0    0 -0.21635041928E-01  0.63600277520E-01 -0.19454052505E-01  0.69941344137E-01  0.51100000000E-03 0. -1.
</event>
<event>
 8    1  0.1104109E+005  0.1043930E+01  0.7957747E-01            NaN
         13   -1    0    0    0    0  0.00000000000E+00  0.00000000000E+00  0.74505805969E-08  0.10566000000E+00  0.10566000000E+00 0. -1.
     999900   -1    0    0    0    0 -0.00000000000E+00 -0.00000000000E+00 -0.74505805969E-08  0.93827000000E+00  0.93827000000E+00 0.  1.
     999902    2    1    2    0    0 -0.20330236474E-01  0.84857437007E-02  0.23154836272E-02  0.10217785254E+01  0.10215383826E+01 0.  0.
     999903    2    3    3    0    0 -0.12403935969E+00  0.48680854727E-01 -0.29884580228E-02  0.13476141117E+00  0.19902730755E-01 0.  0.
         14    1    1    2    0    0  0.20330236474E-01 -0.84857437007E-02 -0.23154836272E-02  0.22151474571E-01  0.00000000000E+00 0.  1.
     999901    1    3    3    0    0  0.10370912321E+00 -0.40195111026E-01  0.53039416500E-02  0.88701711426E+00  0.88000000000E+00 0.  1.
        -11    1    4    4    0    0 -0.85409397575E-01  0.32496158383E-01  0.71568397876E-02  0.91663771364E-01  0.51100000000E-03 0. -1.
         11    1    4    4    0    0 -0.38629962110E-01  0.16184696343E-01 -0.10145297810E-01  0.43097639808E-01  0.51100000000E-03 0.  1.
</event>
<event>
 8    1  0.1104109E+005  0.1043930E+01  0.7957747E-01            NaN
         13   -1    0    0    0    0  0.00000000000E+00  0.00000000000E+00  0.74505805969E-08  0.10566000000E+00  0.10566000000E+00 0. -1.
     999900   -1    0    0    0    0 -0.00000000000E+00 -0.00000000000E+00 -0.74505805969E-08  0.93827000000E+00  0.93827000000E+00 0.  1.
     999902    2    1    2    0    0 -0.20068822177E-01  0.50189945100E-02 -0.86479190192E-02  0.10215082598E+01  0.10212621556E+01 0.  0.
     999903    2    3    3    0    0 -0.97417657039E-01  0.82931545719E-01  0.35159828690E-01  0.13360492800E+00  0.15691464383E-01 0.  0.
         14    1    1    2    0    0  0.20068822177E-01 -0.50189945100E-02  0.86479190192E-02  0.22421740182E-01  0.00000000000E+00 0. -1.
     999901    1    3    3    0    0  0.77348834862E-01 -0.77912551209E-01 -0.43807747709E-01  0.88790333182E+00  0.88000000000E+00 0.  1.
        -11    1    4    4    0    0 -0.14125744457E-01  0.92082787066E-02  0.98260134616E-02  0.19522825481E-01  0.51100000000E-03 0. -1.
         11    1    4    4    0    0 -0.83291912581E-01  0.73723267013E-01  0.25333815229E-01  0.11408210252E+00  0.51100000000E-03 0.  1.
</event>
<event>
 8    1  0.1104109E+005  0.1043930E+01  0.7957747E-01            NaN
         13   -1    0    0    0    0  0.00000000000E+00  0.00000000000E+00  0.74505805969E-08  0.10566000000E+00  0.10566000000E+00 0. -1.
     999900   -1    0    0    0    0 -0.00000000000E+00 -0.00000000000E+00 -0.74505805969E-08  0.93827000000E+00  0.93827000000E+00 0. -1.
     999902    2    1    2    0    0  0.13286599780E-01 -0.17462869464E-01 -0.10300918197E-01  0.10196896522E+01  0.10194014874E+01 0.  0.
     999903    2    3    3    0    0  0.69343443393E-01  0.37786556096E-01 -0.10284187776E+00  0.13134360597E+00  0.20936906292E-01 0.  0.
         14    1    1    2    0    0 -0.13286599780E-01  0.17462869464E-01  0.10300918197E-01  0.24240347756E-01  0.00000000000E+00 0. -1.
     999901    1    3    3    0    0 -0.56056843613E-01 -0.55249425560E-01  0.92540959558E-01  0.88834604628E+00  0.88000000000E+00 0.  1.
        -11    1    4    4    0    0  0.51152117371E-01  0.18446400172E-01 -0.60345806738E-01  0.81232298396E-01  0.51100000000E-03 0. -1.
         11    1    4    4    0    0  0.18191326022E-01  0.19340155923E-01 -0.42496071018E-01  0.50111307571E-01  0.51100000000E-03 0.  1.
</event>
<event>
 8    1  0.1141350E+005  0.1043930E+01  0.7957747E-01            NaN
         13   -1    0    0    0    0  0.00000000000E+00  0.00000000000E+00  0.74505805969E-08  0.10566000000E+00  0.10566000000E+00 0. -1.
     999900   -1    0    0    0    0 -0.00000000000E+00 -0.00000000000E+00 -0.74505805969E-08  0.93827000000E+00  0.93827000000E+00 0. -1.
     999902    2    1    2    0    0 -0.11614210635E-01 -0.14290963200E-01 -0.13623898279E-01  0.10210229678E+01  0.10207659716E+01 0.  0.
     999903    2    3    3    0    0 -0.11614413107E+00  0.28530772046E-01  0.51088866230E-01  0.13144556977E+00  0.19089301279E-01 0.  0.
         14    1    1    2    0    0  0.11614210635E-01  0.14290963200E-01  0.13623898279E-01  0.22907032155E-01  0.00000000000E+00 0. -1.
     999901    1    3    3    0    0  0.10452992044E+00 -0.42821735246E-01 -0.64712764508E-01  0.88957739808E+00  0.88000000000E+00 0. -1.
        -11    1    4    4    0    0 -0.34219363902E-01  0.17519837272E-01  0.16466258498E-01  0.41824733757E-01  0.51100000000E-03 0.  1.
         11    1    4    4    0    0 -0.81924767170E-01  0.11010934774E-01  0.34622607731E-01  0.89620836012E-01  0.51100000000E-03 0. -1.
</event>
<event>
 8    1  0.1104109E+005  0.1043930E+01  0.7957747E-01            NaN
         13   -1    0    0    0    0  0.00000000000E+00  0.00000000000E+00  0.74505805969E-08  0.10566000000E+00  0.10566000000E+00 0.  1.
     999900   -1    0    0    0    0 -0.00000000000E+00 -0.00000000000E+00 -0.74505805969E-08  0.93827000000E+00  0.93827000000E+00 0.  1.
     999902    2    1    2    0    0 -0.20271335075E-02 -0.19576413656E-01  0.14888390330E-01  0.10192518840E+01  0.10189530871E+01 0.  0.
     999903    2    3    3    0    0  0.47674452224E-01 -0.11542780014E+00 -0.35460361939E-01  0.13122444482E+00  0.19130792191E-01 0.  0.
         14    1    1    2    0    0  0.20271335075E-02  0.19576413656E-01 -0.14888390330E-01  0.24678115983E-01  0.00000000000E+00 0. -1.
     999901    1    3    3    0    0 -0.49701585731E-01  0.95851386480E-01  0.50348752269E-01  0.88802743920E+00  0.88000000000E+00 0.  1.
        -11    1    4    4    0    0  0.23649620486E-01 -0.65713403613E-01 -0.10495401118E-01  0.70625565691E-01  0.51100000000E-03 0.  1.
         11    1    4    4    0    0  0.24024831737E-01 -0.49714396523E-01 -0.24964960821E-01  0.60598879127E-01  0.51100000000E-03 0. -1.
</event>
<event>
 8    1  0.1104109E+005  0.1043930E+01  0.7957747E-01            NaN
         13   -1    0    0    0    0  0.00000000000E+00  0.00000000000E+00  0.74505805969E-08  0.10566000000E+00  0.10566000000E+00 0. -1.
     999900   -1    0    0    0    0 -0.00000000000E+00 -0.00000000000E+00 -0.74505805969E-08  0.93827000000E+00  0.93827000000E+00 0. -1.
     999902    2    1    2    0    0 -0.19514227259E-01 -0.31241530312E-02 -0.90198945273E-02  0.10222061906E+01  0.10219753286E+01 0.  0.
     999903    2    3    3    0    0 -0.13017404632E+00  0.10863321872E-01  0.24610178628E-01  0.13452819333E+00  0.20709413590E-01 0.  0.
         14    1    1    2    0    0  0.19514227259E-01  0.31241530312E-02  0.90198945273E-02  0.21723809402E-01  0.00000000000E+00 0. -1.
     999901    1    3    3    0    0  0.11065981906E+00 -0.13987474904E-01 -0.33630073155E-01  0.88767799727E+00  0.88000000000E+00 0. -1.
        -11    1    4    4    0    0 -0.44071521823E-01  0.38452666451E-02  0.18400246436E-01  0.47915710380E-01  0.51100000000E-03 0. -1.
         11    1    4    4    0    0 -0.86102524499E-01  0.70180552274E-02  0.62099321921E-02  0.86612482952E-01  0.51100000000E-03 0.  1.
</event>
<event>
 8    1  0.1104109E+005  0.1043930E+01  0.7957747E-01            NaN
         13   -1    0    0    0    0  0.00000000000E+00  0.00000000000E+00  0.74505805969E-08  0.10566000000E+00  0.10566000000E+00 0. -1.
     999900   -1    0    0    0    0 -0.00000000000E+00 -0.00000000000E+00 -0.74505805969E-08  0.93827000000E+00  0.93827000000E+00 0.  1.
     999902    2    1    2    0    0 -0.92609233682E-02  0.18849464638E-01 -0.72300242417E-02  0.10217187355E+01  0.10214772803E+01 0.  0.
     999903    2    3    3    0    0  0.58287768861E-01 -0.50656153674E-01 -0.10403475469E+00  0.13112061481E+00  0.20146353004E-01 0.  0.
         14    1    1    2    0    0  0.92609233682E-02 -0.18849464638E-01  0.72300242417E-02  0.22211264469E-01  0.00000000000E+00 0.  1.
     999901    1    3    3    0    0 -0.67548692229E-01  0.69505618312E-01  0.96804730452E-01  0.89059812072E+00  0.88000000000E+00 0. -1.
        -11    1    4    4    0    0  0.11315597288E-01 -0.15423654316E-01 -0.39365396950E-01  0.43770166238E-01  0.51100000000E-03 0. -1.
         11    1    4    4    0    0  0.46972171572E-01 -0.35232499358E-01 -0.64669357744E-01  0.87350448569E-01  0.51100000000E-03 0.  1.
</event>
<event>
 8    1  0.1104109E+005  0.1043930E+01  0.7957747E-01            NaN
         13   -1    0    0    0    0  0.00000000000E+00  0.00000000000E+00  0.74505805969E-08  0.10566000000E+00  0.10566000000E+00 0. -1.
     999900   -1    0    0    0    0 -0.00000000000E+00 -0.00000000000E+00 -0.74505805969E-08  0.93827000000E+00  0.93827000000E+00 0. -1.
     999902    2    1    2    0    0  0.19009082627E-01 -0.14696946767E-01  0.84841328312E-03  0.10198870120E+01  0.10196035759E+01 0.  0.
     999903    2    3    3    0    0  0.87223319648E-01  0.11442196346E-01 -0.95090676818E-01  0.13166364711E+00  0.23542468122E-01 0.  0.
         14    1    1    2    0    0 -0.19009082627E-01  0.14696946767E-01 -0.84841328312E-03  0.24042987994E-01  0.00000000000E+00 0. -1.
     999901    1    3    3    0    0 -0.68214237021E-01 -0.26139143113E-01  0.95939090101E-01  0.88822336489E+00  0.88000000000E+00 0.  1.
        -11    1    4    4    0    0  0.10799446809E-01  0.56097164612E-02 -0.44689240270E-02  0.12974181019E-01  0.51100000000E-03 0.  1.
         11    1    4    4    0    0  0.76423872838E-01  0.58324798845E-02 -0.90621752791E-01  0.11868946609E+00  0.51100000000E-03 0. -1.
</event>
<event>
 8    1  0.1104109E+005  0.1043930E+01  0.7957747E-01            NaN
         13   -1    0    0    0    0  0.00000000000E+00  0.00000000000E+00  0.74505805969E-08  0.10566000000E+00  0.10566000000E+00 0.  1.
     999900   -1    0    0    0    0 -0.00000000000E+00 -0.00000000000E+00 -0.74505805969E-08  0.93827000000E+00  0.93827000000E+00 0. -1.
     999902    2    1    2    0    0 -0.15370626026E-02 -0.52643640061E-02  0.24131416534E-01  0.10191832557E+01  0.10188827741E+01 0.  0.
     999903    2    3    3    0    0 -0.58294475803E-01 -0.55270772918E-01  0.10260587333E+00  0.13245878594E+00  0.23754167721E-01 0.  0.
         14    1    1    2    0    0  0.15370626026E-02  0.52643640061E-02 -0.24131416534E-01  0.24746744306E-01  0.00000000000E+00 0. -1.
     999901    1    3    3    0    0  0.56757413200E-01  0.50006408912E-01 -0.78474456794E-01  0.88672446975E+00  0.88000000000E+00 0. -1.
        -11    1    4    4    0    0 -0.37494633001E-01 -0.25157209484E-01  0.42061378049E-01  0.61710236892E-01  0.51100000000E-03 0. -1.
         11    1    4    4    0    0 -0.20799842802E-01 -0.30113563435E-01  0.60544495279E-01  0.70748549051E-01  0.51100000000E-03 0.  1.
</event>
<event>
 8    1  0.1104109E+005  0.1043930E+01  0.7957747E-01            NaN
         13   -1    0    0    0    0  0.00000000000E+00  0.00000000000E+00  0.74505805969E-08  0.10566000000E+00  0.10566000000E+00 0.  1.
     999900   -1    0    0    0    0 -0.00000000000E+00 -0.00000000000E+00 -0.74505805969E-08  0.93827000000E+00  0.93827000000E+00 0. -1.
     999902    2    1    2    0    0 -0.89893462830E-02  0.44748038913E-02  0.21351855229E-01  0.10203347899E+01  0.10200619342E+01 0.  0.
     999903    2    3    3    0    0  0.45014646082E-01  0.12091703799E+00 -0.47192821166E-02  0.13064106214E+00  0.19939083580E-01 0.  0.
         14    1    1    2    0    0  0.89893462830E-02 -0.44748038913E-02 -0.21351855229E-01  0.23595210068E-01  0.00000000000E+00 0.  1.
     999901    1    3    3    0    0 -0.54003992365E-01 -0.11644223410E+00  0.26071137345E-01  0.88969372779E+00  0.88000000000E+00 0. -1.
        -11    1    4    4    0    0  0.15184538904E-01  0.50958460412E-01 -0.11092948127E-01  0.54319881521E-01  0.51100000000E-03 0. -1.
         11    1    4    4    0    0  0.29830107178E-01  0.69958577580E-01  0.63736660104E-02  0.76321180616E-01  0.51100000000E-03 0.  1.
</event>
<event>
 8    1  0.1104109E+005  0.1043930E+01  0.7957747E-01            NaN
         13   -1    0    0    0    0  0.00000000000E+00  0.00000000000E+00  0.74505805969E-08  0.10566000000E+00  0.10566000000E+00 0.  1.
     999900   -1    0    0    0    0 -0.00000000000E+00 -0.00000000000E+00 -0.74505805969E-08  0.93827000000E+00  0.93827000000E+00 0.  1.
     999902    2    1    2    0    0 -0.16034340996E-01  0.17273055844E-01  0.74806195406E-02  0.10192031276E+01  0.10189031343E+01 0.  0.
     999903    2    3    3    0    0 -0.12778606110E+00  0.86635233960E-02 -0.22429345092E-01  0.13158993653E+00  0.20211428125E-01 0.  0.
         14    1    1    2    0    0  0.16034340996E-01 -0.17273055844E-01 -0.74806195406E-02  0.24726872388E-01  0.00000000000E+00 0.  1.
     999901    1    3    3    0    0  0.11175172010E+00  0.86095324481E-02  0.29909964633E-01  0.88761319108E+00  0.88000000000E+00 0.  1.
        -11    1    4    4    0    0 -0.62061830418E-01 -0.28967696357E-02 -0.35365457221E-02  0.62232068468E-01  0.51100000000E-03 0. -1.
         11    1    4    4    0    0 -0.65724230679E-01  0.11560293032E-01 -0.18892799370E-01  0.69357868064E-01  0.51100000000E-03 0.  1.
</event>
<event>
 8    1  0.1104109E+005  0.1043930E+01  0.7957747E-01            NaN
         13   -1    0    0    0    0  0.00000000000E+00  0.00000000000E+00  0.74505805969E-08  0.10566000000E+00  0.10566000000E+00 0.  1.
     999900   -1    0    0    0    0 -0.00000000000E+00 -0.00000000000E+00 -0.74505805969E-08  0.93827000000E+00  0.93827000000E+00 0. -1.
     999902    2    1    2    0    0 -0.41374972017E-02  0.21987397155E-01  0.66739972637E-02  0.10205824786E+01  0.10203153869E+01 0.  0.
     999903    2    3    3    0    0 -0.53476583839E-01 -0.61500394097E-01  0.99772816740E-01  0.13037354415E+00  0.20015058352E-01 0.  0.
         14    1    1    2    0    0  0.41374972017E-02 -0.21987397155E-01 -0.66739972637E-02  0.23347521415E-01  0.00000000000E+00 0. -1.
     999901    1    3    3    0    0  0.49339086638E-01  0.83487791253E-01 -0.93098819477E-01  0.89020893443E+00  0.88000000000E+00 0.  1.
        -11    1    4    4    0    0 -0.26788181366E-01 -0.16116036923E-01  0.36784566458E-01  0.48277311001E-01  0.51100000000E-03 0. -1.
         11    1    4    4    0    0 -0.26688402473E-01 -0.45384357174E-01  0.62988250282E-01  0.82096233150E-01  0.51100000000E-03 0.  1.
</event>
<event>
 8    1  0.1104109E+005  0.1043930E+01  0.7957747E-01            NaN
         13   -1    0    0    0    0  0.00000000000E+00  0.00000000000E+00  0.74505805969E-08  0.10566000000E+00  0.10566000000E+00 0. -1.
     999900   -1    0    0    0    0 -0.00000000000E+00 -0.00000000000E+00 -0.74505805969E-08  0.93827000000E+00  0.93827000000E+00 0.  1.
     999902    2    1    2    0    0  0.18608879742E-02 -0.18031688958E-01  0.16679111654E-01  0.10192967404E+01  0.10189990420E+01 0.  0.
     999903    2    3    3    0    0 -0.67174009325E-01 -0.58702197101E-02  0.11101974577E+00  0.13148264187E+00  0.20383673724E-01 0.  0.
         14    1    1    2    0    0 -0.18608879742E-02  0.18031688958E-01 -0.16679111654E-01  0.24633259555E-01  0.00000000000E+00 0.  1.
     999901    1    3    3    0    0  0.69034897299E-01 -0.12161469248E-01 -0.94340634116E-01  0.88781409857E+00  0.88000000000E+00 0.  1.
        -11    1    4    4    0    0 -0.43521357323E-01 -0.80392432734E-02  0.54747566525E-01  0.70400959774E-01  0.51100000000E-03 0.  1.
         11    1    4    4    0    0 -0.23652652002E-01  0.21690235634E-02  0.56272179245E-01  0.61081682098E-01  0.51100000000E-03 0. -1.
</event>
<event>
 8    1  0.1104109E+005  0.1043930E+01  0.7957747E-01            NaN
         13   -1    0    0    0    0  0.00000000000E+00  0.00000000000E+00  0.74505805969E-08  0.10566000000E+00  0.10566000000E+00 0. -1.
     999900   -1    0    0    0    0 -0.00000000000E+00 -0.00000000000E+00 -0.74505805969E-08  0.93827000000E+00  0.93827000000E+00 0. -1.
     999902    2    1    2    0    0  0.99887572037E-03 -0.11948536925E-01 -0.19785698889E-01  0.10207947635E+01  0.10205325620E+01 0.  0.
     999903    2    3    3    0    0 -0.94073146511E-01  0.49629540612E-01 -0.75424127130E-01  0.13179184802E+00  0.19168830274E-01 0.  0.
         14    1    1    2    0    0 -0.99887572037E-03  0.11948536925E-01  0.19785698889E-01  0.23135236500E-01  0.00000000000E+00 0. -1.
     999901    1    3    3    0    0  0.95072022232E-01 -0.61578077537E-01  0.55638428240E-01  0.88900291549E+00  0.88000000000E+00 0. -1.
        -11    1    4    4    0    0 -0.66759494195E-01  0.35862279579E-01 -0.63809057506E-01  0.99069622502E-01  0.51100000000E-03 0. -1.
         11    1    4    4    0    0 -0.27313652316E-01  0.13767261033E-01 -0.11615069623E-01  0.32722225514E-01  0.51100000000E-03 0.  1.
</event>
<event>
 8    1  0.1104109E+005  0.1043930E+01  0.7957747E-01            NaN
         13   -1    0    0    0    0  0.00000000000E+00  0.00000000000E+00  0.74505805969E-08  0.10566000000E+00  0.10566000000E+00 0.  1.
     999900   -1    0    0    0    0 -0.00000000000E+00 -0.00000000000E+00 -0.74505805969E-08  0.93827000000E+00  0.93827000000E+00 0. -1.
     999902    2    1    2    0    0 -0.22751140034E-01  0.54692197891E-02  0.23526661803E-02  0.10204127345E+01  0.10201416995E+01 0.  0.
     999903    2    3    3    0    0  0.43304276107E-02 -0.35514240320E-01 -0.12356940939E+00  0.13009289062E+00  0.19358393090E-01 0.  0.
         14    1    1    2    0    0  0.22751140034E-01 -0.54692197891E-02 -0.23526661803E-02  0.23517265489E-01  0.00000000000E+00 0.  1.
     999901    1    3    3    0    0 -0.27081567645E-01  0.40983460109E-01  0.12592207557E+00  0.89031984389E+00  0.88000000000E+00 0.  1.
        -11    1    4    4    0    0  0.89058498511E-02 -0.34696932449E-01 -0.10498440241E+00  0.11092870302E+00  0.51100000000E-03 0.  1.
         11    1    4    4    0    0 -0.45754222404E-02 -0.81730787173E-03 -0.18585006986E-01  0.19164187604E-01  0.51100000000E-03 0. -1.
</event>
<event>
 8    1  0.1104109E+005  0.1043930E+01  0.7957747E-01            NaN
         13   -1    0    0    0    0  0.00000000000E+00  0.00000000000E+00  0.74505805969E-08  0.10566000000E+00  0.10566000000E+00 0. -1.
     999900   -1    0    0    0    0 -0.00000000000E+00 -0.00000000000E+00 -0.74505805969E-08  0.93827000000E+00  0.93827000000E+00 0. -1.
     999902    2    1    2    0    0  0.77417366207E-02 -0.19871012796E-02 -0.22449158917E-01  0.10201004429E+01  0.10198220755E+01 0.  0.
     999903    2    3    3    0    0  0.38686423609E-01  0.28607291452E-01  0.11703138918E+00  0.12805312695E+00  0.19653009240E-01 0.  0.
         14    1    1    2    0    0 -0.77417366207E-02  0.19871012796E-02  0.22449158917E-01  0.23829557140E-01  0.00000000000E+00 0. -1.
     999901    1    3    3    0    0 -0.30944686989E-01 -0.30594392732E-01 -0.13948054810E+00  0.89204731591E+00  0.88000000000E+00 0. -1.
        -11    1    4    4    0    0 -0.14349887364E-02 -0.12346363914E-02  0.40152714749E-02  0.44684500344E-02  0.51100000000E-03 0.  1.
         11    1    4    4    0    0  0.40121412346E-01  0.29841927844E-01  0.11301611771E+00  0.12358467692E+00  0.51100000000E-03 0. -1.
</event>
<event>
 8    1  0.1104109E+005  0.1043930E+01  0.7957747E-01            NaN
         13   -1    0    0    0    0  0.00000000000E+00  0.00000000000E+00  0.74505805969E-08  0.10566000000E+00  0.10566000000E+00 0. -1.
     999900   -1    0    0    0    0 -0.00000000000E+00 -0.00000000000E+00 -0.74505805969E-08  0.93827000000E+00  0.93827000000E+00 0.  1.
     999902    2    1    2    0    0 -0.43629951234E-02  0.83774679576E-02  0.21443327786E-01  0.10204985254E+01  0.10202294871E+01 0.  0.
     999903    2    3    3    0    0  0.95910145384E-01  0.35505658329E-01  0.82018068353E-01  0.13232064872E+00  0.17955021009E-01 0.  0.
         14    1    1    2    0    0  0.43629951234E-02 -0.83774679576E-02 -0.21443327786E-01  0.23431474609E-01  0.00000000000E+00 0.  1.
     999901    1    3    3    0    0 -0.10027314051E+00 -0.27128190372E-01 -0.60574740567E-01  0.88817787667E+00  0.88000000000E+00 0.  1.
        -11    1    4    4    0    0  0.13514470985E-01  0.99655267617E-02  0.19761042522E-01  0.25936703187E-01  0.51100000000E-03 0.  1.
         11    1    4    4    0    0  0.82395674399E-01  0.25540131568E-01  0.62257025831E-01  0.10638394553E+00  0.51100000000E-03 0. -1.
</event>
<event>
 8    1  0.1104109E+005  0.1043930E+01  0.7957747E-01            NaN
         13   -1    0    0    0    0  0.00000000000E+00  0.00000000000E+00  0.74505805969E-08  0.10566000000E+00  0.10566000000E+00 0. -1.
     999900   -1    0    0    0    0 -0.00000000000E+00 -0.00000000000E+00 -0.74505805969E-08  0.93827000000E+00  0.93827000000E+00 0.  1.
     999902    2    1    2    0    0  0.20866229792E-01  0.12465952415E-01 -0.37807898155E-02  0.10193313438E+01  0.10190344913E+01 0.  0.
     999903    2    3    3    0    0 -0.53705353669E-01 -0.10992334532E+00 -0.30277347357E-01  0.12734360351E+00  0.18228239970E-01 0.  0.
         14    1    1    2    0    0 -0.20866229792E-01 -0.12465952415E-01  0.37807898155E-02  0.24598656203E-01  0.00000000000E+00 0. -1.
     999901    1    3    3    0    0  0.74571583460E-01  0.12238929774E+00  0.26496557541E-01  0.89198774029E+00  0.88000000000E+00 0.  1.
        -11    1    4    4    0    0 -0.62351563186E-03 -0.14285229846E-01 -0.33290564615E-02  0.14690143002E-01  0.51100000000E-03 0. -1.
         11    1    4    4    0    0 -0.53081838037E-01 -0.95638115477E-01 -0.26948290895E-01  0.11265346051E+00  0.51100000000E-03 0.  1.
</event>
<event>
 8    1  0.1104109E+005  0.1043930E+01  0.7957747E-01            NaN
         13   -1    0    0    0    0  0.00000000000E+00  0.00000000000E+00  0.74505805969E-08  0.10566000000E+00  0.10566000000E+00 0.  1.
     999900   -1    0    0    0    0 -0.00000000000E+00 -0.00000000000E+00 -0.74505805969E-08  0.93827000000E+00  0.93827000000E+00 0.  1.
     999902    2    1    2    0    0 -0.11334887826E-01 -0.20867091541E-01  0.67599539330E-03  0.10201734817E+01  0.10198968382E+01 0.  0.
     999903    2    3    3    0    0 -0.10554399612E+00 -0.71332177689E-01  0.32941895552E-01  0.13312040026E+00  0.20200440348E-01 0.  0.
         14    1    1    2    0    0  0.11334887826E-01  0.20867091541E-01 -0.67599539330E-03  0.23756518288E-01  0.00000000000E+00 0. -1.
     999901    1    3    3    0    0  0.94209108298E-01  0.50465086148E-01 -0.32265900158E-01  0.88705308146E+00  0.88000000000E+00 0.  1.
        -11    1    4    4    0    0 -0.74634123614E-01 -0.45871024625E-01  0.13633864500E-01  0.88659724171E-01  0.51100000000E-03 0.  1.
         11    1    4    4    0    0 -0.30909872509E-01 -0.25461153064E-01  0.19308031052E-01  0.44460676086E-01  0.51100000000E-03 0. -1.
</event>
<event>
 8    1  0.1104109E+005  0.1043930E+01  0.7957747E-01            NaN
         13   -1    0    0    0    0  0.00000000000E+00  0.00000000000E+00  0.74505805969E-08  0.10566000000E+00  0.10566000000E+00 0. -1.
     999900   -1    0    0    0    0 -0.00000000000E+00 -0.00000000000E+00 -0.74505805969E-08  0.93827000000E+00  0.93827000000E+00 0. -1.
     999902    2    1    2    0    0  0.18941220593E-01  0.13386032733E-01  0.58757927414E-02  0.10200034321E+01  0.10197227667E+01 0.  0.
     999903    2    3    3    0    0 -0.64787290256E-02 -0.10743346236E+00  0.68554050249E-01  0.12917680017E+00  0.20076482056E-01 0.  0.
         14    1    1    2    0    0 -0.18941220593E-01 -0.13386032733E-01 -0.58757927414E-02  0.23926567874E-01  0.00000000000E+00 0.  1.
     999901    1    3    3    0    0  0.25419949619E-01  0.12081949510E+00 -0.62678257507E-01  0.89082663195E+00  0.88000000000E+00 0. -1.
        -11    1    4    4    0    0 -0.43329717502E-02 -0.37392186643E-02  0.41794374320E-02  0.71052951139E-02  0.51100000000E-03 0.  1.
         11    1    4    4    0    0 -0.21457572754E-02 -0.10369424370E+00  0.64374612817E-01  0.12207150506E+00  0.51100000000E-03 0. -1.
</event>
<event>
 8    1  0.1104109E+005  0.1043930E+01  0.7957747E-01            NaN
         13   -1    0    0    0    0  0.00000000000E+00  0.00000000000E+00  0.74505805969E-08  0.10566000000E+00  0.10566000000E+00 0. -1.
     999900   -1    0    0    0    0 -0.00000000000E+00 -0.00000000000E+00 -0.74505805969E-08  0.93827000000E+00  0.93827000000E+00 0. -1.
     999902    2    1    2    0    0 -0.92149662637E-02  0.11637587468E-01 -0.17721881174E-01  0.10208126014E+01  0.10205508087E+01 0.  0.
     999903    2    3    3    0    0 -0.11141832388E+00  0.32898214123E-01 -0.62232821258E-01  0.13352529487E+00  0.21441663656E-01 0.  0.
         14    1    1    2    0    0  0.92149662637E-02 -0.11637587468E-01  0.17721881174E-01  0.23117398592E-01  0.00000000000E+00 0.  1.
     999901    1    3    3    0    0  0.10220335762E+00 -0.21260626656E-01  0.44510940084E-01  0.88728730654E+00  0.88000000000E+00 0.  1.
        -11    1    4    4    0    0 -0.75199561120E-01  0.19117532545E-01 -0.30264959650E-01  0.83286751328E-01  0.51100000000E-03 0. -1.
         11    1    4    4    0    0 -0.36218762760E-01  0.13780681579E-01 -0.31967861608E-01  0.50238543544E-01  0.51100000000E-03 0.  1.
</event>
<event>
 8    1  0.1104109E+005  0.1043930E+01  0.7957747E-01            NaN
         13   -1    0    0    0    0  0.00000000000E+00  0.00000000000E+00  0.74505805969E-08  0.10566000000E+00  0.10566000000E+00 0. -1.
     999900   -1    0    0    0    0 -0.00000000000E+00 -0.00000000000E+00 -0.74505805969E-08  0.93827000000E+00  0.93827000000E+00 0.  1.
     999902    2    1    2    0    0  0.18434317038E-01  0.88127810052E-02 -0.93125833714E-02  0.10214753042E+01  0.10212284680E+01 0.  0.
     999903    2    3    3    0    0 -0.16727994802E-01  0.11862486130E+00 -0.53806013125E-01  0.13283885074E+00  0.19984736418E-01 0.  0.
         14    1    1    2    0    0 -0.18434317038E-01 -0.88127810052E-02  0.93125833714E-02  0.22454695784E-01  0.00000000000E+00 0. -1.
     999901    1    3    3    0    0  0.35162311840E-01 -0.10981208029E+00  0.44493429753E-01  0.88863645347E+00  0.88000000000E+00 0. -1.
        -11    1    4    4    0    0 -0.12892423463E-01  0.97969633043E-01 -0.35593880396E-01  0.10503070515E+00  0.51100000000E-03 0. -1.
         11    1    4    4    0    0 -0.38355713387E-02  0.20655228255E-01 -0.18212132729E-01  0.27808145593E-01  0.51100000000E-03 0.  1.
</event>
<event>
 8    1  0.1104109E+005  0.1043930E+01  0.7957747E-01            NaN
         13   -1    0    0    0    0  0.00000000000E+00  0.00000000000E+00  0.74505805969E-08  0.10566000000E+00  0.10566000000E+00 0.  1.
     999900   -1    0    0    0    0 -0.00000000000E+00 -0.00000000000E+00 -0.74505805969E-08  0.93827000000E+00  0.93827000000E+00 0. -1.
     999902    2    1    2    0    0  0.15396195676E-01 -0.17572243287E-01 -0.27798873068E-02  0.10204022643E+01  0.10201309850E+01 0.  0.
     999903    2    3    3    0    0  0.10637585838E+00 -0.95913498459E-02 -0.76019148996E-01  0.13264949286E+00  0.20227696473E-01 0.  0.
         14    1    1    2    0    0 -0.15396195676E-01  0.17572243287E-01  0.27798873068E-02  0.23527735736E-01  0.00000000000E+00 0. -1.
     999901    1    3    3    0    0 -0.90979662699E-01 -0.79808934409E-02  0.73239261689E-01  0.88775277141E+00  0.88000000000E+00 0.  1.
        -11    1    4    4    0    0  0.85634946296E-01 -0.12682171944E-02 -0.53862041487E-01  0.10117476482E+00  0.51100000000E-03 0. -1.
         11    1    4    4    0    0  0.20740912079E-01 -0.83231326515E-02 -0.22157107509E-01  0.31474728040E-01  0.51100000000E-03 0.  1.
</event>
<event>
 8    1  0.1104109E+005  0.1043930E+01  0.7957747E-01            NaN
         13   -1    0    0    0    0  0.00000000000E+00  0.00000000000E+00  0.74505805969E-08  0.10566000000E+00  0.10566000000E+00 0.  1.
     999900   -1    0    0    0    0 -0.00000000000E+00 -0.00000000000E+00 -0.74505805969E-08  0.93827000000E+00  0.93827000000E+00 0. -1.
     999902    2    1    2    0    0 -0.16050112155E-01  0.16909076476E-01  0.45902962287E-02  0.10201688176E+01  0.10198920642E+01 0.  0.
     999903    2    3    3    0    0  0.45248287096E-01 -0.58210739475E-02  0.12067019484E+00  0.13014146057E+00  0.17152593085E-01 0.  0.
         14    1    1    2    0    0  0.16050112155E-01 -0.16909076476E-01 -0.45902962287E-02  0.23761182355E-01  0.00000000000E+00 0.  1.
     999901    1    3    3    0    0 -0.61298399251E-01  0.22730150423E-01 -0.11607989861E+00  0.89002735708E+00  0.88000000000E+00 0. -1.
        -11    1    4    4    0    0  0.27982698013E-01 -0.82292308629E-02  0.55771177303E-01  0.62939947311E-01  0.51100000000E-03 0.  1.
         11    1    4    4    0    0  0.17265589083E-01  0.24081569154E-02  0.64899017533E-01  0.67201513255E-01  0.51100000000E-03 0. -1.
</event>
<event>
 8    1  0.1104109E+005  0.1043930E+01  0.7957747E-01            NaN
         13   -1    0    0    0    0  0.00000000000E+00  0.00000000000E+00  0.74505805969E-08  0.10566000000E+00  0.10566000000E+00 0.  1.
     999900   -1    0    0    0    0 -0.00000000000E+00 -0.00000000000E+00 -0.74505805969E-08  0.93827000000E+00  0.93827000000E+00 0.  1.
     999902    2    1    2    0    0 -0.54884541035E-02 -0.91204329841E-02 -0.21361316570E-01  0.10200634696E+01  0.10197842276E+01 0.  0.
     999903    2    3    3    0    0 -0.13639102126E-01  0.10340299082E+00 -0.76875793527E-01  0.13112600776E+00  0.20147919572E-01 0.  0.
         14    1    1    2    0    0  0.54884541035E-02  0.91204329841E-02  0.21361316570E-01  0.23866530369E-01  0.00000000000E+00 0.  1.
     999901    1    3    3    0    0  0.81506480220E-02 -0.11252342380E+00  0.55514476957E-01  0.88893746187E+00  0.88000000000E+00 0.  1.
        -11    1    4    4    0    0 -0.28147251798E-02  0.52370965846E-01 -0.49901581861E-01  0.72395232818E-01  0.51100000000E-03 0. -1.
         11    1    4    4    0    0 -0.10824376946E-01  0.51032024974E-01 -0.26974211666E-01  0.58730774941E-01  0.51100000000E-03 0.  1.
</event>
<event>
 8    1  0.1104109E+005  0.1043930E+01  0.7957747E-01            NaN
         13   -1    0    0    0    0  0.00000000000E+00  0.00000000000E+00  0.74505805969E-08  0.10566000000E+00  0.10566000000E+00 0. -1.
     999900   -1    0    0    0    0 -0.00000000000E+00 -0.00000000000E+00 -0.74505805969E-08  0.93827000000E+00  0.93827000000E+00 0.  1.
     999902    2    1    2    0    0  0.13955850801E-01  0.18620242268E-01  0.51308557213E-02  0.10201013434E+01  0.10198229974E+01 0.  0.
     999903    2    3    3    0    0  0.81933058378E-01  0.99407366181E-01  0.29302451921E-01  0.13346064607E+00  0.18927753568E-01 0.  0.
         14    1    1    2    0    0 -0.13955850801E-01 -0.18620242268E-01 -0.51308557213E-02  0.23828656575E-01  0.00000000000E+00 0.  1.
     999901    1    3    3    0    0 -0.67977207577E-01 -0.80787123913E-01 -0.24171596199E-01  0.88664069735E+00  0.88000000000E+00 0.  1.
        -11    1    4    4    0    0  0.36480109275E-02  0.78511700462E-02  0.65494785151E-02  0.10867642092E-01  0.51100000000E-03 0.  1.
         11    1    4    4    0    0  0.78285047451E-01  0.91556196135E-01  0.22752973406E-01  0.12259300398E+00  0.51100000000E-03 0. -1.
</event>
<event>
 8    1  0.1104109E+005  0.1043930E+01  0.7957747E-01            NaN
         13   -1    0    0    0    0  0.00000000000E+00  0.00000000000E+00  0.74505805969E-08  0.10566000000E+00  0.10566000000E+00 0. -1.
     999900   -1    0    0    0    0 -0.00000000000E+00 -0.00000000000E+00 -0.74505805969E-08  0.93827000000E+00  0.93827000000E+00 0.  1.
     999902    2    1    2    0    0 -0.20336647106E-02 -0.22306811859E-01 -0.89298899173E-02  0.10198162574E+01  0.10195311306E+01 0.  0.
     999903    2    3    3    0    0 -0.47839053852E-01 -0.12089435929E+00 -0.13343300453E-01  0.13311612977E+00  0.25255477719E-01 0.  0.
         14    1    1    2    0    0  0.20336647106E-02  0.22306811859E-01  0.89298899173E-02  0.24113742584E-01  0.00000000000E+00 0.  1.
     999901    1    3    3    0    0  0.45805389141E-01  0.98587547433E-01  0.44134105353E-02  0.88670012765E+00  0.88000000000E+00 0.  1.
        -11    1    4    4    0    0 -0.47883920745E-01 -0.94014055176E-01 -0.91114808043E-02  0.10589991804E+00  0.51100000000E-03 0.  1.
         11    1    4    4    0    0  0.44866892558E-04 -0.26880304116E-01 -0.42318196483E-02  0.27216211730E-01  0.51100000000E-03 0. -1.
</event>
<event>
 8    1  0.1104109E+005  0.1043930E+01  0.7957747E-01            NaN
         13   -1    0    0    0    0  0.00000000000E+00  0.00000000000E+00  0.74505805969E-08  0.10566000000E+00  0.10566000000E+00 0. -1.
     999900   -1    0    0    0    0 -0.00000000000E+00 -0.00000000000E+00 -0.74505805969E-08  0.93827000000E+00  0.93827000000E+00 0.  1.
     999902    2    1    2    0    0  0.16947097223E-01  0.17458212036E-02 -0.13435058515E-01  0.10222331617E+01  0.10220028787E+01 0.  0.
     999903    2    3    3    0    0  0.43804735049E-01  0.10218453364E+00  0.68769653984E-01  0.13230794997E+00  0.20386137188E-01 0.  0.
         14    1    1    2    0    0 -0.16947097223E-01 -0.17458212036E-02  0.13435058515E-01  0.21696838324E-01  0.00000000000E+00 0. -1.
     999901    1    3    3    0    0 -0.26857637826E-01 -0.10043871244E+00 -0.82204712499E-01  0.88992521170E+00  0.88000000000E+00 0.  1.
        -11    1    4    4    0    0  0.31140140152E-01  0.74201772990E-01  0.38601698708E-01  0.89252247634E-01  0.51100000000E-03 0.  1.
         11    1    4    4    0    0  0.12664594897E-01  0.27982760649E-01  0.30167955276E-01  0.43055702340E-01  0.51100000000E-03 0. -1.
</event>
<event>
 8    1  0.1104109E+005  0.1043930E+01  0.7957747E-01            NaN
         13   -1    0    0    0    0  0.00000000000E+00  0.00000000000E+00  0.74505805969E-08  0.10566000000E+00  0.10566000000E+00 0.  1.
     999900   -1    0    0    0    0 -0.00000000000E+00 -0.00000000000E+00 -0.74505805969E-08  0.93827000000E+00  0.93827000000E+00 0.  1.
     999902    2    1    2    0    0  0.12357001950E-01  0.20008335064E-01  0.76971150600E-03  0.10204008388E+01  0.10201295263E+01 0.  0.
     999903    2    3    3    0    0 -0.65744123485E-01 -0.86517654908E-01  0.64615138006E-01  0.12825521686E+00  0.21603013862E-01 0.  0.
         14    1    1    2    0    0 -0.12357001950E-01 -0.20008335064E-01 -0.76971150600E-03  0.23529161163E-01  0.00000000000E+00 0.  1.
     999901    1    3    3    0    0  0.78101125435E-01  0.10652598997E+00 -0.63845426500E-01  0.89214562198E+00  0.88000000000E+00 0.  1.
        -11    1    4    4    0    0 -0.13749513529E-01 -0.14749098244E-01  0.31819512797E-02  0.20419866705E-01  0.51100000000E-03 0.  1.
         11    1    4    4    0    0 -0.51994609956E-01 -0.71768556664E-01  0.61433186726E-01  0.10783535015E+00  0.51100000000E-03 0. -1.
</event>
<event>
 8    1  0.1104109E+005  0.1043930E+01  0.7957747E-01            NaN
         13   -1    0    0    0    0  0.00000000000E+00  0.00000000000E+00  0.74505805969E-08  0.10566000000E+00  0.10566000000E+00 0. -1.
     999900   -1    0    0    0    0 -0.00000000000E+00 -0.00000000000E+00 -0.74505805969E-08  0.93827000000E+00  0.93827000000E+00 0. -1.
     999902    2    1    2    0    0  0.92933611041E-02  0.15460699026E-01  0.13748127532E-01  0.10212493742E+01  0.10209974895E+01 0.  0.
     999903    2    3    3    0    0  0.12161470273E+00  0.34582499756E-01  0.38006931913E-01  0.13357250923E+00  0.20273212397E-01 0.  0.
         14    1    1    2    0    0 -0.92933611041E-02 -0.15460699026E-01 -0.13748127532E-01  0.22680625776E-01  0.00000000000E+00 0.  1.
     999901    1    3    3    0    0 -0.11232134162E+00 -0.19121800731E-01 -0.24258804381E-01  0.88767686499E+00  0.88000000000E+00 0.  1.
        -11    1    4    4    0    0  0.50510570265E-01  0.22488273172E-01  0.99525592815E-02  0.56181444411E-01  0.51100000000E-03 0. -1.
         11    1    4    4    0    0  0.71104132462E-01  0.12094226584E-01  0.28054372631E-01  0.77391064824E-01  0.51100000000E-03 0.  1.
</event>
<event>
 8    1  0.1104109E+005  0.1043930E+01  0.7957747E-01            NaN
         13   -1    0    0    0    0  0.00000000000E+00  0.00000000000E+00  0.74505805969E-08  0.10566000000E+00  0.10566000000E+00 0.  1.
     999900   -1    0    0    0    0 -0.00000000000E+00 -0.00000000000E+00 -0.74505805969E-08  0.93827000000E+00  0.93827000000E+00 0. -1.
     999902    2    1    2    0    0  0.19051502967E-01  0.80963225937E-02  0.11849401536E-01  0.10200779871E+01  0.10197990886E+01 0.  0.
     999903    2    3    3    0    0 -0.75237658104E-02  0.10965165239E+00  0.71315472981E-01  0.13184606713E+00  0.14744382176E-01 0.  0.
         14    1    1    2    0    0 -0.19051502967E-01 -0.80963225937E-02 -0.11849401536E-01  0.23852012946E-01  0.00000000000E+00 0.  1.
     999901    1    3    3    0    0  0.26575268777E-01 -0.10155532980E+00 -0.59466071445E-01  0.88823191993E+00  0.88000000000E+00 0. -1.
        -11    1    4    4    0    0 -0.24345606695E-02  0.64143537430E-01  0.33224370565E-01  0.72280290537E-01  0.51100000000E-03 0. -1.
         11    1    4    4    0    0 -0.50892051410E-02  0.45508114965E-01  0.38091102417E-01  0.59565776591E-01  0.51100000000E-03 0.  1.
</event>
<event>
 8    1  0.1104109E+005  0.1043930E+01  0.7957747E-01            NaN
         13   -1    0    0    0    0  0.00000000000E+00  0.00000000000E+00  0.74505805969E-08  0.10566000000E+00  0.10566000000E+00 0. -1.
     999900   -1    0    0    0    0 -0.00000000000E+00 -0.00000000000E+00 -0.74505805969E-08  0.93827000000E+00  0.93827000000E+00 0. -1.
     999902    2    1    2    0    0  0.42826238398E-02 -0.22055203167E-01  0.57813036684E-02  0.10207309413E+01  0.10204672744E+01 0.  0.
     999903    2    3    3    0    0  0.98353194156E-01  0.69612790595E-01 -0.43392728797E-01  0.12962467446E+00  0.20008395791E-01 0.  0.
         14    1    1    2    0    0 -0.42826238398E-02  0.22055203167E-01 -0.57813036684E-02  0.23199058727E-01  0.00000000000E+00 0.  1.
     999901    1    3    3    0    0 -0.94070570316E-01 -0.91667993762E-01  0.49174032465E-01  0.89110626681E+00  0.88000000000E+00 0.  1.
        -11    1    4    4    0    0  0.38652693423E-01  0.39036374531E-01 -0.22532776063E-01  0.59378921879E-01  0.51100000000E-03 0.  1.
         11    1    4    4    0    0  0.59700500733E-01  0.30576416064E-01 -0.20859952733E-01  0.70245752584E-01  0.51100000000E-03 0. -1.
</event>
<event>
 8    1  0.1104109E+005  0.1043930E+01  0.7957747E-01            NaN
         13   -1    0    0    0    0  0.00000000000E+00  0.00000000000E+00  0.74505805969E-08  0.10566000000E+00  0.10566000000E+00 0.  1.
     999900   -1    0    0    0    0 -0.00000000000E+00 -0.00000000000E+00 -0.74505805969E-08  0.93827000000E+00  0.93827000000E+00 0. -1.
     999902    2    1    2    0    0  0.19659289275E-01  0.99882170490E-02 -0.83790670012E-02  0.10203405766E+01  0.10200678562E+01 0.  0.
     999903    2    3    3    0    0 -0.71070318459E-01 -0.10236201957E+00  0.21097644653E-01  0.12808315074E+00  0.20765588788E-01 0.  0.
         14    1    1    2    0    0 -0.19659289275E-01 -0.99882170490E-02  0.83790670012E-02  0.23589423444E-01  0.00000000000E+00 0.  1.
     999901    1    3    3    0    0  0.90729607733E-01  0.11235023662E+00 -0.29476711654E-01  0.89225742581E+00  0.88000000000E+00 0. -1.
        -11    1    4    4    0    0 -0.45999192772E-01 -0.53837819717E-01  0.19452387462E-01  0.73437681517E-01  0.51100000000E-03 0.  1.
         11    1    4    4    0    0 -0.25071125687E-01 -0.48524199855E-01  0.16452571906E-02  0.54645469227E-01  0.51100000000E-03 0. -1.
</event>
<event>
 8    1  0.1104109E+005  0.1043930E+01  0.7957747E-01            NaN
         13   -1    0    0    0    0  0.00000000000E+00  0.00000000000E+00  0.74505805969E-08  0.10566000000E+00  0.10566000000E+00 0.  1.
     999900   -1    0    0    0    0 -0.00000000000E+00 -0.00000000000E+00 -0.74505805969E-08  0.93827000000E+00  0.93827000000E+00 0. -1.
     999902    2    1    2    0    0 -0.11224393618E-01  0.16300731926E-01 -0.14066622239E-01  0.10196489223E+01  0.10193597765E+01 0.  0.
     999903    2    3    3    0    0  0.89696216935E-01  0.92539779437E-01 -0.22595958196E-02  0.13052757632E+00  0.20574748961E-01 0.  0.
         14    1    1    2    0    0  0.11224393618E-01 -0.16300731926E-01  0.14066622239E-01  0.24281077707E-01  0.00000000000E+00 0.  1.
     999901    1    3    3    0    0 -0.10092061055E+00 -0.76239047511E-01 -0.11807026419E-01  0.88912134598E+00  0.88000000000E+00 0.  1.
        -11    1    4    4    0    0  0.26004319006E-01  0.36517024125E-01  0.62892772741E-02  0.45271776943E-01  0.51100000000E-03 0. -1.
         11    1    4    4    0    0  0.63691897929E-01  0.56022755312E-01 -0.85488730938E-02  0.85255799373E-01  0.51100000000E-03 0.  1.
</event>
<event>
 8    1  0.1104109E+005  0.1043930E+01  0.7957747E-01            NaN
         13   -1    0    0    0    0  0.00000000000E+00  0.00000000000E+00  0.74505805969E-08  0.10566000000E+00  0.10566000000E+00 0.  1.
     999900   -1    0    0    0    0 -0.00000000000E+00 -0.00000000000E+00 -0.74505805969E-08  0.93827000000E+00  0.93827000000E+00 0.  1.
     999902    2    1    2    0    0 -0.21330071450E-01 -0.30865375872E-02  0.69748030421E-02  0.10212772620E+01  0.10210260032E+01 0.  0.
     999903    2    3    3    0    0 -0.13219605863E+00  0.92179549529E-02  0.71417024685E-02  0.13423572095E+00  0.20185545691E-01 0.  0.
         14    1    1    2    0    0  0.21330071450E-01  0.30865375872E-02 -0.69748030421E-02  0.22652738020E-01  0.00000000000E+00 0. -1.
     999901    1    3    3    0    0  0.11086598718E+00 -0.12304492540E-01 -0.16689942644E-03  0.88704154103E+00  0.88000000000E+00 0. -1.
        -11    1    4    4    0    0 -0.46106911744E-01  0.10077644338E-01  0.93366597206E-02  0.48112790002E-01  0.51100000000E-03 0. -1.
         11    1    4    4    0    0 -0.86089146887E-01 -0.85968938500E-03 -0.21949572521E-02  0.86122930952E-01  0.51100000000E-03 0.  1.
</event>
<event>
 8    1  0.1104109E+005  0.1043930E+01  0.7957747E-01            NaN
         13   -1    0    0    0    0  0.00000000000E+00  0.00000000000E+00  0.74505805969E-08  0.10566000000E+00  0.10566000000E+00 0. -1.
     999900   -1    0    0    0    0 -0.00000000000E+00 -0.00000000000E+00 -0.74505805969E-08  0.93827000000E+00  0.93827000000E+00 0. -1.
     999902    2    1    2    0    0  0.20030014586E-02  0.23918834928E-01  0.58660878531E-03  0.10199202772E+01  0.10196376342E+01 0.  0.
     999903    2    3    3    0    0  0.31674003177E-01 -0.41999661416E-01  0.11651910011E+00  0.12937776892E+00  0.19866866002E-01 0.  0.
         14    1    1    2    0    0 -0.20030014586E-02 -0.23918834928E-01 -0.58660878531E-03  0.24009722802E-01  0.00000000000E+00 0.  1.
     999901    1    3    3    0    0 -0.29671001718E-01  0.65918496345E-01 -0.11593249132E+00  0.89054250828E+00  0.88000000000E+00 0. -1.
        -11    1    4    4    0    0  0.19729206510E-01 -0.36405218307E-01  0.73309461958E-01  0.84196911125E-01  0.51100000000E-03 0.  1.
         11    1    4    4    0    0  0.11944796667E-01 -0.55944431096E-02  0.43209638150E-01  0.45180857796E-01  0.51100000000E-03 0. -1.
</event>
<event>
 8    1  0.1104109E+005  0.1043930E+01  0.7957747E-01            NaN
         13   -1    0    0    0    0  0.00000000000E+00  0.00000000000E+00  0.74505805969E-08  0.10566000000E+00  0.10566000000E+00 0.  1.
     999900   -1    0    0    0    0 -0.00000000000E+00 -0.00000000000E+00 -0.74505805969E-08  0.93827000000E+00  0.93827000000E+00 0. -1.
     999902    2    1    2    0    0 -0.74543410465E-02 -0.61161958137E-02 -0.19916988790E-01  0.10218017038E+01  0.10215620688E+01 0.  0.
     999903    2    3    3    0    0 -0.19505084145E-01  0.46710420168E-01 -0.12267050503E+00  0.13416768185E+00  0.19763663340E-01 0.  0.
         14    1    1    2    0    0  0.74543410465E-02  0.61161958137E-02  0.19916988790E-01  0.22128296232E-01  0.00000000000E+00 0.  1.
     999901    1    3    3    0    0  0.12050743099E-01 -0.52826615982E-01  0.10275351624E+00  0.88763402192E+00  0.88000000000E+00 0.  1.
        -11    1    4    4    0    0 -0.11371175396E-01  0.44437607645E-01 -0.10436559099E+00  0.11400193992E+00  0.51100000000E-03 0.  1.
         11    1    4    4    0    0 -0.81339087498E-02  0.22728125233E-02 -0.18304914045E-01  0.20165741928E-01  0.51100000000E-03 0. -1.
</event>
<event>
 8    1  0.1104109E+005  0.1043930E+01  0.7957747E-01            NaN
         13   -1    0    0    0    0  0.00000000000E+00  0.00000000000E+00  0.74505805969E-08  0.10566000000E+00  0.10566000000E+00 0. -1.
     999900   -1    0    0    0    0 -0.00000000000E+00 -0.00000000000E+00 -0.74505805969E-08  0.93827000000E+00  0.93827000000E+00 0. -1.
     999902    2    1    2    0    0 -0.76349941067E-02  0.22430053493E-01  0.44091455120E-02  0.10198293569E+01  0.10195445435E+01 0.  0.
     999903    2    3    3    0    0 -0.43194699082E-01  0.10869734989E+00  0.60312334208E-01  0.13313228034E+00  0.20142753238E-01 0.  0.
         14    1    1    2    0    0  0.76349941067E-02 -0.22430053493E-01 -0.44091455120E-02  0.24100643121E-01  0.00000000000E+00 0.  1.
     999901    1    3    3    0    0  0.35559704975E-01 -0.86267296396E-01 -0.55903188695E-01  0.88669707654E+00  0.88000000000E+00 0.  1.
        -11    1    4    4    0    0 -0.23153177181E-01  0.34246772682E-01  0.25142816818E-01  0.48387326969E-01  0.51100000000E-03 0. -1.
         11    1    4    4    0    0 -0.20041521901E-01  0.74450577207E-01  0.35169517390E-01  0.84744953366E-01  0.51100000000E-03 0.  1.
</event>
<event>
 8    1  0.1104109E+005  0.1043930E+01  0.7957747E-01            NaN
         13   -1    0    0    0    0  0.00000000000E+00  0.00000000000E+00  0.74505805969E-08  0.10566000000E+00  0.10566000000E+00 0. -1.
     999900   -1    0    0    0    0 -0.00000000000E+00 -0.00000000000E+00 -0.74505805969E-08  0.93827000000E+00  0.93827000000E+00 0. -1.
     999902    2    1    2    0    0  0.80846323809E-02 -0.18601163533E-01 -0.11365146212E-01  0.10206806750E+01  0.10204158511E+01 0.  0.
     999903    2    3    3    0    0 -0.63605259348E-01 -0.22796396509E-01 -0.10919617656E+00  0.13235193456E+00  0.32061267844E-01 0.  0.
         14    1    1    2    0    0 -0.80846323809E-02  0.18601163533E-01  0.11365146212E-01  0.23249325021E-01  0.00000000000E+00 0. -1.
     999901    1    3    3    0    0  0.71689891729E-01  0.41952329763E-02  0.97831030348E-01  0.88832874042E+00  0.88000000000E+00 0.  1.
        -11    1    4    4    0    0 -0.48356070129E-01 -0.13189611869E-02 -0.68016276149E-01  0.83465706245E-01  0.51100000000E-03 0. -1.
         11    1    4    4    0    0 -0.15249189219E-01 -0.21477435322E-01 -0.41179900412E-01  0.48886228314E-01  0.51100000000E-03 0.  1.
</event>
<event>
 8    1  0.1104109E+005  0.1043930E+01  0.7957747E-01            NaN
         13   -1    0    0    0    0  0.00000000000E+00  0.00000000000E+00  0.74505805969E-08  0.10566000000E+00  0.10566000000E+00 0.  1.
     999900   -1    0    0    0    0 -0.00000000000E+00 -0.00000000000E+00 -0.74505805969E-08  0.93827000000E+00  0.93827000000E+00 0.  1.
     999902    2    1    2    0    0  0.13296068920E-01 -0.19095943014E-01 -0.30157431811E-03  0.10206591720E+01  0.10203938524E+01 0.  0.
     999903    2    3    3    0    0 -0.12484334026E+00  0.13443477265E-01 -0.21848684424E-01  0.12902831330E+00  0.20108553789E-01 0.  0.
         14    1    1    2    0    0 -0.13296068920E-01  0.19095943014E-01  0.30157431811E-03  0.23270827991E-01  0.00000000000E+00 0. -1.
     999901    1    3    3    0    0  0.13813940918E+00 -0.32539420279E-01  0.21547110106E-01  0.89163085870E+00  0.88000000000E+00 0. -1.
        -11    1    4    4    0    0 -0.20590055141E-01 -0.39391796503E-02 -0.79434568947E-02  0.22423807337E-01  0.51100000000E-03 0.  1.
         11    1    4    4    0    0 -0.10425328512E+00  0.17382656915E-01 -0.13905227529E-01  0.10660450597E+00  0.51100000000E-03 0. -1.
</event>
<event>
 8    1  0.1104109E+005  0.1043930E+01  0.7957747E-01            NaN
         13   -1    0    0    0    0  0.00000000000E+00  0.00000000000E+00  0.74505805969E-08  0.10566000000E+00  0.10566000000E+00 0. -1.
     999900   -1    0    0    0    0 -0.00000000000E+00 -0.00000000000E+00 -0.74505805969E-08  0.93827000000E+00  0.93827000000E+00 0.  1.
     999902    2    1    2    0    0  0.34327818305E-02 -0.68102136505E-02  0.22828252155E-01  0.10198615124E+01  0.10195774675E+01 0.  0.
     999903    2    3    3    0    0  0.11685670749E+00 -0.65731912136E-02 -0.51610615691E-01  0.12946486583E+00  0.19969950078E-01 0.  0.
         14    1    1    2    0    0 -0.34327818305E-02  0.68102136505E-02 -0.22828252155E-01  0.24068487645E-01  0.00000000000E+00 0.  1.
     999901    1    3    3    0    0 -0.11342392566E+00 -0.23702243686E-03  0.74438867846E-01  0.89039664652E+00  0.88000000000E+00 0.  1.
        -11    1    4    4    0    0  0.28639353691E-01  0.39857060175E-02 -0.19994652665E-01  0.35158863583E-01  0.51100000000E-03 0.  1.
         11    1    4    4    0    0  0.88217353795E-01 -0.10558897231E-01 -0.31615963026E-01  0.94306002250E-01  0.51100000000E-03 0. -1.
</event>
<event>
 8    1  0.1104109E+005  0.1043930E+01  0.7957747E-01            NaN
         13   -1    0    0    0    0  0.00000000000E+00  0.00000000000E+00  0.74505805969E-08  0.10566000000E+00  0.10566000000E+00 0. -1.
     999900   -1    0    0    0    0 -0.00000000000E+00 -0.00000000000E+00 -0.74505805969E-08  0.93827000000E+00  0.93827000000E+00 0.  1.
     999902    2    1    2    0    0 -0.13310701629E-01 -0.12676533348E-01 -0.14850049911E-01  0.10202996539E+01  0.10200259754E+01 0.  0.
     999903    2    3    3    0    0 -0.85198496423E-01  0.96158466559E-01  0.11491819822E-01  0.13029583009E+00  0.18431140321E-01 0.  0.
         14    1    1    2    0    0  0.13310701629E-01  0.12676533348E-01  0.14850049911E-01  0.23630346124E-01  0.00000000000E+00 0. -1.
     999901    1    3    3    0    0  0.71887794794E-01 -0.10883499991E+00 -0.26341869732E-01  0.89000382378E+00  0.88000000000E+00 0.  1.
        -11    1    4    4    0    0 -0.59042839351E-01  0.72930514551E-01  0.12547864616E-02  0.93844298928E-01  0.51100000000E-03 0.  1.
         11    1    4    4    0    0 -0.26155657072E-01  0.23227952008E-01  0.10237033360E-01  0.36451531167E-01  0.51100000000E-03 0. -1.
</event>
<event>
 8    1  0.1104109E+005  0.1043930E+01  0.7957747E-01            NaN
         13   -1    0    0    0    0  0.00000000000E+00  0.00000000000E+00  0.74505805969E-08  0.10566000000E+00  0.10566000000E+00 0.  1.
     999900   -1    0    0    0    0 -0.00000000000E+00 -0.00000000000E+00 -0.74505805969E-08  0.93827000000E+00  0.93827000000E+00 0. -1.
     999902    2    1    2    0    0  0.17272319315E-02 -0.22502722658E-01 -0.60331333177E-02  0.10205686097E+01  0.10203011970E+01 0.  0.
     999903    2    3    3    0    0  0.17241848255E-01 -0.48739447736E-01 -0.12041108939E+00  0.13264328298E+00  0.20557114955E-01 0.  0.
         14    1    1    2    0    0 -0.17272319315E-02  0.22502722658E-01  0.60331333177E-02  0.23361390258E-01  0.00000000000E+00 0.  1.
     999901    1    3    3    0    0 -0.15514616323E-01  0.26236725078E-01  0.11437795607E+00  0.88792532676E+00  0.88000000000E+00 0.  1.
        -11    1    4    4    0    0  0.98090660260E-02 -0.21635006757E-01 -0.79730990374E-01  0.83196053036E-01  0.51100000000E-03 0.  1.
         11    1    4    4    0    0  0.74327822289E-02 -0.27104440979E-01 -0.40680099018E-01  0.49447229948E-01  0.51100000000E-03 0. -1.
</event>
<event>
 8    1  0.1104109E+005  0.1043930E+01  0.7957747E-01            NaN
         13   -1    0    0    0    0  0.00000000000E+00  0.00000000000E+00  0.74505805969E-08  0.10566000000E+00  0.10566000000E+00 0. -1.
     999900   -1    0    0    0    0 -0.00000000000E+00 -0.00000000000E+00 -0.74505805969E-08  0.93827000000E+00  0.93827000000E+00 0. -1.
     999902    2    1    2    0    0  0.22138752961E-02  0.19786535830E-01  0.12542267985E-01  0.10203988137E+01  0.10201274539E+01 0.  0.
     999903    2    3    3    0    0 -0.85674835867E-01 -0.92718970461E-01 -0.13689806292E-01  0.12850754439E+00  0.19743180709E-01 0.  0.
         14    1    1    2    0    0 -0.22138752961E-02 -0.19786535830E-01 -0.12542267985E-01  0.23531186332E-01  0.00000000000E+00 0.  1.
     999901    1    3    3    0    0  0.87888711163E-01  0.11250550629E+00  0.26232074277E-01  0.89189126928E+00  0.88000000000E+00 0.  1.
        -11    1    4    4    0    0 -0.60304971721E-01 -0.72224246871E-01 -0.17373108858E-01  0.95682378120E-01  0.51100000000E-03 0.  1.
         11    1    4    4    0    0 -0.25369864145E-01 -0.20494723590E-01  0.36833025657E-02  0.32825166269E-01  0.51100000000E-03 0. -1.
</event>
<event>
 8    1  0.1104109E+005  0.1043930E+01  0.7957747E-01            NaN
         13   -1    0    0    0    0  0.00000000000E+00  0.00000000000E+00  0.74505805969E-08  0.10566000000E+00  0.10566000000E+00 0.  1.
     999900   -1    0    0    0    0 -0.00000000000E+00 -0.00000000000E+00 -0.74505805969E-08  0.93827000000E+00  0.93827000000E+00 0.  1.
     999902    2    1    2    0    0 -0.16345328896E-01  0.16157162081E-01  0.63152733738E-02  0.10200950185E+01  0.10198165230E+01 0.  0.
     999903    2    3    3    0    0  0.78432799681E-01  0.54277298508E-01  0.86945616962E-01  0.13052361008E+00  0.19471601869E-01 0.  0.
         14    1    1    2    0    0  0.16345328896E-01 -0.16157162081E-01 -0.63152733738E-02  0.23834981456E-01  0.00000000000E+00 0. -1.
     999901    1    3    3    0    0 -0.94778128576E-01 -0.38120136427E-01 -0.80630343588E-01  0.88957140847E+00  0.88000000000E+00 0. -1.
        -11    1    4    4    0    0  0.30274848253E-01  0.13206524506E-01  0.39057928736E-01  0.51154292532E-01  0.51100000000E-03 0. -1.
         11    1    4    4    0    0  0.48157951428E-01  0.41070774002E-01  0.47887688226E-01  0.79369317544E-01  0.51100000000E-03 0.  1.
</event>
<event>
 8    1  0.1104109E+005  0.1043930E+01  0.7957747E-01            NaN
         13   -1    0    0    0    0  0.00000000000E+00  0.00000000000E+00  0.74505805969E-08  0.10566000000E+00  0.10566000000E+00 0. -1.
     999900   -1    0    0    0    0 -0.00000000000E+00 -0.00000000000E+00 -0.74505805969E-08  0.93827000000E+00  0.93827000000E+00 0.  1.
     999902    2    1    2    0    0 -0.33641532665E-02 -0.13016887780E-01  0.18961386788E-01  0.10206858376E+01  0.10204211327E+01 0.  0.
     999903    2    3    3    0    0  0.12521055804E+00  0.27548810271E-01  0.12339319482E-01  0.13039325426E+00  0.20335219687E-01 0.  0.
         14    1    1    2    0    0  0.33641532665E-02  0.13016887780E-01 -0.18961386788E-01  0.23244162356E-01  0.00000000000E+00 0.  1.
     999901    1    3    3    0    0 -0.12857471131E+00 -0.40565698051E-01  0.66220673066E-02  0.89029258338E+00  0.88000000000E+00 0. -1.
        -11    1    4    4    0    0  0.76505665581E-01  0.17551269147E-01 -0.24007069973E-02  0.78531448667E-01  0.51100000000E-03 0. -1.
         11    1    4    4    0    0  0.48704892461E-01  0.99975411241E-02  0.14740026479E-01  0.51861805597E-01  0.51100000000E-03 0.  1.
</event>
<event>
 8    1  0.1104109E+005  0.1043930E+01  0.7957747E-01            NaN
         13   -1    0    0    0    0  0.00000000000E+00  0.00000000000E+00  0.74505805969E-08  0.10566000000E+00  0.10566000000E+00 0. -1.
     999900   -1    0    0    0    0 -0.00000000000E+00 -0.00000000000E+00 -0.74505805969E-08  0.93827000000E+00  0.93827000000E+00 0.  1.
     999902    2    1    2    0    0  0.15047937490E-01 -0.15422416779E-01 -0.98966111248E-02  0.10202185202E+01  0.10199429370E+01 0.  0.
     999903    2    3    3    0    0 -0.41303762950E-01  0.96301861908E-01  0.70364122387E-01  0.12775024966E+00  0.19722249594E-01 0.  0.
         14    1    1    2    0    0 -0.15047937490E-01  0.15422416779E-01  0.98966111248E-02  0.23711479788E-01  0.00000000000E+00 0. -1.
     999901    1    3    3    0    0  0.56351700440E-01 -0.11172427869E+00 -0.80260733512E-01  0.89246827055E+00  0.88000000000E+00 0.  1.
        -11    1    4    4    0    0 -0.13271480059E-01  0.23761198630E-01  0.89496589873E-02  0.28654567878E-01  0.51100000000E-03 0.  1.
         11    1    4    4    0    0 -0.28032282892E-01  0.72540663278E-01  0.61414463400E-01  0.99095681786E-01  0.51100000000E-03 0. -1.
</event>
<event>
 8    1  0.1104109E+005  0.1043930E+01  0.7957747E-01            NaN
         13   -1    0    0    0    0  0.00000000000E+00  0.00000000000E+00  0.74505805969E-08  0.10566000000E+00  0.10566000000E+00 0.  1.
     999900   -1    0    0    0    0 -0.00000000000E+00 -0.00000000000E+00 -0.74505805969E-08  0.93827000000E+00  0.93827000000E+00 0. -1.
     999902    2    1    2    0    0  0.17298876228E-02  0.86301405620E-02  0.22257085398E-01  0.10199957215E+01  0.10197148730E+01 0.  0.
     999903    2    3    3    0    0 -0.33469253282E-01  0.12096671361E+00 -0.29834257989E-01  0.13062965894E+00  0.20515558214E-01 0.  0.
         14    1    1    2    0    0 -0.17298876228E-02 -0.86301405620E-02 -0.22257085398E-01  0.23934278508E-01  0.00000000000E+00 0. -1.
     999901    1    3    3    0    0  0.35199140905E-01 -0.11233657304E+00  0.52091343387E-01  0.88936606255E+00  0.88000000000E+00 0. -1.
        -11    1    4    4    0    0 -0.22920459284E-01  0.56316110832E-01 -0.67664441327E-02  0.61179225888E-01  0.51100000000E-03 0. -1.
         11    1    4    4    0    0 -0.10548793998E-01  0.64650602775E-01 -0.23067813857E-01  0.69450433052E-01  0.51100000000E-03 0.  1.
</event>
<event>
 8    1  0.1104109E+005  0.1043930E+01  0.7957747E-01            NaN
         13   -1    0    0    0    0  0.00000000000E+00  0.00000000000E+00  0.74505805969E-08  0.10566000000E+00  0.10566000000E+00 0. -1.
     999900   -1    0    0    0    0 -0.00000000000E+00 -0.00000000000E+00 -0.74505805969E-08  0.93827000000E+00  0.93827000000E+00 0. -1.
     999902    2    1    2    0    0  0.10708308359E-02 -0.16714208188E-01  0.17349440444E-01  0.10198153879E+01  0.10195302403E+01 0.  0.
     999903    2    3    3    0    0 -0.36757623801E-02  0.10408922727E+00 -0.70285869252E-01  0.12723712931E+00  0.20027610814E-01 0.  0.
         14    1    1    2    0    0 -0.10708308359E-02  0.16714208188E-01 -0.17349440444E-01  0.24114612121E-01  0.00000000000E+00 0.  1.
     999901    1    3    3    0    0  0.47465932161E-02 -0.12080343546E+00  0.87635309696E-01  0.89257825857E+00  0.88000000000E+00 0.  1.
        -11    1    4    4    0    0 -0.46837415169E-02  0.49787609653E-01 -0.45203262270E-01  0.67411716714E-01  0.51100000000E-03 0. -1.
         11    1    4    4    0    0  0.10079791368E-02  0.54301617620E-01 -0.25082606982E-01  0.59825412595E-01  0.51100000000E-03 0.  1.
</event>
<event>
 8    1  0.1104109E+005  0.1043930E+01  0.7957747E-01            NaN
         13   -1    0    0    0    0  0.00000000000E+00  0.00000000000E+00  0.74505805969E-08  0.10566000000E+00  0.10566000000E+00 0. -1.
     999900   -1    0    0    0    0 -0.00000000000E+00 -0.00000000000E+00 -0.74505805969E-08  0.93827000000E+00  0.93827000000E+00 0.  1.
     999902    2    1    2    0    0  0.12528670065E-01 -0.18745560428E-01  0.10164658082E-01  0.10191977562E+01  0.10188976310E+01 0.  0.
     999903    2    3    3    0    0  0.92732498195E-02  0.81464877962E-01  0.97945731823E-01  0.12916503398E+00  0.19176029739E-01 0.  0.
         14    1    1    2    0    0 -0.12528670065E-01  0.18745560428E-01 -0.10164658082E-01  0.24732243798E-01  0.00000000000E+00 0. -1.
     999901    1    3    3    0    0  0.32554202455E-02 -0.10021043839E+00 -0.87781073741E-01  0.89003272222E+00  0.88000000000E+00 0.  1.
        -11    1    4    4    0    0 -0.32735346161E-02  0.45202865257E-01  0.45953760089E-01  0.64544746058E-01  0.51100000000E-03 0.  1.
         11    1    4    4    0    0  0.12546784436E-01  0.36262012705E-01  0.51991971733E-01  0.64620287919E-01  0.51100000000E-03 0. -1.
</event>
<event>
 8    1  0.1104109E+005  0.1043930E+01  0.7957747E-01            NaN
         13   -1    0    0    0    0  0.00000000000E+00  0.00000000000E+00  0.74505805969E-08  0.10566000000E+00  0.10566000000E+00 0.  1.
     999900   -1    0    0    0    0 -0.00000000000E+00 -0.00000000000E+00 -0.74505805969E-08  0.93827000000E+00  0.93827000000E+00 0. -1.
     999902    2    1    2    0    0  0.12894868315E-01 -0.12950714412E-01 -0.26189893091E-01  0.10119939838E+01  0.10114899476E+01 0.  0.
     999903    2    3    3    0    0 -0.11453733667E+00 -0.91985631299E-02  0.31399238193E-01  0.12094429180E+00  0.20933095917E-01 0.  0.
         14    1    1    2    0    0 -0.12894868315E-01  0.12950714412E-01  0.26189893091E-01  0.31936016232E-01  0.00000000000E+00 0.  1.
     999901    1    3    3    0    0  0.12743220499E+00 -0.37521512818E-02 -0.57589131284E-01  0.89104969196E+00  0.88000000000E+00 0.  1.
        -11    1    4    4    0    0 -0.80096568421E-01 -0.46581188903E-02  0.31516510636E-01  0.86201565578E-01  0.51100000000E-03 0.  1.
         11    1    4    4    0    0 -0.34440768253E-01 -0.45404442395E-02 -0.11727244254E-03  0.34742726225E-01  0.51100000000E-03 0. -1.
</event>
<event>
 8    1  0.1104109E+005  0.1043930E+01  0.7957747E-01            NaN
         13   -1    0    0    0    0  0.00000000000E+00  0.00000000000E+00  0.74505805969E-08  0.10566000000E+00  0.10566000000E+00 0.  1.
     999900   -1    0    0    0    0 -0.00000000000E+00 -0.00000000000E+00 -0.74505805969E-08  0.93827000000E+00  0.93827000000E+00 0.  1.
     999902    2    1    2    0    0  0.24290125154E-01 -0.97113189546E-03 -0.30781594880E-04  0.10196204499E+01  0.10193306175E+01 0.  0.
     999903    2    3    3    0    0 -0.92921199419E-01 -0.19558915091E-01  0.83179736264E-01  0.12776396452E+00  0.19694203278E-01 0.  0.
         14    1    1    2    0    0 -0.24290125154E-01  0.97113189546E-03  0.30781594880E-04  0.24309550071E-01  0.00000000000E+00 0.  1.
     999901    1    3    3    0    0  0.11721132457E+00  0.18587783196E-01 -0.83210517859E-01  0.89185648541E+00  0.88000000000E+00 0.  1.
        -11    1    4    4    0    0 -0.48641199143E-01 -0.16010955574E-01  0.33894454557E-01  0.61411823969E-01  0.51100000000E-03 0. -1.
         11    1    4    4    0    0 -0.44280000276E-01 -0.35479595173E-02  0.49285281707E-01  0.66352140547E-01  0.51100000000E-03 0.  1.
</event>
<event>
 7    1  0.1104109E+005  0.1043930E+01  0.7957747E-01            NaN
         13   -1    0    0    0    0  0.00000000000E+00  0.00000000000E+00  0.74505805969E-08  0.10566000000E+00  0.10566000000E+00 0. -1.
     999900   -1    0    0    0    0 -0.00000000000E+00 -0.00000000000E+00 -0.74505805969E-08  0.93827000000E+00  0.93827000000E+00 0. -1.
     999903    2    1    2    0    0 -0.13647914629E-01 -0.10617527689E+00 -0.37685132785E-01  0.11521637577E+00  0.19879361553E-01 0.  0.
         14    1    1    2    0    0  0.40162958695E-01  0.79544836333E-02  0.11238709934E-01  0.42457574848E-01  0.00000000000E+00 0.  1.
     999901    1    1    2    0    0 -0.26515044066E-01  0.98220793255E-01  0.26446422850E-01  0.88625604938E+00  0.88000000000E+00 0. -1.
        -11    1    3    3    0    0  0.31271180741E-02 -0.13296885987E-01 -0.22315704660E-03  0.13671026460E-01  0.51100000000E-03 0. -1.
         11    1    3    3    0    0 -0.16775032704E-01 -0.92878390901E-01 -0.37461975738E-01  0.10154534931E+00  0.51100000000E-03 0.  1.
</event>
<event>
 8    1  0.1104109E+005  0.1043930E+01  0.7957747E-01            NaN
         13   -1    0    0    0    0  0.00000000000E+00  0.00000000000E+00  0.74505805969E-08  0.10566000000E+00  0.10566000000E+00 0.  1.
     999900   -1    0    0    0    0 -0.00000000000E+00 -0.00000000000E+00 -0.74505805969E-08  0.93827000000E+00  0.93827000000E+00 0.  1.
     999902    2    1    2    0    0 -0.16820321656E-01 -0.11698707884E-01 -0.20544441386E-02  0.10233386492E+01  0.10231314614E+01 0.  0.
     999903    2    3    3    0    0  0.39090657556E-01 -0.10752733907E+00  0.66194397148E-01  0.13375050378E+00  0.20427699101E-01 0.  0.
         14    1    1    2    0    0  0.16820321656E-01  0.11698707884E-01  0.20544441386E-02  0.20591350793E-01  0.00000000000E+00 0. -1.
     999901    1    3    3    0    0 -0.55910979212E-01  0.95828631190E-01 -0.68248841287E-01  0.88958814543E+00  0.88000000000E+00 0. -1.
        -11    1    4    4    0    0  0.41566762691E-01 -0.10082493134E+00  0.62106254817E-01  0.12550263164E+00  0.51100000000E-03 0.  1.
         11    1    4    4    0    0 -0.24761051352E-02 -0.67024077302E-02  0.40881423308E-02  0.82478721340E-02  0.51100000000E-03 0. -1.
</event>
<event>
 7    1  0.1104109E+005  0.1043930E+01  0.7957747E-01            NaN
         13   -1    0    0    0    0  0.00000000000E+00  0.00000000000E+00  0.74505805969E-08  0.10566000000E+00  0.10566000000E+00 0. -1.
     999900   -1    0    0    0    0 -0.00000000000E+00 -0.00000000000E+00 -0.74505805969E-08  0.93827000000E+00  0.93827000000E+00 0. -1.
     999903    2    1    2    0    0 -0.11366292357E+00  0.88732789416E-02  0.11736686048E-01  0.11627441306E+00  0.19595766365E-01 0.  0.
         14    1    1    2    0    0  0.12622279609E-01  0.32942463014E-01  0.19555635920E-01  0.40335477042E-01  0.00000000000E+00 0.  1.
     999901    1    1    2    0    0  0.10104064396E+00 -0.41815741955E-01 -0.31292321968E-01  0.88732010989E+00  0.88000000000E+00 0.  1.
        -11    1    3    3    0    0 -0.35431275309E-01  0.35552459777E-02  0.12828479479E-01  0.37852952999E-01  0.51100000000E-03 0.  1.
         11    1    3    3    0    0 -0.78231648265E-01  0.53180329640E-02 -0.10917934315E-02  0.78421460065E-01  0.51100000000E-03 0. -1.
</event>
<event>
 8    1  0.1104109E+005  0.1043930E+01  0.7957747E-01            NaN
         13   -1    0    0    0    0  0.00000000000E+00  0.00000000000E+00  0.74505805969E-08  0.10566000000E+00  0.10566000000E+00 0. -1.
     999900   -1    0    0    0    0 -0.00000000000E+00 -0.00000000000E+00 -0.74505805969E-08  0.93827000000E+00  0.93827000000E+00 0. -1.
     999902    2    1    2    0    0  0.10821468744E-02 -0.99530891974E-02  0.22041946050E-01  0.10197208610E+01  0.10194334465E+01 0.  0.
     999903    2    3    3    0    0  0.64937983329E-01  0.97176734538E-01  0.53875542428E-01  0.13035718686E+00  0.20740363548E-01 0.  0.
         14    1    1    2    0    0 -0.10821468744E-02  0.99530891974E-02 -0.22041946050E-01  0.24209139021E-01  0.00000000000E+00 0.  1.
     999901    1    3    3    0    0 -0.63855836455E-01 -0.10712982374E+00 -0.31833596378E-01  0.88936367412E+00  0.88000000000E+00 0. -1.
        -11    1    4    4    0    0  0.23530320103E-01  0.27488828500E-01  0.26286965521E-01  0.44727813871E-01  0.51100000000E-03 0. -1.
         11    1    4    4    0    0  0.41407663226E-01  0.69687906038E-01  0.27588576908E-01  0.85629372990E-01  0.51100000000E-03 0.  1.
</event>
<event>
 8    1  0.1104109E+005  0.1043930E+01  0.7957747E-01            NaN
         13   -1    0    0    0    0  0.00000000000E+00  0.00000000000E+00  0.74505805969E-08  0.10566000000E+00  0.10566000000E+00 0.  1.
     999900   -1    0    0    0    0 -0.00000000000E+00 -0.00000000000E+00 -0.74505805969E-08  0.93827000000E+00  0.93827000000E+00 0. -1.
     999902    2    1    2    0    0 -0.17936492914E-01  0.66009468743E-02 -0.14732165874E-01  0.10197985477E+01  0.10195129969E+01 0.  0.
     999903    2    3    3    0    0 -0.38532890478E-01 -0.36535018250E-01 -0.11946163834E+00  0.13230027421E+00  0.20314731487E-01 0.  0.
         14    1    1    2    0    0  0.17936492914E-01 -0.66009468743E-02  0.14732165874E-01  0.24131452277E-01  0.00000000000E+00 0.  1.
     999901    1    3    3    0    0  0.20596397564E-01  0.43135965124E-01  0.10472947246E+00  0.88749827351E+00  0.88000000000E+00 0.  1.
        -11    1    4    4    0    0 -0.15948153995E-01 -0.28007726710E-01 -0.59731496093E-01  0.67874068081E-01  0.51100000000E-03 0.  1.
         11    1    4    4    0    0 -0.22584736483E-01 -0.85272915394E-02 -0.59730142245E-01  0.64426206132E-01  0.51100000000E-03 0. -1.
</event>
<event>
 8    1  0.1104109E+005  0.1043930E+01  0.7957747E-01            NaN
         13   -1    0    0    0    0  0.00000000000E+00  0.00000000000E+00  0.74505805969E-08  0.10566000000E+00  0.10566000000E+00 0.  1.
     999900   -1    0    0    0    0 -0.00000000000E+00 -0.00000000000E+00 -0.74505805969E-08  0.93827000000E+00  0.93827000000E+00 0. -1.
     999902    2    1    2    0    0  0.20105576263E-01 -0.41096849037E-02  0.33393932069E-02  0.10231387698E+01  0.10229274984E+01 0.  0.
     999903    2    3    3    0    0  0.82929343691E-01 -0.21481847032E-01  0.10269345880E+00  0.13515236892E+00  0.19531270986E-01 0.  0.
         14    1    1    2    0    0 -0.20105576263E-01  0.41096849037E-02 -0.33393932069E-02  0.20791230216E-01  0.00000000000E+00 0. -1.
     999901    1    3    3    0    0 -0.62823767427E-01  0.17372162128E-01 -0.99354065598E-01  0.88798640087E+00  0.88000000000E+00 0. -1.
        -11    1    4    4    0    0  0.58938633604E-01 -0.23978620558E-01  0.77387754863E-01  0.10018913364E+00  0.51100000000E-03 0.  1.
         11    1    4    4    0    0  0.23990710086E-01  0.24967735258E-02  0.25305703942E-01  0.34963235283E-01  0.51100000000E-03 0. -1.
</event>
<event>
 8    1  0.1104109E+005  0.1043930E+01  0.7957747E-01            NaN
         13   -1    0    0    0    0  0.00000000000E+00  0.00000000000E+00  0.74505805969E-08  0.10566000000E+00  0.10566000000E+00 0. -1.
     999900   -1    0    0    0    0 -0.00000000000E+00 -0.00000000000E+00 -0.74505805969E-08  0.93827000000E+00  0.93827000000E+00 0.  1.
     999902    2    1    2    0    0  0.19145913694E-01  0.18331835104E-01  0.18101172502E-02  0.10173612455E+01  0.10170142601E+01 0.  0.
     999903    2    3    3    0    0 -0.85106246891E-01  0.92881290622E-01 -0.11336282259E-01  0.12798002124E+00  0.19503003199E-01 0.  0.
         14    1    1    2    0    0 -0.19145913694E-01 -0.18331835104E-01 -0.18101172502E-02  0.26568754467E-01  0.00000000000E+00 0.  1.
     999901    1    3    3    0    0  0.10425216058E+00 -0.74549455518E-01  0.13146399509E-01  0.88938122429E+00  0.88000000000E+00 0. -1.
        -11    1    4    4    0    0 -0.28702332019E-01  0.45505448349E-01 -0.56168425620E-02  0.54096023275E-01  0.51100000000E-03 0. -1.
         11    1    4    4    0    0 -0.56403914871E-01  0.47375842273E-01 -0.57194396972E-02  0.73883997965E-01  0.51100000000E-03 0.  1.
</event>
<event>
 8    1  0.1104109E+005  0.1043930E+01  0.7957747E-01            NaN
         13   -1    0    0    0    0  0.00000000000E+00  0.00000000000E+00  0.74505805969E-08  0.10566000000E+00  0.10566000000E+00 0. -1.
     999900   -1    0    0    0    0 -0.00000000000E+00 -0.00000000000E+00 -0.74505805969E-08  0.93827000000E+00  0.93827000000E+00 0. -1.
     999902    2    1    2    0    0 -0.22828786884E-01 -0.80190437660E-02  0.31560984600E-02  0.10195287801E+01  0.10192367311E+01 0.  0.
     999903    2    3    3    0    0  0.69829525818E-01 -0.27282687033E-01  0.10292237659E+00  0.12884928609E+00  0.19713326290E-01 0.  0.
         14    1    1    2    0    0  0.22828786884E-01  0.80190437660E-02 -0.31560984600E-02  0.24401219867E-01  0.00000000000E+00 0. -1.
     999901    1    3    3    0    0 -0.92658312702E-01  0.19263643267E-01 -0.99766278133E-01  0.89067949405E+00  0.88000000000E+00 0. -1.
        -11    1    4    4    0    0  0.50894635709E-01 -0.27888945738E-01  0.70737442872E-01  0.91499203184E-01  0.51100000000E-03 0. -1.
         11    1    4    4    0    0  0.18934890109E-01  0.60625870513E-03  0.32184933722E-01  0.37350082901E-01  0.51100000000E-03 0.  1.
</event>
<event>
 8    1  0.1104109E+005  0.1043930E+01  0.7957747E-01            NaN
         13   -1    0    0    0    0  0.00000000000E+00  0.00000000000E+00  0.74505805969E-08  0.10566000000E+00  0.10566000000E+00 0. -1.
     999900   -1    0    0    0    0 -0.00000000000E+00 -0.00000000000E+00 -0.74505805969E-08  0.93827000000E+00  0.93827000000E+00 0. -1.
     999902    2    1    2    0    0  0.23482755758E-01 -0.54830414826E-02  0.84874981249E-03  0.10198006830E+01  0.10195151834E+01 0.  0.
     999903    2    3    3    0    0 -0.62742395674E-01 -0.96706935462E-01  0.54826059561E-01  0.12925583544E+00  0.20306023925E-01 0.  0.
         14    1    1    2    0    0 -0.23482755758E-01  0.54830414826E-02 -0.84874981249E-03  0.24129316984E-01  0.00000000000E+00 0. -1.
     999901    1    3    3    0    0  0.86225151432E-01  0.91223893979E-01 -0.53977309748E-01  0.89054484757E+00  0.88000000000E+00 0.  1.
        -11    1    4    4    0    0 -0.30530990198E-01 -0.39875297082E-01  0.13691855664E-01  0.52056783539E-01  0.51100000000E-03 0.  1.
         11    1    4    4    0    0 -0.32211405476E-01 -0.56831638379E-01  0.41134203896E-01  0.77199051904E-01  0.51100000000E-03 0. -1.
</event>
<event>
 8    1  0.1104109E+005  0.1043930E+01  0.7957747E-01            NaN
         13   -1    0    0    0    0  0.00000000000E+00  0.00000000000E+00  0.74505805969E-08  0.10566000000E+00  0.10566000000E+00 0.  1.
     999900   -1    0    0    0    0 -0.00000000000E+00 -0.00000000000E+00 -0.74505805969E-08  0.93827000000E+00  0.93827000000E+00 0.  1.
     999902    2    1    2    0    0 -0.10665747588E-01  0.13036433206E-01 -0.16958347911E-01  0.10200282778E+01  0.10197482018E+01 0.  0.
     999903    2    3    3    0    0  0.35159158617E-01 -0.97947868894E-01 -0.75609812282E-01  0.12993983742E+00  0.18372974193E-01 0.  0.
         14    1    1    2    0    0  0.10665747588E-01 -0.13036433206E-01  0.16958347911E-01  0.23901722244E-01  0.00000000000E+00 0.  1.
     999901    1    3    3    0    0 -0.45824906205E-01  0.11098430210E+00  0.58651464371E-01  0.89008844033E+00  0.88000000000E+00 0. -1.
        -11    1    4    4    0    0  0.29202240482E-01 -0.55064301449E-01 -0.42694778888E-01  0.75550998726E-01  0.51100000000E-03 0.  1.
         11    1    4    4    0    0  0.59569181354E-02 -0.42883567445E-01 -0.32915033394E-01  0.54388838697E-01  0.51100000000E-03 0. -1.
</event>
<event>
 8    1  0.1104109E+005  0.1043930E+01  0.7957747E-01            NaN
         13   -1    0    0    0    0  0.00000000000E+00  0.00000000000E+00  0.74505805969E-08  0.10566000000E+00  0.10566000000E+00 0. -1.
     999900   -1    0    0    0    0 -0.00000000000E+00 -0.00000000000E+00 -0.74505805969E-08  0.93827000000E+00  0.93827000000E+00 0.  1.
     999902    2    1    2    0    0 -0.29724068193E-02  0.20416970257E-01 -0.94323314835E-03  0.10232762457E+01  0.10230677873E+01 0.  0.
     999903    2    3    3    0    0  0.35154778909E-01 -0.12284393003E+00  0.18277094243E-01  0.13066950767E+00  0.20346460046E-01 0.  0.
         14    1    1    2    0    0  0.29724068193E-02 -0.20416970257E-01  0.94323314835E-03  0.20653754273E-01  0.00000000000E+00 0. -1.
     999901    1    3    3    0    0 -0.38127185728E-01  0.14326090028E+00 -0.19220327391E-01  0.89260673806E+00  0.88000000000E+00 0.  1.
        -11    1    4    4    0    0  0.23203325484E-01 -0.53710062473E-01  0.15145410078E-01  0.60438478569E-01  0.51100000000E-03 0. -1.
         11    1    4    4    0    0  0.11951453425E-01 -0.69133867553E-01  0.31316841646E-02  0.70231029100E-01  0.51100000000E-03 0.  1.
</event>
<event>
 8    1  0.1104109E+005  0.1043930E+01  0.7957747E-01            NaN
         13   -1    0    0    0    0  0.00000000000E+00  0.00000000000E+00  0.74505805969E-08  0.10566000000E+00  0.10566000000E+00 0.  1.
     999900   -1    0    0    0    0 -0.00000000000E+00 -0.00000000000E+00 -0.74505805969E-08  0.93827000000E+00  0.93827000000E+00 0. -1.
     999902    2    1    2    0    0  0.15605197449E-01  0.91263007015E-02 -0.51090531121E-02  0.10251439952E+01  0.10249718518E+01 0.  0.
     999903    2    3    3    0    0 -0.69148739564E-02  0.90340515724E-01 -0.10000647579E+00  0.13603858911E+00  0.17204018824E-01 0.  0.
         14    1    1    2    0    0 -0.15605197449E-01 -0.91263007015E-02  0.51090531121E-02  0.18786004781E-01  0.00000000000E+00 0.  1.
     999901    1    3    3    0    0  0.22520071406E-01 -0.81214215023E-01  0.94897422682E-01  0.88910540611E+00  0.88000000000E+00 0. -1.
        -11    1    4    4    0    0 -0.41186495697E-02  0.84698292224E-01 -0.86530087158E-01  0.12115478152E+00  0.51100000000E-03 0. -1.
         11    1    4    4    0    0 -0.27962243867E-02  0.56422234999E-02 -0.13476388635E-01  0.14883807594E-01  0.51100000000E-03 0.  1.
</event>
<event>
 8    1  0.1104109E+005  0.1043930E+01  0.7957747E-01            NaN
         13   -1    0    0    0    0  0.00000000000E+00  0.00000000000E+00  0.74505805969E-08  0.10566000000E+00  0.10566000000E+00 0. -1.
     999900   -1    0    0    0    0 -0.00000000000E+00 -0.00000000000E+00 -0.74505805969E-08  0.93827000000E+00  0.93827000000E+00 0. -1.
     999902    2    1    2    0    0 -0.10107295776E-01  0.21650640345E-01 -0.76670707279E-02  0.10188363429E+01  0.10185272711E+01 0.  0.
     999903    2    3    3    0    0  0.76136111747E-01 -0.91367487512E-01 -0.39126277963E-01  0.12687182322E+00  0.20515082613E-01 0.  0.
         14    1    1    2    0    0  0.10107295776E-01 -0.21650640345E-01  0.76670707279E-02  0.25093657143E-01  0.00000000000E+00 0. -1.
     999901    1    3    3    0    0 -0.86243407523E-01  0.11301812786E+00  0.31459207236E-01  0.89196451963E+00  0.88000000000E+00 0. -1.
        -11    1    4    4    0    0  0.18442811028E-01 -0.10775467233E-01 -0.98194057103E-02  0.23514459854E-01  0.51100000000E-03 0.  1.
         11    1    4    4    0    0  0.57693300719E-01 -0.80592020279E-01 -0.29306872253E-01  0.10335736337E+00  0.51100000000E-03 0. -1.
</event>
<event>
 8    1  0.1104109E+005  0.1043930E+01  0.7957747E-01            NaN
         13   -1    0    0    0    0  0.00000000000E+00  0.00000000000E+00  0.74505805969E-08  0.10566000000E+00  0.10566000000E+00 0.  1.
     999900   -1    0    0    0    0 -0.00000000000E+00 -0.00000000000E+00 -0.74505805969E-08  0.93827000000E+00  0.93827000000E+00 0. -1.
     999902    2    1    2    0    0  0.84616833655E-02  0.13362313798E-01 -0.22170556819E-01  0.10166961037E+01  0.10163312857E+01 0.  0.
     999903    2    3    3    0    0  0.34520859732E-01  0.11118525344E+00 -0.55119665113E-01  0.13027969374E+00  0.19513348784E-01 0.  0.
         14    1    1    2    0    0 -0.84616833655E-02 -0.13362313798E-01  0.22170556819E-01  0.27233896252E-01  0.00000000000E+00 0.  1.
     999901    1    3    3    0    0 -0.26059176367E-01 -0.97822939638E-01  0.32949108294E-01  0.88641641001E+00  0.88000000000E+00 0.  1.
        -11    1    4    4    0    0  0.32763665281E-01  0.75437038616E-01 -0.37936714285E-01  0.90574057928E-01  0.51100000000E-03 0.  1.
         11    1    4    4    0    0  0.17571944517E-02  0.35748214820E-01 -0.17182950828E-01  0.39705635813E-01  0.51100000000E-03 0. -1.
</event>
<event>
 8    1  0.1104109E+005  0.1043930E+01  0.7957747E-01            NaN
         13   -1    0    0    0    0  0.00000000000E+00  0.00000000000E+00  0.74505805969E-08  0.10566000000E+00  0.10566000000E+00 0.  1.
     999900   -1    0    0    0    0 -0.00000000000E+00 -0.00000000000E+00 -0.74505805969E-08  0.93827000000E+00  0.93827000000E+00 0. -1.
     999902    2    1    2    0    0 -0.16071865175E-01 -0.13784320297E-01  0.10742234081E-01  0.10201874658E+01  0.10199111518E+01 0.  0.
     999903    2    3    3    0    0 -0.18646923035E-01 -0.58908671181E-01 -0.11298846257E+00  0.13038292365E+00  0.20380746482E-01 0.  0.
         14    1    1    2    0    0  0.16071865175E-01  0.13784320297E-01 -0.10742234081E-01  0.23742534180E-01  0.00000000000E+00 0.  1.
     999901    1    3    3    0    0  0.25750578598E-02  0.45124350884E-01  0.12373069665E+00  0.88980454217E+00  0.88000000000E+00 0.  1.
        -11    1    4    4    0    0 -0.38677921982E-02 -0.38637400299E-01 -0.80083332563E-01  0.89002302183E-01  0.51100000000E-03 0.  1.
         11    1    4    4    0    0 -0.14779130837E-01 -0.20271270882E-01 -0.32905130008E-01  0.41380621471E-01  0.51100000000E-03 0. -1.
</event>
<event>
 8    1  0.1104109E+005  0.1043930E+01  0.7957747E-01            NaN
         13   -1    0    0    0    0  0.00000000000E+00  0.00000000000E+00  0.74505805969E-08  0.10566000000E+00  0.10566000000E+00 0.  1.
     999900   -1    0    0    0    0 -0.00000000000E+00 -0.00000000000E+00 -0.74505805969E-08  0.93827000000E+00  0.93827000000E+00 0. -1.
     999902    2    1    2    0    0 -0.18269443581E-01 -0.87863736058E-02  0.11557730183E-01  0.10205943179E+01  0.10203275003E+01 0.  0.
     999903    2    3    3    0    0  0.17041667146E-01  0.12656421541E+00  0.10036588599E-01  0.12954495323E+00  0.19293593673E-01 0.  0.
         14    1    1    2    0    0  0.18269443581E-01  0.87863736058E-02 -0.11557730183E-01  0.23335682053E-01  0.00000000000E+00 0. -1.
     999901    1    3    3    0    0 -0.35311110727E-01 -0.13535058901E+00  0.15211415849E-02  0.89104936471E+00  0.88000000000E+00 0. -1.
        -11    1    4    4    0    0  0.31581373389E-02  0.85191248035E-01  0.27354026686E-02  0.85295170566E-01  0.51100000000E-03 0.  1.
         11    1    4    4    0    0  0.13883529807E-01  0.41372967371E-01  0.73011859299E-02  0.44249782666E-01  0.51100000000E-03 0. -1.
</event>
<event>
 8    1  0.1104109E+005  0.1043930E+01  0.7957747E-01            NaN
         13   -1    0    0    0    0  0.00000000000E+00  0.00000000000E+00  0.74505805969E-08  0.10566000000E+00  0.10566000000E+00 0.  1.
     999900   -1    0    0    0    0 -0.00000000000E+00 -0.00000000000E+00 -0.74505805969E-08  0.93827000000E+00  0.93827000000E+00 0.  1.
     999902    2    1    2    0    0  0.53497915695E-03 -0.17112351367E-01  0.15948581884E-01  0.10205317942E+01  0.10202635281E+01 0.  0.
     999903    2    3    3    0    0 -0.15489757361E-01  0.12242967207E+00 -0.28698567281E-01  0.12827502820E+00  0.20047890399E-01 0.  0.
         14    1    1    2    0    0 -0.53497915695E-03  0.17112351367E-01 -0.15948581884E-01  0.23398205832E-01  0.00000000000E+00 0. -1.
     999901    1    3    3    0    0  0.16024736518E-01 -0.13954202344E+00  0.44647149165E-01  0.89225676597E+00  0.88000000000E+00 0. -1.
        -11    1    4    4    0    0 -0.33930156381E-02  0.48757748441E-02 -0.49215765575E-02  0.77310265982E-02  0.51100000000E-03 0. -1.
         11    1    4    4    0    0 -0.12096741723E-01  0.11755389723E+00 -0.23776990723E-01  0.12054400160E+00  0.51100000000E-03 0.  1.
</event>
<event>
 7    1  0.1104109E+005  0.1043930E+01  0.7957747E-01            NaN
         13   -1    0    0    0    0  0.00000000000E+00  0.00000000000E+00  0.74505805969E-08  0.10566000000E+00  0.10566000000E+00 0. -1.
     999900   -1    0    0    0    0 -0.00000000000E+00 -0.00000000000E+00 -0.74505805969E-08  0.93827000000E+00  0.93827000000E+00 0.  1.
     999903    2    1    2    0    0  0.62590353719E-01 -0.31134378158E-01 -0.15091434702E-01  0.75180172483E-01  0.23181998434E-01 0.  0.
         14    1    1    2    0    0 -0.63321812634E-02 -0.89548621590E-02  0.82731019769E-01  0.83454824354E-01  0.00000000000E+00 0. -1.
     999901    1    1    2    0    0 -0.56258172455E-01  0.40089240317E-01 -0.67639585068E-01  0.88529500316E+00  0.88000000000E+00 0. -1.
        -11    1    3    3    0    0  0.49775913793E-01 -0.22943068303E-01 -0.15864468708E-02  0.54834331507E-01  0.51100000000E-03 0. -1.
         11    1    3    3    0    0  0.12814439925E-01 -0.81913098548E-02 -0.13504987831E-01  0.20345840977E-01  0.51100000000E-03 0.  1.
</event>
<event>
 8    1  0.1104109E+005  0.1043930E+01  0.7957747E-01            NaN
         13   -1    0    0    0    0  0.00000000000E+00  0.00000000000E+00  0.74505805969E-08  0.10566000000E+00  0.10566000000E+00 0.  1.
     999900   -1    0    0    0    0 -0.00000000000E+00 -0.00000000000E+00 -0.74505805969E-08  0.93827000000E+00  0.93827000000E+00 0.  1.
     999902    2    1    2    0    0 -0.44264806494E-02 -0.24547838957E-03  0.20304826885E-01  0.10231468341E+01  0.10229357282E+01 0.  0.
     999903    2    3    3    0    0 -0.11535239329E+00 -0.16728614306E-01 -0.59800773340E-01  0.13242063651E+00  0.19315053917E-01 0.  0.
         14    1    1    2    0    0  0.44264806494E-02  0.24547838957E-03 -0.20304826885E-01  0.20783165914E-01  0.00000000000E+00 0. -1.
     999901    1    3    3    0    0  0.11092591264E+00  0.16483135916E-01  0.80105600225E-01  0.89072619758E+00  0.88000000000E+00 0.  1.
        -11    1    4    4    0    0 -0.10281272626E+00 -0.16144283846E-01 -0.59439835924E-01  0.11985178262E+00  0.51100000000E-03 0.  1.
         11    1    4    4    0    0 -0.12539667024E-01 -0.58433045944E-03 -0.36093741555E-03  0.12568853884E-01  0.51100000000E-03 0. -1.
</event>
<event>
 8    1  0.1104109E+005  0.1043930E+01  0.7957747E-01            NaN
         13   -1    0    0    0    0  0.00000000000E+00  0.00000000000E+00  0.74505805969E-08  0.10566000000E+00  0.10566000000E+00 0.  1.
     999900   -1    0    0    0    0 -0.00000000000E+00 -0.00000000000E+00 -0.74505805969E-08  0.93827000000E+00  0.93827000000E+00 0. -1.
     999902    2    1    2    0    0  0.29269259183E-02 -0.19743351958E-01  0.12492106980E-01  0.10203838840E+01  0.10201121758E+01 0.  0.
     999903    2    3    3    0    0 -0.59515346869E-01 -0.68341964577E-01  0.95058489507E-01  0.13298427272E+00  0.20880606505E-01 0.  0.
         14    1    1    2    0    0 -0.29269259183E-02  0.19743351958E-01 -0.12492106980E-01  0.23546115999E-01  0.00000000000E+00 0. -1.
     999901    1    3    3    0    0  0.62442272788E-01  0.48598612619E-01 -0.82566382527E-01  0.88739961128E+00  0.88000000000E+00 0.  1.
        -11    1    4    4    0    0 -0.25252661345E-01 -0.42821973858E-01  0.58326260596E-01  0.76639625170E-01  0.51100000000E-03 0.  1.
         11    1    4    4    0    0 -0.34262685524E-01 -0.25519990719E-01  0.36732228911E-01  0.56344647549E-01  0.51100000000E-03 0. -1.
</event>
<event>
 8    1  0.1104109E+005  0.1043930E+01  0.7957747E-01            NaN
         13   -1    0    0    0    0  0.00000000000E+00  0.00000000000E+00  0.74505805969E-08  0.10566000000E+00  0.10566000000E+00 0.  1.
     999900   -1    0    0    0    0 -0.00000000000E+00 -0.00000000000E+00 -0.74505805969E-08  0.93827000000E+00  0.93827000000E+00 0. -1.
     999902    2    1    2    0    0  0.12928525908E-01  0.19550051171E-01 -0.43132565746E-03  0.10204877875E+01  0.10202184997E+01 0.  0.
     999903    2    3    3    0    0 -0.12750630381E+00  0.16611160009E-02  0.41382525716E-02  0.12916133980E+00  0.20122369305E-01 0.  0.
         14    1    1    2    0    0 -0.12928525908E-01 -0.19550051171E-01  0.43132565746E-03  0.23442212455E-01  0.00000000000E+00 0.  1.
     999901    1    3    3    0    0  0.14043482972E+00  0.17888935170E-01 -0.45695782291E-02  0.89132644774E+00  0.88000000000E+00 0. -1.
        -11    1    4    4    0    0 -0.46640091373E-01 -0.33117446492E-03  0.11173272328E-01  0.47963641806E-01  0.51100000000E-03 0. -1.
         11    1    4    4    0    0 -0.80866212441E-01  0.19922904658E-02 -0.70350197564E-02  0.81197697996E-01  0.51100000000E-03 0.  1.
</event>
<event>
 8    1  0.1104109E+005  0.1043930E+01  0.7957747E-01            NaN
         13   -1    0    0    0    0  0.00000000000E+00  0.00000000000E+00  0.74505805969E-08  0.10566000000E+00  0.10566000000E+00 0.  1.
     999900   -1    0    0    0    0 -0.00000000000E+00 -0.00000000000E+00 -0.74505805969E-08  0.93827000000E+00  0.93827000000E+00 0. -1.
     999902    2    1    2    0    0 -0.11140645576E-01 -0.84563094948E-02  0.16695890490E-01  0.10221498275E+01  0.10219177530E+01 0.  0.
     999903    2    3    3    0    0  0.95321421087E-01  0.36958498595E-01 -0.76873243715E-01  0.12965228729E+00  0.21168752076E-01 0.  0.
         14    1    1    2    0    0  0.11140645576E-01  0.84563094948E-02 -0.16695890490E-01  0.21780172483E-01  0.00000000000E+00 0. -1.
     999901    1    3    3    0    0 -0.10646206666E+00 -0.45414808090E-01  0.93569134205E-01  0.89249754023E+00  0.88000000000E+00 0.  1.
        -11    1    4    4    0    0  0.37625428782E-01  0.17671432945E-01 -0.43878111644E-01  0.60444207628E-01  0.51100000000E-03 0.  1.
         11    1    4    4    0    0  0.57695992305E-01  0.19287065650E-01 -0.32995132072E-01  0.69208079664E-01  0.51100000000E-03 0. -1.
</event>
<event>
 8    1  0.1104109E+005  0.1043930E+01  0.7957747E-01            NaN
         13   -1    0    0    0    0  0.00000000000E+00  0.00000000000E+00  0.74505805969E-08  0.10566000000E+00  0.10566000000E+00 0. -1.
     999900   -1    0    0    0    0 -0.00000000000E+00 -0.00000000000E+00 -0.74505805969E-08  0.93827000000E+00  0.93827000000E+00 0.  1.
     999902    2    1    2    0    0  0.64736304719E-02 -0.12298656194E-02 -0.21913289899E-01  0.10210474142E+01  0.10207909723E+01 0.  0.
     999903    2    3    3    0    0 -0.40469696315E-01 -0.11165198489E+00 -0.55300781683E-01  0.13227778992E+00  0.18310521625E-01 0.  0.
         14    1    1    2    0    0 -0.64736304719E-02  0.12298656194E-02  0.21913289899E-01  0.22882585848E-01  0.00000000000E+00 0. -1.
     999901    1    3    3    0    0  0.46943326787E-01  0.11042211927E+00  0.33387491785E-01  0.88876962423E+00  0.88000000000E+00 0. -1.
        -11    1    4    4    0    0 -0.13853543630E-01 -0.55415355144E-01 -0.34197136856E-01  0.66576929540E-01  0.51100000000E-03 0. -1.
         11    1    4    4    0    0 -0.26616152685E-01 -0.56236629741E-01 -0.21103644827E-01  0.65700860378E-01  0.51100000000E-03 0.  1.
</event>
<event>
 8    1  0.1104109E+005  0.1043930E+01  0.7957747E-01            NaN
         13   -1    0    0    0    0  0.00000000000E+00  0.00000000000E+00  0.74505805969E-08  0.10566000000E+00  0.10566000000E+00 0. -1.
     999900   -1    0    0    0    0 -0.00000000000E+00 -0.00000000000E+00 -0.74505805969E-08  0.93827000000E+00  0.93827000000E+00 0.  1.
     999902    2    1    2    0    0  0.47823495655E-04 -0.30360282623E-03  0.23515096076E-01  0.10204128955E+01  0.10201418642E+01 0.  0.
     999903    2    3    3    0    0 -0.24660087205E-01  0.19826730805E-01 -0.12215575419E+00  0.12786838241E+00  0.20665811960E-01 0.  0.
         14    1    1    2    0    0 -0.47823495655E-04  0.30360282623E-03 -0.23515096076E-01  0.23517104525E-01  0.00000000000E+00 0.  1.
     999901    1    3    3    0    0  0.24707910700E-01 -0.20130333631E-01  0.14567085026E+00  0.89254451306E+00  0.88000000000E+00 0. -1.
        -11    1    4    4    0    0 -0.30597831762E-02  0.75283566420E-02 -0.65417934315E-01  0.65922725048E-01  0.51100000000E-03 0.  1.
         11    1    4    4    0    0 -0.21600304028E-01  0.12298374163E-01 -0.56737819873E-01  0.61945657363E-01  0.51100000000E-03 0. -1.
</event>
<event>
 8    1  0.1104109E+005  0.1043930E+01  0.7957747E-01            NaN
         13   -1    0    0    0    0  0.00000000000E+00  0.00000000000E+00  0.74505805969E-08  0.10566000000E+00  0.10566000000E+00 0.  1.
     999900   -1    0    0    0    0 -0.00000000000E+00 -0.00000000000E+00 -0.74505805969E-08  0.93827000000E+00  0.93827000000E+00 0. -1.
     999902    2    1    2    0    0 -0.46779039988E-02  0.16632273081E-01  0.16001951787E-01  0.10203805254E+01  0.10201087387E+01 0.  0.
     999903    2    3    3    0    0  0.35597260061E-01  0.96708316889E-01  0.82309034750E-01  0.13334563831E+00  0.19662618748E-01 0.  0.
         14    1    1    2    0    0  0.46779039988E-02 -0.16632273081E-01 -0.16001951787E-01  0.23549474616E-01  0.00000000000E+00 0. -1.
     999901    1    3    3    0    0 -0.40275164060E-01 -0.80076043808E-01 -0.66307082963E-01  0.88703488707E+00  0.88000000000E+00 0. -1.
        -11    1    4    4    0    0  0.59552305785E-02  0.33752500680E-02  0.70427849884E-02  0.98345831461E-02  0.51100000000E-03 0. -1.
         11    1    4    4    0    0  0.29642029483E-01  0.93333066821E-01  0.75266249762E-01  0.12351105517E+00  0.51100000000E-03 0.  1.
</event>
<event>
 8    1  0.1104109E+005  0.1043930E+01  0.7957747E-01            NaN
         13   -1    0    0    0    0  0.00000000000E+00  0.00000000000E+00  0.74505805969E-08  0.10566000000E+00  0.10566000000E+00 0.  1.
     999900   -1    0    0    0    0 -0.00000000000E+00 -0.00000000000E+00 -0.74505805969E-08  0.93827000000E+00  0.93827000000E+00 0. -1.
     999902    2    1    2    0    0 -0.26737287483E-02  0.90579387113E-02  0.22672206271E-01  0.10193693808E+01  0.10190734569E+01 0.  0.
     999903    2    3    3    0    0 -0.47675995387E-01 -0.75287796141E-01 -0.88701553967E-01  0.12721271211E+00  0.19335347477E-01 0.  0.
         14    1    1    2    0    0  0.26737287483E-02 -0.90579387113E-02 -0.22672206271E-01  0.24560619217E-01  0.00000000000E+00 0. -1.
     999901    1    3    3    0    0  0.45002266639E-01  0.84345734852E-01  0.11137376024E+00  0.89215666867E+00  0.88000000000E+00 0.  1.
        -11    1    4    4    0    0 -0.23021085832E-01 -0.28572017741E-01 -0.24736510654E-01  0.44254792633E-01  0.51100000000E-03 0. -1.
         11    1    4    4    0    0 -0.24654909555E-01 -0.46715778399E-01 -0.63965043314E-01  0.82957919476E-01  0.51100000000E-03 0.  1.
</event>
<event>
 8    1  0.1104109E+005  0.1043930E+01  0.7957747E-01            NaN
         13   -1    0    0    0    0  0.00000000000E+00  0.00000000000E+00  0.74505805969E-08  0.10566000000E+00  0.10566000000E+00 0. -1.
     999900   -1    0    0    0    0 -0.00000000000E+00 -0.00000000000E+00 -0.74505805969E-08  0.93827000000E+00  0.93827000000E+00 0. -1.
     999902    2    1    2    0    0 -0.23499610024E-01  0.21344915349E-02  0.20035522432E-02  0.10202487427E+01  0.10199738698E+01 0.  0.
     999903    2    3    3    0    0 -0.43851873818E-01 -0.29277754214E-01  0.11903077726E+00  0.13171269098E+00  0.19993331414E-01 0.  0.
         14    1    1    2    0    0  0.23499610024E-01 -0.21344915349E-02 -0.20035522432E-02  0.23681257293E-01  0.00000000000E+00 0. -1.
     999901    1    3    3    0    0  0.20352263794E-01  0.31412245749E-01 -0.11702722502E+00  0.88853605173E+00  0.88000000000E+00 0. -1.
        -11    1    4    4    0    0 -0.40352604592E-01 -0.26702940016E-01  0.88460765991E-01  0.10083128455E+00  0.51100000000E-03 0. -1.
         11    1    4    4    0    0 -0.34992692256E-02 -0.25748141982E-02  0.30570011267E-01  0.30881406431E-01  0.51100000000E-03 0.  1.
</event>
<event>
 8    1  0.1104109E+005  0.1043930E+01  0.7957747E-01            NaN
         13   -1    0    0    0    0  0.00000000000E+00  0.00000000000E+00  0.74505805969E-08  0.10566000000E+00  0.10566000000E+00 0. -1.
     999900   -1    0    0    0    0 -0.00000000000E+00 -0.00000000000E+00 -0.74505805969E-08  0.93827000000E+00  0.93827000000E+00 0.  1.
     999902    2    1    2    0    0 -0.17960942744E-02  0.17270023136E-02  0.23014941026E-01  0.10207805723E+01  0.10205180453E+01 0.  0.
     999903    2    3    3    0    0 -0.48174710633E-01  0.53965873071E-01 -0.10458629695E+00  0.12883777617E+00  0.20682380369E-01 0.  0.
         14    1    1    2    0    0  0.17960942744E-02 -0.17270023136E-02 -0.23014941026E-01  0.23149427683E-01  0.00000000000E+00 0.  1.
     999901    1    3    3    0    0  0.46378616359E-01 -0.52238870758E-01  0.12760123797E+00  0.89194279615E+00  0.88000000000E+00 0. -1.
        -11    1    4    4    0    0 -0.13268794686E-01  0.30244182354E-01 -0.45530708992E-01  0.56250138320E-01  0.51100000000E-03 0.  1.
         11    1    4    4    0    0 -0.34905915947E-01  0.23721690717E-01 -0.59055587954E-01  0.72587637846E-01  0.51100000000E-03 0. -1.
</event>
<event>
 8    1  0.1104109E+005  0.1043930E+01  0.7957747E-01            NaN
         13   -1    0    0    0    0  0.00000000000E+00  0.00000000000E+00  0.74505805969E-08  0.10566000000E+00  0.10566000000E+00 0. -1.
     999900   -1    0    0    0    0 -0.00000000000E+00 -0.00000000000E+00 -0.74505805969E-08  0.93827000000E+00  0.93827000000E+00 0. -1.
     999902    2    1    2    0    0 -0.36540603921E-02  0.80577018254E-02  0.21654713703E-01  0.10205375794E+01  0.10202694476E+01 0.  0.
     999903    2    3    3    0    0 -0.11439792517E+00  0.45573673032E-02 -0.58274286466E-01  0.12999555288E+00  0.19882062914E-01 0.  0.
         14    1    1    2    0    0  0.36540603921E-02 -0.80577018254E-02 -0.21654713703E-01  0.23392420602E-01  0.00000000000E+00 0.  1.
     999901    1    3    3    0    0  0.11074386478E+00  0.35003345222E-02  0.79929000169E-01  0.89054202652E+00  0.88000000000E+00 0. -1.
        -11    1    4    4    0    0 -0.92883578369E-01  0.10510862527E-01 -0.42679480090E-01  0.10276009198E+00  0.51100000000E-03 0.  1.
         11    1    4    4    0    0 -0.21514346800E-01 -0.59534952234E-02 -0.15594806376E-01  0.27235460901E-01  0.51100000000E-03 0. -1.
</event>
<event>
 8    1  0.1104109E+005  0.1043930E+01  0.7957747E-01            NaN
         13   -1    0    0    0    0  0.00000000000E+00  0.00000000000E+00  0.74505805969E-08  0.10566000000E+00  0.10566000000E+00 0. -1.
     999900   -1    0    0    0    0 -0.00000000000E+00 -0.00000000000E+00 -0.74505805969E-08  0.93827000000E+00  0.93827000000E+00 0.  1.
     999902    2    1    2    0    0  0.32479439100E-02  0.22971718741E-01  0.43915574472E-02  0.10203178256E+01  0.10200445728E+01 0.  0.
     999903    2    3    3    0    0 -0.11780187177E+00 -0.40951863875E-01  0.28615708195E-01  0.12940475930E+00  0.19297586011E-01 0.  0.
         14    1    1    2    0    0 -0.32479439100E-02 -0.22971718741E-01 -0.43915574472E-02  0.23612174367E-01  0.00000000000E+00 0. -1.
     999901    1    3    3    0    0  0.12104981568E+00  0.63923582616E-01 -0.24224150748E-01  0.89091306634E+00  0.88000000000E+00 0.  1.
        -11    1    4    4    0    0 -0.67228168238E-01 -0.15484694416E-01  0.21893487139E-01  0.72380855658E-01  0.51100000000E-03 0.  1.
         11    1    4    4    0    0 -0.50573703531E-01 -0.25467169459E-01  0.67222210562E-02  0.57023903637E-01  0.51100000000E-03 0. -1.
</event>
<event>
 8    1  0.1104109E+005  0.1043930E+01  0.7957747E-01            NaN
         13   -1    0    0    0    0  0.00000000000E+00  0.00000000000E+00  0.74505805969E-08  0.10566000000E+00  0.10566000000E+00 0.  1.
     999900   -1    0    0    0    0 -0.00000000000E+00 -0.00000000000E+00 -0.74505805969E-08  0.93827000000E+00  0.93827000000E+00 0.  1.
     999902    2    1    2    0    0  0.70766185899E-02  0.22391238444E-01 -0.47118410757E-02  0.10199790598E+01  0.10196978155E+01 0.  0.
     999903    2    3    3    0    0 -0.33010447975E-01 -0.89824192686E-01  0.82135621911E-01  0.12771129859E+00  0.20145474247E-01 0.  0.
         14    1    1    2    0    0 -0.70766185899E-02 -0.22391238444E-01  0.47118410757E-02  0.23950940191E-01  0.00000000000E+00 0.  1.
     999901    1    3    3    0    0  0.40087066565E-01  0.11221543113E+00 -0.86847462987E-01  0.89226776122E+00  0.88000000000E+00 0. -1.
        -11    1    4    4    0    0 -0.14212253798E-01 -0.51251215028E-01  0.57078666739E-01  0.78018654933E-01  0.51100000000E-03 0.  1.
         11    1    4    4    0    0 -0.18798194177E-01 -0.38572977658E-01  0.25056955172E-01  0.49692643653E-01  0.51100000000E-03 0. -1.
</event>
<event>
 8    1  0.1104109E+005  0.1043930E+01  0.7957747E-01            NaN
         13   -1    0    0    0    0  0.00000000000E+00  0.00000000000E+00  0.74505805969E-08  0.10566000000E+00  0.10566000000E+00 0. -1.
     999900   -1    0    0    0    0 -0.00000000000E+00 -0.00000000000E+00 -0.74505805969E-08  0.93827000000E+00  0.93827000000E+00 0. -1.
     999902    2    1    2    0    0 -0.21622084888E-02  0.19031735472E-01 -0.12982368309E-01  0.10207907695E+01  0.10205284764E+01 0.  0.
     999903    2    3    3    0    0 -0.69186051792E-01  0.11747785515E-02 -0.11098732233E+00  0.13263760846E+00  0.22055828961E-01 0.  0.
         14    1    1    2    0    0  0.21622084888E-02 -0.19031735472E-01  0.12982368309E-01  0.23139230487E-01  0.00000000000E+00 0. -1.
     999901    1    3    3    0    0  0.67023843303E-01  0.17856956921E-01  0.98004954024E-01  0.88815316106E+00  0.88000000000E+00 0.  1.
        -11    1    4    4    0    0 -0.49835352347E-01 -0.47255690958E-03 -0.59555396968E-01  0.77658818447E-01  0.51100000000E-03 0.  1.
         11    1    4    4    0    0 -0.19350699445E-01  0.16473354611E-02 -0.51431925365E-01  0.54978790009E-01  0.51100000000E-03 0. -1.
</event>
<event>
 8    1  0.1104109E+005  0.1043930E+01  0.7957747E-01            NaN
         13   -1    0    0    0    0  0.00000000000E+00  0.00000000000E+00  0.74505805969E-08  0.10566000000E+00  0.10566000000E+00 0. -1.
     999900   -1    0    0    0    0 -0.00000000000E+00 -0.00000000000E+00 -0.74505805969E-08  0.93827000000E+00  0.93827000000E+00 0.  1.
     999902    2    1    2    0    0 -0.10569776206E-02 -0.17795115908E-01  0.16230433981E-01  0.10198216956E+01  0.10195366990E+01 0.  0.
     999903    2    3    3    0    0  0.10660537856E+00  0.31591643050E-01  0.65497573642E-01  0.13052001120E+00  0.19565339819E-01 0.  0.
         14    1    1    2    0    0  0.10569776206E-02  0.17795115908E-01 -0.16230433981E-01  0.24108304359E-01  0.00000000000E+00 0.  1.
     999901    1    3    3    0    0 -0.10766235618E+00 -0.49386758958E-01 -0.49267139661E-01  0.88930168444E+00  0.88000000000E+00 0.  1.
        -11    1    4    4    0    0  0.61219583471E-01  0.14507061313E-01  0.26425171419E-01  0.68241065597E-01  0.51100000000E-03 0. -1.
         11    1    4    4    0    0  0.45385795089E-01  0.17084581737E-01  0.39072402223E-01  0.62278945603E-01  0.51100000000E-03 0.  1.
</event>
<event>
 8    1  0.1104109E+005  0.1043930E+01  0.7957747E-01            NaN
         13   -1    0    0    0    0  0.00000000000E+00  0.00000000000E+00  0.74505805969E-08  0.10566000000E+00  0.10566000000E+00 0. -1.
     999900   -1    0    0    0    0 -0.00000000000E+00 -0.00000000000E+00 -0.74505805969E-08  0.93827000000E+00  0.93827000000E+00 0.  1.
     999902    2    1    2    0    0 -0.50007349734E-02  0.23036496406E-01 -0.71944983624E-03  0.10203459985E+01  0.10200734050E+01 0.  0.
     999903    2    3    3    0    0  0.97171316932E-01  0.85067306645E-01 -0.19576029491E-01  0.13206534457E+00  0.19476211452E-01 0.  0.
         14    1    1    2    0    0  0.50007349734E-02 -0.23036496406E-01  0.71944983624E-03  0.23584001463E-01  0.00000000000E+00 0.  1.
     999901    1    3    3    0    0 -0.10217205191E+00 -0.62030810238E-01  0.18856579654E-01  0.88828065396E+00  0.88000000000E+00 0. -1.
        -11    1    4    4    0    0  0.58319810768E-01  0.38630181668E-01 -0.13103300364E-01  0.71171966849E-01  0.51100000000E-03 0.  1.
         11    1    4    4    0    0  0.38851506164E-01  0.46437124977E-01 -0.64727291266E-02  0.60893377724E-01  0.51100000000E-03 0. -1.
</event>
<event>
 8    1  0.1104109E+005  0.1043930E+01  0.7957747E-01            NaN
         13   -1    0    0    0    0  0.00000000000E+00  0.00000000000E+00  0.74505805969E-08  0.10566000000E+00  0.10566000000E+00 0.  1.
     999900   -1    0    0    0    0 -0.00000000000E+00 -0.00000000000E+00 -0.74505805969E-08  0.93827000000E+00  0.93827000000E+00 0. -1.
     999902    2    1    2    0    0  0.16612663448E-01 -0.38011867576E-02  0.16387341418E-01  0.10202873570E+01  0.10200133903E+01 0.  0.
     999903    2    3    3    0    0  0.11069715312E-01  0.12659172184E+00 -0.13583185052E-01  0.13015744104E+00  0.24666858486E-01 0.  0.
         14    1    1    2    0    0 -0.16612663448E-01  0.38011867576E-02 -0.16387341418E-01  0.23642642965E-01  0.00000000000E+00 0. -1.
     999901    1    3    3    0    0  0.55429481363E-02 -0.13039290860E+00  0.29970526470E-01  0.89012991599E+00  0.88000000000E+00 0.  1.
        -11    1    4    4    0    0 -0.98230117807E-03  0.84911668581E-01 -0.79850714223E-03  0.84922641925E-01  0.51100000000E-03 0.  1.
         11    1    4    4    0    0  0.12052016490E-01  0.41680053258E-01 -0.12784677910E-01  0.45234799119E-01  0.51100000000E-03 0. -1.
</event>
<event>
 8    1  0.1104109E+005  0.1043930E+01  0.7957747E-01            NaN
         13   -1    0    0    0    0  0.00000000000E+00  0.00000000000E+00  0.74505805969E-08  0.10566000000E+00  0.10566000000E+00 0.  1.
     999900   -1    0    0    0    0 -0.00000000000E+00 -0.00000000000E+00 -0.74505805969E-08  0.93827000000E+00  0.93827000000E+00 0.  1.
     999902    2    1    2    0    0  0.15082985109E-01  0.56647835895E-02 -0.17082612408E-01  0.10204480525E+01  0.10201778403E+01 0.  0.
     999903    2    3    3    0    0  0.27733622826E-01 -0.10267597395E+00  0.70298587629E-01  0.12941874179E+00  0.22266787872E-01 0.  0.
         14    1    1    2    0    0 -0.15082985109E-01 -0.56647835895E-02  0.17082612408E-01  0.23481947526E-01  0.00000000000E+00 0.  1.
     999901    1    3    3    0    0 -0.12650637717E-01  0.10834075754E+00 -0.87381200037E-01  0.89102931068E+00  0.88000000000E+00 0.  1.
        -11    1    4    4    0    0  0.14521064535E-01 -0.24665580944E-01  0.26357317209E-01  0.38912998985E-01  0.51100000000E-03 0.  1.
         11    1    4    4    0    0  0.13212558291E-01 -0.78010393006E-01  0.43941270421E-01  0.90505742805E-01  0.51100000000E-03 0. -1.
</event>
<event>
 8    1  0.1104109E+005  0.1043930E+01  0.7957747E-01            NaN
         13   -1    0    0    0    0  0.00000000000E+00  0.00000000000E+00  0.74505805969E-08  0.10566000000E+00  0.10566000000E+00 0. -1.
     999900   -1    0    0    0    0 -0.00000000000E+00 -0.00000000000E+00 -0.74505805969E-08  0.93827000000E+00  0.93827000000E+00 0. -1.
     999902    2    1    2    0    0  0.11043076248E-01  0.53391037467E-02  0.15613647105E-01  0.10240744834E+01  0.10238819786E+01 0.  0.
     999903    2    3    3    0    0  0.46489278209E-01  0.38391984680E-01 -0.11660012471E+00  0.13287898995E+00  0.20640722156E-01 0.  0.
         14    1    1    2    0    0 -0.11043076248E-01 -0.53391037467E-02 -0.15613647105E-01  0.19855516557E-01  0.00000000000E+00 0. -1.
     999901    1    3    3    0    0 -0.35446201962E-01 -0.33052880933E-01  0.13221377181E+00  0.89119549350E+00  0.88000000000E+00 0.  1.
        -11    1    4    4    0    0  0.30508914848E-01  0.18297551540E-01 -0.48910749273E-01  0.60482367621E-01  0.51100000000E-03 0. -1.
         11    1    4    4    0    0  0.15980363361E-01  0.20094433140E-01 -0.67689375435E-01  0.72396622325E-01  0.51100000000E-03 0.  1.
</event>
<event>
 8    1  0.1104109E+005  0.1043930E+01  0.7957747E-01            NaN
         13   -1    0    0    0    0  0.00000000000E+00  0.00000000000E+00  0.74505805969E-08  0.10566000000E+00  0.10566000000E+00 0. -1.
     999900   -1    0    0    0    0 -0.00000000000E+00 -0.00000000000E+00 -0.74505805969E-08  0.93827000000E+00  0.93827000000E+00 0. -1.
     999902    2    1    2    0    0 -0.70718703810E-03  0.13325348554E-01  0.19566389990E-01  0.10202464900E+01  0.10199715642E+01 0.  0.
     999903    2    3    3    0    0  0.31397621383E-01 -0.15710848067E-01 -0.12131068037E+00  0.12799082689E+00  0.20802144626E-01 0.  0.
         14    1    1    2    0    0  0.70718703810E-03 -0.13325348554E-01 -0.19566389990E-01  0.23683509977E-01  0.00000000000E+00 0.  1.
     999901    1    3    3    0    0 -0.32104808421E-01  0.29036196622E-01  0.14087707036E+00  0.89225566313E+00  0.88000000000E+00 0.  1.
        -11    1    4    4    0    0  0.25326521352E-01 -0.56772317228E-02 -0.57213218994E-01  0.62827360222E-01  0.51100000000E-03 0.  1.
         11    1    4    4    0    0  0.60711000312E-02 -0.10033616344E-01 -0.64097461376E-01  0.65163466669E-01  0.51100000000E-03 0. -1.
</event>
<event>
 8    1  0.1104109E+005  0.1043930E+01  0.7957747E-01            NaN
         13   -1    0    0    0    0  0.00000000000E+00  0.00000000000E+00  0.74505805969E-08  0.10566000000E+00  0.10566000000E+00 0. -1.
     999900   -1    0    0    0    0 -0.00000000000E+00 -0.00000000000E+00 -0.74505805969E-08  0.93827000000E+00  0.93827000000E+00 0. -1.
     999902    2    1    2    0    0 -0.20118178927E-01  0.12022728421E-01 -0.54365395637E-02  0.10198708420E+01  0.10195870199E+01 0.  0.
     999903    2    3    3    0    0  0.30765630035E-01 -0.75408015109E-01  0.96756756912E-01  0.12820006935E+00  0.20987973665E-01 0.  0.
         14    1    1    2    0    0  0.20118178927E-01 -0.12022728421E-01  0.54365395637E-02  0.24059158016E-01  0.00000000000E+00 0.  1.
     999901    1    3    3    0    0 -0.50883808961E-01  0.87430743530E-01 -0.10219329648E+00  0.89167077264E+00  0.88000000000E+00 0. -1.
        -11    1    4    4    0    0  0.24696725891E-01 -0.44228632503E-01  0.71434113207E-01  0.87573933642E-01  0.51100000000E-03 0.  1.
         11    1    4    4    0    0  0.60689041433E-02 -0.31179382606E-01  0.25322643705E-01  0.40626135706E-01  0.51100000000E-03 0. -1.
</event>
<event>
 8    1  0.1104109E+005  0.1043930E+01  0.7957747E-01            NaN
         13   -1    0    0    0    0  0.00000000000E+00  0.00000000000E+00  0.74505805969E-08  0.10566000000E+00  0.10566000000E+00 0.  1.
     999900   -1    0    0    0    0 -0.00000000000E+00 -0.00000000000E+00 -0.74505805969E-08  0.93827000000E+00  0.93827000000E+00 0. -1.
     999902    2    1    2    0    0  0.26109342265E-02  0.17340423219E-01 -0.18992708182E-01  0.10180798507E+01  0.10177516161E+01 0.  0.
     999903    2    3    3    0    0  0.31785597294E-01 -0.49210236617E-01 -0.11413732269E+00  0.12997363579E+00  0.20828969875E-01 0.  0.
         14    1    1    2    0    0 -0.26109342265E-02 -0.17340423219E-01  0.18992708182E-01  0.25850149304E-01  0.00000000000E+00 0. -1.
     999901    1    3    3    0    0 -0.29174663067E-01  0.66550659836E-01  0.95144614506E-01  0.88810621491E+00  0.88000000000E+00 0.  1.
        -11    1    4    4    0    0  0.10624971282E-02 -0.18078577824E-01 -0.39638604860E-01  0.43582611125E-01  0.51100000000E-03 0.  1.
         11    1    4    4    0    0  0.30723100166E-01 -0.31131658793E-01 -0.74498717829E-01  0.86391024662E-01  0.51100000000E-03 0. -1.
</event>
<event>
 8    1  0.1104109E+005  0.1043930E+01  0.7957747E-01            NaN
         13   -1    0    0    0    0  0.00000000000E+00  0.00000000000E+00  0.74505805969E-08  0.10566000000E+00  0.10566000000E+00 0. -1.
     999900   -1    0    0    0    0 -0.00000000000E+00 -0.00000000000E+00 -0.74505805969E-08  0.93827000000E+00  0.93827000000E+00 0.  1.
     999902    2    1    2    0    0 -0.12785692639E-01 -0.77912814339E-02 -0.19181016711E-01  0.10195971127E+01  0.10193067167E+01 0.  0.
     999903    2    3    3    0    0 -0.10449378161E+00  0.26481730667E-01  0.69202799594E-01  0.12976751556E+00  0.20744834779E-01 0.  0.
         14    1    1    2    0    0  0.12785692639E-01  0.77912814339E-02  0.19181016711E-01  0.24332887308E-01  0.00000000000E+00 0. -1.
     999901    1    3    3    0    0  0.91708088969E-01 -0.34273012101E-01 -0.88383816305E-01  0.88982959713E+00  0.88000000000E+00 0.  1.
        -11    1    4    4    0    0 -0.44622971952E-01  0.20577432748E-01  0.25174312807E-01  0.55214558865E-01  0.51100000000E-03 0. -1.
         11    1    4    4    0    0 -0.59870809657E-01  0.59042979192E-02  0.44028486787E-01  0.74552956700E-01  0.51100000000E-03 0.  1.
</event>
<event>
 8    1  0.1104109E+005  0.1043930E+01  0.7957747E-01            NaN
         13   -1    0    0    0    0  0.00000000000E+00  0.00000000000E+00  0.74505805969E-08  0.10566000000E+00  0.10566000000E+00 0. -1.
     999900   -1    0    0    0    0 -0.00000000000E+00 -0.00000000000E+00 -0.74505805969E-08  0.93827000000E+00  0.93827000000E+00 0. -1.
     999902    2    1    2    0    0 -0.10085902763E-03  0.22469836267E-01  0.23357745158E-02  0.10213388611E+01  0.10210889822E+01 0.  0.
     999903    2    3    3    0    0 -0.34487426119E-01 -0.75531426994E-01 -0.97312504708E-01  0.12964582919E+00  0.21069846456E-01 0.  0.
         14    1    1    2    0    0  0.10085902763E-03 -0.22469836267E-01 -0.23357745158E-02  0.22591138904E-01  0.00000000000E+00 0. -1.
     999901    1    3    3    0    0  0.34386567091E-01  0.98001263261E-01  0.99648279224E-01  0.89169303191E+00  0.88000000000E+00 0.  1.
        -11    1    4    4    0    0 -0.25122124650E-01 -0.32735527104E-01 -0.54780196639E-01  0.68584742811E-01  0.51100000000E-03 0. -1.
         11    1    4    4    0    0 -0.93653014686E-02 -0.42795899890E-01 -0.42532308069E-01  0.61061086378E-01  0.51100000000E-03 0.  1.
</event>
<event>
 8    1  0.1104109E+005  0.1043930E+01  0.7957747E-01            NaN
         13   -1    0    0    0    0  0.00000000000E+00  0.00000000000E+00  0.74505805969E-08  0.10566000000E+00  0.10566000000E+00 0.  1.
     999900   -1    0    0    0    0 -0.00000000000E+00 -0.00000000000E+00 -0.74505805969E-08  0.93827000000E+00  0.93827000000E+00 0. -1.
     999902    2    1    2    0    0  0.19921984074E-01 -0.11501680986E-01  0.80724487744E-02  0.10195509405E+01  0.10192594280E+01 0.  0.
     999903    2    3    3    0    0  0.91886379921E-01  0.35816568331E-01 -0.83250938303E-01  0.13064270447E+00  0.20269783414E-01 0.  0.
         14    1    1    2    0    0 -0.19921984074E-01  0.11501680986E-01 -0.80724487744E-02  0.24379059542E-01  0.00000000000E+00 0.  1.
     999901    1    3    3    0    0 -0.71964395847E-01 -0.47318249317E-01  0.91323387078E-01  0.88890823599E+00  0.88000000000E+00 0. -1.
        -11    1    4    4    0    0  0.39947261697E-01  0.25124589799E-01 -0.45428465194E-01  0.65505994386E-01  0.51100000000E-03 0. -1.
         11    1    4    4    0    0  0.51939118224E-01  0.10691978532E-01 -0.37822473109E-01  0.65136710079E-01  0.51100000000E-03 0.  1.
</event>
<event>
 8    1  0.1104109E+005  0.1043930E+01  0.7957747E-01            NaN
         13   -1    0    0    0    0  0.00000000000E+00  0.00000000000E+00  0.74505805969E-08  0.10566000000E+00  0.10566000000E+00 0. -1.
     999900   -1    0    0    0    0 -0.00000000000E+00 -0.00000000000E+00 -0.74505805969E-08  0.93827000000E+00  0.93827000000E+00 0. -1.
     999902    2    1    2    0    0 -0.20754996865E-01  0.10349173246E-01 -0.49845989127E-02  0.10202082482E+01  0.10199324234E+01 0.  0.
     999903    2    3    3    0    0  0.61669681608E-01  0.11114106873E+00 -0.22269180533E-01  0.13046019928E+00  0.19195322500E-01 0.  0.
         14    1    1    2    0    0  0.20754996865E-01 -0.10349173246E-01  0.49845989127E-02  0.23721751792E-01  0.00000000000E+00 0. -1.
     999901    1    3    3    0    0 -0.82424678474E-01 -0.10079189548E+00  0.17284581621E-01  0.88974804893E+00  0.88000000000E+00 0.  1.
        -11    1    4    4    0    0  0.62931477646E-02  0.20504202719E-01  0.18699273163E-02  0.21535639928E-01  0.51100000000E-03 0. -1.
         11    1    4    4    0    0  0.55376533844E-01  0.90636866009E-01 -0.24139107850E-01  0.10892455935E+00  0.51100000000E-03 0.  1.
</event>
<event>
 8    1  0.1104109E+005  0.1043930E+01  0.7957747E-01            NaN
         13   -1    0    0    0    0  0.00000000000E+00  0.00000000000E+00  0.74505805969E-08  0.10566000000E+00  0.10566000000E+00 0. -1.
     999900   -1    0    0    0    0 -0.00000000000E+00 -0.00000000000E+00 -0.74505805969E-08  0.93827000000E+00  0.93827000000E+00 0. -1.
     999902    2    1    2    0    0  0.18979302529E-01  0.33228398332E-02  0.13917947567E-01  0.10201610191E+01  0.10198840819E+01 0.  0.
     999903    2    3    3    0    0  0.31317628528E-01  0.10788389494E-01  0.12711003492E+00  0.13279389250E+00  0.19495479043E-01 0.  0.
         14    1    1    2    0    0 -0.18979302529E-01 -0.33228398332E-02 -0.13917947567E-01  0.23768980911E-01  0.00000000000E+00 0.  1.
     999901    1    3    3    0    0 -0.12338325999E-01 -0.74655496613E-02 -0.11319208735E+00  0.88736712659E+00  0.88000000000E+00 0. -1.
        -11    1    4    4    0    0  0.12417130916E-01  0.59703173262E-02  0.22565299910E-01  0.26443973041E-01  0.51100000000E-03 0. -1.
         11    1    4    4    0    0  0.18900497612E-01  0.48180721683E-02  0.10454473501E+00  0.10634991945E+00  0.51100000000E-03 0.  1.
</event>
<event>
 7    1  0.1104109E+005  0.1043930E+01  0.7957747E-01            NaN
         13   -1    0    0    0    0  0.00000000000E+00  0.00000000000E+00  0.74505805969E-08  0.10566000000E+00  0.10566000000E+00 0. -1.
     999900   -1    0    0    0    0 -0.00000000000E+00 -0.00000000000E+00 -0.74505805969E-08  0.93827000000E+00  0.93827000000E+00 0. -1.
     999903    2    1    2    0    0 -0.83919578855E-02 -0.62286840519E-01  0.13107602143E+00  0.14673819714E+00  0.20027472274E-01 0.  0.
         14    1    1    2    0    0 -0.13075581685E-02  0.47757203830E-02 -0.35414416446E-02  0.60876122135E-02  0.00000000000E+00 0.  1.
     999901    1    1    2    0    0  0.96995160540E-02  0.57511120136E-01 -0.12753457979E+00  0.89110419065E+00  0.88000000000E+00 0. -1.
        -11    1    3    3    0    0 -0.74722038513E-02 -0.38476556882E-01  0.10115895708E+00  0.10848813289E+00  0.51100000000E-03 0. -1.
         11    1    3    3    0    0 -0.91975403420E-03 -0.23810283637E-01  0.29917064355E-01  0.38250064248E-01  0.51100000000E-03 0.  1.
</event>
<event>
 8    1  0.1104109E+005  0.1043930E+01  0.7957747E-01            NaN
         13   -1    0    0    0    0  0.00000000000E+00  0.00000000000E+00  0.74505805969E-08  0.10566000000E+00  0.10566000000E+00 0.  1.
     999900   -1    0    0    0    0 -0.00000000000E+00 -0.00000000000E+00 -0.74505805969E-08  0.93827000000E+00  0.93827000000E+00 0. -1.
     999902    2    1    2    0    0 -0.22232347327E-01 -0.80070997951E-02 -0.43012477104E-02  0.10199114312E+01  0.10196285774E+01 0.  0.
     999903    2    3    3    0    0 -0.31108323728E-01  0.12356897454E+00  0.15845510970E-01  0.12985697322E+00  0.19358047485E-01 0.  0.
         14    1    1    2    0    0  0.22232347327E-01  0.80070997951E-02  0.43012477104E-02  0.24018568789E-01  0.00000000000E+00 0. -1.
     999901    1    3    3    0    0  0.88759764003E-02 -0.13157607434E+00 -0.20146758680E-01  0.89005445799E+00  0.88000000000E+00 0. -1.
        -11    1    4    4    0    0 -0.11020112634E-01  0.55099452328E-01 -0.22601719673E-02  0.56238439058E-01  0.51100000000E-03 0. -1.
         11    1    4    4    0    0 -0.20088211094E-01  0.68469522215E-01  0.18105682937E-01  0.73618534167E-01  0.51100000000E-03 0.  1.
</event>
<event>
 8    1  0.1104109E+005  0.1043930E+01  0.7957747E-01            NaN
         13   -1    0    0    0    0  0.00000000000E+00  0.00000000000E+00  0.74505805969E-08  0.10566000000E+00  0.10566000000E+00 0.  1.
     999900   -1    0    0    0    0 -0.00000000000E+00 -0.00000000000E+00 -0.74505805969E-08  0.93827000000E+00  0.93827000000E+00 0.  1.
     999902    2    1    2    0    0 -0.20143415061E-02 -0.11586679975E-01  0.19548290802E-01  0.10211167495E+01  0.10208618769E+01 0.  0.
     999903    2    3    3    0    0  0.47780016774E-01  0.11743547136E+00 -0.19485715946E-01  0.12946107195E+00  0.17505887187E-01 0.  0.
         14    1    1    2    0    0  0.20143415061E-02  0.11586679975E-01 -0.19548290802E-01  0.22813250488E-01  0.00000000000E+00 0.  1.
     999901    1    3    3    0    0 -0.49794358280E-01 -0.12902215134E+00  0.39034006749E-01  0.89165567757E+00  0.88000000000E+00 0.  1.
        -11    1    4    4    0    0  0.22286112752E-01  0.33584817985E-01 -0.75362806643E-02  0.41008139044E-01  0.51100000000E-03 0.  1.
         11    1    4    4    0    0  0.25493904023E-01  0.83850653378E-01 -0.11949435282E-01  0.88452932901E-01  0.51100000000E-03 0. -1.
</event>
<event>
 8    1  0.1104109E+005  0.1043930E+01  0.7957747E-01            NaN
         13   -1    0    0    0    0  0.00000000000E+00  0.00000000000E+00  0.74505805969E-08  0.10566000000E+00  0.10566000000E+00 0. -1.
     999900   -1    0    0    0    0 -0.00000000000E+00 -0.00000000000E+00 -0.74505805969E-08  0.93827000000E+00  0.93827000000E+00 0.  1.
     999902    2    1    2    0    0  0.17904698486E-01  0.20157381875E-01  0.43286615737E-03  0.10169654743E+01  0.10166079334E+01 0.  0.
     999903    2    3    3    0    0 -0.46935432798E-01  0.10619678636E+00  0.53072264636E-01  0.12883376786E+00  0.17343073069E-01 0.  0.
         14    1    1    2    0    0 -0.17904698486E-01 -0.20157381875E-01 -0.43286615737E-03  0.26964525678E-01  0.00000000000E+00 0.  1.
     999901    1    3    3    0    0  0.64840131284E-01 -0.86039404482E-01 -0.52639398478E-01  0.88813170646E+00  0.88000000000E+00 0. -1.
        -11    1    4    4    0    0 -0.16542395125E-01  0.25072215255E-01  0.75820284140E-02  0.30984110285E-01  0.51100000000E-03 0.  1.
         11    1    4    4    0    0 -0.30393037673E-01  0.81124571102E-01  0.45490236222E-01  0.97849657577E-01  0.51100000000E-03 0. -1.
</event>
<event>
 8    1  0.1104109E+005  0.1043930E+01  0.7957747E-01            NaN
         13   -1    0    0    0    0  0.00000000000E+00  0.00000000000E+00  0.74505805969E-08  0.10566000000E+00  0.10566000000E+00 0. -1.
     999900   -1    0    0    0    0 -0.00000000000E+00 -0.00000000000E+00 -0.74505805969E-08  0.93827000000E+00  0.93827000000E+00 0.  1.
     999902    2    1    2    0    0 -0.11224548986E-01  0.89319681605E-02  0.18504835685E-01  0.10205163395E+01  0.10202477148E+01 0.  0.
     999903    2    3    3    0    0 -0.47245467085E-01  0.10869257741E+00  0.57888570441E-01  0.13327298827E+00  0.19089061569E-01 0.  0.
         14    1    1    2    0    0  0.11224548986E-01 -0.89319681605E-02 -0.18504835685E-01  0.23413660519E-01  0.00000000000E+00 0.  1.
     999901    1    3    3    0    0  0.36020918099E-01 -0.99760609249E-01 -0.39383734756E-01  0.88724335121E+00  0.88000000000E+00 0.  1.
        -11    1    4    4    0    0 -0.29902341739E-01  0.45873982718E-01  0.23571675425E-01  0.59619269831E-01  0.51100000000E-03 0.  1.
         11    1    4    4    0    0 -0.17343125346E-01  0.62818594692E-01  0.34316895016E-01  0.73653718442E-01  0.51100000000E-03 0. -1.
</event>
<event>
 8    1  0.1298402E+005  0.1043930E+01  0.7957747E-01            NaN
         13   -1    0    0    0    0  0.00000000000E+00  0.00000000000E+00  0.74505805969E-08  0.10566000000E+00  0.10566000000E+00 0.  1.
     999900   -1    0    0    0    0 -0.00000000000E+00 -0.00000000000E+00 -0.74505805969E-08  0.93827000000E+00  0.93827000000E+00 0. -1.
     999902    2    1    2    0    0  0.26869793661E-02 -0.52353324222E-02 -0.22673855390E-01  0.10205049646E+01  0.10202360759E+01 0.  0.
     999903    2    3    3    0    0  0.10893821128E+00  0.64129770789E-01 -0.30132256008E-01  0.13137253942E+00  0.19251750152E-01 0.  0.
         14    1    1    2    0    0 -0.26869793661E-02  0.52353324222E-02  0.22673855390E-01  0.23425035367E-01  0.00000000000E+00 0.  1.
     999901    1    3    3    0    0 -0.10625123191E+00 -0.69365103211E-01  0.74584006182E-02  0.88913242521E+00  0.88000000000E+00 0.  1.
        -11    1    4    4    0    0  0.68382510194E-01  0.40727361042E-01 -0.93474180203E-02  0.80140632531E-01  0.51100000000E-03 0.  1.
         11    1    4    4    0    0  0.40555701083E-01  0.23402409747E-01 -0.20784837988E-01  0.51231906889E-01  0.51100000000E-03 0. -1.
</event>
<event>
 8    1  0.1104109E+005  0.1043930E+01  0.7957747E-01            NaN
         13   -1    0    0    0    0  0.00000000000E+00  0.00000000000E+00  0.74505805969E-08  0.10566000000E+00  0.10566000000E+00 0. -1.
     999900   -1    0    0    0    0 -0.00000000000E+00 -0.00000000000E+00 -0.74505805969E-08  0.93827000000E+00  0.93827000000E+00 0. -1.
     999902    2    1    2    0    0  0.54612813740E-02 -0.93853736546E-03  0.25468434388E-01  0.10178657026E+01  0.10175319361E+01 0.  0.
     999903    2    3    3    0    0 -0.31571091047E-01  0.12294305454E+00 -0.34349285741E-03  0.12804307930E+00  0.16828063465E-01 0.  0.
         14    1    1    2    0    0 -0.54612813740E-02  0.93853736546E-03 -0.25468434388E-01  0.26064297359E-01  0.00000000000E+00 0.  1.
     999901    1    3    3    0    0  0.37032372421E-01 -0.12388159191E+00  0.25811927245E-01  0.88982262334E+00  0.88000000000E+00 0. -1.
        -11    1    4    4    0    0 -0.31967274216E-01  0.10895339080E+00 -0.38265535943E-02  0.11361184631E+00  0.51100000000E-03 0. -1.
         11    1    4    4    0    0  0.39618316890E-03  0.13989663739E-01  0.34830607369E-02  0.14431232995E-01  0.51100000000E-03 0.  1.
</event>
<event>
 8    1  0.1104109E+005  0.1043930E+01  0.7957747E-01            NaN
         13   -1    0    0    0    0  0.00000000000E+00  0.00000000000E+00  0.74505805969E-08  0.10566000000E+00  0.10566000000E+00 0.  1.
     999900   -1    0    0    0    0 -0.00000000000E+00 -0.00000000000E+00 -0.74505805969E-08  0.93827000000E+00  0.93827000000E+00 0. -1.
     999902    2    1    2    0    0 -0.17570127582E-01  0.52823728802E-02  0.15379013304E-01  0.10199899311E+01  0.10197089451E+01 0.  0.
     999903    2    3    3    0    0 -0.45694893545E-02  0.11070557000E+00  0.68140299841E-01  0.13203338917E+00  0.22651974096E-01 0.  0.
         14    1    1    2    0    0  0.17570127582E-01 -0.52823728802E-02 -0.15379013304E-01  0.23940068854E-01  0.00000000000E+00 0. -1.
     999901    1    3    3    0    0 -0.13000638228E-01 -0.10542319712E+00 -0.52761286536E-01  0.88795654198E+00  0.88000000000E+00 0. -1.
        -11    1    4    4    0    0  0.26701622367E-02  0.75543902492E-01  0.56207084905E-01  0.94199301933E-01  0.51100000000E-03 0. -1.
         11    1    4    4    0    0 -0.72396515912E-02  0.35161667510E-01  0.11933214936E-01  0.37834087235E-01  0.51100000000E-03 0.  1.
</event>
<event>
 8    1  0.1104109E+005  0.1043930E+01  0.7957747E-01            NaN
         13   -1    0    0    0    0  0.00000000000E+00  0.00000000000E+00  0.74505805969E-08  0.10566000000E+00  0.10566000000E+00 0. -1.
     999900   -1    0    0    0    0 -0.00000000000E+00 -0.00000000000E+00 -0.74505805969E-08  0.93827000000E+00  0.93827000000E+00 0. -1.
     999902    2    1    2    0    0  0.17173855480E-01  0.95353992360E-02  0.32143548907E-01  0.10062594162E+01  0.10055540461E+01 0.  0.
     999903    2    3    3    0    0  0.83786376405E-01 -0.75584209165E-01 -0.26158681195E-01  0.11773157433E+00  0.21055104967E-01 0.  0.
         14    1    1    2    0    0 -0.17173855480E-01 -0.95353992360E-02 -0.32143548907E-01  0.37670583841E-01  0.00000000000E+00 0.  1.
     999901    1    3    3    0    0 -0.66612520925E-01  0.85119608401E-01  0.58302230101E-01  0.88852784183E+00  0.88000000000E+00 0. -1.
        -11    1    4    4    0    0  0.46171040894E-01 -0.51711875610E-01 -0.86631391539E-02  0.69865543706E-01  0.51100000000E-03 0.  1.
         11    1    4    4    0    0  0.37615335511E-01 -0.23872333555E-01 -0.17495542041E-01  0.47866030619E-01  0.51100000000E-03 0. -1.
</event>
<event>
 8    1  0.1104109E+005  0.1043930E+01  0.7957747E-01            NaN
         13   -1    0    0    0    0  0.00000000000E+00  0.00000000000E+00  0.74505805969E-08  0.10566000000E+00  0.10566000000E+00 0. -1.
     999900   -1    0    0    0    0 -0.00000000000E+00 -0.00000000000E+00 -0.74505805969E-08  0.93827000000E+00  0.93827000000E+00 0.  1.
     999902    2    1    2    0    0  0.53410367244E-02  0.15964392175E-02 -0.24542861706E-01  0.10187620173E+01  0.10184510889E+01 0.  0.
     999903    2    3    3    0    0  0.28124859141E-01 -0.11942918426E+00 -0.41564316154E-01  0.13002356647E+00  0.11144402466E-01 0.  0.
         14    1    1    2    0    0 -0.53410367244E-02 -0.15964392175E-02  0.24542861706E-01  0.25167982681E-01  0.00000000000E+00 0. -1.
     999901    1    3    3    0    0 -0.22783822417E-01  0.12102562348E+00  0.17021454447E-01  0.88873845085E+00  0.88000000000E+00 0. -1.
        -11    1    4    4    0    0  0.24652520371E-01 -0.92453117685E-01 -0.36154077465E-01  0.10228736075E+00  0.51100000000E-03 0. -1.
         11    1    4    4    0    0  0.34723387706E-02 -0.26976066574E-01 -0.54102386891E-02  0.27736205725E-01  0.51100000000E-03 0.  1.
</event>
<event>
 8    1  0.1104109E+005  0.1043930E+01  0.7957747E-01            NaN
         13   -1    0    0    0    0  0.00000000000E+00  0.00000000000E+00  0.74505805969E-08  0.10566000000E+00  0.10566000000E+00 0. -1.
     999900   -1    0    0    0    0 -0.00000000000E+00 -0.00000000000E+00 -0.74505805969E-08  0.93827000000E+00  0.93827000000E+00 0.  1.
     999902    2    1    2    0    0 -0.19034810169E-01  0.13178911980E-01 -0.26503559546E-02  0.10206269507E+01  0.10203608873E+01 0.  0.
     999903    2    3    3    0    0 -0.92304199903E-01 -0.90858440261E-01  0.74983011552E-02  0.13141653165E+00  0.20946569764E-01 0.  0.
         14    1    1    2    0    0  0.19034810169E-01 -0.13178911980E-01  0.26503559546E-02  0.23303049282E-01  0.00000000000E+00 0. -1.
     999901    1    3    3    0    0  0.73269389734E-01  0.10403735224E+00 -0.10148657110E-01  0.88921041907E+00  0.88000000000E+00 0.  1.
        -11    1    4    4    0    0 -0.73993561620E-01 -0.78105178676E-01 -0.82869644707E-03  0.10759374497E+00  0.51100000000E-03 0. -1.
         11    1    4    4    0    0 -0.18310638283E-01 -0.12753261586E-01  0.83269976023E-02  0.23822786686E-01  0.51100000000E-03 0.  1.
</event>
<event>
 8    1  0.1104109E+005  0.1043930E+01  0.7957747E-01            NaN
         13   -1    0    0    0    0  0.00000000000E+00  0.00000000000E+00  0.74505805969E-08  0.10566000000E+00  0.10566000000E+00 0.  1.
     999900   -1    0    0    0    0 -0.00000000000E+00 -0.00000000000E+00 -0.74505805969E-08  0.93827000000E+00  0.93827000000E+00 0.  1.
     999902    2    1    2    0    0  0.30403803887E-02 -0.19777017946E-01  0.12793894739E-01  0.10201800928E+01  0.10199036050E+01 0.  0.
     999903    2    3    3    0    0  0.33694335351E-01 -0.96578329825E-01  0.83459996762E-01  0.13348296045E+00  0.19734427870E-01 0.  0.
         14    1    1    2    0    0 -0.30403803887E-02  0.19777017946E-01 -0.12793894739E-01  0.23749907249E-01  0.00000000000E+00 0.  1.
     999901    1    3    3    0    0 -0.30653954963E-01  0.76801311879E-01 -0.70666102023E-01  0.88669713230E+00  0.88000000000E+00 0.  1.
        -11    1    4    4    0    0  0.22593090800E-01 -0.62763724740E-01  0.41951102030E-01  0.78802848792E-01  0.51100000000E-03 0. -1.
         11    1    4    4    0    0  0.11101244552E-01 -0.33814605085E-01  0.41508894733E-01  0.54680111655E-01  0.51100000000E-03 0.  1.
</event>
<event>
 8    1  0.1104109E+005  0.1043930E+01  0.7957747E-01            NaN
         13   -1    0    0    0    0  0.00000000000E+00  0.00000000000E+00  0.74505805969E-08  0.10566000000E+00  0.10566000000E+00 0. -1.
     999900   -1    0    0    0    0 -0.00000000000E+00 -0.00000000000E+00 -0.74505805969E-08  0.93827000000E+00  0.93827000000E+00 0. -1.
     999902    2    1    2    0    0  0.21176264811E-02  0.33720818814E-02 -0.21218588401E-01  0.10223410266E+01  0.10221130519E+01 0.  0.
     999903    2    3    3    0    0  0.63365080971E-01 -0.56067688296E-01  0.96850877067E-01  0.13036303606E+00  0.21347356382E-01 0.  0.
         14    1    1    2    0    0 -0.21176264811E-02 -0.33720818814E-02  0.21218588401E-01  0.21588973386E-01  0.00000000000E+00 0. -1.
     999901    1    3    3    0    0 -0.61247454490E-01  0.59439770177E-01 -0.11806946547E+00  0.89197799056E+00  0.88000000000E+00 0. -1.
        -11    1    4    4    0    0  0.52815674394E-01 -0.34080665847E-01  0.68906023641E-01  0.93269976205E-01  0.51100000000E-03 0. -1.
         11    1    4    4    0    0  0.10549406576E-01 -0.21987022449E-01  0.27944853425E-01  0.37093059853E-01  0.51100000000E-03 0.  1.
</event>
<event>
 8    1  0.1104109E+005  0.1043930E+01  0.7957747E-01            NaN
         13   -1    0    0    0    0  0.00000000000E+00  0.00000000000E+00  0.74505805969E-08  0.10566000000E+00  0.10566000000E+00 0. -1.
     999900   -1    0    0    0    0 -0.00000000000E+00 -0.00000000000E+00 -0.74505805969E-08  0.93827000000E+00  0.93827000000E+00 0. -1.
     999902    2    1    2    0    0  0.14756389695E-01 -0.14548906131E-01  0.11163423032E-01  0.10203918667E+01  0.10201203448E+01 0.  0.
     999903    2    3    3    0    0 -0.18588105397E-01 -0.10910274359E+00  0.68800338406E-01  0.13282536351E+00  0.25693662776E-01 0.  0.
         14    1    1    2    0    0 -0.14756389695E-01  0.14548906131E-01 -0.11163423032E-01  0.23538133321E-01  0.00000000000E+00 0. -1.
     999901    1    3    3    0    0  0.33344495092E-01  0.94553837456E-01 -0.57636915374E-01  0.88756650317E+00  0.88000000000E+00 0. -1.
        -11    1    4    4    0    0 -0.23207276826E-01 -0.10031334072E+00  0.66649380156E-01  0.12265294542E+00  0.51100000000E-03 0.  1.
         11    1    4    4    0    0  0.46191714283E-02 -0.87894028651E-02  0.21509582501E-02  0.10172418090E-01  0.51100000000E-03 0. -1.
</event>
<event>
 8    1  0.1104109E+005  0.1043930E+01  0.7957747E-01            NaN
         13   -1    0    0    0    0  0.00000000000E+00  0.00000000000E+00  0.74505805969E-08  0.10566000000E+00  0.10566000000E+00 0. -1.
     999900   -1    0    0    0    0 -0.00000000000E+00 -0.00000000000E+00 -0.74505805969E-08  0.93827000000E+00  0.93827000000E+00 0. -1.
     999902    2    1    2    0    0  0.26090644789E-01  0.46262134395E-03  0.10293206076E-04  0.10178352521E+01  0.10175006951E+01 0.  0.
     999903    2    3    3    0    0 -0.61696106174E-01 -0.58997490892E-01 -0.91644306296E-01  0.12674458092E+00  0.19452415442E-01 0.  0.
         14    1    1    2    0    0 -0.26090644789E-01 -0.46262134395E-03 -0.10293206076E-04  0.26094747939E-01  0.00000000000E+00 0.  1.
     999901    1    3    3    0    0  0.87786750964E-01  0.59460112236E-01  0.91654599502E-01  0.89109067115E+00  0.88000000000E+00 0.  1.
        -11    1    4    4    0    0 -0.10370717001E-01 -0.20817548642E-02 -0.78198027814E-02  0.13164190479E-01  0.51100000000E-03 0. -1.
         11    1    4    4    0    0 -0.51325389173E-01 -0.56915736028E-01 -0.83824503515E-01  0.11358039044E+00  0.51100000000E-03 0.  1.
</event>
<event>
 8    1  0.1104109E+005  0.1043930E+01  0.7957747E-01            NaN
         13   -1    0    0    0    0  0.00000000000E+00  0.00000000000E+00  0.74505805969E-08  0.10566000000E+00  0.10566000000E+00 0.  1.
     999900   -1    0    0    0    0 -0.00000000000E+00 -0.00000000000E+00 -0.74505805969E-08  0.93827000000E+00  0.93827000000E+00 0. -1.
     999902    2    1    2    0    0  0.21507551602E-01 -0.56574333140E-02  0.56950472347E-02  0.10209731951E+01  0.10207150681E+01 0.  0.
     999903    2    3    3    0    0 -0.10780137135E+00 -0.13903098335E-01  0.65282141312E-01  0.12949161352E+00  0.26303767585E-01 0.  0.
         14    1    1    2    0    0 -0.21507551602E-01  0.56574333140E-02 -0.56950472347E-02  0.22956804887E-01  0.00000000000E+00 0. -1.
     999901    1    3    3    0    0  0.12930892295E+00  0.82456650209E-02 -0.59587094078E-01  0.89148158160E+00  0.88000000000E+00 0. -1.
        -11    1    4    4    0    0 -0.92032984393E-01 -0.48466097349E-02  0.61815738806E-01  0.11097299909E+00  0.51100000000E-03 0. -1.
         11    1    4    4    0    0 -0.15768386954E-01 -0.90564886000E-02  0.34664025069E-02  0.18518614425E-01  0.51100000000E-03 0.  1.
</event>
<event>
 8    1  0.1104109E+005  0.1043930E+01  0.7957747E-01            NaN
         13   -1    0    0    0    0  0.00000000000E+00  0.00000000000E+00  0.74505805969E-08  0.10566000000E+00  0.10566000000E+00 0. -1.
     999900   -1    0    0    0    0 -0.00000000000E+00 -0.00000000000E+00 -0.74505805969E-08  0.93827000000E+00  0.93827000000E+00 0. -1.
     999902    2    1    2    0    0 -0.13131406188E-01 -0.21129504053E-01  0.30803115721E-02  0.10188625293E+01  0.10185541102E+01 0.  0.
     999903    2    3    3    0    0 -0.30536460948E-01 -0.12402596628E+00  0.26366653862E-01  0.13239037989E+00  0.22739755789E-01 0.  0.
         14    1    1    2    0    0  0.13131406188E-01  0.21129504053E-01 -0.30803115721E-02  0.25067470741E-01  0.00000000000E+00 0.  1.
     999901    1    3    3    0    0  0.17405054759E-01  0.10289646222E+00 -0.23286342290E-01  0.88647214937E+00  0.88000000000E+00 0. -1.
        -11    1    4    4    0    0 -0.19224629048E-01 -0.63218155476E-01  0.24608948253E-01  0.70512289702E-01  0.51100000000E-03 0. -1.
         11    1    4    4    0    0 -0.11311831899E-01 -0.60807810801E-01  0.17577056083E-02  0.61878090188E-01  0.51100000000E-03 0.  1.
</event>
<event>
 8    1  0.1104109E+005  0.1043930E+01  0.7957747E-01            NaN
         13   -1    0    0    0    0  0.00000000000E+00  0.00000000000E+00  0.74505805969E-08  0.10566000000E+00  0.10566000000E+00 0.  1.
     999900   -1    0    0    0    0 -0.00000000000E+00 -0.00000000000E+00 -0.74505805969E-08  0.93827000000E+00  0.93827000000E+00 0. -1.
     999902    2    1    2    0    0  0.81935904274E-02 -0.22038598487E-01  0.15710694355E-02  0.10203651319E+01  0.10200929857E+01 0.  0.
     999903    2    3    3    0    0 -0.30302314361E-01 -0.58667928169E-01 -0.11110979164E+00  0.13159034667E+00  0.24707842661E-01 0.  0.
         14    1    1    2    0    0 -0.81935904274E-02  0.22038598487E-01 -0.15710694355E-02  0.23564868057E-01  0.00000000000E+00 0. -1.
     999901    1    3    3    0    0  0.38495904788E-01  0.36629329682E-01  0.11268086107E+00  0.88877478527E+00  0.88000000000E+00 0.  1.
        -11    1    4    4    0    0 -0.67431222417E-02 -0.22301120074E-01 -0.20037094148E-01  0.30733628439E-01  0.51100000000E-03 0. -1.
         11    1    4    4    0    0 -0.23559192119E-01 -0.36366808095E-01 -0.91072697488E-01  0.10085671824E+00  0.51100000000E-03 0.  1.
</event>
<event>
 8    1  0.1104109E+005  0.1043930E+01  0.7957747E-01            NaN
         13   -1    0    0    0    0  0.00000000000E+00  0.00000000000E+00  0.74505805969E-08  0.10566000000E+00  0.10566000000E+00 0. -1.
     999900   -1    0    0    0    0 -0.00000000000E+00 -0.00000000000E+00 -0.74505805969E-08  0.93827000000E+00  0.93827000000E+00 0.  1.
     999902    2    1    2    0    0 -0.16841557868E-01  0.13123502396E-01 -0.80044032721E-02  0.10211279199E+01  0.10208732996E+01 0.  0.
     999903    2    3    3    0    0 -0.11305818808E+00  0.30218068612E-01 -0.62211558708E-01  0.13406068464E+00  0.20166892806E-01 0.  0.
         14    1    1    2    0    0  0.16841557868E-01 -0.13123502396E-01  0.80044032721E-02  0.22802080132E-01  0.00000000000E+00 0. -1.
     999901    1    3    3    0    0  0.96216630212E-01 -0.17094566215E-01  0.54207155436E-01  0.88706723523E+00  0.88000000000E+00 0.  1.
        -11    1    4    4    0    0 -0.81386257116E-01  0.21384532368E-01 -0.34096442740E-01  0.90795647476E-01  0.51100000000E-03 0.  1.
         11    1    4    4    0    0 -0.31671930964E-01  0.88335362435E-02 -0.28115115968E-01  0.43265037160E-01  0.51100000000E-03 0. -1.
</event>
<event>
 8    1  0.1104109E+005  0.1043930E+01  0.7957747E-01            NaN
         13   -1    0    0    0    0  0.00000000000E+00  0.00000000000E+00  0.74505805969E-08  0.10566000000E+00  0.10566000000E+00 0. -1.
     999900   -1    0    0    0    0 -0.00000000000E+00 -0.00000000000E+00 -0.74505805969E-08  0.93827000000E+00  0.93827000000E+00 0. -1.
     999902    2    1    2    0    0  0.84140813240E-02 -0.62207003571E-02  0.21046825056E-01  0.10204254744E+01  0.10201547364E+01 0.  0.
     999903    2    3    3    0    0 -0.84425181120E-01  0.46780812822E-01  0.87176523940E-01  0.13149272887E+00  0.19352926491E-01 0.  0.
         14    1    1    2    0    0 -0.84140813240E-02  0.62207003571E-02 -0.21046825056E-01  0.23504525573E-01  0.00000000000E+00 0.  1.
     999901    1    3    3    0    0  0.92839262444E-01 -0.53001513179E-01 -0.66129698883E-01  0.88893274556E+00  0.88000000000E+00 0. -1.
        -11    1    4    4    0    0 -0.62443677379E-01  0.38183653435E-01  0.54862373203E-01  0.91473194701E-01  0.51100000000E-03 0.  1.
         11    1    4    4    0    0 -0.21981503741E-01  0.85971593876E-02  0.32314150736E-01  0.40019534169E-01  0.51100000000E-03 0. -1.
</event>
<event>
 8    1  0.1104109E+005  0.1043930E+01  0.7957747E-01            NaN
         13   -1    0    0    0    0  0.00000000000E+00  0.00000000000E+00  0.74505805969E-08  0.10566000000E+00  0.10566000000E+00 0.  1.
     999900   -1    0    0    0    0 -0.00000000000E+00 -0.00000000000E+00 -0.74505805969E-08  0.93827000000E+00  0.93827000000E+00 0. -1.
     999902    2    1    2    0    0  0.18433580954E-01 -0.11778837798E-01 -0.14617949066E-01  0.10176198810E+01  0.10172797058E+01 0.  0.
     999903    2    3    3    0    0 -0.95025345570E-01 -0.34308451376E-01 -0.76338863571E-01  0.12790645367E+00  0.18043077958E-01 0.  0.
         14    1    1    2    0    0 -0.18433580954E-01  0.11778837798E-01  0.14617949066E-01  0.26310118995E-01  0.00000000000E+00 0. -1.
     999901    1    3    3    0    0  0.11345892652E+00  0.22529613578E-01  0.61720914505E-01  0.88971342734E+00  0.88000000000E+00 0.  1.
        -11    1    4    4    0    0 -0.48503827319E-01 -0.10609559088E-01 -0.29448861533E-01  0.57729373591E-01  0.51100000000E-03 0.  1.
         11    1    4    4    0    0 -0.46521518251E-01 -0.23698892288E-01 -0.46890002038E-01  0.70177080077E-01  0.51100000000E-03 0. -1.
</event>
<event>
 8    1  0.1104109E+005  0.1043930E+01  0.7957747E-01            NaN
         13   -1    0    0    0    0  0.00000000000E+00  0.00000000000E+00  0.74505805969E-08  0.10566000000E+00  0.10566000000E+00 0.  1.
     999900   -1    0    0    0    0 -0.00000000000E+00 -0.00000000000E+00 -0.74505805969E-08  0.93827000000E+00  0.93827000000E+00 0. -1.
     999902    2    1    2    0    0  0.57939594378E-02 -0.24947002317E-01 -0.12035667123E-02  0.10182907437E+01  0.10179679107E+01 0.  0.
     999903    2    3    3    0    0  0.72996810677E-01 -0.63976121924E-01 -0.85421715317E-01  0.13086063832E+00  0.20153378569E-01 0.  0.
         14    1    1    2    0    0 -0.57939594378E-02  0.24947002317E-01  0.12035667123E-02  0.25639256296E-01  0.00000000000E+00 0. -1.
     999901    1    3    3    0    0 -0.67202851239E-01  0.39029119607E-01  0.84218148605E-01  0.88743010539E+00  0.88000000000E+00 0.  1.
        -11    1    4    4    0    0  0.54217922350E-01 -0.42082783653E-01 -0.70458338607E-01  0.98362504971E-01  0.51100000000E-03 0.  1.
         11    1    4    4    0    0  0.18778888327E-01 -0.21893338271E-01 -0.14963376710E-01  0.32498133347E-01  0.51100000000E-03 0. -1.
</event>
<event>
 8    1  0.1153844E+005  0.1043930E+01  0.7957747E-01            NaN
         13   -1    0    0    0    0  0.00000000000E+00  0.00000000000E+00  0.74505805969E-08  0.10566000000E+00  0.10566000000E+00 0. -1.
     999900   -1    0    0    0    0 -0.00000000000E+00 -0.00000000000E+00 -0.74505805969E-08  0.93827000000E+00  0.93827000000E+00 0.  1.
     999902    2    1    2    0    0  0.77385273768E-02 -0.45349282933E-02 -0.22919821724E-01  0.10193176330E+01  0.10190204455E+01 0.  0.
     999903    2    3    3    0    0 -0.98531027982E-01 -0.78525581831E-01  0.19776998673E-01  0.12881729406E+00  0.18114499608E-01 0.  0.
         14    1    1    2    0    0 -0.77385273768E-02  0.45349282933E-02  0.22919821724E-01  0.24612366982E-01  0.00000000000E+00 0. -1.
     999901    1    3    3    0    0  0.10626955536E+00  0.73990653538E-01 -0.42696820397E-01  0.89050033896E+00  0.88000000000E+00 0. -1.
        -11    1    4    4    0    0 -0.43716181320E-01 -0.45987258637E-01  0.12298795940E-01  0.64633226507E-01  0.51100000000E-03 0.  1.
         11    1    4    4    0    0 -0.54814846662E-01 -0.32538323194E-01  0.74782027322E-02  0.64184067556E-01  0.51100000000E-03 0. -1.
</event>
<event>
 7    1  0.1104109E+005  0.1043930E+01  0.7957747E-01            NaN
         13   -1    0    0    0    0  0.00000000000E+00  0.00000000000E+00  0.74505805969E-08  0.10566000000E+00  0.10566000000E+00 0. -1.
     999900   -1    0    0    0    0 -0.00000000000E+00 -0.00000000000E+00 -0.74505805969E-08  0.93827000000E+00  0.93827000000E+00 0.  1.
     999902    2    1    2    0    0  0.13060885347E-01 -0.14353152070E-01 -0.13517381082E-01  0.10202800678E+01  0.10200059301E+01 0.  0.
         14    1    1    2    0    0 -0.13060885347E-01  0.14353152070E-01  0.13517381082E-01  0.23649932171E-01  0.00000000000E+00 0. -1.
     999901    1    3    3    0    0 -0.83956507700E-01  0.20277596574E-01 -0.78307525398E-01  0.88768910360E+00  0.88000000000E+00 0.  1.
        -11    1    3    3    0    0  0.59768550011E-01 -0.14603425230E-01  0.83962388183E-02  0.62099094568E-01  0.51100000000E-03 0.  1.
         11    1    3    3    0    0  0.37248843037E-01 -0.20027323414E-01  0.56393905497E-01  0.70491869665E-01  0.51100000000E-03 0. -1.
</event>
<event>
 8    1  0.1104109E+005  0.1043930E+01  0.7957747E-01            NaN
         13   -1    0    0    0    0  0.00000000000E+00  0.00000000000E+00  0.74505805969E-08  0.10566000000E+00  0.10566000000E+00 0. -1.
     999900   -1    0    0    0    0 -0.00000000000E+00 -0.00000000000E+00 -0.74505805969E-08  0.93827000000E+00  0.93827000000E+00 0.  1.
     999902    2    1    2    0    0 -0.28980521938E-01  0.15971838072E-01  0.13905001914E-01  0.10080368343E+01  0.10073976077E+01 0.  0.
     999903    2    3    3    0    0  0.29396281383E-01  0.11453939793E+00  0.12590279823E-01  0.12061070022E+00  0.20124880720E-01 0.  0.
         14    1    1    2    0    0  0.28980521938E-01 -0.15971838072E-01 -0.13905001914E-01  0.35893165665E-01  0.00000000000E+00 0. -1.
     999901    1    3    3    0    0 -0.58376803321E-01 -0.98567559855E-01  0.13147220910E-02  0.88742613412E+00  0.88000000000E+00 0.  1.
        -11    1    4    4    0    0  0.15337218529E-01  0.64179590382E-01 -0.29732324038E-02  0.66055668385E-01  0.51100000000E-03 0. -1.
         11    1    4    4    0    0  0.14059062854E-01  0.50359807546E-01  0.15563512227E-01  0.54555031832E-01  0.51100000000E-03 0.  1.
</event>
<event>
 8    1  0.1104109E+005  0.1043930E+01  0.7957747E-01            NaN
         13   -1    0    0    0    0  0.00000000000E+00  0.00000000000E+00  0.74505805969E-08  0.10566000000E+00  0.10566000000E+00 0.  1.
     999900   -1    0    0    0    0 -0.00000000000E+00 -0.00000000000E+00 -0.74505805969E-08  0.93827000000E+00  0.93827000000E+00 0. -1.
     999902    2    1    2    0    0 -0.49458014622E-02 -0.26310593438E-01 -0.15236948182E-02  0.10171152666E+01  0.10167617399E+01 0.  0.
     999903    2    3    3    0    0  0.12030106235E+00  0.85474328915E-02 -0.33927764020E-01  0.12697377081E+00  0.20635917522E-01 0.  0.
         14    1    1    2    0    0  0.49458014622E-02  0.26310593438E-01  0.15236948182E-02  0.26814733358E-01  0.00000000000E+00 0. -1.
     999901    1    3    3    0    0 -0.12524686381E+00 -0.34858026330E-01  0.32404069201E-01  0.89014149583E+00  0.88000000000E+00 0. -1.
        -11    1    4    4    0    0  0.36649636086E-01  0.53390250686E-03 -0.20105200000E-01  0.41808624292E-01  0.51100000000E-03 0.  1.
         11    1    4    4    0    0  0.83651426263E-01  0.80135303846E-02 -0.13822564020E-01  0.85165146522E-01  0.51100000000E-03 0. -1.
</event>
<event>
 8    1  0.1104109E+005  0.1043930E+01  0.7957747E-01            NaN
         13   -1    0    0    0    0  0.00000000000E+00  0.00000000000E+00  0.74505805969E-08  0.10566000000E+00  0.10566000000E+00 0.  1.
     999900   -1    0    0    0    0 -0.00000000000E+00 -0.00000000000E+00 -0.74505805969E-08  0.93827000000E+00  0.93827000000E+00 0.  1.
     999902    2    1    2    0    0 -0.25530208634E-02  0.22033968555E-01  0.78222607957E-02  0.10204097651E+01  0.10201386608E+01 0.  0.
     999903    2    3    3    0    0  0.22239471900E-01 -0.11931244356E+00 -0.34478254367E-01  0.12778285003E+00  0.20239897237E-01 0.  0.
         14    1    1    2    0    0  0.25530208634E-02 -0.22033968555E-01 -0.78222607957E-02  0.23520234900E-01  0.00000000000E+00 0. -1.
     999901    1    3    3    0    0 -0.24792492764E-01  0.14134641212E+00  0.42300515163E-01  0.89262691506E+00  0.88000000000E+00 0. -1.
        -11    1    4    4    0    0  0.21902475509E-01 -0.81352817045E-01 -0.30535742341E-01  0.89614128104E-01  0.51100000000E-03 0.  1.
         11    1    4    4    0    0  0.33699639071E-03 -0.37959626515E-01 -0.39425120264E-02  0.38168721931E-01  0.51100000000E-03 0. -1.
</event>
<event>
 8    1  0.1104109E+005  0.1043930E+01  0.7957747E-01            NaN
         13   -1    0    0    0    0  0.00000000000E+00  0.00000000000E+00  0.74505805969E-08  0.10566000000E+00  0.10566000000E+00 0.  1.
     999900   -1    0    0    0    0 -0.00000000000E+00 -0.00000000000E+00 -0.74505805969E-08  0.93827000000E+00  0.93827000000E+00 0.  1.
     999902    2    1    2    0    0 -0.17689735230E-01  0.14170997401E-01  0.93867575530E-02  0.10193972644E+01  0.10191020202E+01 0.  0.
     999903    2    3    3    0    0 -0.10835936811E-01 -0.12853436111E-01 -0.12591840256E+00  0.12861963729E+00  0.20123087455E-01 0.  0.
         14    1    1    2    0    0  0.17689735230E-01 -0.14170997401E-01 -0.93867575530E-02  0.24532735625E-01  0.00000000000E+00 0.  1.
     999901    1    3    3    0    0 -0.68537984196E-02  0.27024433512E-01  0.13530516011E+00  0.89077762708E+00  0.88000000000E+00 0. -1.
        -11    1    4    4    0    0 -0.37955388803E-02 -0.16011218548E-01 -0.10567166499E+00  0.10694637506E+00  0.51100000000E-03 0. -1.
         11    1    4    4    0    0 -0.70403979305E-02  0.31577824374E-02 -0.20246737565E-01  0.21673262236E-01  0.51100000000E-03 0.  1.
</event>
<event>
 8    1  0.1104109E+005  0.1043930E+01  0.7957747E-01            NaN
         13   -1    0    0    0    0  0.00000000000E+00  0.00000000000E+00  0.74505805969E-08  0.10566000000E+00  0.10566000000E+00 0.  1.
     999900   -1    0    0    0    0 -0.00000000000E+00 -0.00000000000E+00 -0.74505805969E-08  0.93827000000E+00  0.93827000000E+00 0.  1.
     999902    2    1    2    0    0 -0.19419463388E-01 -0.13715097166E-01  0.30228266325E-02  0.10199642551E+01  0.10196826588E+01 0.  0.
     999903    2    3    3    0    0 -0.12512931497E+00  0.15498285871E-01  0.35757009686E-01  0.13255255739E+00  0.19851307236E-01 0.  0.
         14    1    1    2    0    0  0.19419463388E-01  0.13715097166E-01 -0.30228266325E-02  0.23965744916E-01  0.00000000000E+00 0.  1.
     999901    1    3    3    0    0  0.10570985158E+00 -0.29213383037E-01 -0.32734183054E-01  0.88741169770E+00  0.88000000000E+00 0.  1.
        -11    1    4    4    0    0 -0.73748616408E-01  0.39646811159E-04  0.16760575550E-01  0.75630932876E-01  0.51100000000E-03 0.  1.
         11    1    4    4    0    0 -0.51380698559E-01  0.15458639060E-01  0.18996434136E-01  0.56921624510E-01  0.51100000000E-03 0. -1.
</event>
<event>
 8    1  0.1104109E+005  0.1043930E+01  0.7957747E-01            NaN
         13   -1    0    0    0    0  0.00000000000E+00  0.00000000000E+00  0.74505805969E-08  0.10566000000E+00  0.10566000000E+00 0. -1.
     999900   -1    0    0    0    0 -0.00000000000E+00 -0.00000000000E+00 -0.74505805969E-08  0.93827000000E+00  0.93827000000E+00 0. -1.
     999902    2    1    2    0    0  0.13849191286E-01  0.13537761287E-01  0.10885597894E-01  0.10217136249E+01  0.10214720574E+01 0.  0.
     999903    2    3    3    0    0 -0.37176467391E-01  0.27210954106E-01  0.12315796078E+00  0.13300914226E+00  0.20025555448E-01 0.  0.
         14    1    1    2    0    0 -0.13849191286E-01 -0.13537761287E-01 -0.10885597894E-01  0.22216375075E-01  0.00000000000E+00 0.  1.
     999901    1    3    3    0    0  0.51025658677E-01 -0.13673192819E-01 -0.11227236288E+00  0.88870448267E+00  0.88000000000E+00 0. -1.
        -11    1    4    4    0    0 -0.98775579769E-02  0.28777313172E-02  0.51913622744E-01  0.52925729438E-01  0.51100000000E-03 0.  1.
         11    1    4    4    0    0 -0.27298909414E-01  0.24333222789E-01  0.71244338031E-01  0.80083412820E-01  0.51100000000E-03 0. -1.
</event>
<event>
 8    1  0.1104109E+005  0.1043930E+01  0.7957747E-01            NaN
         13   -1    0    0    0    0  0.00000000000E+00  0.00000000000E+00  0.74505805969E-08  0.10566000000E+00  0.10566000000E+00 0.  1.
     999900   -1    0    0    0    0 -0.00000000000E+00 -0.00000000000E+00 -0.74505805969E-08  0.93827000000E+00  0.93827000000E+00 0.  1.
     999902    2    1    2    0    0 -0.43789751876E-02  0.22671752356E-01  0.50118920374E-02  0.10203015671E+01  0.10200279335E+01 0.  0.
     999903    2    3    3    0    0  0.56188502428E-01  0.10784831635E-01  0.11618888337E+00  0.13116150974E+00  0.20737034992E-01 0.  0.
         14    1    1    2    0    0  0.43789751876E-02 -0.22671752356E-01 -0.50118920374E-02  0.23628432881E-01  0.00000000000E+00 0.  1.
     999901    1    3    3    0    0 -0.60567477616E-01  0.11886920721E-01 -0.11117699133E+00  0.88914005738E+00  0.88000000000E+00 0.  1.
        -11    1    4    4    0    0  0.43335157448E-01  0.17005126259E-01  0.87753604388E-01  0.99338141689E-01  0.51100000000E-03 0.  1.
         11    1    4    4    0    0  0.12853344980E-01 -0.62202946243E-02  0.28435278984E-01  0.31823368054E-01  0.51100000000E-03 0. -1.
</event>
<event>
 8    1  0.1104109E+005  0.1043930E+01  0.7957747E-01            NaN
         13   -1    0    0    0    0  0.00000000000E+00  0.00000000000E+00  0.74505805969E-08  0.10566000000E+00  0.10566000000E+00 0.  1.
     999900   -1    0    0    0    0 -0.00000000000E+00 -0.00000000000E+00 -0.74505805969E-08  0.93827000000E+00  0.93827000000E+00 0.  1.
     999902    2    1    2    0    0  0.25588906167E-02  0.38302088932E-02  0.23185361707E-01  0.10202914844E+01  0.10200176144E+01 0.  0.
     999903    2    3    3    0    0  0.81954687093E-01  0.68253077964E-01 -0.70807947938E-01  0.12939938051E+00  0.18851546253E-01 0.  0.
         14    1    1    2    0    0 -0.25588906167E-02 -0.38302088932E-02 -0.23185361707E-01  0.23638515580E-01  0.00000000000E+00 0. -1.
     999901    1    3    3    0    0 -0.79395796476E-01 -0.64422869071E-01  0.93993309645E-01  0.89089210391E+00  0.88000000000E+00 0. -1.
        -11    1    4    4    0    0  0.53914088868E-01  0.54693552536E-01 -0.55024143785E-01  0.94477675605E-01  0.51100000000E-03 0. -1.
         11    1    4    4    0    0  0.28040598225E-01  0.13559525428E-01 -0.15783804153E-01  0.34921704901E-01  0.51100000000E-03 0.  1.
</event>
<event>
 8    1  0.1104109E+005  0.1043930E+01  0.7957747E-01            NaN
         13   -1    0    0    0    0  0.00000000000E+00  0.00000000000E+00  0.74505805969E-08  0.10566000000E+00  0.10566000000E+00 0. -1.
     999900   -1    0    0    0    0 -0.00000000000E+00 -0.00000000000E+00 -0.74505805969E-08  0.93827000000E+00  0.93827000000E+00 0. -1.
     999902    2    1    2    0    0  0.52006155035E-02 -0.78642214262E-02  0.22188696109E-01  0.10198212751E+01  0.10195362684E+01 0.  0.
     999903    2    3    3    0    0 -0.84571062233E-01  0.36021382007E-01  0.91925662803E-01  0.13142488564E+00  0.19296853525E-01 0.  0.
         14    1    1    2    0    0 -0.52006155035E-02  0.78642214262E-02 -0.22188696109E-01  0.24108724879E-01  0.00000000000E+00 0.  1.
     999901    1    3    3    0    0  0.89771677736E-01 -0.43885603433E-01 -0.69736966693E-01  0.88839638948E+00  0.88000000000E+00 0. -1.
        -11    1    4    4    0    0 -0.25263135648E-01  0.94556860944E-02  0.39960172912E-01  0.48215273124E-01  0.51100000000E-03 0.  1.
         11    1    4    4    0    0 -0.59307926585E-01  0.26565695913E-01  0.51965489891E-01  0.83209612520E-01  0.51100000000E-03 0. -1.
</event>
<event>
 8    1  0.1104109E+005  0.1043930E+01  0.7957747E-01            NaN
         13   -1    0    0    0    0  0.00000000000E+00  0.00000000000E+00  0.74505805969E-08  0.10566000000E+00  0.10566000000E+00 0.  1.
     999900   -1    0    0    0    0 -0.00000000000E+00 -0.00000000000E+00 -0.74505805969E-08  0.93827000000E+00  0.93827000000E+00 0. -1.
     999902    2    1    2    0    0 -0.22574746711E-01  0.46845706985E-02 -0.51663672885E-02  0.10203025638E+01  0.10200289535E+01 0.  0.
     999903    2    3    3    0    0 -0.11049200323E-01  0.40033379981E-01  0.12187479510E+00  0.13040266295E+00  0.20655083709E-01 0.  0.
         14    1    1    2    0    0  0.22574746711E-01 -0.46845706985E-02  0.51663672885E-02  0.23627436227E-01  0.00000000000E+00 0.  1.
     999901    1    3    3    0    0 -0.11525546388E-01 -0.35348809283E-01 -0.12704116239E+00  0.88989990082E+00  0.88000000000E+00 0. -1.
        -11    1    4    4    0    0  0.56885063021E-02  0.13504626577E-01  0.46593428706E-01  0.48846113075E-01  0.51100000000E-03 0. -1.
         11    1    4    4    0    0 -0.16737706625E-01  0.26528753404E-01  0.75281366399E-01  0.81556549879E-01  0.51100000000E-03 0.  1.
</event>
<event>
 8    1  0.1104109E+005  0.1043930E+01  0.7957747E-01            NaN
         13   -1    0    0    0    0  0.00000000000E+00  0.00000000000E+00  0.74505805969E-08  0.10566000000E+00  0.10566000000E+00 0. -1.
     999900   -1    0    0    0    0 -0.00000000000E+00 -0.00000000000E+00 -0.74505805969E-08  0.93827000000E+00  0.93827000000E+00 0. -1.
     999902    2    1    2    0    0 -0.13730722259E-01 -0.18173544776E-01  0.16828826795E-01  0.10156100446E+01  0.10152151214E+01 0.  0.
     999903    2    3    3    0    0 -0.65638827675E-01  0.80625300056E-01  0.70142246460E-01  0.12696051644E+00  0.19752045190E-01 0.  0.
         14    1    1    2    0    0  0.13730722259E-01  0.18173544776E-01 -0.16828826795E-01  0.28319955416E-01  0.00000000000E+00 0. -1.
     999901    1    3    3    0    0  0.51908105416E-01 -0.98798844833E-01 -0.53313419666E-01  0.88864952814E+00  0.88000000000E+00 0. -1.
        -11    1    4    4    0    0 -0.30665818084E-01  0.53068745158E-01  0.41148261979E-01  0.73824959846E-01  0.51100000000E-03 0. -1.
         11    1    4    4    0    0 -0.34973009591E-01  0.27556554899E-01  0.28993984481E-01  0.53135556597E-01  0.51100000000E-03 0.  1.
</event>
<event>
 8    1  0.1104109E+005  0.1043930E+01  0.7957747E-01            NaN
         13   -1    0    0    0    0  0.00000000000E+00  0.00000000000E+00  0.74505805969E-08  0.10566000000E+00  0.10566000000E+00 0. -1.
     999900   -1    0    0    0    0 -0.00000000000E+00 -0.00000000000E+00 -0.74505805969E-08  0.93827000000E+00  0.93827000000E+00 0. -1.
     999902    2    1    2    0    0 -0.11036059592E-01 -0.19513814439E-02  0.20962220730E-01  0.10201599096E+01  0.10198829462E+01 0.  0.
     999903    2    3    3    0    0 -0.12143404631E-01 -0.12769744474E+00 -0.13873923825E-01  0.13053816096E+00  0.19840010964E-01 0.  0.
         14    1    1    2    0    0  0.11036059592E-01  0.19513814439E-02 -0.20962220730E-01  0.23770090424E-01  0.00000000000E+00 0.  1.
     999901    1    3    3    0    0  0.11073450398E-02  0.12574606329E+00  0.34836144555E-01  0.88962174862E+00  0.88000000000E+00 0.  1.
        -11    1    4    4    0    0 -0.12407773973E-01 -0.10579094436E+00 -0.42447548121E-02  0.10660185659E+00  0.51100000000E-03 0.  1.
         11    1    4    4    0    0  0.26436934188E-03 -0.21906500375E-01 -0.96291690131E-02  0.23936304367E-01  0.51100000000E-03 0. -1.
</event>
<event>
 8    1  0.1104109E+005  0.1043930E+01  0.7957747E-01            NaN
         13   -1    0    0    0    0  0.00000000000E+00  0.00000000000E+00  0.74505805969E-08  0.10566000000E+00  0.10566000000E+00 0. -1.
     999900   -1    0    0    0    0 -0.00000000000E+00 -0.00000000000E+00 -0.74505805969E-08  0.93827000000E+00  0.93827000000E+00 0.  1.
     999902    2    1    2    0    0  0.39819453245E-02  0.22552490626E-01 -0.41861046852E-03  0.10210248487E+01  0.10207678951E+01 0.  0.
     999903    2    3    3    0    0 -0.26223743581E-02  0.26444791086E-01 -0.12767934096E+00  0.13183754526E+00  0.19311147290E-01 0.  0.
         14    1    1    2    0    0 -0.39819453245E-02 -0.22552490626E-01  0.41861046852E-03  0.22905151315E-01  0.00000000000E+00 0. -1.
     999901    1    3    3    0    0  0.66043196825E-02 -0.38923004600E-02  0.12726073049E+00  0.88918730342E+00  0.88000000000E+00 0. -1.
        -11    1    4    4    0    0  0.74628291430E-02  0.48945057711E-02 -0.39907170183E-01  0.40896128895E-01  0.51100000000E-03 0.  1.
         11    1    4    4    0    0 -0.10085203501E-01  0.21550285315E-01 -0.87772170779E-01  0.90941416368E-01  0.51100000000E-03 0. -1.
</event>
<event>
 8    1  0.1104109E+005  0.1043930E+01  0.7957747E-01            NaN
         13   -1    0    0    0    0  0.00000000000E+00  0.00000000000E+00  0.74505805969E-08  0.10566000000E+00  0.10566000000E+00 0. -1.
     999900   -1    0    0    0    0 -0.00000000000E+00 -0.00000000000E+00 -0.74505805969E-08  0.93827000000E+00  0.93827000000E+00 0. -1.
     999902    2    1    2    0    0 -0.22291846083E-01 -0.12140256662E-02 -0.64267805475E-02  0.10206984747E+01  0.10204340608E+01 0.  0.
     999903    2    3    3    0    0 -0.59809171879E-02 -0.12087381730E+00  0.46346683369E-01  0.13088413977E+00  0.18340989744E-01 0.  0.
         14    1    1    2    0    0  0.22291846083E-01  0.12140256662E-02  0.64267805475E-02  0.23231525312E-01  0.00000000000E+00 0. -1.
     999901    1    3    3    0    0 -0.16310928895E-01  0.11965979163E+00 -0.52773463916E-01  0.88981433492E+00  0.88000000000E+00 0. -1.
        -11    1    4    4    0    0 -0.10131751270E-01 -0.54464334671E-01  0.26726197102E-01  0.61510705308E-01  0.51100000000E-03 0.  1.
         11    1    4    4    0    0  0.41508340824E-02 -0.66409482627E-01  0.19620486267E-01  0.69373434460E-01  0.51100000000E-03 0. -1.
</event>
<event>
 8    1  0.1104109E+005  0.1043930E+01  0.7957747E-01            NaN
         13   -1    0    0    0    0  0.00000000000E+00  0.00000000000E+00  0.74505805969E-08  0.10566000000E+00  0.10566000000E+00 0.  1.
     999900   -1    0    0    0    0 -0.00000000000E+00 -0.00000000000E+00 -0.74505805969E-08  0.93827000000E+00  0.93827000000E+00 0.  1.
     999902    2    1    2    0    0  0.42434173966E-02  0.21973759282E-01  0.65650459278E-02  0.10206072104E+01  0.10203406908E+01 0.  0.
     999903    2    3    3    0    0 -0.17369789998E-01  0.12261646375E+00  0.46392986477E-01  0.13371243107E+00  0.19753436189E-01 0.  0.
         14    1    1    2    0    0 -0.42434173966E-02 -0.21973759282E-01 -0.65650459278E-02  0.23322789632E-01  0.00000000000E+00 0. -1.
     999901    1    3    3    0    0  0.21613207394E-01 -0.10064270447E+00 -0.39827940549E-01  0.88689477930E+00  0.88000000000E+00 0.  1.
        -11    1    4    4    0    0 -0.12216394746E-01  0.58136250750E-01  0.31860481413E-01  0.67412278917E-01  0.51100000000E-03 0.  1.
         11    1    4    4    0    0 -0.51533952523E-02  0.64480213000E-01  0.14532505064E-01  0.66300152154E-01  0.51100000000E-03 0. -1.
</event>
<event>
 8    1  0.1104109E+005  0.1043930E+01  0.7957747E-01            NaN
         13   -1    0    0    0    0  0.00000000000E+00  0.00000000000E+00  0.74505805969E-08  0.10566000000E+00  0.10566000000E+00 0.  1.
     999900   -1    0    0    0    0 -0.00000000000E+00 -0.00000000000E+00 -0.74505805969E-08  0.93827000000E+00  0.93827000000E+00 0.  1.
     999902    2    1    2    0    0 -0.48892941030E-02 -0.21905468889E-01  0.82265277518E-02  0.10200253870E+01  0.10197452425E+01 0.  0.
     999903    2    3    3    0    0  0.25841551160E-01  0.86642331967E-01 -0.87800633393E-01  0.12764193489E+00  0.20219615775E-01 0.  0.
         14    1    1    2    0    0  0.48892941030E-02  0.21905468889E-01 -0.82265277518E-02  0.23904613005E-01  0.00000000000E+00 0. -1.
     999901    1    3    3    0    0 -0.30730845263E-01 -0.10854780086E+00  0.96027161145E-01  0.89238345211E+00  0.88000000000E+00 0. -1.
        -11    1    4    4    0    0  0.29121681139E-01  0.74730030863E-01 -0.74263690346E-01  0.10930693779E+00  0.51100000000E-03 0. -1.
         11    1    4    4    0    0 -0.32801299794E-02  0.11912301103E-01 -0.13536943047E-01  0.18334997091E-01  0.51100000000E-03 0.  1.
</event>
<event>
 8    1  0.1104109E+005  0.1043930E+01  0.7957747E-01            NaN
         13   -1    0    0    0    0  0.00000000000E+00  0.00000000000E+00  0.74505805969E-08  0.10566000000E+00  0.10566000000E+00 0.  1.
     999900   -1    0    0    0    0 -0.00000000000E+00 -0.00000000000E+00 -0.74505805969E-08  0.93827000000E+00  0.93827000000E+00 0.  1.
     999902    2    1    2    0    0  0.37916835427E-02  0.21715264455E-01  0.90940518910E-02  0.10200840076E+01  0.10198052516E+01 0.  0.
     999903    2    3    3    0    0 -0.11548213434E+00  0.47847592711E-01 -0.32645502312E-01  0.13067334170E+00  0.19603008174E-01 0.  0.
         14    1    1    2    0    0 -0.37916835427E-02 -0.21715264455E-01 -0.90940518910E-02  0.23845992414E-01  0.00000000000E+00 0. -1.
     999901    1    3    3    0    0  0.11927381788E+00 -0.26132328256E-01  0.41739554203E-01  0.88941066589E+00  0.88000000000E+00 0. -1.
        -11    1    4    4    0    0 -0.74512252957E-01  0.31633041846E-01 -0.11383112812E-01  0.81746936062E-01  0.51100000000E-03 0.  1.
         11    1    4    4    0    0 -0.40969881381E-01  0.16214550864E-01 -0.21262389500E-01  0.48926405635E-01  0.51100000000E-03 0. -1.
</event>
<event>
 8    1  0.1104109E+005  0.1043930E+01  0.7957747E-01            NaN
         13   -1    0    0    0    0  0.00000000000E+00  0.00000000000E+00  0.74505805969E-08  0.10566000000E+00  0.10566000000E+00 0.  1.
     999900   -1    0    0    0    0 -0.00000000000E+00 -0.00000000000E+00 -0.74505805969E-08  0.93827000000E+00  0.93827000000E+00 0.  1.
     999902    2    1    2    0    0  0.64525868608E-02 -0.16479641876E-01  0.18375094403E-01  0.10184180701E+01  0.10180984760E+01 0.  0.
     999903    2    3    3    0    0  0.12018357653E+00  0.15730223889E-01 -0.37920359696E-01  0.12873195037E+00  0.21034004759E-01 0.  0.
         14    1    1    2    0    0 -0.64525868608E-02  0.16479641876E-01 -0.18375094403E-01  0.25511929913E-01  0.00000000000E+00 0. -1.
     999901    1    3    3    0    0 -0.11373098967E+00 -0.32209865765E-01  0.56295454099E-01  0.88968611972E+00  0.88000000000E+00 0. -1.
        -11    1    4    4    0    0  0.48313104037E-01  0.13374996730E-01 -0.23595954631E-01  0.55408273346E-01  0.51100000000E-03 0.  1.
         11    1    4    4    0    0  0.71870472491E-01  0.23552271598E-02 -0.14324405065E-01  0.73323677026E-01  0.51100000000E-03 0. -1.
</event>
<event>
 7    1  0.1104109E+005  0.1043930E+01  0.7957747E-01            NaN
         13   -1    0    0    0    0  0.00000000000E+00  0.00000000000E+00  0.74505805969E-08  0.10566000000E+00  0.10566000000E+00 0.  1.
     999900   -1    0    0    0    0 -0.00000000000E+00 -0.00000000000E+00 -0.74505805969E-08  0.93827000000E+00  0.93827000000E+00 0. -1.
     999903    2    1    2    0    0 -0.41085285319E-01 -0.54622764526E-03  0.10944299274E+00  0.11874347916E+00  0.20831374115E-01 0.  0.
         14    1    1    2    0    0  0.25388133235E-01 -0.23140027095E-01 -0.21082976754E-01  0.40305211474E-01  0.00000000000E+00 0. -1.
     999901    1    1    2    0    0  0.15697152085E-01  0.23686254740E-01 -0.88360015987E-01  0.88488130937E+00  0.88000000000E+00 0. -1.
        -11    1    3    3    0    0 -0.40349690683E-01 -0.53811677603E-02  0.10198793255E+00  0.10981281351E+00  0.51100000000E-03 0.  1.
         11    1    3    3    0    0 -0.73559463596E-03  0.48349401151E-02  0.74550601924E-02  0.89306656447E-02  0.51100000000E-03 0. -1.
</event>
<event>
 8    1  0.1104109E+005  0.1043930E+01  0.7957747E-01            NaN
         13   -1    0    0    0    0  0.00000000000E+00  0.00000000000E+00  0.74505805969E-08  0.10566000000E+00  0.10566000000E+00 0.  1.
     999900   -1    0    0    0    0 -0.00000000000E+00 -0.00000000000E+00 -0.74505805969E-08  0.93827000000E+00  0.93827000000E+00 0. -1.
     999902    2    1    2    0    0  0.14396071829E-01  0.21829244105E-03  0.17980125953E-01  0.10208956894E+01  0.10206357965E+01 0.  0.
     999903    2    3    3    0    0  0.99476969225E-01  0.80002877750E-01 -0.26815718872E-01  0.13207005584E+00  0.20670970377E-01 0.  0.
         14    1    1    2    0    0 -0.14396071829E-01 -0.21829244105E-03 -0.17980125953E-01  0.23034310603E-01  0.00000000000E+00 0. -1.
     999901    1    3    3    0    0 -0.85080897396E-01 -0.79784585309E-01  0.44795844824E-01  0.88882563356E+00  0.88000000000E+00 0.  1.
        -11    1    4    4    0    0  0.84183330246E-01  0.73065572204E-01 -0.17430127931E-01  0.11282500349E+00  0.51100000000E-03 0.  1.
         11    1    4    4    0    0  0.15293638979E-01  0.69373055464E-02 -0.93855909410E-02  0.19245052345E-01  0.51100000000E-03 0. -1.
</event>
<event>
 8    1  0.1104109E+005  0.1043930E+01  0.7957747E-01            NaN
         13   -1    0    0    0    0  0.00000000000E+00  0.00000000000E+00  0.74505805969E-08  0.10566000000E+00  0.10566000000E+00 0. -1.
     999900   -1    0    0    0    0 -0.00000000000E+00 -0.00000000000E+00 -0.74505805969E-08  0.93827000000E+00  0.93827000000E+00 0. -1.
     999902    2    1    2    0    0  0.11935317700E-01  0.24017864300E-01  0.16510913695E-01  0.10124352404E+01  0.10119452535E+01 0.  0.
     999903    2    3    3    0    0  0.38171175741E-01  0.82188068054E-01  0.87026284546E-01  0.12731123188E+00  0.20558656878E-01 0.  0.
         14    1    1    2    0    0 -0.11935317700E-01 -0.24017864300E-01 -0.16510913695E-01  0.31494759647E-01  0.00000000000E+00 0.  1.
     999901    1    3    3    0    0 -0.26235858042E-01 -0.58170203754E-01 -0.70515370851E-01  0.88512400847E+00  0.88000000000E+00 0.  1.
        -11    1    4    4    0    0  0.72373614510E-02  0.73211073721E-02  0.18629332427E-01  0.21290635538E-01  0.51100000000E-03 0.  1.
         11    1    4    4    0    0  0.30933814290E-01  0.74866960682E-01  0.68396952119E-01  0.10602059634E+00  0.51100000000E-03 0. -1.
</event>
<event>
 8    1  0.1104109E+005  0.1043930E+01  0.7957747E-01            NaN
         13   -1    0    0    0    0  0.00000000000E+00  0.00000000000E+00  0.74505805969E-08  0.10566000000E+00  0.10566000000E+00 0.  1.
     999900   -1    0    0    0    0 -0.00000000000E+00 -0.00000000000E+00 -0.74505805969E-08  0.93827000000E+00  0.93827000000E+00 0. -1.
     999902    2    1    2    0    0  0.25248638197E-01  0.33866129616E-04 -0.31641439297E-02  0.10184838474E+01  0.10181659200E+01 0.  0.
     999903    2    3    3    0    0 -0.11109583691E+00 -0.14743622841E-01 -0.54949190028E-01  0.12635724139E+00  0.19674337916E-01 0.  0.
         14    1    1    2    0    0 -0.25248638197E-01 -0.33866129616E-04  0.31641439297E-02  0.25446152647E-01  0.00000000000E+00 0.  1.
     999901    1    3    3    0    0  0.13634447511E+00  0.14777488970E-01  0.51785046098E-01  0.89212660597E+00  0.88000000000E+00 0.  1.
        -11    1    4    4    0    0 -0.26160452964E-01 -0.35918117122E-02 -0.22688868806E-01  0.34818332806E-01  0.51100000000E-03 0.  1.
         11    1    4    4    0    0 -0.84935383949E-01 -0.11151811128E-01 -0.32260321221E-01  0.91538908581E-01  0.51100000000E-03 0. -1.
</event>
<event>
 8    1  0.1104109E+005  0.1043930E+01  0.7957747E-01            NaN
         13   -1    0    0    0    0  0.00000000000E+00  0.00000000000E+00  0.74505805969E-08  0.10566000000E+00  0.10566000000E+00 0.  1.
     999900   -1    0    0    0    0 -0.00000000000E+00 -0.00000000000E+00 -0.74505805969E-08  0.93827000000E+00  0.93827000000E+00 0.  1.
     999902    2    1    2    0    0  0.10617959541E-01 -0.17312793705E-01 -0.11629700519E-01  0.10205264997E+01  0.10202581109E+01 0.  0.
     999903    2    3    3    0    0  0.14088194837E-01 -0.51879649042E-01  0.11679861090E+00  0.13052608333E+00  0.22475936096E-01 0.  0.
         14    1    1    2    0    0 -0.10617959541E-01  0.17312793705E-01  0.11629700519E-01  0.23403500269E-01  0.00000000000E+00 0.  1.
     999901    1    3    3    0    0 -0.34702352969E-02  0.34566855336E-01 -0.12842831142E+00  0.89000041640E+00  0.88000000000E+00 0.  1.
        -11    1    4    4    0    0  0.12235191680E-01 -0.31363572484E-01  0.47457623659E-01  0.58188149642E-01  0.51100000000E-03 0.  1.
         11    1    4    4    0    0  0.18530031570E-02 -0.20516076558E-01  0.69340987238E-01  0.72337933687E-01  0.51100000000E-03 0. -1.
</event>
<event>
 8    1  0.1104109E+005  0.1043930E+01  0.7957747E-01            NaN
         13   -1    0    0    0    0  0.00000000000E+00  0.00000000000E+00  0.74505805969E-08  0.10566000000E+00  0.10566000000E+00 0.  1.
     999900   -1    0    0    0    0 -0.00000000000E+00 -0.00000000000E+00 -0.74505805969E-08  0.93827000000E+00  0.93827000000E+00 0.  1.
     999902    2    1    2    0    0 -0.20008157291E-01  0.12195141473E-01  0.12804510650E-01  0.10172278779E+01  0.10168773536E+01 0.  0.
     999903    2    3    3    0    0  0.21990034106E-01  0.13448149848E-01 -0.12150810054E+00  0.12604591236E+00  0.21422866106E-01 0.  0.
         14    1    1    2    0    0  0.20008157291E-01 -0.12195141473E-01 -0.12804510650E-01  0.26702122139E-01  0.00000000000E+00 0.  1.
     999901    1    3    3    0    0 -0.41998191397E-01 -0.12530083758E-02  0.13431261119E+00  0.89118196550E+00  0.88000000000E+00 0. -1.
        -11    1    4    4    0    0  0.53152511607E-02  0.11734200467E-01 -0.83676674191E-01  0.84663984552E-01  0.51100000000E-03 0. -1.
         11    1    4    4    0    0  0.16674782945E-01  0.17139493809E-02 -0.37831426346E-01  0.41381927808E-01  0.51100000000E-03 0.  1.
</event>
<event>
 8    1  0.1104109E+005  0.1043930E+01  0.7957747E-01            NaN
         13   -1    0    0    0    0  0.00000000000E+00  0.00000000000E+00  0.74505805969E-08  0.10566000000E+00  0.10566000000E+00 0.  1.
     999900   -1    0    0    0    0 -0.00000000000E+00 -0.00000000000E+00 -0.74505805969E-08  0.93827000000E+00  0.93827000000E+00 0.  1.
     999902    2    1    2    0    0 -0.20069270014E-01 -0.51118200119E-02  0.11243928502E-01  0.10203645119E+01  0.10200923511E+01 0.  0.
     999903    2    3    3    0    0 -0.10432594735E+00 -0.72747054012E-01 -0.31802458559E-01  0.13271215650E+00  0.20617539942E-01 0.  0.
         14    1    1    2    0    0  0.20069270014E-01  0.51118200119E-02 -0.11243928502E-01  0.23565488131E-01  0.00000000000E+00 0. -1.
     999901    1    3    3    0    0  0.84256677341E-01  0.67635234000E-01  0.43046387060E-01  0.88765235537E+00  0.88000000000E+00 0. -1.
        -11    1    4    4    0    0 -0.41878900517E-01 -0.17446931822E-01 -0.92731915239E-02  0.46308648659E-01  0.51100000000E-03 0. -1.
         11    1    4    4    0    0 -0.62447046837E-01 -0.55300122190E-01 -0.22529267035E-01  0.86403507840E-01  0.51100000000E-03 0.  1.
</event>
<event>
 8    1  0.1104109E+005  0.1043930E+01  0.7957747E-01            NaN
         13   -1    0    0    0    0  0.00000000000E+00  0.00000000000E+00  0.74505805969E-08  0.10566000000E+00  0.10566000000E+00 0.  1.
     999900   -1    0    0    0    0 -0.00000000000E+00 -0.00000000000E+00 -0.74505805969E-08  0.93827000000E+00  0.93827000000E+00 0. -1.
     999902    2    1    2    0    0  0.22567693324E-01 -0.64500663308E-02  0.42550337581E-02  0.10200760810E+01  0.10197971375E+01 0.  0.
     999903    2    3    3    0    0 -0.11122860009E+00 -0.60664058401E-01  0.56589317976E-02  0.12831233654E+00  0.19496223719E-01 0.  0.
         14    1    1    2    0    0 -0.22567693324E-01  0.64500663308E-02 -0.42550337581E-02  0.23853918963E-01  0.00000000000E+00 0.  1.
     999901    1    3    3    0    0  0.13379629342E+00  0.54213992070E-01 -0.14038980395E-02  0.89176374450E+00  0.88000000000E+00 0.  1.
        -11    1    4    4    0    0 -0.94560226193E-01 -0.46948941589E-01  0.10772912566E-01  0.10612330687E+00  0.51100000000E-03 0.  1.
         11    1    4    4    0    0 -0.16668373899E-01 -0.13715116812E-01 -0.51139807682E-02  0.22189029675E-01  0.51100000000E-03 0. -1.
</event>
<event>
 8    1  0.1104109E+005  0.1043930E+01  0.7957747E-01            NaN
         13   -1    0    0    0    0  0.00000000000E+00  0.00000000000E+00  0.74505805969E-08  0.10566000000E+00  0.10566000000E+00 0. -1.
     999900   -1    0    0    0    0 -0.00000000000E+00 -0.00000000000E+00 -0.74505805969E-08  0.93827000000E+00  0.93827000000E+00 0.  1.
     999902    2    1    2    0    0 -0.66180375974E-02  0.19401299346E-01  0.11606776463E-01  0.10203731306E+01  0.10201011712E+01 0.  0.
     999903    2    3    3    0    0  0.12635327873E+00 -0.18005839811E-01 -0.72859212406E-02  0.12939748608E+00  0.20031561169E-01 0.  0.
         14    1    1    2    0    0  0.66180375974E-02 -0.19401299346E-01 -0.11606776463E-01  0.23556869440E-01  0.00000000000E+00 0.  1.
     999901    1    3    3    0    0 -0.13297131633E+00  0.37407139157E-01  0.18892697703E-01  0.89097564448E+00  0.88000000000E+00 0.  1.
        -11    1    4    4    0    0  0.10266367395E+00 -0.66099375191E-02 -0.67555126683E-02  0.10309907514E+00  0.51100000000E-03 0. -1.
         11    1    4    4    0    0  0.23689604785E-01 -0.11395902292E-01 -0.53040857225E-03  0.26298410944E-01  0.51100000000E-03 0.  1.
</event>
<event>
 8    1  0.1104109E+005  0.1043930E+01  0.7957747E-01            NaN
         13   -1    0    0    0    0  0.00000000000E+00  0.00000000000E+00  0.74505805969E-08  0.10566000000E+00  0.10566000000E+00 0. -1.
     999900   -1    0    0    0    0 -0.00000000000E+00 -0.00000000000E+00 -0.74505805969E-08  0.93827000000E+00  0.93827000000E+00 0.  1.
     999902    2    1    2    0    0 -0.16436210592E-01 -0.12285035017E-01  0.12055712008E-01  0.10201306030E+01  0.10198529482E+01 0.  0.
     999903    2    3    3    0    0 -0.47655889745E-02 -0.76724850045E-01  0.10606464158E+00  0.13270377675E+00  0.21240779589E-01 0.  0.
         14    1    1    2    0    0  0.16436210592E-01  0.12285035017E-01 -0.12055712008E-01  0.23799396968E-01  0.00000000000E+00 0.  1.
     999901    1    3    3    0    0 -0.11670621617E-01  0.64439815028E-01 -0.94008929570E-01  0.88742682628E+00  0.88000000000E+00 0.  1.
        -11    1    4    4    0    0 -0.75421942105E-02 -0.10578117424E-01  0.12127818626E-01  0.17779942840E-01  0.51100000000E-03 0. -1.
         11    1    4    4    0    0  0.27766052360E-02 -0.66146732621E-01  0.93936822951E-01  0.11492383391E+00  0.51100000000E-03 0.  1.
</event>
<event>
 8    1  0.1104109E+005  0.1043930E+01  0.7957747E-01            NaN
         13   -1    0    0    0    0  0.00000000000E+00  0.00000000000E+00  0.74505805969E-08  0.10566000000E+00  0.10566000000E+00 0.  1.
     999900   -1    0    0    0    0 -0.00000000000E+00 -0.00000000000E+00 -0.74505805969E-08  0.93827000000E+00  0.93827000000E+00 0.  1.
     999902    2    1    2    0    0 -0.30445692972E-02  0.22343615500E-02  0.24107565520E-01  0.10195284327E+01  0.10192363752E+01 0.  0.
     999903    2    3    3    0    0 -0.87934035217E-01 -0.10948367565E-01  0.96391728989E-01  0.13239540652E+00  0.19619300376E-01 0.  0.
         14    1    1    2    0    0  0.30445692972E-02 -0.22343615500E-02 -0.24107565520E-01  0.24401567348E-01  0.00000000000E+00 0. -1.
     999901    1    3    3    0    0  0.84889465920E-01  0.13182729115E-01 -0.72284163469E-01  0.88713302614E+00  0.88000000000E+00 0. -1.
        -11    1    4    4    0    0 -0.14866098109E-01 -0.63797088215E-02  0.27252523086E-01  0.31696414516E-01  0.51100000000E-03 0.  1.
         11    1    4    4    0    0 -0.73067937108E-01 -0.45686587434E-02  0.69139205903E-01  0.10069899200E+00  0.51100000000E-03 0. -1.
</event>
<event>
 8    1  0.1104109E+005  0.1043930E+01  0.7957747E-01            NaN
         13   -1    0    0    0    0  0.00000000000E+00  0.00000000000E+00  0.74505805969E-08  0.10566000000E+00  0.10566000000E+00 0.  1.
     999900   -1    0    0    0    0 -0.00000000000E+00 -0.00000000000E+00 -0.74505805969E-08  0.93827000000E+00  0.93827000000E+00 0. -1.
     999902    2    1    2    0    0  0.22401997181E-01 -0.20777497346E-02 -0.64900033437E-02  0.10205144781E+01  0.10202458103E+01 0.  0.
     999903    2    3    3    0    0 -0.49344734950E-01 -0.94700807746E-01 -0.72242407838E-01  0.13031786885E+00  0.18990408035E-01 0.  0.
         14    1    1    2    0    0 -0.22401997181E-01  0.20777497346E-02  0.64900033437E-02  0.23415521883E-01  0.00000000000E+00 0. -1.
     999901    1    3    3    0    0  0.71746732131E-01  0.92623058011E-01  0.65752404495E-01  0.89019660926E+00  0.88000000000E+00 0.  1.
        -11    1    4    4    0    0 -0.40991411050E-01 -0.61422962428E-01 -0.44739156695E-01  0.86341932780E-01  0.51100000000E-03 0.  1.
         11    1    4    4    0    0 -0.83533238997E-02 -0.33277845317E-01 -0.27503251143E-01  0.43975936074E-01  0.51100000000E-03 0. -1.
</event>
<event>
 7    1  0.1104109E+005  0.1043930E+01  0.7957747E-01            NaN
         13   -1    0    0    0    0  0.00000000000E+00  0.00000000000E+00  0.74505805969E-08  0.10566000000E+00  0.10566000000E+00 0. -1.
     999900   -1    0    0    0    0 -0.00000000000E+00 -0.00000000000E+00 -0.74505805969E-08  0.93827000000E+00  0.93827000000E+00 0.  1.
     999903    2    1    2    0    0  0.47257672927E-01  0.96391218537E-02 -0.91526185784E-01  0.10537430603E+00  0.20012530266E-01 0.  0.
         14    1    1    2    0    0 -0.37323862374E-02 -0.12871186399E-01 -0.45005450310E-01  0.46958372033E-01  0.00000000000E+00 0.  1.
     999901    1    1    2    0    0 -0.43525286689E-01  0.32320645448E-02  0.13653163609E+00  0.89159732193E+00  0.88000000000E+00 0. -1.
        -11    1    3    3    0    0  0.29973110789E-01  0.19160705127E-03 -0.38429378136E-01  0.48739125028E-01  0.51100000000E-03 0.  1.
         11    1    3    3    0    0  0.17284562138E-01  0.94475148025E-02 -0.53096807648E-01  0.56635181007E-01  0.51100000000E-03 0. -1.
</event>
<event>
 8    1  0.1104109E+005  0.1043930E+01  0.7957747E-01            NaN
         13   -1    0    0    0    0  0.00000000000E+00  0.00000000000E+00  0.74505805969E-08  0.10566000000E+00  0.10566000000E+00 0.  1.
     999900   -1    0    0    0    0 -0.00000000000E+00 -0.00000000000E+00 -0.74505805969E-08  0.93827000000E+00  0.93827000000E+00 0. -1.
     999902    2    1    2    0    0  0.16050343900E-01 -0.13557636929E-01  0.11916464116E-01  0.10197758042E+01  0.10194897084E+01 0.  0.
     999903    2    3    3    0    0  0.40780839288E-02  0.67389744280E-01  0.10980200304E+00  0.13057538119E+00  0.20867244605E-01 0.  0.
         14    1    1    2    0    0 -0.16050343900E-01  0.13557636929E-01 -0.11916464116E-01  0.24154195814E-01  0.00000000000E+00 0. -1.
     999901    1    3    3    0    0  0.11972259971E-01 -0.80947381209E-01 -0.97885538924E-01  0.88920042300E+00  0.88000000000E+00 0. -1.
        -11    1    4    4    0    0 -0.65734762643E-02  0.31805356097E-01  0.40220380317E-01  0.51698465939E-01  0.51100000000E-03 0.  1.
         11    1    4    4    0    0  0.10651560193E-01  0.35584388184E-01  0.69581622723E-01  0.78876915246E-01  0.51100000000E-03 0. -1.
</event>
<event>
 8    1  0.1104109E+005  0.1043930E+01  0.7957747E-01            NaN
         13   -1    0    0    0    0  0.00000000000E+00  0.00000000000E+00  0.74505805969E-08  0.10566000000E+00  0.10566000000E+00 0.  1.
     999900   -1    0    0    0    0 -0.00000000000E+00 -0.00000000000E+00 -0.74505805969E-08  0.93827000000E+00  0.93827000000E+00 0. -1.
     999902    2    1    2    0    0 -0.23417328333E-01  0.41480657101E-03  0.36564899751E-02  0.10202252906E+01  0.10199498665E+01 0.  0.
     999903    2    3    3    0    0 -0.10564439746E+00 -0.35197012126E-01  0.70179746917E-01  0.13317690617E+00  0.20281101651E-01 0.  0.
         14    1    1    2    0    0  0.23417328333E-01 -0.41480657101E-03 -0.36564899751E-02  0.23704709441E-01  0.00000000000E+00 0.  1.
     999901    1    3    3    0    0  0.82227069122E-01  0.35611818697E-01 -0.66523256942E-01  0.88704838439E+00  0.88000000000E+00 0. -1.
        -11    1    4    4    0    0 -0.91519078165E-01 -0.33533611883E-01  0.67836751729E-01  0.11875323490E+00  0.51100000000E-03 0.  1.
         11    1    4    4    0    0 -0.14125319290E-01 -0.16634002426E-02  0.23429951882E-02  0.14423671268E-01  0.51100000000E-03 0. -1.
</event>
<event>
 8    1  0.1104109E+005  0.1043930E+01  0.7957747E-01            NaN
         13   -1    0    0    0    0  0.00000000000E+00  0.00000000000E+00  0.74505805969E-08  0.10566000000E+00  0.10566000000E+00 0. -1.
     999900   -1    0    0    0    0 -0.00000000000E+00 -0.00000000000E+00 -0.74505805969E-08  0.93827000000E+00  0.93827000000E+00 0.  1.
     999902    2    1    2    0    0  0.20523520642E-01  0.64125903604E-02 -0.48137858615E-02  0.10218957369E+01  0.10216581563E+01 0.  0.
     999903    2    3    3    0    0  0.24183339834E-01 -0.10484278154E+00 -0.74061080684E-01  0.13218435682E+00  0.20268639605E-01 0.  0.
         14    1    1    2    0    0 -0.20523520642E-01 -0.64125903604E-02  0.48137858615E-02  0.22034263069E-01  0.00000000000E+00 0. -1.
     999901    1    3    3    0    0 -0.36598191923E-02  0.11125537190E+00  0.69247294822E-01  0.88971138011E+00  0.88000000000E+00 0. -1.
        -11    1    4    4    0    0  0.16150502061E-01 -0.91292370265E-01 -0.69205224981E-01  0.11569252297E+00  0.51100000000E-03 0.  1.
         11    1    4    4    0    0  0.80328377729E-02 -0.13550411270E-01 -0.48558557025E-02  0.16491833854E-01  0.51100000000E-03 0. -1.
</event>
<event>
 7    1  0.1104109E+005  0.1043930E+01  0.7957747E-01            NaN
         13   -1    0    0    0    0  0.00000000000E+00  0.00000000000E+00  0.74505805969E-08  0.10566000000E+00  0.10566000000E+00 0.  1.
     999900   -1    0    0    0    0 -0.00000000000E+00 -0.00000000000E+00 -0.74505805969E-08  0.93827000000E+00  0.93827000000E+00 0. -1.
     999903    2    1    2    0    0 -0.40044852079E-01 -0.23065928273E-01 -0.10088281718E-01  0.52136201150E-01  0.21926760299E-01 0.  0.
         14    1    1    2    0    0  0.63581417964E-01  0.14967658084E-01 -0.84022789452E-01  0.10642582697E+00  0.00000000000E+00 0. -1.
     999901    1    1    2    0    0 -0.23536565885E-01  0.80982701889E-02  0.94111071171E-01  0.88536797188E+00  0.88000000000E+00 0.  1.
        -11    1    3    3    0    0  0.23365619246E-02 -0.24003167182E-02 -0.28541308519E-02  0.44303753672E-02  0.51100000000E-03 0. -1.
         11    1    3    3    0    0 -0.42381414003E-01 -0.20665611555E-01 -0.72341508663E-02  0.47705825783E-01  0.51100000000E-03 0.  1.
</event>
<event>
 8    1  0.1104109E+005  0.1043930E+01  0.7957747E-01            NaN
         13   -1    0    0    0    0  0.00000000000E+00  0.00000000000E+00  0.74505805969E-08  0.10566000000E+00  0.10566000000E+00 0.  1.
     999900   -1    0    0    0    0 -0.00000000000E+00 -0.00000000000E+00 -0.74505805969E-08  0.93827000000E+00  0.93827000000E+00 0. -1.
     999902    2    1    2    0    0  0.19273867796E-01  0.26966614680E-02  0.14680315622E-01  0.10195524359E+01  0.10192609597E+01 0.  0.
     999903    2    3    3    0    0 -0.15053664520E-01 -0.46754924710E-02 -0.12533004169E+00  0.12779258694E+00  0.19361117806E-01 0.  0.
         14    1    1    2    0    0 -0.19273867796E-01 -0.26966614680E-02 -0.14680315622E-01  0.24377564063E-01  0.00000000000E+00 0. -1.
     999901    1    3    3    0    0  0.34327532316E-01  0.73721539390E-02  0.14001035731E+00  0.89175984900E+00  0.88000000000E+00 0.  1.
        -11    1    4    4    0    0 -0.62867272202E-03 -0.46832075757E-02 -0.81675614342E-01  0.81813781001E-01  0.51100000000E-03 0. -1.
         11    1    4    4    0    0 -0.14424991798E-01  0.77151047461E-05 -0.43654427344E-01  0.45978805939E-01  0.51100000000E-03 0.  1.
</event>
<event>
 8    1  0.1104109E+005  0.1043930E+01  0.7957747E-01            NaN
         13   -1    0    0    0    0  0.00000000000E+00  0.00000000000E+00  0.74505805969E-08  0.10566000000E+00  0.10566000000E+00 0.  1.
     999900   -1    0    0    0    0 -0.00000000000E+00 -0.00000000000E+00 -0.74505805969E-08  0.93827000000E+00  0.93827000000E+00 0.  1.
     999902    2    1    2    0    0  0.26822190603E-02 -0.19506987007E-01  0.10609651981E-01  0.10215630253E+01  0.10213181351E+01 0.  0.
     999903    2    3    3    0    0  0.18116150152E-01  0.11004648463E+00  0.64293179441E-01  0.13032555452E+00  0.20315352854E-01 0.  0.
         14    1    1    2    0    0 -0.26822190603E-02  0.19506987007E-01 -0.10609651981E-01  0.22366974680E-01  0.00000000000E+00 0. -1.
     999901    1    3    3    0    0 -0.15433931092E-01 -0.12955347164E+00 -0.53683527461E-01  0.89123747080E+00  0.88000000000E+00 0.  1.
        -11    1    4    4    0    0  0.48756879440E-02  0.58353406358E-01  0.43941952946E-01  0.73212353577E-01  0.51100000000E-03 0.  1.
         11    1    4    4    0    0  0.13240462208E-01  0.51693078274E-01  0.20351226495E-01  0.57113200941E-01  0.51100000000E-03 0. -1.
</event>
<event>
 8    1  0.1104109E+005  0.1043930E+01  0.7957747E-01            NaN
         13   -1    0    0    0    0  0.00000000000E+00  0.00000000000E+00  0.74505805969E-08  0.10566000000E+00  0.10566000000E+00 0. -1.
     999900   -1    0    0    0    0 -0.00000000000E+00 -0.00000000000E+00 -0.74505805969E-08  0.93827000000E+00  0.93827000000E+00 0. -1.
     999902    2    1    2    0    0 -0.43129464060E-02 -0.18232557113E-01 -0.13628735745E-01  0.10207617009E+01  0.10204987408E+01 0.  0.
     999903    2    3    3    0    0 -0.30570065960E-01  0.11981206652E+00  0.30760308730E-01  0.12850829422E+00  0.16695055377E-01 0.  0.
         14    1    1    2    0    0  0.43129464060E-02  0.18232557113E-01  0.13628735745E-01  0.23168299109E-01  0.00000000000E+00 0. -1.
     999901    1    3    3    0    0  0.26257119554E-01 -0.13804462363E+00 -0.44389044475E-01  0.89225340667E+00  0.88000000000E+00 0. -1.
        -11    1    4    4    0    0 -0.24725735989E-01  0.11336480387E+00  0.27954979134E-01  0.11935109031E+00  0.51100000000E-03 0.  1.
         11    1    4    4    0    0 -0.58443299712E-02  0.64472626470E-02  0.28053295963E-02  0.91572039180E-02  0.51100000000E-03 0. -1.
</event>
<event>
 8    1  0.1104109E+005  0.1043930E+01  0.7957747E-01            NaN
         13   -1    0    0    0    0  0.00000000000E+00  0.00000000000E+00  0.74505805969E-08  0.10566000000E+00  0.10566000000E+00 0. -1.
     999900   -1    0    0    0    0 -0.00000000000E+00 -0.00000000000E+00 -0.74505805969E-08  0.93827000000E+00  0.93827000000E+00 0.  1.
     999902    2    1    2    0    0  0.12925284081E-01 -0.50619352383E-02 -0.32415318585E-01  0.10086675691E+01  0.10080510036E+01 0.  0.
     999903    2    3    3    0    0 -0.12584405634E-01 -0.68187215457E-01 -0.10007816737E+00  0.12344793169E+00  0.20393347914E-01 0.  0.
         14    1    1    2    0    0 -0.12925284081E-01  0.50619352383E-02  0.32415318585E-01  0.35262430941E-01  0.00000000000E+00 0. -1.
     999901    1    3    3    0    0  0.25509689714E-01  0.63125280219E-01  0.67662848781E-01  0.88521963737E+00  0.88000000000E+00 0.  1.
        -11    1    4    4    0    0 -0.40864580880E-02 -0.23040318517E-01 -0.51589949462E-01  0.56651031973E-01  0.51100000000E-03 0. -1.
         11    1    4    4    0    0 -0.84979475455E-02 -0.45146896940E-01 -0.48488217904E-01  0.66796899721E-01  0.51100000000E-03 0.  1.
</event>
<event>
 8    1  0.1104109E+005  0.1043930E+01  0.7957747E-01            NaN
         13   -1    0    0    0    0  0.00000000000E+00  0.00000000000E+00  0.74505805969E-08  0.10566000000E+00  0.10566000000E+00 0.  1.
     999900   -1    0    0    0    0 -0.00000000000E+00 -0.00000000000E+00 -0.74505805969E-08  0.93827000000E+00  0.93827000000E+00 0.  1.
     999902    2    1    2    0    0 -0.86073300380E-02 -0.15702159927E-01 -0.14020903277E-01  0.10211873158E+01  0.10209340352E+01 0.  0.
     999903    2    3    3    0    0 -0.29822906081E-02 -0.18283141600E-01  0.12762598318E+00  0.12983881885E+00  0.15051909344E-01 0.  0.
         14    1    1    2    0    0  0.86073300380E-02  0.15702159927E-01  0.14020903277E-01  0.22742684218E-01  0.00000000000E+00 0.  1.
     999901    1    3    3    0    0 -0.56250394300E-02  0.25809816730E-02 -0.14164688646E+00  0.89134849693E+00  0.88000000000E+00 0.  1.
        -11    1    4    4    0    0 -0.38126897249E-02 -0.20748881201E-01  0.11694103384E+00  0.11882979084E+00  0.51100000000E-03 0.  1.
         11    1    4    4    0    0  0.83039911683E-03  0.24657396011E-02  0.10684949336E-01  0.11009028013E-01  0.51100000000E-03 0. -1.
</event>
<event>
 8    1  0.1104109E+005  0.1043930E+01  0.7957747E-01            NaN
         13   -1    0    0    0    0  0.00000000000E+00  0.00000000000E+00  0.74505805969E-08  0.10566000000E+00  0.10566000000E+00 0. -1.
     999900   -1    0    0    0    0 -0.00000000000E+00 -0.00000000000E+00 -0.74505805969E-08  0.93827000000E+00  0.93827000000E+00 0. -1.
     999902    2    1    2    0    0  0.56162409859E-02  0.63992820495E-02 -0.21111835489E-01  0.10211659368E+01  0.10209121745E+01 0.  0.
     999903    2    3    3    0    0 -0.12388957566E+00 -0.25991336531E-01 -0.27515077013E-01  0.13107498070E+00  0.19984858534E-01 0.  0.
         14    1    1    2    0    0 -0.56162409859E-02 -0.63992820495E-02  0.21111835489E-01  0.22764063154E-01  0.00000000000E+00 0. -1.
     999901    1    3    3    0    0  0.12950581664E+00  0.32390618581E-01  0.64032415235E-02  0.89009095615E+00  0.88000000000E+00 0.  1.
        -11    1    4    4    0    0 -0.27588514532E-01 -0.14093444862E-01 -0.92593045154E-02  0.32338014213E-01  0.51100000000E-03 0.  1.
         11    1    4    4    0    0 -0.96301061125E-01 -0.11897891669E-01 -0.18255772497E-01  0.98736966484E-01  0.51100000000E-03 0. -1.
</event>
<event>
 8    1  0.1104109E+005  0.1043930E+01  0.7957747E-01            NaN
         13   -1    0    0    0    0  0.00000000000E+00  0.00000000000E+00  0.74505805969E-08  0.10566000000E+00  0.10566000000E+00 0. -1.
     999900   -1    0    0    0    0 -0.00000000000E+00 -0.00000000000E+00 -0.74505805969E-08  0.93827000000E+00  0.93827000000E+00 0.  1.
     999902    2    1    2    0    0  0.18540407363E-01 -0.11725739289E-01  0.57361486412E-02  0.10212552769E+01  0.10210035247E+01 0.  0.
     999903    2    3    3    0    0  0.10185962580E+00 -0.82303101278E-01 -0.21219538667E-01  0.13409696787E+00  0.19558735190E-01 0.  0.
         14    1    1    2    0    0 -0.18540407363E-01  0.11725739289E-01 -0.57361486412E-02  0.22674723113E-01  0.00000000000E+00 0.  1.
     999901    1    3    3    0    0 -0.83319218434E-01  0.70577361989E-01  0.26955687308E-01  0.88715830902E+00  0.88000000000E+00 0. -1.
        -11    1    4    4    0    0  0.27792647723E-01 -0.17097288080E-01  0.20860039049E-02  0.32701086533E-01  0.51100000000E-03 0. -1.
         11    1    4    4    0    0  0.74066978074E-01 -0.65205813198E-01 -0.23305542572E-01  0.10139588133E+00  0.51100000000E-03 0.  1.
</event>
<event>
 8    1  0.1104109E+005  0.1043930E+01  0.7957747E-01            NaN
         13   -1    0    0    0    0  0.00000000000E+00  0.00000000000E+00  0.74505805969E-08  0.10566000000E+00  0.10566000000E+00 0.  1.
     999900   -1    0    0    0    0 -0.00000000000E+00 -0.00000000000E+00 -0.74505805969E-08  0.93827000000E+00  0.93827000000E+00 0. -1.
     999902    2    1    2    0    0  0.12529513268E-02 -0.15026731552E-01  0.18031554407E-01  0.10204244793E+01  0.10201537181E+01 0.  0.
     999903    2    3    3    0    0 -0.28359585930E-01 -0.45702558053E-01 -0.11588369421E+00  0.12927286343E+00  0.19734556168E-01 0.  0.
         14    1    1    2    0    0 -0.12529513268E-02  0.15026731552E-01 -0.18031554407E-01  0.23505520681E-01  0.00000000000E+00 0. -1.
     999901    1    3    3    0    0  0.29612537257E-01  0.30675826501E-01  0.13391524862E+00  0.89115161589E+00  0.88000000000E+00 0.  1.
        -11    1    4    4    0    0  0.29795055911E-02 -0.58546930120E-02 -0.13928430424E-01  0.15408347702E-01  0.51100000000E-03 0.  1.
         11    1    4    4    0    0 -0.31339091521E-01 -0.39847865041E-01 -0.10195526379E+00  0.11386451572E+00  0.51100000000E-03 0. -1.
</event>
<event>
 8    1  0.1104109E+005  0.1043930E+01  0.7957747E-01            NaN
         13   -1    0    0    0    0  0.00000000000E+00  0.00000000000E+00  0.74505805969E-08  0.10566000000E+00  0.10566000000E+00 0. -1.
     999900   -1    0    0    0    0 -0.00000000000E+00 -0.00000000000E+00 -0.74505805969E-08  0.93827000000E+00  0.93827000000E+00 0. -1.
     999902    2    1    2    0    0  0.18539256370E-01 -0.98193995846E-02 -0.10059651526E-01  0.10206636891E+01  0.10203984736E+01 0.  0.
     999903    2    3    3    0    0 -0.20325241367E-01  0.11506760840E+00  0.51005880045E-01  0.12890351219E+00  0.18995939415E-01 0.  0.
         14    1    1    2    0    0 -0.18539256370E-01  0.98193995846E-02  0.10059651526E-01  0.23266310919E-01  0.00000000000E+00 0. -1.
     999901    1    3    3    0    0  0.38864497736E-01 -0.12488700799E+00 -0.61065531571E-01  0.89176017689E+00  0.88000000000E+00 0. -1.
        -11    1    4    4    0    0 -0.84595709916E-03  0.39541151067E-01  0.24483267688E-01  0.46517843768E-01  0.51100000000E-03 0. -1.
         11    1    4    4    0    0 -0.19479284268E-01  0.75526457338E-01  0.26522612357E-01  0.82385668419E-01  0.51100000000E-03 0.  1.
</event>
<event>
 8    1  0.1104109E+005  0.1043930E+01  0.7957747E-01            NaN
         13   -1    0    0    0    0  0.00000000000E+00  0.00000000000E+00  0.74505805969E-08  0.10566000000E+00  0.10566000000E+00 0. -1.
     999900   -1    0    0    0    0 -0.00000000000E+00 -0.00000000000E+00 -0.74505805969E-08  0.93827000000E+00  0.93827000000E+00 0.  1.
     999902    2    1    2    0    0  0.56499067209E-02 -0.17156080797E-01  0.14673075661E-01  0.10206587365E+01  0.10203934069E+01 0.  0.
     999903    2    3    3    0    0  0.62587753882E-03  0.10770958700E+00 -0.66257264364E-01  0.12815305262E+00  0.20770964389E-01 0.  0.
         14    1    1    2    0    0 -0.56499067209E-02  0.17156080797E-01 -0.14673075661E-01  0.23271263473E-01  0.00000000000E+00 0.  1.
     999901    1    3    3    0    0  0.50240291821E-02 -0.12486566780E+00  0.80930340024E-01  0.89250568390E+00  0.88000000000E+00 0. -1.
        -11    1    4    4    0    0 -0.32375414927E-02  0.85348046525E-02 -0.11851838413E-01  0.14968358632E-01  0.51100000000E-03 0. -1.
         11    1    4    4    0    0  0.38634190316E-02  0.99174782347E-01 -0.54405425950E-01  0.11318469399E+00  0.51100000000E-03 0.  1.
</event>
<event>
 8    1  0.1104109E+005  0.1043930E+01  0.7957747E-01            NaN
         13   -1    0    0    0    0  0.00000000000E+00  0.00000000000E+00  0.74505805969E-08  0.10566000000E+00  0.10566000000E+00 0.  1.
     999900   -1    0    0    0    0 -0.00000000000E+00 -0.00000000000E+00 -0.74505805969E-08  0.93827000000E+00  0.93827000000E+00 0.  1.
     999902    2    1    2    0    0 -0.92248106773E-02 -0.43065389370E-02 -0.21440155620E-01  0.10201955591E+01  0.10199194357E+01 0.  0.
     999903    2    3    3    0    0 -0.55288932054E-01  0.92767208028E-01  0.67000859266E-01  0.12925951838E+00  0.23585738391E-01 0.  0.
         14    1    1    2    0    0  0.92248106773E-02  0.43065389370E-02  0.21440155620E-01  0.23734440854E-01  0.00000000000E+00 0.  1.
     999901    1    3    3    0    0  0.46064121376E-01 -0.97073746965E-01 -0.88441014886E-01  0.89093604077E+00  0.88000000000E+00 0.  1.
        -11    1    4    4    0    0 -0.42670167641E-01  0.49104204397E-01  0.40942342207E-01  0.76866784779E-01  0.51100000000E-03 0. -1.
         11    1    4    4    0    0 -0.12618764413E-01  0.43663003632E-01  0.26058517058E-01  0.52392733597E-01  0.51100000000E-03 0.  1.
</event>
<event>
 8    1  0.1104109E+005  0.1043930E+01  0.7957747E-01            NaN
         13   -1    0    0    0    0  0.00000000000E+00  0.00000000000E+00  0.74505805969E-08  0.10566000000E+00  0.10566000000E+00 0. -1.
     999900   -1    0    0    0    0 -0.00000000000E+00 -0.00000000000E+00 -0.74505805969E-08  0.93827000000E+00  0.93827000000E+00 0. -1.
     999902    2    1    2    0    0 -0.11901851260E-01  0.84299527361E-02  0.18664666438E-01  0.10202427051E+01  0.10199676904E+01 0.  0.
     999903    2    3    3    0    0  0.57321737290E-03  0.12963251248E+00 -0.72383674800E-02  0.13147014983E+00  0.20666142952E-01 0.  0.
         14    1    1    2    0    0  0.11901851260E-01 -0.84299527361E-02 -0.18664666438E-01  0.23687294903E-01  0.00000000000E+00 0.  1.
     999901    1    3    3    0    0 -0.12475068633E-01 -0.12120255974E+00  0.25903033918E-01  0.88877255526E+00  0.88000000000E+00 0. -1.
        -11    1    4    4    0    0 -0.29298894665E-02  0.72410067881E-01  0.57052331533E-02  0.72695343655E-01  0.51100000000E-03 0.  1.
         11    1    4    4    0    0  0.35031068394E-02  0.57222444595E-01 -0.12943600633E-01  0.58774806178E-01  0.51100000000E-03 0. -1.
</event>
<event>
 8    1  0.1104109E+005  0.1043930E+01  0.7957747E-01            NaN
         13   -1    0    0    0    0  0.00000000000E+00  0.00000000000E+00  0.74505805969E-08  0.10566000000E+00  0.10566000000E+00 0. -1.
     999900   -1    0    0    0    0 -0.00000000000E+00 -0.00000000000E+00 -0.74505805969E-08  0.93827000000E+00  0.93827000000E+00 0. -1.
     999902    2    1    2    0    0  0.16608192806E-01  0.82607979206E-02 -0.15332680255E-01  0.10198641750E+01  0.10195801937E+01 0.  0.
     999903    2    3    3    0    0 -0.10621003257E+00 -0.21424665948E-01 -0.67770854520E-01  0.12929396136E+00  0.19607457584E-01 0.  0.
         14    1    1    2    0    0 -0.16608192806E-01 -0.82607979206E-02  0.15332680255E-01  0.24065825030E-01  0.00000000000E+00 0. -1.
     999901    1    3    3    0    0  0.12281822537E+00  0.29685463868E-01  0.52438174265E-01  0.89057021361E+00  0.88000000000E+00 0.  1.
        -11    1    4    4    0    0 -0.69081456555E-02 -0.33865297373E-02 -0.11185891545E-01  0.13585887925E-01  0.51100000000E-03 0.  1.
         11    1    4    4    0    0 -0.99301886912E-01 -0.18038136210E-01 -0.56584962975E-01  0.11570807344E+00  0.51100000000E-03 0. -1.
</event>
<event>
 8    1  0.1104109E+005  0.1043930E+01  0.7957747E-01            NaN
         13   -1    0    0    0    0  0.00000000000E+00  0.00000000000E+00  0.74505805969E-08  0.10566000000E+00  0.10566000000E+00 0.  1.
     999900   -1    0    0    0    0 -0.00000000000E+00 -0.00000000000E+00 -0.74505805969E-08  0.93827000000E+00  0.93827000000E+00 0.  1.
     999902    2    1    2    0    0 -0.16840481675E-01  0.11003227820E-01 -0.13102179676E-01  0.10199229186E+01  0.10196403385E+01 0.  0.
     999903    2    3    3    0    0  0.15812084442E-01 -0.87553109350E-01 -0.92915948654E-01  0.13023208499E+00  0.20284316011E-01 0.  0.
         14    1    1    2    0    0  0.16840481675E-01 -0.11003227820E-01  0.13102179676E-01  0.24007081409E-01  0.00000000000E+00 0.  1.
     999901    1    3    3    0    0 -0.32652566117E-01  0.98556337170E-01  0.79813768978E-01  0.88969083360E+00  0.88000000000E+00 0. -1.
        -11    1    4    4    0    0  0.10285881304E-01 -0.69561816223E-01 -0.60589496121E-01  0.92822377645E-01  0.51100000000E-03 0.  1.
         11    1    4    4    0    0  0.55262031375E-02 -0.17991293127E-01 -0.32326452533E-01  0.37409707348E-01  0.51100000000E-03 0. -1.
</event>
<event>
 8    1  0.1104109E+005  0.1043930E+01  0.7957747E-01            NaN
         13   -1    0    0    0    0  0.00000000000E+00  0.00000000000E+00  0.74505805969E-08  0.10566000000E+00  0.10566000000E+00 0.  1.
     999900   -1    0    0    0    0 -0.00000000000E+00 -0.00000000000E+00 -0.74505805969E-08  0.93827000000E+00  0.93827000000E+00 0.  1.
     999902    2    1    2    0    0 -0.15229885762E-01 -0.70448017121E-03 -0.19343045503E-01  0.10193007669E+01  0.10190031670E+01 0.  0.
     999903    2    3    3    0    0  0.11951630195E+00  0.15678944560E-01 -0.40316419733E-01  0.12864660613E+00  0.19863530285E-01 0.  0.
         14    1    1    2    0    0  0.15229885762E-01  0.70448017121E-03  0.19343045503E-01  0.24629233077E-01  0.00000000000E+00 0.  1.
     999901    1    3    3    0    0 -0.13474618771E+00 -0.16383424731E-01  0.20973374230E-01  0.89065416079E+00  0.88000000000E+00 0.  1.
        -11    1    4    4    0    0  0.54735853043E-01  0.17095880266E-01 -0.17703989903E-01  0.60016456992E-01  0.51100000000E-03 0.  1.
         11    1    4    4    0    0  0.64780448905E-01 -0.14169357064E-02 -0.22612429830E-01  0.68630149140E-01  0.51100000000E-03 0. -1.
</event>
<event>
 8    1  0.1104109E+005  0.1043930E+01  0.7957747E-01            NaN
         13   -1    0    0    0    0  0.00000000000E+00  0.00000000000E+00  0.74505805969E-08  0.10566000000E+00  0.10566000000E+00 0.  1.
     999900   -1    0    0    0    0 -0.00000000000E+00 -0.00000000000E+00 -0.74505805969E-08  0.93827000000E+00  0.93827000000E+00 0. -1.
     999902    2    1    2    0    0  0.13262422164E-01 -0.19410558815E-01 -0.61299924273E-03  0.10204132527E+01  0.10201422297E+01 0.  0.
     999903    2    3    3    0    0  0.22923886075E-01 -0.11786378881E+00 -0.54200265612E-01  0.13325037166E+00  0.20015381351E-01 0.  0.
         14    1    1    2    0    0 -0.13262422164E-01  0.19410558815E-01  0.61299924273E-03  0.23516747293E-01  0.00000000000E+00 0.  1.
     999901    1    3    3    0    0 -0.96614639106E-02  0.98453229996E-01  0.53587266369E-01  0.88716288104E+00  0.88000000000E+00 0. -1.
        -11    1    4    4    0    0  0.16262618874E-01 -0.83709621818E-01 -0.28231775210E-01  0.89827990126E-01  0.51100000000E-03 0. -1.
         11    1    4    4    0    0  0.66612672007E-02 -0.34154166993E-01 -0.25968490402E-01  0.43422381539E-01  0.51100000000E-03 0.  1.
</event>
<event>
 8    1  0.1104109E+005  0.1043930E+01  0.7957747E-01            NaN
         13   -1    0    0    0    0  0.00000000000E+00  0.00000000000E+00  0.74505805969E-08  0.10566000000E+00  0.10566000000E+00 0. -1.
     999900   -1    0    0    0    0 -0.00000000000E+00 -0.00000000000E+00 -0.74505805969E-08  0.93827000000E+00  0.93827000000E+00 0. -1.
     999902    2    1    2    0    0  0.30838495988E-02 -0.20965936244E-01  0.10538541103E-01  0.10202626922E+01  0.10199881468E+01 0.  0.
     999903    2    3    3    0    0  0.89751328309E-01 -0.99310476789E-02 -0.91640423267E-01  0.13005285097E+00  0.19022361227E-01 0.  0.
         14    1    1    2    0    0 -0.30838495988E-02  0.20965936244E-01 -0.10538541103E-01  0.23667307821E-01  0.00000000000E+00 0.  1.
     999901    1    3    3    0    0 -0.86667478710E-01 -0.11034888565E-01  0.10217896437E+00  0.89020984121E+00  0.88000000000E+00 0. -1.
        -11    1    4    4    0    0  0.62326345136E-01 -0.98504730799E-02 -0.51575853878E-01  0.81498067107E-01  0.51100000000E-03 0. -1.
         11    1    4    4    0    0  0.27424983173E-01 -0.80574599018E-04 -0.40064569389E-01  0.48554783859E-01  0.51100000000E-03 0.  1.
</event>
<event>
 8    1  0.1104109E+005  0.1043930E+01  0.7957747E-01            NaN
         13   -1    0    0    0    0  0.00000000000E+00  0.00000000000E+00  0.74505805969E-08  0.10566000000E+00  0.10566000000E+00 0. -1.
     999900   -1    0    0    0    0 -0.00000000000E+00 -0.00000000000E+00 -0.74505805969E-08  0.93827000000E+00  0.93827000000E+00 0.  1.
     999902    2    1    2    0    0  0.12168957244E-02 -0.14284517022E-01 -0.19132190736E-01  0.10200224911E+01  0.10197422779E+01 0.  0.
     999903    2    3    3    0    0  0.52454785617E-01  0.11542678706E+00  0.20959042748E-03  0.12882977998E+00  0.22852145998E-01 0.  0.
         14    1    1    2    0    0 -0.12168957244E-02  0.14284517022E-01  0.19132190736E-01  0.23907508948E-01  0.00000000000E+00 0. -1.
     999901    1    3    3    0    0 -0.51237889892E-01 -0.12971130408E+00 -0.19341781163E-01  0.89119271107E+00  0.88000000000E+00 0. -1.
        -11    1    4    4    0    0  0.78415482667E-02  0.41786913771E-01  0.35203408547E-02  0.42664856293E-01  0.51100000000E-03 0. -1.
         11    1    4    4    0    0  0.44613237350E-01  0.73639873289E-01 -0.33107504272E-02  0.86164923689E-01  0.51100000000E-03 0.  1.
</event>
<event>
 8    1  0.1104109E+005  0.1043930E+01  0.7957747E-01            NaN
         13   -1    0    0    0    0  0.00000000000E+00  0.00000000000E+00  0.74505805969E-08  0.10566000000E+00  0.10566000000E+00 0.  1.
     999900   -1    0    0    0    0 -0.00000000000E+00 -0.00000000000E+00 -0.74505805969E-08  0.93827000000E+00  0.93827000000E+00 0. -1.
     999902    2    1    2    0    0 -0.23224249681E-01  0.48900896748E-02  0.44692676619E-02  0.10197793664E+01  0.10194933560E+01 0.  0.
     999903    2    3    3    0    0  0.77572677740E-01 -0.53048897715E-01 -0.84070150238E-01  0.12772770009E+00  0.20368341305E-01 0.  0.
         14    1    1    2    0    0  0.23224249681E-01 -0.48900896748E-02 -0.44692676619E-02  0.24150633609E-01  0.00000000000E+00 0. -1.
     999901    1    3    3    0    0 -0.10079692742E+00  0.57938987390E-01  0.88539417900E-01  0.89205166631E+00  0.88000000000E+00 0.  1.
        -11    1    4    4    0    0  0.30575776577E-01 -0.93441947726E-02 -0.27459009359E-01  0.42147958494E-01  0.51100000000E-03 0.  1.
         11    1    4    4    0    0  0.46996901163E-01 -0.43704702943E-01 -0.56611140879E-01  0.85579741591E-01  0.51100000000E-03 0. -1.
</event>
<event>
 8    1  0.1104109E+005  0.1043930E+01  0.7957747E-01            NaN
         13   -1    0    0    0    0  0.00000000000E+00  0.00000000000E+00  0.74505805969E-08  0.10566000000E+00  0.10566000000E+00 0.  1.
     999900   -1    0    0    0    0 -0.00000000000E+00 -0.00000000000E+00 -0.74505805969E-08  0.93827000000E+00  0.93827000000E+00 0.  1.
     999902    2    1    2    0    0 -0.14143219115E-01 -0.16500867521E-02 -0.18624316363E-01  0.10204860542E+01  0.10202167261E+01 0.  0.
     999903    2    3    3    0    0 -0.10175197341E+00  0.67407991690E-01  0.43694979912E-01  0.13125717103E+00  0.20540015638E-01 0.  0.
         14    1    1    2    0    0  0.14143219115E-01  0.16500867521E-02  0.18624316363E-01  0.23443945769E-01  0.00000000000E+00 0.  1.
     999901    1    3    3    0    0  0.87608754291E-01 -0.69058078442E-01 -0.62319296275E-01  0.88922888320E+00  0.88000000000E+00 0.  1.
        -11    1    4    4    0    0 -0.73604228092E-01  0.49036926812E-01  0.21645826679E-01  0.91054958776E-01  0.51100000000E-03 0.  1.
         11    1    4    4    0    0 -0.28147745314E-01  0.18371064878E-01  0.22049153233E-01  0.40202212256E-01  0.51100000000E-03 0. -1.
</event>
<event>
 8    1  0.1104109E+005  0.1043930E+01  0.7957747E-01            NaN
         13   -1    0    0    0    0  0.00000000000E+00  0.00000000000E+00  0.74505805969E-08  0.10566000000E+00  0.10566000000E+00 0. -1.
     999900   -1    0    0    0    0 -0.00000000000E+00 -0.00000000000E+00 -0.74505805969E-08  0.93827000000E+00  0.93827000000E+00 0. -1.
     999902    2    1    2    0    0 -0.18674322357E-01  0.14055963891E-01  0.15219744395E-02  0.10205074288E+01  0.10202385973E+01 0.  0.
     999903    2    3    3    0    0 -0.94716257128E-01 -0.33189034036E-01  0.83692560197E-01  0.13215700758E+00  0.19706564313E-01 0.  0.
         14    1    1    2    0    0  0.18674322357E-01 -0.14055963891E-01 -0.15219744395E-02  0.23422571220E-01  0.00000000000E+00 0.  1.
     999901    1    3    3    0    0  0.76041934771E-01  0.47244997927E-01 -0.82170585757E-01  0.88835042119E+00  0.88000000000E+00 0. -1.
        -11    1    4    4    0    0 -0.64468011376E-01 -0.31858189229E-01  0.56398579652E-01  0.91389986429E-01  0.51100000000E-03 0. -1.
         11    1    4    4    0    0 -0.30248245752E-01 -0.13308448069E-02  0.27293980544E-01  0.40767021156E-01  0.51100000000E-03 0.  1.
</event>
<event>
 8    1  0.1104109E+005  0.1043930E+01  0.7957747E-01            NaN
         13   -1    0    0    0    0  0.00000000000E+00  0.00000000000E+00  0.74505805969E-08  0.10566000000E+00  0.10566000000E+00 0.  1.
     999900   -1    0    0    0    0 -0.00000000000E+00 -0.00000000000E+00 -0.74505805969E-08  0.93827000000E+00  0.93827000000E+00 0. -1.
     999902    2    1    2    0    0 -0.23157696621E-01 -0.19685844049E-02  0.31978728392E-02  0.10204698076E+01  0.10202001017E+01 0.  0.
     999903    2    3    3    0    0 -0.87490948144E-01  0.75762975002E-01  0.61911701239E-01  0.13276024009E+00  0.19938109499E-01 0.  0.
         14    1    1    2    0    0  0.23157696621E-01  0.19685844049E-02 -0.31978728392E-02  0.23460192413E-01  0.00000000000E+00 0.  1.
     999901    1    3    3    0    0  0.64333251523E-01 -0.77731559407E-01 -0.58713828400E-01  0.88770956750E+00  0.88000000000E+00 0. -1.
        -11    1    4    4    0    0 -0.57488856439E-01  0.60317989759E-01  0.39245939807E-01  0.92107184386E-01  0.51100000000E-03 0.  1.
         11    1    4    4    0    0 -0.30002091705E-01  0.15444985243E-01  0.22665761432E-01  0.40653055705E-01  0.51100000000E-03 0. -1.
</event>
<event>
 8    1  0.1104109E+005  0.1043930E+01  0.7957747E-01            NaN
         13   -1    0    0    0    0  0.00000000000E+00  0.00000000000E+00  0.74505805969E-08  0.10566000000E+00  0.10566000000E+00 0.  1.
     999900   -1    0    0    0    0 -0.00000000000E+00 -0.00000000000E+00 -0.74505805969E-08  0.93827000000E+00  0.93827000000E+00 0. -1.
     999902    2    1    2    0    0 -0.13945751405E-01 -0.17918102332E-01 -0.37964361322E-02  0.10209092420E+01  0.10206496583E+01 0.  0.
     999903    2    3    3    0    0 -0.11272281080E+00 -0.13534844295E-01 -0.66796228645E-01  0.13313387946E+00  0.19320186675E-01 0.  0.
         14    1    1    2    0    0  0.13945751405E-01  0.17918102332E-01  0.37964361322E-02  0.23020758040E-01  0.00000000000E+00 0. -1.
     999901    1    3    3    0    0  0.98777059394E-01 -0.43832580366E-02  0.62999792513E-01  0.88777536250E+00  0.88000000000E+00 0.  1.
        -11    1    4    4    0    0 -0.90960129879E-01 -0.15516064850E-01 -0.46605569334E-01  0.10337714307E+00  0.51100000000E-03 0.  1.
         11    1    4    4    0    0 -0.21762680921E-01  0.19812205553E-02 -0.20190659311E-01  0.29756736383E-01  0.51100000000E-03 0. -1.
</event>
<event>
 8    1  0.1104109E+005  0.1043930E+01  0.7957747E-01            NaN
         13   -1    0    0    0    0  0.00000000000E+00  0.00000000000E+00  0.74505805969E-08  0.10566000000E+00  0.10566000000E+00 0. -1.
     999900   -1    0    0    0    0 -0.00000000000E+00 -0.00000000000E+00 -0.74505805969E-08  0.93827000000E+00  0.93827000000E+00 0. -1.
     999902    2    1    2    0    0  0.14527517239E-01  0.10950399191E-01 -0.15000796133E-01  0.10203506895E+01  0.10200782057E+01 0.  0.
     999903    2    3    3    0    0  0.24523072813E-03  0.12054016839E+00  0.47465394384E-01  0.13124106398E+00  0.21006210395E-01 0.  0.
         14    1    1    2    0    0 -0.14527517239E-01 -0.10950399191E-01  0.15000796133E-01  0.23579310511E-01  0.00000000000E+00 0.  1.
     999901    1    3    3    0    0  0.14282286510E-01 -0.10958976920E+00 -0.62466190517E-01  0.88910962551E+00  0.88000000000E+00 0. -1.
        -11    1    4    4    0    0 -0.10167613727E-01  0.51219736368E-01  0.21827333181E-01  0.56599782308E-01  0.51100000000E-03 0. -1.
         11    1    4    4    0    0  0.10412844455E-01  0.69320432025E-01  0.25638061203E-01  0.74641281668E-01  0.51100000000E-03 0.  1.
</event>
<event>
 8    1  0.1104109E+005  0.1043930E+01  0.7957747E-01            NaN
         13   -1    0    0    0    0  0.00000000000E+00  0.00000000000E+00  0.74505805969E-08  0.10566000000E+00  0.10566000000E+00 0.  1.
     999900   -1    0    0    0    0 -0.00000000000E+00 -0.00000000000E+00 -0.74505805969E-08  0.93827000000E+00  0.93827000000E+00 0.  1.
     999902    2    1    2    0    0  0.14129572439E-01 -0.42038519907E-02 -0.18925071286E-01  0.10199409293E+01  0.10196587781E+01 0.  0.
     999903    2    3    3    0    0 -0.24082221837E-01 -0.12198073008E+00 -0.36427977281E-01  0.13110017533E+00  0.20025147291E-01 0.  0.
         14    1    1    2    0    0 -0.14129572439E-01  0.42038519907E-02  0.18925071286E-01  0.23989070680E-01  0.00000000000E+00 0.  1.
     999901    1    3    3    0    0  0.38211794276E-01  0.11777687809E+00  0.17502905995E-01  0.88884075399E+00  0.88000000000E+00 0. -1.
        -11    1    4    4    0    0 -0.13260714564E-01 -0.25155614121E-01 -0.64554777591E-02  0.29164803902E-01  0.51100000000E-03 0.  1.
         11    1    4    4    0    0 -0.10821507273E-01 -0.96825115957E-01 -0.29972499522E-01  0.10193537143E+00  0.51100000000E-03 0. -1.
</event>
<event>
 8    1  0.1104109E+005  0.1043930E+01  0.7957747E-01            NaN
         13   -1    0    0    0    0  0.00000000000E+00  0.00000000000E+00  0.74505805969E-08  0.10566000000E+00  0.10566000000E+00 0. -1.
     999900   -1    0    0    0    0 -0.00000000000E+00 -0.00000000000E+00 -0.74505805969E-08  0.93827000000E+00  0.93827000000E+00 0.  1.
     999902    2    1    2    0    0  0.10387632801E-01  0.38796229522E-02 -0.20734785845E-01  0.10204164776E+01  0.10201455299E+01 0.  0.
     999903    2    3    3    0    0 -0.86079294518E-01 -0.94522815053E-01  0.10693293214E-02  0.12942583386E+00  0.20141884106E-01 0.  0.
         14    1    1    2    0    0 -0.10387632801E-01 -0.38796229522E-02  0.20734785845E-01  0.23513522354E-01  0.00000000000E+00 0. -1.
     999901    1    3    3    0    0  0.96466927319E-01  0.98402438005E-01 -0.21804115167E-01  0.89099064378E+00  0.88000000000E+00 0.  1.
        -11    1    4    4    0    0 -0.43270746430E-01 -0.60975312677E-01  0.46758986993E-02  0.74916429455E-01  0.51100000000E-03 0. -1.
         11    1    4    4    0    0 -0.42808548088E-01 -0.33547502376E-01 -0.36065693779E-02  0.54509404407E-01  0.51100000000E-03 0.  1.
</event>
<event>
 8    1  0.1104109E+005  0.1043930E+01  0.7957747E-01            NaN
         13   -1    0    0    0    0  0.00000000000E+00  0.00000000000E+00  0.74505805969E-08  0.10566000000E+00  0.10566000000E+00 0.  1.
     999900   -1    0    0    0    0 -0.00000000000E+00 -0.00000000000E+00 -0.74505805969E-08  0.93827000000E+00  0.93827000000E+00 0.  1.
     999902    2    1    2    0    0 -0.16573209706E-01  0.15460101360E-01 -0.63987738857E-02  0.10203794093E+01  0.10201075966E+01 0.  0.
     999903    2    3    3    0    0 -0.89014150397E-01  0.91235524164E-01 -0.35134209563E-01  0.13369156693E+00  0.19788444739E-01 0.  0.
         14    1    1    2    0    0  0.16573209706E-01 -0.15460101360E-01  0.63987738857E-02  0.23550590678E-01  0.00000000000E+00 0.  1.
     999901    1    3    3    0    0  0.72440940691E-01 -0.75775422804E-01  0.28735435677E-01  0.88668784240E+00  0.88000000000E+00 0.  1.
        -11    1    4    4    0    0 -0.25549675260E-01  0.24420199976E-01 -0.19021656598E-01  0.40139962799E-01  0.51100000000E-03 0.  1.
         11    1    4    4    0    0 -0.63464475137E-01  0.66815324188E-01 -0.16112552965E-01  0.93551604127E-01  0.51100000000E-03 0. -1.
</event>
<event>
 8    1  0.1104109E+005  0.1043930E+01  0.7957747E-01            NaN
         13   -1    0    0    0    0  0.00000000000E+00  0.00000000000E+00  0.74505805969E-08  0.10566000000E+00  0.10566000000E+00 0.  1.
     999900   -1    0    0    0    0 -0.00000000000E+00 -0.00000000000E+00 -0.74505805969E-08  0.93827000000E+00  0.93827000000E+00 0. -1.
     999902    2    1    2    0    0  0.64508671211E-02 -0.23078801966E-01  0.19410178042E-02  0.10198881129E+01  0.10196047030E+01 0.  0.
     999903    2    3    3    0    0 -0.75467438229E-01 -0.79563134917E-01 -0.69597959935E-01  0.13139561771E+00  0.19882295006E-01 0.  0.
         14    1    1    2    0    0 -0.64508671211E-02  0.23078801966E-01 -0.19410178042E-02  0.24041887133E-01  0.00000000000E+00 0.  1.
     999901    1    3    3    0    0  0.81918305350E-01  0.56484332951E-01  0.71538977739E-01  0.88849249516E+00  0.88000000000E+00 0.  1.
        -11    1    4    4    0    0 -0.36335709905E-01 -0.27971146993E-01 -0.36857751188E-01  0.58833866285E-01  0.51100000000E-03 0. -1.
         11    1    4    4    0    0 -0.39131728324E-01 -0.51591987924E-01 -0.32740208747E-01  0.72561751422E-01  0.51100000000E-03 0.  1.
</event>
<event>
 8    1  0.1104109E+005  0.1043930E+01  0.7957747E-01            NaN
         13   -1    0    0    0    0  0.00000000000E+00  0.00000000000E+00  0.74505805969E-08  0.10566000000E+00  0.10566000000E+00 0.  1.
     999900   -1    0    0    0    0 -0.00000000000E+00 -0.00000000000E+00 -0.74505805969E-08  0.93827000000E+00  0.93827000000E+00 0.  1.
     999902    2    1    2    0    0 -0.11701118801E-01 -0.12932501601E-01 -0.18095817914E-01  0.10187978611E+01  0.10184878288E+01 0.  0.
     999903    2    3    3    0    0  0.39857112945E-01 -0.34022975706E-01 -0.11877735753E+00  0.13130711087E+00  0.19681066411E-01 0.  0.
         14    1    1    2    0    0  0.11701118801E-01  0.12932501601E-01  0.18095817914E-01  0.25132138883E-01  0.00000000000E+00 0.  1.
     999901    1    3    3    0    0 -0.51558231747E-01  0.21090474105E-01  0.10068153961E+00  0.88749075025E+00  0.88000000000E+00 0. -1.
        -11    1    4    4    0    0  0.71506005012E-02 -0.17748454794E-02 -0.59368647446E-02  0.94756872046E-02  0.51100000000E-03 0. -1.
         11    1    4    4    0    0  0.32706512444E-01 -0.32248130227E-01 -0.11284049278E+00  0.12183142366E+00  0.51100000000E-03 0.  1.
</event>
<event>
 8    1  0.1104109E+005  0.1043930E+01  0.7957747E-01            NaN
         13   -1    0    0    0    0  0.00000000000E+00  0.00000000000E+00  0.74505805969E-08  0.10566000000E+00  0.10566000000E+00 0.  1.
     999900   -1    0    0    0    0 -0.00000000000E+00 -0.00000000000E+00 -0.74505805969E-08  0.93827000000E+00  0.93827000000E+00 0.  1.
     999902    2    1    2    0    0  0.63315285607E-02  0.12196132088E-01 -0.14192085275E-01  0.10241752746E+01  0.10239847381E+01 0.  0.
     999903    2    3    3    0    0 -0.84807222851E-01  0.92533983940E-01 -0.45988309548E-01  0.13525939424E+00  0.20624642629E-01 0.  0.
         14    1    1    2    0    0 -0.63315285607E-02 -0.12196132088E-01  0.14192085275E-01  0.19754725416E-01  0.00000000000E+00 0.  1.
     999901    1    3    3    0    0  0.91138751412E-01 -0.80337851851E-01  0.31796224273E-01  0.88891588034E+00  0.88000000000E+00 0. -1.
        -11    1    4    4    0    0 -0.27797112832E-01  0.18015026243E-01 -0.15738619394E-01  0.36676776218E-01  0.51100000000E-03 0. -1.
         11    1    4    4    0    0 -0.57010110019E-01  0.74518957697E-01 -0.30249690155E-01  0.98582618022E-01  0.51100000000E-03 0.  1.
</event>
<event>
 8    1  0.1104109E+005  0.1043930E+01  0.7957747E-01            NaN
         13   -1    0    0    0    0  0.00000000000E+00  0.00000000000E+00  0.74505805969E-08  0.10566000000E+00  0.10566000000E+00 0. -1.
     999900   -1    0    0    0    0 -0.00000000000E+00 -0.00000000000E+00 -0.74505805969E-08  0.93827000000E+00  0.93827000000E+00 0. -1.
     999902    2    1    2    0    0  0.43457290468E-02 -0.25286969867E-02 -0.22820533849E-01  0.10205621496E+01  0.10202945872E+01 0.  0.
     999903    2    3    3    0    0  0.49151264041E-01 -0.10042333645E+00 -0.68177146596E-01  0.13284140589E+00  0.22316418670E-01 0.  0.
         14    1    1    2    0    0 -0.43457290468E-02  0.25286969867E-02  0.22820533849E-01  0.23367850448E-01  0.00000000000E+00 0. -1.
     999901    1    3    3    0    0 -0.44805534994E-01  0.97894639459E-01  0.45356612747E-01  0.88772074366E+00  0.88000000000E+00 0. -1.
        -11    1    4    4    0    0  0.44614783090E-02 -0.11056951375E-01 -0.16461479699E-01  0.20332299360E-01  0.51100000000E-03 0.  1.
         11    1    4    4    0    0  0.44689785732E-01 -0.89366385071E-01 -0.51715666897E-01  0.11250910653E+00  0.51100000000E-03 0. -1.
</event>
<event>
 8    1  0.1104109E+005  0.1043930E+01  0.7957747E-01            NaN
         13   -1    0    0    0    0  0.00000000000E+00  0.00000000000E+00  0.74505805969E-08  0.10566000000E+00  0.10566000000E+00 0.  1.
     999900   -1    0    0    0    0 -0.00000000000E+00 -0.00000000000E+00 -0.74505805969E-08  0.93827000000E+00  0.93827000000E+00 0.  1.
     999902    2    1    2    0    0 -0.60585235994E-02 -0.84506318879E-02 -0.21171288546E-01  0.10203430895E+01  0.10200704279E+01 0.  0.
     999903    2    3    3    0    0 -0.65006148139E-01  0.11017122189E+00  0.10873401478E-01  0.12985287127E+00  0.19494611815E-01 0.  0.
         14    1    1    2    0    0  0.60585235994E-02  0.84506318879E-02  0.21171288546E-01  0.23586910484E-01  0.00000000000E+00 0.  1.
     999901    1    3    3    0    0  0.58947624539E-01 -0.11862185377E+00 -0.32044690024E-01  0.89049021825E+00  0.88000000000E+00 0.  1.
        -11    1    4    4    0    0 -0.47817695024E-01  0.95356481433E-01  0.80174628245E-02  0.10697631205E+00  0.51100000000E-03 0. -1.
         11    1    4    4    0    0 -0.17188453115E-01  0.14814740452E-01  0.28559386537E-02  0.22876559220E-01  0.51100000000E-03 0.  1.
</event>
<event>
 8    1  0.1104109E+005  0.1043930E+01  0.7957747E-01            NaN
         13   -1    0    0    0    0  0.00000000000E+00  0.00000000000E+00  0.74505805969E-08  0.10566000000E+00  0.10566000000E+00 0. -1.
     999900   -1    0    0    0    0 -0.00000000000E+00 -0.00000000000E+00 -0.74505805969E-08  0.93827000000E+00  0.93827000000E+00 0. -1.
     999902    2    1    2    0    0 -0.21900140657E-02 -0.23444422025E-01  0.42093275768E-02  0.10200102273E+01  0.10197297232E+01 0.  0.
     999903    2    3    3    0    0  0.84218546686E-01 -0.98627697846E-01  0.18254072847E-01  0.13247644251E+00  0.19915076109E-01 0.  0.
         14    1    1    2    0    0  0.21900140657E-02  0.23444422025E-01 -0.42093275768E-02  0.23919772665E-01  0.00000000000E+00 0.  1.
     999901    1    3    3    0    0 -0.86408560752E-01  0.75183275821E-01 -0.14044745270E-01  0.88753378482E+00  0.88000000000E+00 0.  1.
        -11    1    4    4    0    0  0.40126798904E-01 -0.45992732110E-01  0.18604457337E-01  0.63811271348E-01  0.51100000000E-03 0. -1.
         11    1    4    4    0    0  0.44091747782E-01 -0.52634965736E-01 -0.35038449006E-03  0.68665171163E-01  0.51100000000E-03 0.  1.
</event>
<event>
 8    1  0.1104109E+005  0.1043930E+01  0.7957747E-01            NaN
         13   -1    0    0    0    0  0.00000000000E+00  0.00000000000E+00  0.74505805969E-08  0.10566000000E+00  0.10566000000E+00 0.  1.
     999900   -1    0    0    0    0 -0.00000000000E+00 -0.00000000000E+00 -0.74505805969E-08  0.93827000000E+00  0.93827000000E+00 0. -1.
     999902    2    1    2    0    0 -0.11238902351E-01  0.93972796792E-02 -0.18219526015E-01  0.10205511010E+01  0.10202832826E+01 0.  0.
     999903    2    3    3    0    0 -0.28280403322E-01  0.44936866612E-01 -0.12122996514E+00  0.13366631389E+00  0.18731679809E-01 0.  0.
         14    1    1    2    0    0  0.11238902351E-01 -0.93972796792E-02  0.18219526015E-01  0.23378899025E-01  0.00000000000E+00 0. -1.
     999901    1    3    3    0    0  0.17041500971E-01 -0.35539586933E-01  0.10301043912E+00  0.88688478709E+00  0.88000000000E+00 0.  1.
        -11    1    4    4    0    0 -0.21504963343E-01  0.19553388273E-01 -0.75816063202E-01  0.81198121911E-01  0.51100000000E-03 0. -1.
         11    1    4    4    0    0 -0.67754399789E-02  0.25383478339E-01 -0.45413901936E-01  0.52468191979E-01  0.51100000000E-03 0.  1.
</event>
<event>
 8    1  0.1104109E+005  0.1043930E+01  0.7957747E-01            NaN
         13   -1    0    0    0    0  0.00000000000E+00  0.00000000000E+00  0.74505805969E-08  0.10566000000E+00  0.10566000000E+00 0.  1.
     999900   -1    0    0    0    0 -0.00000000000E+00 -0.00000000000E+00 -0.74505805969E-08  0.93827000000E+00  0.93827000000E+00 0. -1.
     999902    2    1    2    0    0 -0.21466922100E-03 -0.18997723301E-01  0.13802214973E-01  0.10204467994E+01  0.10201765581E+01 0.  0.
     999903    2    3    3    0    0  0.41704490812E-02 -0.27270206648E-01  0.12852223924E+00  0.13295125166E+00  0.19925173089E-01 0.  0.
         14    1    1    2    0    0  0.21466922100E-03  0.18997723301E-01 -0.13802214973E-01  0.23483200626E-01  0.00000000000E+00 0.  1.
     999901    1    3    3    0    0 -0.43851183022E-02  0.82724833473E-02 -0.11472002427E+00  0.88749554771E+00  0.88000000000E+00 0. -1.
        -11    1    4    4    0    0 -0.31343373442E-02 -0.25381870141E-01  0.11019817339E+00  0.11312807760E+00  0.51100000000E-03 0.  1.
         11    1    4    4    0    0  0.73047864254E-02 -0.18883365074E-02  0.18324065854E-01  0.19823174063E-01  0.51100000000E-03 0. -1.
</event>
<event>
 8    1  0.1104109E+005  0.1043930E+01  0.7957747E-01            NaN
         13   -1    0    0    0    0  0.00000000000E+00  0.00000000000E+00  0.74505805969E-08  0.10566000000E+00  0.10566000000E+00 0.  1.
     999900   -1    0    0    0    0 -0.00000000000E+00 -0.00000000000E+00 -0.74505805969E-08  0.93827000000E+00  0.93827000000E+00 0.  1.
     999902    2    1    2    0    0 -0.45202226473E-02 -0.11895228601E-01  0.22247866538E-01  0.10183000089E+01  0.10179774122E+01 0.  0.
     999903    2    3    3    0    0  0.11107130692E+00  0.29230557210E-01 -0.49986358676E-01  0.12685706895E+00  0.20070356093E-01 0.  0.
         14    1    1    2    0    0  0.45202226473E-02  0.11895228601E-01 -0.22247866538E-01  0.25629991060E-01  0.00000000000E+00 0. -1.
     999901    1    3    3    0    0 -0.11559152956E+00 -0.41125785811E-01  0.72234225214E-01  0.89144293999E+00  0.88000000000E+00 0.  1.
        -11    1    4    4    0    0  0.62189165265E-01  0.73883681646E-02 -0.21555403525E-01  0.66234257017E-01  0.51100000000E-03 0. -1.
         11    1    4    4    0    0  0.48882141653E-01  0.21842189045E-01 -0.28430955151E-01  0.60622811933E-01  0.51100000000E-03 0.  1.
</event>
<event>
 8    1  0.1104109E+005  0.1043930E+01  0.7957747E-01            NaN
         13   -1    0    0    0    0  0.00000000000E+00  0.00000000000E+00  0.74505805969E-08  0.10566000000E+00  0.10566000000E+00 0.  1.
     999900   -1    0    0    0    0 -0.00000000000E+00 -0.00000000000E+00 -0.74505805969E-08  0.93827000000E+00  0.93827000000E+00 0.  1.
     999902    2    1    2    0    0 -0.73304436395E-02  0.22542054376E-01 -0.62257149264E-02  0.10194220595E+01  0.10191274191E+01 0.  0.
     999903    2    3    3    0    0 -0.33372803429E-01 -0.11940822258E+00 -0.22878939514E-01  0.12751095661E+00  0.19066477236E-01 0.  0.
         14    1    1    2    0    0  0.73304436395E-02 -0.22542054376E-01  0.62257149264E-02  0.24507940464E-01  0.00000000000E+00 0. -1.
     999901    1    3    3    0    0  0.26042359789E-01  0.14195027696E+00  0.16653224588E-01  0.89191110292E+00  0.88000000000E+00 0.  1.
        -11    1    4    4    0    0 -0.35782786239E-02 -0.13554048063E-01  0.34260015349E-02  0.14440045163E-01  0.51100000000E-03 0.  1.
         11    1    4    4    0    0 -0.29794524805E-01 -0.10585417452E+00 -0.26304941049E-01  0.11307091145E+00  0.51100000000E-03 0. -1.
</event>
<event>
 8    1  0.1104109E+005  0.1043930E+01  0.7957747E-01            NaN
         13   -1    0    0    0    0  0.00000000000E+00  0.00000000000E+00  0.74505805969E-08  0.10566000000E+00  0.10566000000E+00 0. -1.
     999900   -1    0    0    0    0 -0.00000000000E+00 -0.00000000000E+00 -0.74505805969E-08  0.93827000000E+00  0.93827000000E+00 0.  1.
     999902    2    1    2    0    0  0.90858236182E-02  0.21003452364E-01  0.67835326398E-02  0.10200613277E+01  0.10197820349E+01 0.  0.
     999903    2    3    3    0    0 -0.29008998528E-01  0.90549896945E-01  0.90412386374E-01  0.13254698494E+00  0.18801536529E-01 0.  0.
         14    1    1    2    0    0 -0.90858236182E-02 -0.21003452364E-01 -0.67835326398E-02  0.23868672295E-01  0.00000000000E+00 0.  1.
     999901    1    3    3    0    0  0.38094822146E-01 -0.69546444581E-01 -0.83628853734E-01  0.88751434276E+00  0.88000000000E+00 0.  1.
        -11    1    4    4    0    0 -0.20043070422E-01  0.41934159737E-01  0.34325374472E-01  0.57781405992E-01  0.51100000000E-03 0.  1.
         11    1    4    4    0    0 -0.89659281062E-02  0.48615737209E-01  0.56087011902E-01  0.74765578953E-01  0.51100000000E-03 0. -1.
</event>
<event>
 8    1  0.1104109E+005  0.1043930E+01  0.7957747E-01            NaN
         13   -1    0    0    0    0  0.00000000000E+00  0.00000000000E+00  0.74505805969E-08  0.10566000000E+00  0.10566000000E+00 0.  1.
     999900   -1    0    0    0    0 -0.00000000000E+00 -0.00000000000E+00 -0.74505805969E-08  0.93827000000E+00  0.93827000000E+00 0.  1.
     999902    2    1    2    0    0 -0.87417060796E-02  0.13167569336E-01  0.18164073120E-01  0.10198522954E+01  0.10195680304E+01 0.  0.
     999903    2    3    3    0    0 -0.79989898344E-01 -0.75345446827E-01 -0.63999553964E-01  0.12875088670E+00  0.20137718960E-01 0.  0.
         14    1    1    2    0    0  0.87417060796E-02 -0.13167569336E-01 -0.18164073120E-01  0.24077704619E-01  0.00000000000E+00 0. -1.
     999901    1    3    3    0    0  0.71248192264E-01  0.88513016163E-01  0.82163627084E-01  0.89110140868E+00  0.88000000000E+00 0. -1.
        -11    1    4    4    0    0 -0.42369164315E-01 -0.50916112074E-01 -0.31457036655E-01  0.73330776824E-01  0.51100000000E-03 0.  1.
         11    1    4    4    0    0 -0.37620734029E-01 -0.24429334753E-01 -0.32542517309E-01  0.55420109880E-01  0.51100000000E-03 0. -1.
</event>
<event>
 8    1  0.1104109E+005  0.1043930E+01  0.7957747E-01            NaN
         13   -1    0    0    0    0  0.00000000000E+00  0.00000000000E+00  0.74505805969E-08  0.10566000000E+00  0.10566000000E+00 0.  1.
     999900   -1    0    0    0    0 -0.00000000000E+00 -0.00000000000E+00 -0.74505805969E-08  0.93827000000E+00  0.93827000000E+00 0. -1.
     999902    2    1    2    0    0 -0.20395402109E-02  0.67742951146E-02  0.82988462545E-02  0.10330248797E+01  0.10329673182E+01 0.  0.
     999903    2    3    3    0    0  0.89579463442E-01  0.90972641204E-01 -0.58408483721E-01  0.14177111612E+00  0.19672231087E-01 0.  0.
         14    1    1    2    0    0  0.20395402109E-02 -0.67742951146E-02 -0.82988462545E-02  0.10905120253E-01  0.00000000000E+00 0. -1.
     999901    1    3    3    0    0 -0.91619003653E-01 -0.84198346089E-01  0.66707329976E-01  0.89125376363E+00  0.88000000000E+00 0.  1.
        -11    1    4    4    0    0  0.35902777840E-01  0.27690099658E-01 -0.12966300926E-01  0.47160758650E-01  0.51100000000E-03 0.  1.
         11    1    4    4    0    0  0.53676685603E-01  0.63282541545E-01 -0.45442182795E-01  0.94610357466E-01  0.51100000000E-03 0. -1.
</event>
<event>
 8    1  0.1104109E+005  0.1043930E+01  0.7957747E-01            NaN
         13   -1    0    0    0    0  0.00000000000E+00  0.00000000000E+00  0.74505805969E-08  0.10566000000E+00  0.10566000000E+00 0. -1.
     999900   -1    0    0    0    0 -0.00000000000E+00 -0.00000000000E+00 -0.74505805969E-08  0.93827000000E+00  0.93827000000E+00 0.  1.
     999902    2    1    2    0    0  0.19811024550E-01 -0.12850820866E-01 -0.12505494667E-01  0.10172090777E+01  0.10168580531E+01 0.  0.
     999903    2    3    3    0    0  0.25644432657E-01  0.11578683060E+00 -0.41958790218E-01  0.12735000425E+00  0.19830694345E-01 0.  0.
         14    1    1    2    0    0 -0.19811024550E-01  0.12850820866E-01  0.12505494667E-01  0.26720922281E-01  0.00000000000E+00 0. -1.
     999901    1    3    3    0    0 -0.58334081065E-02 -0.12863765147E+00  0.29453295551E-01  0.88985907347E+00  0.88000000000E+00 0. -1.
        -11    1    4    4    0    0  0.20665896591E-01  0.10560504281E+00 -0.32033760059E-01  0.11227612059E+00  0.51100000000E-03 0. -1.
         11    1    4    4    0    0  0.49785360657E-02  0.10181787785E-01 -0.99250301597E-02  0.15073883658E-01  0.51100000000E-03 0.  1.
</event>
<event>
 8    1  0.1104109E+005  0.1043930E+01  0.7957747E-01            NaN
         13   -1    0    0    0    0  0.00000000000E+00  0.00000000000E+00  0.74505805969E-08  0.10566000000E+00  0.10566000000E+00 0.  1.
     999900   -1    0    0    0    0 -0.00000000000E+00 -0.00000000000E+00 -0.74505805969E-08  0.93827000000E+00  0.93827000000E+00 0.  1.
     999902    2    1    2    0    0 -0.10760340572E-01  0.17706563536E-01 -0.98239863428E-02  0.10209992776E+01  0.10207417435E+01 0.  0.
     999903    2    3    3    0    0 -0.92258771312E-01 -0.34808772850E-01  0.83374778703E-01  0.13078252616E+00  0.20721579883E-01 0.  0.
         14    1    1    2    0    0  0.10760340572E-01 -0.17706563536E-01  0.98239863428E-02  0.22930722386E-01  0.00000000000E+00 0.  1.
     999901    1    3    3    0    0  0.81498430740E-01  0.52515336386E-01 -0.93198765046E-01  0.89021675146E+00  0.88000000000E+00 0.  1.
        -11    1    4    4    0    0 -0.75908648943E-01 -0.24422356935E-01  0.56843256594E-01  0.97928501693E-01  0.51100000000E-03 0.  1.
         11    1    4    4    0    0 -0.16350122369E-01 -0.10386415915E-01  0.26531522110E-01  0.32854024464E-01  0.51100000000E-03 0. -1.
</event>
<event>
 8    1  0.1104109E+005  0.1043930E+01  0.7957747E-01            NaN
         13   -1    0    0    0    0  0.00000000000E+00  0.00000000000E+00  0.74505805969E-08  0.10566000000E+00  0.10566000000E+00 0. -1.
     999900   -1    0    0    0    0 -0.00000000000E+00 -0.00000000000E+00 -0.74505805969E-08  0.93827000000E+00  0.93827000000E+00 0.  1.
     999902    2    1    2    0    0 -0.10330479697E-01  0.22131610687E-01 -0.36889918335E-02  0.10192290757E+01  0.10189297194E+01 0.  0.
     999903    2    3    3    0    0 -0.55333729847E-01  0.11327746651E+00 -0.36594050124E-01  0.13276666675E+00  0.19855911411E-01 0.  0.
         14    1    1    2    0    0  0.10330479697E-01 -0.22131610687E-01  0.36889918335E-02  0.24700924337E-01  0.00000000000E+00 0. -1.
     999901    1    3    3    0    0  0.45003250150E-01 -0.91145855819E-01  0.32905058291E-01  0.88646240891E+00  0.88000000000E+00 0.  1.
        -11    1    4    4    0    0 -0.12474426459E-01  0.28225191365E-01 -0.36110619370E-03  0.30865259788E-01  0.51100000000E-03 0.  1.
         11    1    4    4    0    0 -0.42859303388E-01  0.85052275142E-01 -0.36232943930E-01  0.10190140696E+00  0.51100000000E-03 0. -1.
</event>
<event>
 8    1  0.1104109E+005  0.1043930E+01  0.7957747E-01            NaN
         13   -1    0    0    0    0  0.00000000000E+00  0.00000000000E+00  0.74505805969E-08  0.10566000000E+00  0.10566000000E+00 0. -1.
     999900   -1    0    0    0    0 -0.00000000000E+00 -0.00000000000E+00 -0.74505805969E-08  0.93827000000E+00  0.93827000000E+00 0. -1.
     999902    2    1    2    0    0 -0.63921922186E-02 -0.79163258249E-02 -0.19174993259E-01  0.10222226579E+01  0.10219921495E+01 0.  0.
     999903    2    3    3    0    0 -0.10784600392E+00  0.69519303443E-01 -0.29175403923E-01  0.13295938931E+00  0.19060453805E-01 0.  0.
         14    1    1    2    0    0  0.63921922186E-02  0.79163258249E-02  0.19174993259E-01  0.21707342132E-01  0.00000000000E+00 0. -1.
     999901    1    3    3    0    0  0.10145381170E+00 -0.77435629268E-01  0.10000410664E-01  0.88926326856E+00  0.88000000000E+00 0.  1.
        -11    1    4    4    0    0 -0.52151188058E-01  0.36734622901E-01 -0.23871548098E-01  0.68112340036E-01  0.51100000000E-03 0. -1.
         11    1    4    4    0    0 -0.55694815863E-01  0.32784680542E-01 -0.53038558254E-02  0.64847049277E-01  0.51100000000E-03 0.  1.
</event>
<event>
 8    1  0.1104109E+005  0.1043930E+01  0.7957747E-01            NaN
         13   -1    0    0    0    0  0.00000000000E+00  0.00000000000E+00  0.74505805969E-08  0.10566000000E+00  0.10566000000E+00 0.  1.
     999900   -1    0    0    0    0 -0.00000000000E+00 -0.00000000000E+00 -0.74505805969E-08  0.93827000000E+00  0.93827000000E+00 0. -1.
     999902    2    1    2    0    0 -0.24338007375E-01 -0.13759998140E-02 -0.16466844138E-02  0.10194975718E+01  0.10192047662E+01 0.  0.
     999903    2    3    3    0    0  0.92704725325E-01 -0.59343014857E-01 -0.61765522705E-01  0.12782865856E+00  0.20234293770E-01 0.  0.
         14    1    1    2    0    0  0.24338007375E-01  0.13759998140E-02  0.16466844138E-02  0.24432428205E-01  0.00000000000E+00 0.  1.
     999901    1    3    3    0    0 -0.11704273270E+00  0.57967015043E-01  0.60118838291E-01  0.89166891323E+00  0.88000000000E+00 0. -1.
        -11    1    4    4    0    0  0.86248591053E-01 -0.47846987471E-01 -0.56081836010E-01  0.11346183111E+00  0.51100000000E-03 0. -1.
         11    1    4    4    0    0  0.64561342724E-02 -0.11496027386E-01 -0.56836866946E-02  0.14366827446E-01  0.51100000000E-03 0.  1.
</event>
<event>
 8    1  0.1104109E+005  0.1043930E+01  0.7957747E-01            NaN
         13   -1    0    0    0    0  0.00000000000E+00  0.00000000000E+00  0.74505805969E-08  0.10566000000E+00  0.10566000000E+00 0. -1.
     999900   -1    0    0    0    0 -0.00000000000E+00 -0.00000000000E+00 -0.74505805969E-08  0.93827000000E+00  0.93827000000E+00 0. -1.
     999902    2    1    2    0    0  0.21584928949E-01  0.93629450608E-02  0.19153590173E-02  0.10203240156E+01  0.10200509077E+01 0.  0.
     999903    2    3    3    0    0  0.47577505992E-01  0.12047540391E+00  0.20647850453E-01  0.13275852576E+00  0.20507325727E-01 0.  0.
         14    1    1    2    0    0 -0.21584928949E-01 -0.93629450608E-02 -0.19153590173E-02  0.23605984371E-01  0.00000000000E+00 0. -1.
     999901    1    3    3    0    0 -0.25992577042E-01 -0.11111245885E+00 -0.18732491436E-01  0.88756548987E+00  0.88000000000E+00 0. -1.
        -11    1    4    4    0    0  0.15048209272E-01  0.17340661573E-01  0.24820483546E-02  0.23099108881E-01  0.51100000000E-03 0.  1.
         11    1    4    4    0    0  0.32529296720E-01  0.10313474234E+00  0.18165802098E-01  0.10965941688E+00  0.51100000000E-03 0. -1.
</event>
<event>
 8    1  0.1104109E+005  0.1043930E+01  0.7957747E-01            NaN
         13   -1    0    0    0    0  0.00000000000E+00  0.00000000000E+00  0.74505805969E-08  0.10566000000E+00  0.10566000000E+00 0. -1.
     999900   -1    0    0    0    0 -0.00000000000E+00 -0.00000000000E+00 -0.74505805969E-08  0.93827000000E+00  0.93827000000E+00 0. -1.
     999902    2    1    2    0    0 -0.71972861404E-02  0.13101083028E-01  0.11469250976E-01  0.10250890069E+01  0.10249158448E+01 0.  0.
     999903    2    3    3    0    0 -0.11830112017E+00  0.41447609143E-01  0.50779463758E-01  0.13678000640E+00  0.20424418581E-01 0.  0.
         14    1    1    2    0    0  0.71972861404E-02 -0.13101083028E-01 -0.11469250976E-01  0.18840993133E-01  0.00000000000E+00 0.  1.
     999901    1    3    3    0    0  0.11110383403E+00 -0.28346526115E-01 -0.39310212782E-01  0.88830900047E+00  0.88000000000E+00 0. -1.
        -11    1    4    4    0    0 -0.91214922119E-01  0.28691951065E-01  0.29585689951E-01  0.10009477631E+00  0.51100000000E-03 0.  1.
         11    1    4    4    0    0 -0.27086198051E-01  0.12755658078E-01  0.21193773807E-01  0.36685230094E-01  0.51100000000E-03 0. -1.
</event>
<event>
 8    1  0.1104109E+005  0.1043930E+01  0.7957747E-01            NaN
         13   -1    0    0    0    0  0.00000000000E+00  0.00000000000E+00  0.74505805969E-08  0.10566000000E+00  0.10566000000E+00 0. -1.
     999900   -1    0    0    0    0 -0.00000000000E+00 -0.00000000000E+00 -0.74505805969E-08  0.93827000000E+00  0.93827000000E+00 0.  1.
     999902    2    1    2    0    0  0.42562619310E-02  0.15026117787E-01  0.17423366800E-01  0.10205318443E+01  0.10202635794E+01 0.  0.
     999903    2    3    3    0    0 -0.85439044395E-01  0.24690725239E-03  0.98740845373E-01  0.13211966213E+00  0.20148431830E-01 0.  0.
         14    1    1    2    0    0 -0.42562619310E-02 -0.15026117787E-01 -0.17423366800E-01  0.23398155740E-01  0.00000000000E+00 0.  1.
     999901    1    3    3    0    0  0.89695306326E-01  0.14779210535E-01 -0.81317478574E-01  0.88841218213E+00  0.88000000000E+00 0.  1.
        -11    1    4    4    0    0 -0.67372977056E-01 -0.74469287589E-02  0.71374293454E-01  0.98433356503E-01  0.51100000000E-03 0.  1.
         11    1    4    4    0    0 -0.18066067339E-01  0.76938360113E-02  0.27366551919E-01  0.33686305624E-01  0.51100000000E-03 0. -1.
</event>
<event>
 8    1  0.1104109E+005  0.1043930E+01  0.7957747E-01            NaN
         13   -1    0    0    0    0  0.00000000000E+00  0.00000000000E+00  0.74505805969E-08  0.10566000000E+00  0.10566000000E+00 0. -1.
     999900   -1    0    0    0    0 -0.00000000000E+00 -0.00000000000E+00 -0.74505805969E-08  0.93827000000E+00  0.93827000000E+00 0.  1.
     999902    2    1    2    0    0  0.20313601493E-02  0.19229956661E-01  0.13758088828E-01  0.10201981087E+01  0.10199220452E+01 0.  0.
     999903    2    3    3    0    0 -0.70631624109E-01 -0.75838004209E-01  0.75717982745E-01  0.12994148561E+00  0.20281705200E-01 0.  0.
         14    1    1    2    0    0 -0.20313601493E-02 -0.19229956661E-01 -0.13758088828E-01  0.23731891316E-01  0.00000000000E+00 0.  1.
     999901    1    3    3    0    0  0.72662984258E-01  0.95067960870E-01 -0.61959893918E-01  0.89025662307E+00  0.88000000000E+00 0.  1.
        -11    1    4    4    0    0 -0.29779243548E-01 -0.22554023854E-01  0.18330616065E-01  0.41614419912E-01  0.51100000000E-03 0. -1.
         11    1    4    4    0    0 -0.40852380561E-01 -0.53283980355E-01  0.57387366681E-01  0.88327065702E-01  0.51100000000E-03 0.  1.
</event>
<event>
 8    1  0.1104109E+005  0.1043930E+01  0.7957747E-01            NaN
         13   -1    0    0    0    0  0.00000000000E+00  0.00000000000E+00  0.74505805969E-08  0.10566000000E+00  0.10566000000E+00 0. -1.
     999900   -1    0    0    0    0 -0.00000000000E+00 -0.00000000000E+00 -0.74505805969E-08  0.93827000000E+00  0.93827000000E+00 0. -1.
     999902    2    1    2    0    0 -0.10595609218E-01  0.19817979993E-01 -0.39770313583E-02  0.10211081674E+01  0.10208531008E+01 0.  0.
     999903    2    3    3    0    0 -0.11003027035E+00 -0.95249545597E-02 -0.70385434156E-01  0.13253721602E+00  0.20362198710E-01 0.  0.
         14    1    1    2    0    0  0.10595609218E-01 -0.19817979993E-01  0.39770313583E-02  0.22821832620E-01  0.00000000000E+00 0.  1.
     999901    1    3    3    0    0  0.99434661130E-01  0.29342934553E-01  0.66408402798E-01  0.88857095136E+00  0.88000000000E+00 0. -1.
        -11    1    4    4    0    0 -0.67123155391E-01 -0.13204573127E-01 -0.35270303834E-01  0.76968397376E-01  0.51100000000E-03 0. -1.
         11    1    4    4    0    0 -0.42907114957E-01  0.36796185674E-02 -0.35115130322E-01  0.55568818642E-01  0.51100000000E-03 0.  1.
</event>
<event>
 8    1  0.1104109E+005  0.1043930E+01  0.7957747E-01            NaN
         13   -1    0    0    0    0  0.00000000000E+00  0.00000000000E+00  0.74505805969E-08  0.10566000000E+00  0.10566000000E+00 0.  1.
     999900   -1    0    0    0    0 -0.00000000000E+00 -0.00000000000E+00 -0.74505805969E-08  0.93827000000E+00  0.93827000000E+00 0. -1.
     999902    2    1    2    0    0 -0.15070696935E-01  0.14631676628E-01  0.10283730194E-01  0.10205426749E+01  0.10202746612E+01 0.  0.
     999903    2    3    3    0    0 -0.10174609283E-01  0.93220587163E-01  0.92527545094E-01  0.13320720645E+00  0.19728474474E-01 0.  0.
         14    1    1    2    0    0  0.15070696935E-01 -0.14631676628E-01 -0.10283730194E-01  0.23387325066E-01  0.00000000000E+00 0.  1.
     999901    1    3    3    0    0 -0.48960876517E-02 -0.78588910536E-01 -0.82243814900E-01  0.88733546848E+00  0.88000000000E+00 0. -1.
        -11    1    4    4    0    0 -0.13657907653E-01  0.76988883415E-01  0.68232712377E-01  0.10377760245E+00  0.51100000000E-03 0.  1.
         11    1    4    4    0    0  0.34832983696E-02  0.16231703748E-01  0.24294832716E-01  0.29429604004E-01  0.51100000000E-03 0. -1.
</event>
<event>
 8    1  0.1104109E+005  0.1043930E+01  0.7957747E-01            NaN
         13   -1    0    0    0    0  0.00000000000E+00  0.00000000000E+00  0.74505805969E-08  0.10566000000E+00  0.10566000000E+00 0.  1.
     999900   -1    0    0    0    0 -0.00000000000E+00 -0.00000000000E+00 -0.74505805969E-08  0.93827000000E+00  0.93827000000E+00 0. -1.
     999902    2    1    2    0    0  0.58589883900E-02  0.21544974759E-01 -0.79082232149E-02  0.10202434283E+01  0.10199684306E+01 0.  0.
     999903    2    3    3    0    0  0.49490708580E-01  0.10167284314E+00  0.66142742076E-01  0.13243277975E+00  0.19413437467E-01 0.  0.
         14    1    1    2    0    0 -0.58589883900E-02 -0.21544974759E-01  0.79082232149E-02  0.23686571655E-01  0.00000000000E+00 0.  1.
     999901    1    3    3    0    0 -0.43631720190E-01 -0.80127868385E-01 -0.74050965291E-01  0.88781064860E+00  0.88000000000E+00 0. -1.
        -11    1    4    4    0    0  0.47859646147E-02  0.25854946387E-01  0.20093123101E-01  0.33096501733E-01  0.51100000000E-03 0.  1.
         11    1    4    4    0    0  0.44704743966E-01  0.75817896757E-01  0.46049618974E-01  0.99336278017E-01  0.51100000000E-03 0. -1.
</event>
<event>
 8    1  0.1104109E+005  0.1043930E+01  0.7957747E-01            NaN
         13   -1    0    0    0    0  0.00000000000E+00  0.00000000000E+00  0.74505805969E-08  0.10566000000E+00  0.10566000000E+00 0.  1.
     999900   -1    0    0    0    0 -0.00000000000E+00 -0.00000000000E+00 -0.74505805969E-08  0.93827000000E+00  0.93827000000E+00 0.  1.
     999902    2    1    2    0    0 -0.87008689755E-03  0.10340384995E-01 -0.21208026531E-01  0.10203193879E+01  0.10200461717E+01 0.  0.
     999903    2    3    3    0    0  0.49139876307E-01 -0.67884316461E-01 -0.10016028563E+00  0.13191995099E+00  0.18648935268E-01 0.  0.
         14    1    1    2    0    0  0.87008689755E-03 -0.10340384995E-01  0.21208026531E-01  0.23610612072E-01  0.00000000000E+00 0.  1.
     999901    1    3    3    0    0 -0.50009963204E-01  0.78224701455E-01  0.78952259099E-01  0.88839943694E+00  0.88000000000E+00 0. -1.
        -11    1    4    4    0    0  0.16429531565E-01 -0.33796627290E-01 -0.34411653515E-01  0.50956496566E-01  0.51100000000E-03 0. -1.
         11    1    4    4    0    0  0.32710344742E-01 -0.34087689171E-01 -0.65748632115E-01  0.80963454423E-01  0.51100000000E-03 0.  1.
</event>
<event>
 8    1  0.1104109E+005  0.1043930E+01  0.7957747E-01            NaN
         13   -1    0    0    0    0  0.00000000000E+00  0.00000000000E+00  0.74505805969E-08  0.10566000000E+00  0.10566000000E+00 0.  1.
     999900   -1    0    0    0    0 -0.00000000000E+00 -0.00000000000E+00 -0.74505805969E-08  0.93827000000E+00  0.93827000000E+00 0. -1.
     999902    2    1    2    0    0  0.20271798023E-01 -0.72281052714E-02 -0.10675443668E-01  0.10199059204E+01  0.10196229353E+01 0.  0.
     999903    2    3    3    0    0 -0.10189946554E+00 -0.74758523280E-01  0.12156801783E-01  0.12861052248E+00  0.20507091032E-01 0.  0.
         14    1    1    2    0    0 -0.20271798023E-01  0.72281052714E-02  0.10675443668E-01  0.24024079554E-01  0.00000000000E+00 0.  1.
     999901    1    3    3    0    0  0.12217126357E+00  0.67530418008E-01 -0.22832245452E-01  0.89129539796E+00  0.88000000000E+00 0.  1.
        -11    1    4    4    0    0 -0.74241154174E-01 -0.61312935984E-01  0.23100169387E-02  0.96315224089E-01  0.51100000000E-03 0.  1.
         11    1    4    4    0    0 -0.27658311370E-01 -0.13445587296E-01  0.98467848448E-02  0.32295298394E-01  0.51100000000E-03 0. -1.
</event>
<event>
 8    1  0.1104109E+005  0.1043930E+01  0.7957747E-01            NaN
         13   -1    0    0    0    0  0.00000000000E+00  0.00000000000E+00  0.74505805969E-08  0.10566000000E+00  0.10566000000E+00 0. -1.
     999900   -1    0    0    0    0 -0.00000000000E+00 -0.00000000000E+00 -0.74505805969E-08  0.93827000000E+00  0.93827000000E+00 0.  1.
     999902    2    1    2    0    0  0.18836954935E-01  0.11761277908E-01 -0.12383691283E-01  0.10185033538E+01  0.10181859198E+01 0.  0.
     999903    2    3    3    0    0 -0.74393759214E-01 -0.77225008991E-01  0.62299540915E-01  0.12598550492E+00  0.22203180611E-01 0.  0.
         14    1    1    2    0    0 -0.18836954935E-01 -0.11761277908E-01  0.12383691283E-01  0.25426646241E-01  0.00000000000E+00 0. -1.
     999901    1    3    3    0    0  0.93230714150E-01  0.88986286898E-01 -0.74683232198E-01  0.89251784883E+00  0.88000000000E+00 0. -1.
        -11    1    4    4    0    0 -0.33945307310E-01 -0.48977803014E-01  0.40456593192E-01  0.72028509148E-01  0.51100000000E-03 0. -1.
         11    1    4    4    0    0 -0.40448451904E-01 -0.28247205977E-01  0.21842947723E-01  0.53956995776E-01  0.51100000000E-03 0.  1.
</event>
<event>
 8    1  0.1104109E+005  0.1043930E+01  0.7957747E-01            NaN
         13   -1    0    0    0    0  0.00000000000E+00  0.00000000000E+00  0.74505805969E-08  0.10566000000E+00  0.10566000000E+00 0.  1.
     999900   -1    0    0    0    0 -0.00000000000E+00 -0.00000000000E+00 -0.74505805969E-08  0.93827000000E+00  0.93827000000E+00 0. -1.
     999902    2    1    2    0    0  0.43296055844E-02  0.10295281027E-02  0.21526511259E-01  0.10219482781E+01  0.10217118414E+01 0.  0.
     999903    2    3    3    0    0 -0.56048500720E-01  0.48888085982E-01 -0.10426977566E+00  0.12966992290E+00  0.20263844755E-01 0.  0.
         14    1    1    2    0    0 -0.43296055844E-02 -0.10295281027E-02 -0.21526511259E-01  0.21981721944E-01  0.00000000000E+00 0. -1.
     999901    1    3    3    0    0  0.60378106305E-01 -0.47858557879E-01  0.12579628692E+00  0.89227835516E+00  0.88000000000E+00 0.  1.
        -11    1    4    4    0    0 -0.44120697388E-01  0.46672646438E-01 -0.80542815059E-01  0.10301639696E+00  0.51100000000E-03 0. -1.
         11    1    4    4    0    0 -0.11927803332E-01  0.22154395443E-02 -0.23726960599E-01  0.26653525939E-01  0.51100000000E-03 0.  1.
</event>
<event>
 8    1  0.1104109E+005  0.1043930E+01  0.7957747E-01            NaN
         13   -1    0    0    0    0  0.00000000000E+00  0.00000000000E+00  0.74505805969E-08  0.10566000000E+00  0.10566000000E+00 0.  1.
     999900   -1    0    0    0    0 -0.00000000000E+00 -0.00000000000E+00 -0.74505805969E-08  0.93827000000E+00  0.93827000000E+00 0.  1.
     999902    2    1    2    0    0  0.57940118414E-02  0.18560320791E-01 -0.14948635808E-01  0.10194041403E+01  0.10191090636E+01 0.  0.
     999903    2    3    3    0    0  0.59153546171E-01 -0.82064533474E-01 -0.79032651715E-01  0.12975288150E+00  0.18865856526E-01 0.  0.
         14    1    1    2    0    0 -0.57940118414E-02 -0.18560320791E-01  0.14948635808E-01  0.24525859691E-01  0.00000000000E+00 0.  1.
     999901    1    3    3    0    0 -0.53359534329E-01  0.10062485426E+00  0.64084015907E-01  0.88965125881E+00  0.88000000000E+00 0. -1.
        -11    1    4    4    0    0  0.52460543154E-01 -0.64580288758E-01 -0.57104204435E-01  0.10091518007E+00  0.51100000000E-03 0.  1.
         11    1    4    4    0    0  0.66930030172E-02 -0.17484244715E-01 -0.21928447279E-01  0.28837701429E-01  0.51100000000E-03 0. -1.
</event>
<event>
 8    1  0.1104109E+005  0.1043930E+01  0.7957747E-01            NaN
         13   -1    0    0    0    0  0.00000000000E+00  0.00000000000E+00  0.74505805969E-08  0.10566000000E+00  0.10566000000E+00 0. -1.
     999900   -1    0    0    0    0 -0.00000000000E+00 -0.00000000000E+00 -0.74505805969E-08  0.93827000000E+00  0.93827000000E+00 0.  1.
     999902    2    1    2    0    0 -0.17599101756E-01 -0.15937036085E-01  0.42595593538E-02  0.10198081977E+01  0.10195228780E+01 0.  0.
     999903    2    3    3    0    0 -0.64429058243E-01  0.40242290778E-01 -0.10378534202E+00  0.13018869344E+00  0.20178036777E-01 0.  0.
         14    1    1    2    0    0  0.17599101756E-01  0.15937036085E-01 -0.42595593538E-02  0.24121802331E-01  0.00000000000E+00 0. -1.
     999901    1    3    3    0    0  0.46829956486E-01 -0.56179326863E-01  0.10804490137E+00  0.88961950423E+00  0.88000000000E+00 0. -1.
        -11    1    4    4    0    0 -0.14798183109E-01  0.17544001350E-01 -0.21528168596E-01  0.31472231742E-01  0.51100000000E-03 0.  1.
         11    1    4    4    0    0 -0.49630875133E-01  0.22698289428E-01 -0.82257173425E-01  0.98716461699E-01  0.51100000000E-03 0. -1.
</event>
<event>
 8    1  0.1104109E+005  0.1043930E+01  0.7957747E-01            NaN
         13   -1    0    0    0    0  0.00000000000E+00  0.00000000000E+00  0.74505805969E-08  0.10566000000E+00  0.10566000000E+00 0. -1.
     999900   -1    0    0    0    0 -0.00000000000E+00 -0.00000000000E+00 -0.74505805969E-08  0.93827000000E+00  0.93827000000E+00 0.  1.
     999902    2    1    2    0    0  0.92975157067E-02  0.20913718849E-01  0.52075588289E-02  0.10204577589E+01  0.10201877727E+01 0.  0.
     999903    2    3    3    0    0  0.10645878533E+00  0.67836600662E-01  0.37808049115E-01  0.13326845488E+00  0.19893595089E-01 0.  0.
         14    1    1    2    0    0 -0.92975157067E-02 -0.20913718849E-01 -0.52075588289E-02  0.23472241124E-01  0.00000000000E+00 0.  1.
     999901    1    3    3    0    0 -0.97161269624E-01 -0.46922881812E-01 -0.32600490286E-01  0.88718930399E+00  0.88000000000E+00 0.  1.
        -11    1    4    4    0    0  0.17708759445E-01  0.19918214372E-01  0.43961676591E-02  0.27017084149E-01  0.51100000000E-03 0. -1.
         11    1    4    4    0    0  0.88750025886E-01  0.47918386290E-01  0.33411881456E-01  0.10625137073E+00  0.51100000000E-03 0.  1.
</event>
<event>
 8    1  0.1104109E+005  0.1043930E+01  0.7957747E-01            NaN
         13   -1    0    0    0    0  0.00000000000E+00  0.00000000000E+00  0.74505805969E-08  0.10566000000E+00  0.10566000000E+00 0.  1.
     999900   -1    0    0    0    0 -0.00000000000E+00 -0.00000000000E+00 -0.74505805969E-08  0.93827000000E+00  0.93827000000E+00 0.  1.
     999902    2    1    2    0    0  0.21568950609E-01 -0.49056193823E-02  0.76221690804E-02  0.10205337996E+01  0.10202655801E+01 0.  0.
     999903    2    3    3    0    0  0.80355144388E-01 -0.34742811621E-01 -0.96693998722E-01  0.13192368403E+00  0.19751375401E-01 0.  0.
         14    1    1    2    0    0 -0.21568950609E-01  0.49056193823E-02 -0.76221690804E-02  0.23396200405E-01  0.00000000000E+00 0. -1.
     999901    1    3    3    0    0 -0.58786193779E-01  0.29837192239E-01  0.10431616780E+00  0.88861011557E+00  0.88000000000E+00 0. -1.
        -11    1    4    4    0    0  0.20457106331E-01 -0.14227332262E-01 -0.17136504083E-01  0.30246174567E-01  0.51100000000E-03 0. -1.
         11    1    4    4    0    0  0.59898038057E-01 -0.20515479359E-01 -0.79557494639E-01  0.10167750946E+00  0.51100000000E-03 0.  1.
</event>
<event>
 8    1  0.1104109E+005  0.1043930E+01  0.7957747E-01            NaN
         13   -1    0    0    0    0  0.00000000000E+00  0.00000000000E+00  0.74505805969E-08  0.10566000000E+00  0.10566000000E+00 0. -1.
     999900   -1    0    0    0    0 -0.00000000000E+00 -0.00000000000E+00 -0.74505805969E-08  0.93827000000E+00  0.93827000000E+00 0. -1.
     999902    2    1    2    0    0  0.33550964229E-02 -0.14202276025E-01  0.11881398989E-01  0.10251116856E+01  0.10249389440E+01 0.  0.
     999903    2    3    3    0    0 -0.27355828921E-01  0.12088732239E+00  0.45760584657E-01  0.13362968364E+00  0.20019369372E-01 0.  0.
         14    1    1    2    0    0 -0.33550964229E-02  0.14202276025E-01 -0.11881398989E-01  0.18818314437E-01  0.00000000000E+00 0.  1.
     999901    1    3    3    0    0  0.30710925344E-01 -0.13508959842E+00 -0.33879185668E-01  0.89148200193E+00  0.88000000000E+00 0.  1.
        -11    1    4    4    0    0 -0.66330880791E-02  0.39012804618E-01  0.51308257649E-02  0.39907183259E-01  0.51100000000E-03 0. -1.
         11    1    4    4    0    0 -0.20722740842E-01  0.81874517773E-01  0.40629758892E-01  0.93722500379E-01  0.51100000000E-03 0.  1.
</event>
<event>
 8    1  0.1104109E+005  0.1043930E+01  0.7957747E-01            NaN
         13   -1    0    0    0    0  0.00000000000E+00  0.00000000000E+00  0.74505805969E-08  0.10566000000E+00  0.10566000000E+00 0.  1.
     999900   -1    0    0    0    0 -0.00000000000E+00 -0.00000000000E+00 -0.74505805969E-08  0.93827000000E+00  0.93827000000E+00 0. -1.
     999902    2    1    2    0    0  0.20343666465E-02  0.12440823799E-01  0.20406543306E-01  0.10199437591E+01  0.10196616752E+01 0.  0.
     999903    2    3    3    0    0  0.43366631132E-01 -0.81324431020E-01 -0.86100318614E-01  0.12761871138E+00  0.19466454508E-01 0.  0.
         14    1    1    2    0    0 -0.20343666465E-02 -0.12440823799E-01 -0.20406543306E-01  0.23986240934E-01  0.00000000000E+00 0. -1.
     999901    1    3    3    0    0 -0.41332264486E-01  0.93765254819E-01  0.10650686192E+00  0.89232504769E+00  0.88000000000E+00 0.  1.
        -11    1    4    4    0    0  0.40884161653E-01 -0.59938992826E-01 -0.63793491375E-01  0.96612981518E-01  0.51100000000E-03 0. -1.
         11    1    4    4    0    0  0.24824694788E-02 -0.21385438194E-01 -0.22306827240E-01  0.31005729857E-01  0.51100000000E-03 0.  1.
</event>
<event>
 8    1  0.1104109E+005  0.1043930E+01  0.7957747E-01            NaN
         13   -1    0    0    0    0  0.00000000000E+00  0.00000000000E+00  0.74505805969E-08  0.10566000000E+00  0.10566000000E+00 0. -1.
     999900   -1    0    0    0    0 -0.00000000000E+00 -0.00000000000E+00 -0.74505805969E-08  0.93827000000E+00  0.93827000000E+00 0.  1.
     999902    2    1    2    0    0  0.97065771362E-02 -0.21217541550E-01 -0.32738499499E-02  0.10203690195E+01  0.10200969641E+01 0.  0.
     999903    2    3    3    0    0  0.96642936868E-03  0.10164118155E+00 -0.76054709584E-01  0.12881548237E+00  0.21845957869E-01 0.  0.
         14    1    1    2    0    0 -0.97065771362E-02  0.21217541550E-01  0.32738499499E-02  0.23560980511E-01  0.00000000000E+00 0.  1.
     999901    1    3    3    0    0  0.87401477675E-02 -0.12285872310E+00  0.72780859634E-01  0.89155353712E+00  0.88000000000E+00 0. -1.
        -11    1    4    4    0    0  0.66757428885E-02  0.35791758669E-01 -0.37615025072E-01  0.52352332937E-01  0.51100000000E-03 0. -1.
         11    1    4    4    0    0 -0.57093135198E-02  0.65849422880E-01 -0.38439684512E-01  0.76463149431E-01  0.51100000000E-03 0.  1.
</event>
<event>
 8    1  0.1104109E+005  0.1043930E+01  0.7957747E-01            NaN
         13   -1    0    0    0    0  0.00000000000E+00  0.00000000000E+00  0.74505805969E-08  0.10566000000E+00  0.10566000000E+00 0.  1.
     999900   -1    0    0    0    0 -0.00000000000E+00 -0.00000000000E+00 -0.74505805969E-08  0.93827000000E+00  0.93827000000E+00 0.  1.
     999902    2    1    2    0    0 -0.27387451580E-01 -0.19990449852E-01  0.10891944361E-03  0.10100227375E+01  0.10094534302E+01 0.  0.
     999903    2    3    3    0    0  0.40435826699E-01 -0.17944946383E-01  0.11037603942E+00  0.12054928709E+00  0.19803619854E-01 0.  0.
         14    1    1    2    0    0  0.27387451580E-01  0.19990449852E-01 -0.10891944361E-03  0.33907262538E-01  0.00000000000E+00 0.  1.
     999901    1    3    3    0    0 -0.67823278279E-01 -0.20455034693E-02 -0.11026711998E+00  0.88947345037E+00  0.88000000000E+00 0.  1.
        -11    1    4    4    0    0  0.30392325941E-01 -0.22106538517E-01  0.85406422979E-01  0.93310828570E-01  0.51100000000E-03 0. -1.
         11    1    4    4    0    0  0.10043500758E-01  0.41615921343E-02  0.24969616442E-01  0.27238458525E-01  0.51100000000E-03 0.  1.
</event>
<event>
 8    1  0.1104109E+005  0.1043930E+01  0.7957747E-01            NaN
         13   -1    0    0    0    0  0.00000000000E+00  0.00000000000E+00  0.74505805969E-08  0.10566000000E+00  0.10566000000E+00 0.  1.
     999900   -1    0    0    0    0 -0.00000000000E+00 -0.00000000000E+00 -0.74505805969E-08  0.93827000000E+00  0.93827000000E+00 0.  1.
     999902    2    1    2    0    0  0.15173600886E-01  0.14037234125E-01  0.12464260699E-01  0.10197920651E+01  0.10195063591E+01 0.  0.
     999903    2    3    3    0    0  0.63753861422E-01 -0.68179143030E-01 -0.87166253721E-01  0.12903631083E+00  0.18424530790E-01 0.  0.
         14    1    1    2    0    0 -0.15173600886E-01 -0.14037234125E-01 -0.12464260699E-01  0.24137934884E-01  0.00000000000E+00 0. -1.
     999901    1    3    3    0    0 -0.48580260536E-01  0.82216377155E-01  0.99630514420E-01  0.89075575428E+00  0.88000000000E+00 0. -1.
        -11    1    4    4    0    0  0.41208825626E-01 -0.55674244114E-01 -0.60982303943E-01  0.92287004948E-01  0.51100000000E-03 0.  1.
         11    1    4    4    0    0  0.22545035796E-01 -0.12504898916E-01 -0.26183949779E-01  0.36749305884E-01  0.51100000000E-03 0. -1.
</event>
<event>
 7    1  0.1346647E+005  0.1043930E+01  0.7957747E-01            NaN
         13   -1    0    0    0    0  0.00000000000E+00  0.00000000000E+00  0.74505805969E-08  0.10566000000E+00  0.10566000000E+00 0. -1.
     999900   -1    0    0    0    0 -0.00000000000E+00 -0.00000000000E+00 -0.74505805969E-08  0.93827000000E+00  0.93827000000E+00 0. -1.
     999903    2    1    2    0    0 -0.10826684157E+00 -0.21934419049E-01  0.10500708550E-01  0.11207549398E+00  0.15742418743E-01 0.  0.
         14    1    1    2    0    0  0.32589540594E-01  0.33163208053E-02 -0.35174488814E-01  0.48065796604E-01  0.00000000000E+00 0.  1.
     999901    1    1    2    0    0  0.75677300974E-01  0.18618098244E-01  0.24673780264E-01  0.88378870942E+00  0.88000000000E+00 0.  1.
        -11    1    3    3    0    0 -0.32241913201E-01 -0.13874496015E-01  0.21899760303E-02  0.35172428442E-01  0.51100000000E-03 0.  1.
         11    1    3    3    0    0 -0.76024928367E-01 -0.80599230347E-02  0.83107325197E-02  0.76903065534E-01  0.51100000000E-03 0. -1.
</event>
<event>
 8    1  0.1104109E+005  0.1043930E+01  0.7957747E-01            NaN
         13   -1    0    0    0    0  0.00000000000E+00  0.00000000000E+00  0.74505805969E-08  0.10566000000E+00  0.10566000000E+00 0.  1.
     999900   -1    0    0    0    0 -0.00000000000E+00 -0.00000000000E+00 -0.74505805969E-08  0.93827000000E+00  0.93827000000E+00 0.  1.
     999902    2    1    2    0    0  0.56616534797E-02  0.15535330049E-01 -0.15961729625E-01  0.10209478849E+01  0.10206891820E+01 0.  0.
     999903    2    3    3    0    0 -0.12305584004E+00  0.44587632798E-02 -0.40607906111E-01  0.13117357789E+00  0.19871717623E-01 0.  0.
         14    1    1    2    0    0 -0.56616534797E-02 -0.15535330049E-01  0.15961729625E-01  0.22982115057E-01  0.00000000000E+00 0.  1.
     999901    1    3    3    0    0  0.12871749352E+00  0.11076566770E-01  0.24646176486E-01  0.88977430705E+00  0.88000000000E+00 0. -1.
        -11    1    4    4    0    0 -0.92910187782E-01 -0.51119069799E-02 -0.31832555076E-01  0.98346363788E-01  0.51100000000E-03 0.  1.
         11    1    4    4    0    0 -0.30145652257E-01  0.95706702596E-02 -0.87753510345E-02  0.32827214106E-01  0.51100000000E-03 0. -1.
</event>
<event>
 8    1  0.1104109E+005  0.1043930E+01  0.7957747E-01            NaN
         13   -1    0    0    0    0  0.00000000000E+00  0.00000000000E+00  0.74505805969E-08  0.10566000000E+00  0.10566000000E+00 0. -1.
     999900   -1    0    0    0    0 -0.00000000000E+00 -0.00000000000E+00 -0.74505805969E-08  0.93827000000E+00  0.93827000000E+00 0.  1.
     999902    2    1    2    0    0 -0.98962267833E-03 -0.24723917165E-01 -0.27157514413E-02  0.10190376972E+01  0.10187336264E+01 0.  0.
     999903    2    3    3    0    0  0.41213910752E-01 -0.10773486445E+00  0.61224189100E-01  0.13181716565E+00  0.17943700049E-01 0.  0.
         14    1    1    2    0    0  0.98962267833E-03  0.24723917165E-01  0.27157514413E-02  0.24892302804E-01  0.00000000000E+00 0. -1.
     999901    1    3    3    0    0 -0.42203533431E-01  0.83010947283E-01 -0.63939940541E-01  0.88722053155E+00  0.88000000000E+00 0.  1.
        -11    1    4    4    0    0  0.16841787483E-01 -0.60525472155E-01  0.25569954451E-01  0.67831130588E-01  0.51100000000E-03 0.  1.
         11    1    4    4    0    0  0.24372123270E-01 -0.47209392293E-01  0.35654234649E-01  0.63986035061E-01  0.51100000000E-03 0. -1.
</event>
<event>
 8    1  0.1104109E+005  0.1043930E+01  0.7957747E-01            NaN
         13   -1    0    0    0    0  0.00000000000E+00  0.00000000000E+00  0.74505805969E-08  0.10566000000E+00  0.10566000000E+00 0.  1.
     999900   -1    0    0    0    0 -0.00000000000E+00 -0.00000000000E+00 -0.74505805969E-08  0.93827000000E+00  0.93827000000E+00 0.  1.
     999902    2    1    2    0    0 -0.59863653754E-02 -0.18994678079E-01 -0.13118052647E-01  0.10200821978E+01  0.10198033990E+01 0.  0.
     999903    2    3    3    0    0  0.84530635649E-01 -0.79559888459E-01 -0.60021249031E-01  0.13212871813E+00  0.19499836006E-01 0.  0.
         14    1    1    2    0    0  0.59863653754E-02  0.18994678079E-01  0.13118052647E-01  0.23847802226E-01  0.00000000000E+00 0.  1.
     999901    1    3    3    0    0 -0.90517001024E-01  0.60565210380E-01  0.46903196384E-01  0.88795347965E+00  0.88000000000E+00 0. -1.
        -11    1    4    4    0    0  0.47915638695E-01 -0.55126872254E-01 -0.44065587326E-01  0.85304850879E-01  0.51100000000E-03 0.  1.
         11    1    4    4    0    0  0.36614996954E-01 -0.24433016205E-01 -0.15955661706E-01  0.46823867250E-01  0.51100000000E-03 0. -1.
</event>
<event>
 8    1  0.1104109E+005  0.1043930E+01  0.7957747E-01            NaN
         13   -1    0    0    0    0  0.00000000000E+00  0.00000000000E+00  0.74505805969E-08  0.10566000000E+00  0.10566000000E+00 0. -1.
     999900   -1    0    0    0    0 -0.00000000000E+00 -0.00000000000E+00 -0.74505805969E-08  0.93827000000E+00  0.93827000000E+00 0. -1.
     999902    2    1    2    0    0  0.16713062492E-01 -0.43116280560E-02 -0.13791668465E-01  0.10218364101E+01  0.10215975344E+01 0.  0.
     999903    2    3    3    0    0 -0.11209526954E+00  0.53020929009E-02  0.60331056988E-01  0.12932411976E+00  0.22168217606E-01 0.  0.
         14    1    1    2    0    0 -0.16713062492E-01  0.43116280560E-02  0.13791668465E-01  0.22093589872E-01  0.00000000000E+00 0. -1.
     999901    1    3    3    0    0  0.12880833203E+00 -0.96137209569E-02 -0.74122725453E-01  0.89251229037E+00  0.88000000000E+00 0. -1.
        -11    1    4    4    0    0 -0.87341929486E-01  0.13217108400E-01  0.48330345216E-01  0.10069452811E+00  0.51100000000E-03 0.  1.
         11    1    4    4    0    0 -0.24753340054E-01 -0.79150154995E-02  0.12000711772E-01  0.28629591653E-01  0.51100000000E-03 0. -1.
</event>
<event>
 8    1  0.1104109E+005  0.1043930E+01  0.7957747E-01            NaN
         13   -1    0    0    0    0  0.00000000000E+00  0.00000000000E+00  0.74505805969E-08  0.10566000000E+00  0.10566000000E+00 0. -1.
     999900   -1    0    0    0    0 -0.00000000000E+00 -0.00000000000E+00 -0.74505805969E-08  0.93827000000E+00  0.93827000000E+00 0. -1.
     999902    2    1    2    0    0  0.19684833815E-01 -0.80579737512E-02  0.66141290755E-02  0.10216551189E+01  0.10214122633E+01 0.  0.
     999903    2    3    3    0    0 -0.12259032560E+00  0.33869645869E-01  0.11128072472E-01  0.12923116029E+00  0.20032921662E-01 0.  0.
         14    1    1    2    0    0 -0.19684833815E-01  0.80579737512E-02 -0.66141290755E-02  0.22274881071E-01  0.00000000000E+00 0. -1.
     999901    1    3    3    0    0  0.14227515941E+00 -0.41927619620E-01 -0.45139433966E-02  0.89242395864E+00  0.88000000000E+00 0.  1.
        -11    1    4    4    0    0 -0.63061392165E-01  0.15921373003E-01 -0.42462163161E-02  0.65180677920E-01  0.51100000000E-03 0.  1.
         11    1    4    4    0    0 -0.59528933434E-01  0.17948272866E-01  0.15374288788E-01  0.64050482367E-01  0.51100000000E-03 0. -1.
</event>
<event>
 8    1  0.1104109E+005  0.1043930E+01  0.7957747E-01            NaN
         13   -1    0    0    0    0  0.00000000000E+00  0.00000000000E+00  0.74505805969E-08  0.10566000000E+00  0.10566000000E+00 0.  1.
     999900   -1    0    0    0    0 -0.00000000000E+00 -0.00000000000E+00 -0.74505805969E-08  0.93827000000E+00  0.93827000000E+00 0. -1.
     999902    2    1    2    0    0 -0.84021649580E-02 -0.14390018330E-01 -0.16212869533E-01  0.10206807819E+01  0.10204159605E+01 0.  0.
     999903    2    3    3    0    0  0.12101161250E+00 -0.44994971294E-01 -0.29789072045E-02  0.13059105233E+00  0.19411111714E-01 0.  0.
         14    1    1    2    0    0  0.84021649580E-02  0.14390018330E-01  0.16212869533E-01  0.23249218094E-01  0.00000000000E+00 0. -1.
     999901    1    3    3    0    0 -0.12941377746E+00  0.30604952965E-01 -0.13233962329E-01  0.89008972958E+00  0.88000000000E+00 0. -1.
        -11    1    4    4    0    0  0.37774225956E-01 -0.14953175397E-01  0.80278058954E-02  0.41414929549E-01  0.51100000000E-03 0. -1.
         11    1    4    4    0    0  0.83237386544E-01 -0.30041795897E-01 -0.11006713100E-01  0.89176122778E-01  0.51100000000E-03 0.  1.
</event>
<event>
 8    1  0.1104109E+005  0.1043930E+01  0.7957747E-01            NaN
         13   -1    0    0    0    0  0.00000000000E+00  0.00000000000E+00  0.74505805969E-08  0.10566000000E+00  0.10566000000E+00 0. -1.
     999900   -1    0    0    0    0 -0.00000000000E+00 -0.00000000000E+00 -0.74505805969E-08  0.93827000000E+00  0.93827000000E+00 0.  1.
     999902    2    1    2    0    0  0.46849443728E-02  0.23130309826E-01 -0.58900392025E-02  0.10196060920E+01  0.10193159130E+01 0.  0.
     999903    2    3    3    0    0 -0.59641357575E-01  0.67767245876E-01 -0.93716504106E-01  0.13177513003E+00  0.20794484950E-01 0.  0.
         14    1    1    2    0    0 -0.46849443728E-02 -0.23130309826E-01  0.58900392025E-02  0.24323907955E-01  0.00000000000E+00 0. -1.
     999901    1    3    3    0    0  0.64326301947E-01 -0.44636936051E-01  0.87826464904E-01  0.88783096202E+00  0.88000000000E+00 0. -1.
        -11    1    4    4    0    0 -0.42838902094E-01  0.34275229299E-01 -0.50430822388E-01  0.74521754165E-01  0.51100000000E-03 0.  1.
         11    1    4    4    0    0 -0.16802455481E-01  0.33492016577E-01 -0.43285681719E-01  0.57253375861E-01  0.51100000000E-03 0. -1.
</event>
<event>
 8    1  0.1104109E+005  0.1043930E+01  0.7957747E-01            NaN
         13   -1    0    0    0    0  0.00000000000E+00  0.00000000000E+00  0.74505805969E-08  0.10566000000E+00  0.10566000000E+00 0.  1.
     999900   -1    0    0    0    0 -0.00000000000E+00 -0.00000000000E+00 -0.74505805969E-08  0.93827000000E+00  0.93827000000E+00 0.  1.
     999902    2    1    2    0    0  0.87556667276E-02 -0.23475694173E-01  0.21260174756E-03  0.10188737609E+01  0.10185656216E+01 0.  0.
     999903    2    3    3    0    0  0.45519777322E-01 -0.11697368496E+00  0.36959383327E-01  0.13239544757E+00  0.20190726104E-01 0.  0.
         14    1    1    2    0    0 -0.87556667276E-02  0.23475694173E-01 -0.21260174756E-03  0.25056239069E-01  0.00000000000E+00 0.  1.
     999901    1    3    3    0    0 -0.36764110595E-01  0.93497990784E-01 -0.36746781580E-01  0.88647831336E+00  0.88000000000E+00 0.  1.
        -11    1    4    4    0    0  0.10553982912E-01 -0.36773816793E-01  0.20363338154E-01  0.43343128851E-01  0.51100000000E-03 0.  1.
         11    1    4    4    0    0  0.34965794410E-01 -0.80199868164E-01  0.16596045173E-01  0.89052318716E-01  0.51100000000E-03 0. -1.
</event>
<event>
 8    1  0.1104109E+005  0.1043930E+01  0.7957747E-01            NaN
         13   -1    0    0    0    0  0.00000000000E+00  0.00000000000E+00  0.74505805969E-08  0.10566000000E+00  0.10566000000E+00 0.  1.
     999900   -1    0    0    0    0 -0.00000000000E+00 -0.00000000000E+00 -0.74505805969E-08  0.93827000000E+00  0.93827000000E+00 0. -1.
     999902    2    1    2    0    0 -0.16537204602E-01 -0.12645815870E-01 -0.12232063338E-01  0.10197842101E+01  0.10194983159E+01 0.  0.
     999903    2    3    3    0    0 -0.36466763727E-01  0.66641091199E-02  0.12250878216E+00  0.12909618620E+00  0.16828201804E-01 0.  0.
         14    1    1    2    0    0  0.16537204602E-01  0.12645815870E-01  0.12232063338E-01  0.24145789872E-01  0.00000000000E+00 0.  1.
     999901    1    3    3    0    0  0.19929559126E-01 -0.19309924990E-01 -0.13474084550E+00  0.89068802393E+00  0.88000000000E+00 0. -1.
        -11    1    4    4    0    0 -0.18727546956E-01  0.96266119584E-02  0.47515123338E-01  0.51974423898E-01  0.51100000000E-03 0. -1.
         11    1    4    4    0    0 -0.17739216772E-01 -0.29625028386E-02  0.74993658825E-01  0.77121762297E-01  0.51100000000E-03 0.  1.
</event>
<event>
 8    1  0.1104109E+005  0.1043930E+01  0.7957747E-01            NaN
         13   -1    0    0    0    0  0.00000000000E+00  0.00000000000E+00  0.74505805969E-08  0.10566000000E+00  0.10566000000E+00 0.  1.
     999900   -1    0    0    0    0 -0.00000000000E+00 -0.00000000000E+00 -0.74505805969E-08  0.93827000000E+00  0.93827000000E+00 0.  1.
     999902    2    1    2    0    0 -0.11680346594E-01  0.20806992896E-01  0.10263050226E-01  0.10179551728E+01  0.10176237232E+01 0.  0.
     999903    2    3    3    0    0 -0.39321748306E-01  0.57163941113E-01 -0.10682075368E+00  0.12902632752E+00  0.20571915878E-01 0.  0.
         14    1    1    2    0    0  0.11680346594E-01 -0.20806992896E-01 -0.10263050226E-01  0.25974827234E-01  0.00000000000E+00 0. -1.
     999901    1    3    3    0    0  0.27641401712E-01 -0.36356948218E-01  0.11708380391E+00  0.88892884525E+00  0.88000000000E+00 0. -1.
        -11    1    4    4    0    0 -0.14432637376E-02  0.82140187171E-02 -0.46311436898E-02  0.95531003646E-02  0.51100000000E-03 0. -1.
         11    1    4    4    0    0 -0.37878484568E-01  0.48949922396E-01 -0.10218960999E+00  0.11947322716E+00  0.51100000000E-03 0.  1.
</event>
<event>
 8    1  0.1104109E+005  0.1043930E+01  0.7957747E-01            NaN
         13   -1    0    0    0    0  0.00000000000E+00  0.00000000000E+00  0.74505805969E-08  0.10566000000E+00  0.10566000000E+00 0.  1.
     999900   -1    0    0    0    0 -0.00000000000E+00 -0.00000000000E+00 -0.74505805969E-08  0.93827000000E+00  0.93827000000E+00 0. -1.
     999902    2    1    2    0    0  0.52678816755E-02  0.55697545398E-02  0.22924086503E-01  0.10197579814E+01  0.10194714582E+01 0.  0.
     999903    2    3    3    0    0 -0.47257825727E-01  0.11340070516E+00 -0.36022165397E-01  0.12966746660E+00  0.20567777516E-01 0.  0.
         14    1    1    2    0    0 -0.52678816755E-02 -0.55697545398E-02 -0.22924086503E-01  0.24172018637E-01  0.00000000000E+00 0. -1.
     999901    1    3    3    0    0  0.52525707403E-01 -0.10783095062E+00  0.58946251900E-01  0.89009051476E+00  0.88000000000E+00 0.  1.
        -11    1    4    4    0    0 -0.53241937511E-02  0.61681500609E-02 -0.74074702162E-02  0.11023831016E-01  0.51100000000E-03 0. -1.
         11    1    4    4    0    0 -0.41933631976E-01  0.10723255510E+00 -0.28614695181E-01  0.11864363559E+00  0.51100000000E-03 0.  1.
</event>
<event>
 8    1  0.1104109E+005  0.1043930E+01  0.7957747E-01            NaN
         13   -1    0    0    0    0  0.00000000000E+00  0.00000000000E+00  0.74505805969E-08  0.10566000000E+00  0.10566000000E+00 0.  1.
     999900   -1    0    0    0    0 -0.00000000000E+00 -0.00000000000E+00 -0.74505805969E-08  0.93827000000E+00  0.93827000000E+00 0. -1.
     999902    2    1    2    0    0  0.88731758794E-02 -0.92275437615E-02 -0.18093320606E-01  0.10217658608E+01  0.10215254404E+01 0.  0.
     999903    2    3    3    0    0  0.93356317606E-01 -0.29471069541E-01  0.85359180017E-01  0.13145713829E+00  0.20269277652E-01 0.  0.
         14    1    1    2    0    0 -0.88731758794E-02  0.92275437615E-02  0.18093320606E-01  0.22164139158E-01  0.00000000000E+00 0.  1.
     999901    1    3    3    0    0 -0.84483141727E-01  0.20243525780E-01 -0.10345250062E+00  0.89030872255E+00  0.88000000000E+00 0.  1.
        -11    1    4    4    0    0  0.87896591765E-01 -0.27729690618E-01  0.85475807590E-01  0.12570251147E+00  0.51100000000E-03 0. -1.
         11    1    4    4    0    0  0.54597258411E-02 -0.17413789230E-02 -0.11662757285E-03  0.57546268171E-02  0.51100000000E-03 0.  1.
</event>
<event>
 8    1  0.1104109E+005  0.1043930E+01  0.7957747E-01            NaN
         13   -1    0    0    0    0  0.00000000000E+00  0.00000000000E+00  0.74505805969E-08  0.10566000000E+00  0.10566000000E+00 0. -1.
     999900   -1    0    0    0    0 -0.00000000000E+00 -0.00000000000E+00 -0.74505805969E-08  0.93827000000E+00  0.93827000000E+00 0. -1.
     999902    2    1    2    0    0  0.12874867909E-01 -0.43565937772E-03  0.21471849921E-01  0.10188901845E+01  0.10185824540E+01 0.  0.
     999903    2    3    3    0    0  0.41320398384E-01  0.53427907246E-01  0.11185149820E+00  0.13216648859E+00  0.19882315256E-01 0.  0.
         14    1    1    2    0    0 -0.12874867909E-01  0.43565937772E-03 -0.21471849921E-01  0.25039815531E-01  0.00000000000E+00 0.  1.
     999901    1    3    3    0    0 -0.28445530475E-01 -0.53863566624E-01 -0.90379648283E-01  0.88672369588E+00  0.88000000000E+00 0. -1.
        -11    1    4    4    0    0  0.34867048009E-01  0.45371142634E-01  0.77781255829E-01  0.96563121843E-01  0.51100000000E-03 0.  1.
         11    1    4    4    0    0  0.64533503748E-02  0.80567646120E-02  0.34070242375E-01  0.35603366745E-01  0.51100000000E-03 0. -1.
</event>
<event>
 8    1  0.1104109E+005  0.1043930E+01  0.7957747E-01            NaN
         13   -1    0    0    0    0  0.00000000000E+00  0.00000000000E+00  0.74505805969E-08  0.10566000000E+00  0.10566000000E+00 0.  1.
     999900   -1    0    0    0    0 -0.00000000000E+00 -0.00000000000E+00 -0.74505805969E-08  0.93827000000E+00  0.93827000000E+00 0.  1.
     999902    2    1    2    0    0  0.28301381273E-03  0.23390550668E-01 -0.26835037335E-02  0.10203843178E+01  0.10201126197E+01 0.  0.
     999903    2    3    3    0    0 -0.96850443549E-01  0.80459161547E-01  0.35180612300E-01  0.13239477611E+00  0.20904931657E-01 0.  0.
         14    1    1    2    0    0 -0.28301381273E-03 -0.23390550668E-01  0.26835037335E-02  0.23545682187E-01  0.00000000000E+00 0. -1.
     999901    1    3    3    0    0  0.97133457361E-01 -0.57068610879E-01 -0.37864116034E-01  0.88798954170E+00  0.88000000000E+00 0.  1.
        -11    1    4    4    0    0 -0.65960397258E-01  0.42174921936E-01  0.24692012637E-01  0.82094181620E-01  0.51100000000E-03 0.  1.
         11    1    4    4    0    0 -0.30890046291E-01  0.38284239611E-01  0.10488599663E-01  0.50300594493E-01  0.51100000000E-03 0. -1.
</event>
<event>
 8    1  0.1104109E+005  0.1043930E+01  0.7957747E-01            NaN
         13   -1    0    0    0    0  0.00000000000E+00  0.00000000000E+00  0.74505805969E-08  0.10566000000E+00  0.10566000000E+00 0. -1.
     999900   -1    0    0    0    0 -0.00000000000E+00 -0.00000000000E+00 -0.74505805969E-08  0.93827000000E+00  0.93827000000E+00 0. -1.
     999902    2    1    2    0    0 -0.23887586206E-01 -0.86132663092E-03  0.43004737342E-02  0.10196431160E+01  0.10193538303E+01 0.  0.
     999903    2    3    3    0    0 -0.41521908040E-01  0.94509115833E-01  0.78755270876E-01  0.13118939894E+00  0.18767628541E-01 0.  0.
         14    1    1    2    0    0  0.23887586206E-01  0.86132663092E-03 -0.43004737342E-02  0.24286883963E-01  0.00000000000E+00 0. -1.
     999901    1    3    3    0    0  0.17634321834E-01 -0.95370442464E-01 -0.74454797142E-01  0.88845371709E+00  0.88000000000E+00 0. -1.
        -11    1    4    4    0    0 -0.12886598343E-01  0.28458218215E-01  0.35113822875E-01  0.47001875268E-01  0.51100000000E-03 0.  1.
         11    1    4    4    0    0 -0.28635309697E-01  0.66050897618E-01  0.43641448001E-01  0.84187523673E-01  0.51100000000E-03 0. -1.
</event>
<event>
 8    1  0.1104109E+005  0.1043930E+01  0.7957747E-01            NaN
         13   -1    0    0    0    0  0.00000000000E+00  0.00000000000E+00  0.74505805969E-08  0.10566000000E+00  0.10566000000E+00 0.  1.
     999900   -1    0    0    0    0 -0.00000000000E+00 -0.00000000000E+00 -0.74505805969E-08  0.93827000000E+00  0.93827000000E+00 0.  1.
     999902    2    1    2    0    0 -0.82730335606E-02  0.42736847170E-02  0.20504782589E-01  0.10214099295E+01  0.10211616378E+01 0.  0.
     999903    2    3    3    0    0  0.11504291714E+00  0.10796704165E-01  0.60419021118E-01  0.13189179035E+00  0.19837959683E-01 0.  0.
         14    1    1    2    0    0  0.82730335606E-02 -0.42736847170E-02 -0.20504782589E-01  0.22520070479E-01  0.00000000000E+00 0. -1.
     999901    1    3    3    0    0 -0.12331595070E+00 -0.65230194484E-02 -0.39914238529E-01  0.88951813917E+00  0.88000000000E+00 0.  1.
        -11    1    4    4    0    0  0.96745530861E-01  0.35898930777E-02  0.44338375992E-01  0.10648350943E+00  0.51100000000E-03 0. -1.
         11    1    4    4    0    0  0.18297386275E-01  0.72068110877E-02  0.16080645127E-01  0.25408280919E-01  0.51100000000E-03 0.  1.
</event>
<event>
 8    1  0.1104109E+005  0.1043930E+01  0.7957747E-01            NaN
         13   -1    0    0    0    0  0.00000000000E+00  0.00000000000E+00  0.74505805969E-08  0.10566000000E+00  0.10566000000E+00 0. -1.
     999900   -1    0    0    0    0 -0.00000000000E+00 -0.00000000000E+00 -0.74505805969E-08  0.93827000000E+00  0.93827000000E+00 0.  1.
     999902    2    1    2    0    0 -0.23682030762E-01 -0.48866311008E-02 -0.21412198724E-02  0.10196544451E+01  0.10193654324E+01 0.  0.
     999903    2    3    3    0    0  0.31159447027E-02  0.45018380797E-01  0.11974988744E+00  0.12944880380E+00  0.19508806798E-01 0.  0.
         14    1    1    2    0    0  0.23682030762E-01  0.48866311008E-02  0.21412198724E-02  0.24275554928E-01  0.00000000000E+00 0. -1.
     999901    1    3    3    0    0 -0.26797975465E-01 -0.49905011898E-01 -0.12189110732E+00  0.89020564127E+00  0.88000000000E+00 0.  1.
        -11    1    4    4    0    0 -0.48139060781E-02  0.24338103430E-01  0.43881824461E-01  0.50412226784E-01  0.51100000000E-03 0.  1.
         11    1    4    4    0    0  0.79298507808E-02  0.20680277367E-01  0.75868062983E-01  0.79036577021E-01  0.51100000000E-03 0. -1.
</event>
<event>
 8    1  0.1104109E+005  0.1043930E+01  0.7957747E-01            NaN
         13   -1    0    0    0    0  0.00000000000E+00  0.00000000000E+00  0.74505805969E-08  0.10566000000E+00  0.10566000000E+00 0. -1.
     999900   -1    0    0    0    0 -0.00000000000E+00 -0.00000000000E+00 -0.74505805969E-08  0.93827000000E+00  0.93827000000E+00 0.  1.
     999902    2    1    2    0    0  0.11927867542E-02 -0.13490543786E-01  0.20482780397E-01  0.10193747194E+01  0.10190789257E+01 0.  0.
     999903    2    3    3    0    0  0.11934207448E+00 -0.42258997203E-02 -0.44689884807E-01  0.12904188047E+00  0.19855279880E-01 0.  0.
         14    1    1    2    0    0 -0.11927867542E-02  0.13490543786E-01 -0.20482780397E-01  0.24555280586E-01  0.00000000000E+00 0. -1.
     999901    1    3    3    0    0 -0.11814928773E+00 -0.92646440656E-02  0.65172665204E-01  0.89033283895E+00  0.88000000000E+00 0. -1.
        -11    1    4    4    0    0  0.37315885974E-01  0.20241790395E-02 -0.23295378505E-01  0.44039850448E-01  0.51100000000E-03 0. -1.
         11    1    4    4    0    0  0.82026188510E-01 -0.62500787599E-02 -0.21394506303E-01  0.85002030017E-01  0.51100000000E-03 0.  1.
</event>
<event>
 8    1  0.1104109E+005  0.1043930E+01  0.7957747E-01            NaN
         13   -1    0    0    0    0  0.00000000000E+00  0.00000000000E+00  0.74505805969E-08  0.10566000000E+00  0.10566000000E+00 0.  1.
     999900   -1    0    0    0    0 -0.00000000000E+00 -0.00000000000E+00 -0.74505805969E-08  0.93827000000E+00  0.93827000000E+00 0.  1.
     999902    2    1    2    0    0  0.14770835853E-01  0.12174412170E-02 -0.13632866028E-01  0.10237926022E+01  0.10235945376E+01 0.  0.
     999903    2    3    3    0    0 -0.60664505203E-01 -0.10345645993E+00  0.51466210169E-01  0.13200506807E+00  0.19827907490E-01 0.  0.
         14    1    1    2    0    0 -0.14770835853E-01 -0.12174412170E-02  0.13632866028E-01  0.20137397822E-01  0.00000000000E+00 0.  1.
     999901    1    3    3    0    0  0.75435341056E-01  0.10467390115E+00 -0.65099076197E-01  0.89178753410E+00  0.88000000000E+00 0.  1.
        -11    1    4    4    0    0 -0.20574557318E-01 -0.21430001697E-01  0.73664891330E-02  0.30611822303E-01  0.51100000000E-03 0.  1.
         11    1    4    4    0    0 -0.40089947886E-01 -0.82026458232E-01  0.44099721036E-01  0.10139324577E+00  0.51100000000E-03 0. -1.
</event>
<event>
 8    1  0.1104109E+005  0.1043930E+01  0.7957747E-01            NaN
         13   -1    0    0    0    0  0.00000000000E+00  0.00000000000E+00  0.74505805969E-08  0.10566000000E+00  0.10566000000E+00 0.  1.
     999900   -1    0    0    0    0 -0.00000000000E+00 -0.00000000000E+00 -0.74505805969E-08  0.93827000000E+00  0.93827000000E+00 0. -1.
     999902    2    1    2    0    0  0.86536489818E-02 -0.14531364568E-01 -0.16262360299E-01  0.10204670386E+01  0.10201972683E+01 0.  0.
     999903    2    3    3    0    0 -0.44432741750E-01 -0.34696020420E-01 -0.11849984247E+00  0.13272986970E+00  0.19922933293E-01 0.  0.
         14    1    1    2    0    0 -0.86536489818E-02  0.14531364568E-01  0.16262360299E-01  0.23462961437E-01  0.00000000000E+00 0.  1.
     999901    1    3    3    0    0  0.53086390732E-01  0.20164655852E-01  0.10223748217E+00  0.88773716887E+00  0.88000000000E+00 0.  1.
        -11    1    4    4    0    0 -0.27614667443E-01 -0.30371570192E-01 -0.95133305162E-01  0.10361278399E+00  0.51100000000E-03 0.  1.
         11    1    4    4    0    0 -0.16818074307E-01 -0.43244502281E-02 -0.23366537311E-01  0.29117085707E-01  0.51100000000E-03 0. -1.
</event>
<event>
 8    1  0.1104109E+005  0.1043930E+01  0.7957747E-01            NaN
         13   -1    0    0    0    0  0.00000000000E+00  0.00000000000E+00  0.74505805969E-08  0.10566000000E+00  0.10566000000E+00 0. -1.
     999900   -1    0    0    0    0 -0.00000000000E+00 -0.00000000000E+00 -0.74505805969E-08  0.93827000000E+00  0.93827000000E+00 0.  1.
     999902    2    1    2    0    0  0.18639197347E-03 -0.21293569263E-01 -0.10212599650E-01  0.10203133104E+01  0.10200399519E+01 0.  0.
     999903    2    3    3    0    0  0.77583692651E-01  0.55049965798E-01 -0.86458891653E-01  0.13035141545E+00  0.21601469030E-01 0.  0.
         14    1    1    2    0    0 -0.18639197347E-03  0.21293569263E-01  0.10212599650E-01  0.23616689555E-01  0.00000000000E+00 0.  1.
     999901    1    3    3    0    0 -0.77397300678E-01 -0.76343535061E-01  0.76246292003E-01  0.88996189499E+00  0.88000000000E+00 0. -1.
        -11    1    4    4    0    0  0.31076726642E-01  0.26726659207E-01 -0.50728536790E-01  0.65220570505E-01  0.51100000000E-03 0.  1.
         11    1    4    4    0    0  0.46506966009E-01  0.28323306591E-01 -0.35730354863E-01  0.65130844945E-01  0.51100000000E-03 0. -1.
</event>
<event>
 8    1  0.1104109E+005  0.1043930E+01  0.7957747E-01            NaN
         13   -1    0    0    0    0  0.00000000000E+00  0.00000000000E+00  0.74505805969E-08  0.10566000000E+00  0.10566000000E+00 0. -1.
     999900   -1    0    0    0    0 -0.00000000000E+00 -0.00000000000E+00 -0.74505805969E-08  0.93827000000E+00  0.93827000000E+00 0.  1.
     999902    2    1    2    0    0 -0.16960888079E-01  0.98801454268E-02 -0.12704331086E-01  0.10205486180E+01  0.10202807420E+01 0.  0.
     999903    2    3    3    0    0  0.66439212398E-01 -0.62683093496E-01 -0.90570686371E-01  0.13022049322E+00  0.20272850589E-01 0.  0.
         14    1    1    2    0    0  0.16960888079E-01 -0.98801454268E-02  0.12704331086E-01  0.23381382047E-01  0.00000000000E+00 0. -1.
     999901    1    3    3    0    0 -0.83400100477E-01  0.72563238922E-01  0.77866355285E-01  0.89032812473E+00  0.88000000000E+00 0. -1.
        -11    1    4    4    0    0  0.12665169486E-01 -0.24568105953E-01 -0.26133193576E-01  0.38042125016E-01  0.51100000000E-03 0. -1.
         11    1    4    4    0    0  0.53774042912E-01 -0.38114987543E-01 -0.64437492795E-01  0.92178368206E-01  0.51100000000E-03 0.  1.
</event>
<event>
 8    1  0.1104109E+005  0.1043930E+01  0.7957747E-01            NaN
         13   -1    0    0    0    0  0.00000000000E+00  0.00000000000E+00  0.74505805969E-08  0.10566000000E+00  0.10566000000E+00 0.  1.
     999900   -1    0    0    0    0 -0.00000000000E+00 -0.00000000000E+00 -0.74505805969E-08  0.93827000000E+00  0.93827000000E+00 0. -1.
     999902    2    1    2    0    0  0.62317314647E-02  0.22907903667E-01  0.71173458658E-02  0.10191456675E+01  0.10188442611E+01 0.  0.
     999903    2    3    3    0    0 -0.11876403728E+00  0.29888323391E-01  0.37931955714E-01  0.12975137433E+00  0.19959395074E-01 0.  0.
         14    1    1    2    0    0 -0.62317314647E-02 -0.22907903667E-01 -0.71173458658E-02  0.24784332544E-01  0.00000000000E+00 0. -1.
     999901    1    3    3    0    0  0.12499576874E+00 -0.69804197246E-02 -0.30814609848E-01  0.88939429312E+00  0.88000000000E+00 0.  1.
        -11    1    4    4    0    0 -0.99468859886E-01  0.30481582443E-01  0.26683905085E-01  0.10740331870E+00  0.51100000000E-03 0.  1.
         11    1    4    4    0    0 -0.19295177389E-01 -0.59325905171E-03  0.11248050628E-01  0.22348055636E-01  0.51100000000E-03 0. -1.
</event>
<event>
 8    1  0.1104109E+005  0.1043930E+01  0.7957747E-01            NaN
         13   -1    0    0    0    0  0.00000000000E+00  0.00000000000E+00  0.74505805969E-08  0.10566000000E+00  0.10566000000E+00 0.  1.
     999900   -1    0    0    0    0 -0.00000000000E+00 -0.00000000000E+00 -0.74505805969E-08  0.93827000000E+00  0.93827000000E+00 0.  1.
     999902    2    1    2    0    0  0.52217228229E-02 -0.18035714244E-01 -0.15889906593E-01  0.10193323881E+01  0.10190355612E+01 0.  0.
     999903    2    3    3    0    0 -0.80497645094E-01 -0.97208482695E-01 -0.27069656732E-01  0.13155926166E+00  0.25410884246E-01 0.  0.
         14    1    1    2    0    0 -0.52217228229E-02  0.18035714244E-01  0.15889906593E-01  0.24597611857E-01  0.00000000000E+00 0.  1.
     999901    1    3    3    0    0  0.85719367917E-01  0.79172768452E-01  0.11179750139E-01  0.88777312649E+00  0.88000000000E+00 0.  1.
        -11    1    4    4    0    0 -0.30634033871E-01 -0.20337526769E-01 -0.12116765555E-01  0.38718679663E-01  0.51100000000E-03 0.  1.
         11    1    4    4    0    0 -0.49863611223E-01 -0.76870955927E-01 -0.14952891178E-01  0.92840581993E-01  0.51100000000E-03 0. -1.
</event>
<event>
 8    1  0.1104109E+005  0.1043930E+01  0.7957747E-01            NaN
         13   -1    0    0    0    0  0.00000000000E+00  0.00000000000E+00  0.74505805969E-08  0.10566000000E+00  0.10566000000E+00 0.  1.
     999900   -1    0    0    0    0 -0.00000000000E+00 -0.00000000000E+00 -0.74505805969E-08  0.93827000000E+00  0.93827000000E+00 0.  1.
     999902    2    1    2    0    0  0.10237128771E-01 -0.10518177119E-01  0.86206377666E-02  0.10269080656E+01  0.10267669789E+01 0.  0.
     999903    2    3    3    0    0  0.87349684743E-01  0.96079832395E-01 -0.35341182351E-01  0.13604212532E+00  0.19928850266E-01 0.  0.
         14    1    1    2    0    0 -0.10237128771E-01  0.10518177119E-01 -0.86206377666E-02  0.17021934405E-01  0.00000000000E+00 0. -1.
     999901    1    3    3    0    0 -0.77112555972E-01 -0.10659800951E+00  0.43961820118E-01  0.89086594028E+00  0.88000000000E+00 0.  1.
        -11    1    4    4    0    0  0.40918264436E-01  0.35372340105E-01 -0.70673460627E-02  0.54550117418E-01  0.51100000000E-03 0. -1.
         11    1    4    4    0    0  0.46431420307E-01  0.60707492289E-01 -0.28273836288E-01  0.81492007898E-01  0.51100000000E-03 0.  1.
</event>
<event>
 8    1  0.1104109E+005  0.1043930E+01  0.7957747E-01            NaN
         13   -1    0    0    0    0  0.00000000000E+00  0.00000000000E+00  0.74505805969E-08  0.10566000000E+00  0.10566000000E+00 0. -1.
     999900   -1    0    0    0    0 -0.00000000000E+00 -0.00000000000E+00 -0.74505805969E-08  0.93827000000E+00  0.93827000000E+00 0.  1.
     999902    2    1    2    0    0 -0.21965785033E-02 -0.20267990990E-01  0.11734663179E-01  0.10204072719E+01  0.10201361095E+01 0.  0.
     999903    2    3    3    0    0 -0.10005969607E+00  0.38964211035E-01 -0.70848335148E-01  0.12916903490E+00  0.11618969981E-01 0.  0.
         14    1    1    2    0    0  0.21965785033E-02  0.20267990990E-01 -0.11734663179E-01  0.23522728069E-01  0.00000000000E+00 0. -1.
     999901    1    3    3    0    0  0.97863117570E-01 -0.59232202025E-01  0.82582998326E-01  0.89123823703E+00  0.88000000000E+00 0. -1.
        -11    1    4    4    0    0 -0.50675635749E-01  0.15579137427E-01 -0.40036200772E-01  0.66437098633E-01  0.51100000000E-03 0.  1.
         11    1    4    4    0    0 -0.49384060324E-01  0.23385073608E-01 -0.30812134376E-01  0.62731936265E-01  0.51100000000E-03 0. -1.
</event>
<event>
 8    1  0.1104109E+005  0.1043930E+01  0.7957747E-01            NaN
         13   -1    0    0    0    0  0.00000000000E+00  0.00000000000E+00  0.74505805969E-08  0.10566000000E+00  0.10566000000E+00 0. -1.
     999900   -1    0    0    0    0 -0.00000000000E+00 -0.00000000000E+00 -0.74505805969E-08  0.93827000000E+00  0.93827000000E+00 0.  1.
     999902    2    1    2    0    0  0.19274487133E-01 -0.13866004625E-01  0.30951455083E-02  0.10199852331E+01  0.10197041354E+01 0.  0.
     999903    2    3    3    0    0  0.63730692754E-01  0.10678799391E+00  0.32680761771E-01  0.13014870297E+00  0.20133947784E-01 0.  0.
         14    1    1    2    0    0 -0.19274487133E-01  0.13866004625E-01 -0.30951455083E-02  0.23944766948E-01  0.00000000000E+00 0.  1.
     999901    1    3    3    0    0 -0.44456205622E-01 -0.12065399853E+00 -0.29585616263E-01  0.88983653008E+00  0.88000000000E+00 0.  1.
        -11    1    4    4    0    0  0.31940023990E-01  0.60700151495E-01  0.27566407243E-01  0.73924565966E-01  0.51100000000E-03 0. -1.
         11    1    4    4    0    0  0.31790668764E-01  0.46087842410E-01  0.51143545284E-02  0.56224137003E-01  0.51100000000E-03 0.  1.
</event>
<event>
 8    1  0.1104109E+005  0.1043930E+01  0.7957747E-01            NaN
         13   -1    0    0    0    0  0.00000000000E+00  0.00000000000E+00  0.74505805969E-08  0.10566000000E+00  0.10566000000E+00 0. -1.
     999900   -1    0    0    0    0 -0.00000000000E+00 -0.00000000000E+00 -0.74505805969E-08  0.93827000000E+00  0.93827000000E+00 0.  1.
     999902    2    1    2    0    0 -0.62357978546E-02 -0.14678624296E-01  0.12820107951E-01  0.10234677823E+01  0.10232632110E+01 0.  0.
     999903    2    3    3    0    0 -0.36899362611E-01 -0.11481245541E+00  0.59751057438E-01  0.13601662737E+00  0.19669041071E-01 0.  0.
         14    1    1    2    0    0  0.62357978546E-02  0.14678624296E-01 -0.12820107951E-01  0.20462217719E-01  0.00000000000E+00 0. -1.
     999901    1    3    3    0    0  0.30663564756E-01  0.10013383112E+00 -0.46930949487E-01  0.88745115491E+00  0.88000000000E+00 0.  1.
        -11    1    4    4    0    0 -0.17511367222E-01 -0.31319459211E-01  0.11668429533E-01  0.37735525384E-01  0.51100000000E-03 0. -1.
         11    1    4    4    0    0 -0.19387995389E-01 -0.83492996202E-01  0.48082627905E-01  0.98281101984E-01  0.51100000000E-03 0.  1.
</event>
<event>
 8    1  0.1104109E+005  0.1043930E+01  0.7957747E-01            NaN
         13   -1    0    0    0    0  0.00000000000E+00  0.00000000000E+00  0.74505805969E-08  0.10566000000E+00  0.10566000000E+00 0.  1.
     999900   -1    0    0    0    0 -0.00000000000E+00 -0.00000000000E+00 -0.74505805969E-08  0.93827000000E+00  0.93827000000E+00 0. -1.
     999902    2    1    2    0    0 -0.20647301387E-01 -0.52703339583E-02  0.80739395602E-02  0.10211423723E+01  0.10208880784E+01 0.  0.
     999903    2    3    3    0    0 -0.92832574657E-01  0.30784413688E-01 -0.87128794661E-01  0.13233743361E+00  0.18873325906E-01 0.  0.
         14    1    1    2    0    0  0.20647301387E-01  0.52703339583E-02 -0.80739395602E-02  0.22787627666E-01  0.00000000000E+00 0. -1.
     999901    1    3    3    0    0  0.72185273269E-01 -0.36054747646E-01  0.95202734222E-01  0.88880493873E+00  0.88000000000E+00 0.  1.
        -11    1    4    4    0    0 -0.68343842704E-01  0.21609760104E-01 -0.74170942038E-01  0.10314772092E+00  0.51100000000E-03 0.  1.
         11    1    4    4    0    0 -0.24488731953E-01  0.91746535846E-02 -0.12957852623E-01  0.29189712685E-01  0.51100000000E-03 0. -1.
</event>
<event>
 8    1  0.1104109E+005  0.1043930E+01  0.7957747E-01            NaN
         13   -1    0    0    0    0  0.00000000000E+00  0.00000000000E+00  0.74505805969E-08  0.10566000000E+00  0.10566000000E+00 0. -1.
     999900   -1    0    0    0    0 -0.00000000000E+00 -0.00000000000E+00 -0.74505805969E-08  0.93827000000E+00  0.93827000000E+00 0.  1.
     999902    2    1    2    0    0  0.12188526888E-01 -0.82377362179E-02  0.18299063259E-01  0.10204507283E+01  0.10201805784E+01 0.  0.
     999903    2    3    3    0    0 -0.80277253321E-01 -0.58231180049E-01 -0.79762269365E-01  0.12878639124E+00  0.19713123152E-01 0.  0.
         14    1    1    2    0    0 -0.12188526888E-01  0.82377362179E-02 -0.18299063259E-01  0.23479271749E-01  0.00000000000E+00 0.  1.
     999901    1    3    3    0    0  0.92465780209E-01  0.49993443832E-01  0.98061332625E-01  0.89166433701E+00  0.88000000000E+00 0. -1.
        -11    1    4    4    0    0 -0.52107131798E-01 -0.46281273984E-01 -0.47653260612E-01  0.84428691058E-01  0.51100000000E-03 0.  1.
         11    1    4    4    0    0 -0.28170121522E-01 -0.11949906065E-01 -0.32109008754E-01  0.44357700185E-01  0.51100000000E-03 0. -1.
</event>
<event>
 8    1  0.1104109E+005  0.1043930E+01  0.7957747E-01            NaN
         13   -1    0    0    0    0  0.00000000000E+00  0.00000000000E+00  0.74505805969E-08  0.10566000000E+00  0.10566000000E+00 0. -1.
     999900   -1    0    0    0    0 -0.00000000000E+00 -0.00000000000E+00 -0.74505805969E-08  0.93827000000E+00  0.93827000000E+00 0.  1.
     999902    2    1    2    0    0 -0.61977224502E-02 -0.40934830237E-03 -0.22165209257E-01  0.10209109681E+01  0.10206514238E+01 0.  0.
     999903    2    3    3    0    0  0.21022795092E-01 -0.50492801118E-01  0.11451195328E+00  0.12853775266E+00  0.20432462837E-01 0.  0.
         14    1    1    2    0    0  0.61977224502E-02  0.40934830237E-03  0.22165209257E-01  0.23019031931E-01  0.00000000000E+00 0. -1.
     999901    1    3    3    0    0 -0.27220517542E-01  0.50083452816E-01 -0.13667716253E+00  0.89237321541E+00  0.88000000000E+00 0.  1.
        -11    1    4    4    0    0  0.86920622577E-02 -0.34132507697E-01  0.89626432985E-01  0.96300252537E-01  0.51100000000E-03 0. -1.
         11    1    4    4    0    0  0.12330732834E-01 -0.16360293421E-01  0.24885520291E-01  0.32237500123E-01  0.51100000000E-03 0.  1.
</event>
<event>
 8    1  0.1104109E+005  0.1043930E+01  0.7957747E-01            NaN
         13   -1    0    0    0    0  0.00000000000E+00  0.00000000000E+00  0.74505805969E-08  0.10566000000E+00  0.10566000000E+00 0.  1.
     999900   -1    0    0    0    0 -0.00000000000E+00 -0.00000000000E+00 -0.74505805969E-08  0.93827000000E+00  0.93827000000E+00 0. -1.
     999902    2    1    2    0    0 -0.74246738741E-02  0.81635938914E-02 -0.21892525115E-01  0.10194136238E+01  0.10191187780E+01 0.  0.
     999903    2    3    3    0    0 -0.98642119651E-01 -0.49742625384E-01 -0.68672771843E-01  0.13157234059E+00  0.19767009534E-01 0.  0.
         14    1    1    2    0    0  0.74246738741E-02 -0.81635938914E-02  0.21892525115E-01  0.24516376226E-01  0.00000000000E+00 0.  1.
     999901    1    3    3    0    0  0.91217445777E-01  0.57906219276E-01  0.46780246729E-01  0.88784128319E+00  0.88000000000E+00 0.  1.
        -11    1    4    4    0    0 -0.75956255207E-01 -0.45928891346E-01 -0.49577194285E-01  0.10167091560E+00  0.51100000000E-03 0. -1.
         11    1    4    4    0    0 -0.22685864444E-01 -0.38137340381E-02 -0.19095577558E-01  0.29901424985E-01  0.51100000000E-03 0.  1.
</event>
<event>
 7    1  0.1104109E+005  0.1043930E+01  0.7957747E-01            NaN
         13   -1    0    0    0    0  0.00000000000E+00  0.00000000000E+00  0.74505805969E-08  0.10566000000E+00  0.10566000000E+00 0.  1.
     999900   -1    0    0    0    0 -0.00000000000E+00 -0.00000000000E+00 -0.74505805969E-08  0.93827000000E+00  0.93827000000E+00 0. -1.
     999903    2    1    2    0    0  0.61049354114E-01 -0.86348323771E-01 -0.32909582260E-01  0.11279684224E+00  0.21378268401E-01 0.  0.
         14    1    1    2    0    0  0.20011535637E-01  0.19438600428E-02  0.38426803158E-01  0.43368875376E-01  0.00000000000E+00 0.  1.
     999901    1    1    2    0    0 -0.81060889752E-01  0.84404463728E-01 -0.55172208974E-02  0.88776428238E+00  0.88000000000E+00 0.  1.
        -11    1    3    3    0    0  0.84234239757E-02 -0.54823594852E-02 -0.87479476748E-02  0.13334093390E-01  0.51100000000E-03 0.  1.
         11    1    3    3    0    0  0.52625930139E-01 -0.80865964286E-01 -0.24161634585E-01  0.99462748854E-01  0.51100000000E-03 0. -1.
</event>
<event>
 8    1  0.1104109E+005  0.1043930E+01  0.7957747E-01            NaN
         13   -1    0    0    0    0  0.00000000000E+00  0.00000000000E+00  0.74505805969E-08  0.10566000000E+00  0.10566000000E+00 0. -1.
     999900   -1    0    0    0    0 -0.00000000000E+00 -0.00000000000E+00 -0.74505805969E-08  0.93827000000E+00  0.93827000000E+00 0.  1.
     999902    2    1    2    0    0 -0.40511051496E-02  0.22188603684E-01  0.10982566181E-01  0.10188429048E+01  0.10185339966E+01 0.  0.
     999903    2    3    3    0    0 -0.59598764403E-03 -0.11938250980E+00 -0.35603964084E-01  0.12630460151E+00  0.20800751352E-01 0.  0.
         14    1    1    2    0    0  0.40511051496E-02 -0.22188603684E-01 -0.10982566181E-01  0.25087095214E-01  0.00000000000E+00 0. -1.
     999901    1    3    3    0    0 -0.34551175055E-02  0.14157111348E+00  0.46586530265E-01  0.89253830327E+00  0.88000000000E+00 0. -1.
        -11    1    4    4    0    0  0.71351566279E-02 -0.49300810214E-01 -0.73976003567E-02  0.50363339443E-01  0.51100000000E-03 0.  1.
         11    1    4    4    0    0 -0.77311442719E-02 -0.70081699587E-01 -0.28206363728E-01  0.75941262068E-01  0.51100000000E-03 0. -1.
</event>
<event>
 8    1  0.1104109E+005  0.1043930E+01  0.7957747E-01            NaN
         13   -1    0    0    0    0  0.00000000000E+00  0.00000000000E+00  0.74505805969E-08  0.10566000000E+00  0.10566000000E+00 0.  1.
     999900   -1    0    0    0    0 -0.00000000000E+00 -0.00000000000E+00 -0.74505805969E-08  0.93827000000E+00  0.93827000000E+00 0.  1.
     999902    2    1    2    0    0  0.21106474639E-01  0.17512740951E-02 -0.10772265350E-01  0.10201688566E+01  0.10198921042E+01 0.  0.
     999903    2    3    3    0    0  0.56647362826E-01  0.91514713069E-01  0.71995734545E-01  0.13102816389E+00  0.20028168081E-01 0.  0.
         14    1    1    2    0    0 -0.21106474639E-01 -0.17512740951E-02  0.10772265350E-01  0.23761143352E-01  0.00000000000E+00 0.  1.
     999901    1    3    3    0    0 -0.35540888187E-01 -0.89763438974E-01 -0.82767999895E-01  0.88914069276E+00  0.88000000000E+00 0. -1.
        -11    1    4    4    0    0  0.23209049705E-01  0.21721406071E-01  0.25391586435E-01  0.40687507329E-01  0.51100000000E-03 0. -1.
         11    1    4    4    0    0  0.33438313121E-01  0.69793306997E-01  0.46604148110E-01  0.90340656562E-01  0.51100000000E-03 0.  1.
</event>
<event>
 8    1  0.1104109E+005  0.1043930E+01  0.7957747E-01            NaN
         13   -1    0    0    0    0  0.00000000000E+00  0.00000000000E+00  0.74505805969E-08  0.10566000000E+00  0.10566000000E+00 0.  1.
     999900   -1    0    0    0    0 -0.00000000000E+00 -0.00000000000E+00 -0.74505805969E-08  0.93827000000E+00  0.93827000000E+00 0. -1.
     999902    2    1    2    0    0  0.74696984728E-02 -0.55881623110E-02 -0.22328326743E-01  0.10197312784E+01  0.10194441142E+01 0.  0.
     999903    2    3    3    0    0  0.80532177582E-01 -0.98268492349E-01  0.21719848101E-01  0.13076108138E+00  0.22013186680E-01 0.  0.
         14    1    1    2    0    0 -0.74696984728E-02  0.55881623110E-02  0.22328326743E-01  0.24198721628E-01  0.00000000000E+00 0.  1.
     999901    1    3    3    0    0 -0.73062479110E-01  0.92680330038E-01 -0.44048174844E-01  0.88897019699E+00  0.88000000000E+00 0. -1.
        -11    1    4    4    0    0  0.50870984569E-01 -0.50783336581E-01  0.38374546117E-02  0.71984661729E-01  0.51100000000E-03 0. -1.
         11    1    4    4    0    0  0.29661193013E-01 -0.47485155768E-01  0.17882393489E-01  0.58776419653E-01  0.51100000000E-03 0.  1.
</event>
<event>
 8    1  0.1104109E+005  0.1043930E+01  0.7957747E-01            NaN
         13   -1    0    0    0    0  0.00000000000E+00  0.00000000000E+00  0.74505805969E-08  0.10566000000E+00  0.10566000000E+00 0.  1.
     999900   -1    0    0    0    0 -0.00000000000E+00 -0.00000000000E+00 -0.74505805969E-08  0.93827000000E+00  0.93827000000E+00 0.  1.
     999902    2    1    2    0    0  0.16686237873E-01 -0.17014346200E-01 -0.46747009633E-02  0.10196447917E+01  0.10193555464E+01 0.  0.
     999903    2    3    3    0    0  0.64049746408E-01  0.19657868809E-01  0.10961438537E+00  0.13023479149E+00  0.21377221827E-01 0.  0.
         14    1    1    2    0    0 -0.16686237873E-01  0.17014346200E-01  0.46747009633E-02  0.24285208256E-01  0.00000000000E+00 0. -1.
     999901    1    3    3    0    0 -0.47363508535E-01 -0.36672215008E-01 -0.11428908634E+00  0.88941000025E+00  0.88000000000E+00 0.  1.
        -11    1    4    4    0    0  0.46824747734E-01  0.64051410163E-02  0.62608534678E-01  0.78445347646E-01  0.51100000000E-03 0. -1.
         11    1    4    4    0    0  0.17224998675E-01  0.13252727792E-01  0.47005850694E-01  0.51789443845E-01  0.51100000000E-03 0.  1.
</event>
<event>
 8    1  0.1104109E+005  0.1043930E+01  0.7957747E-01            NaN
         13   -1    0    0    0    0  0.00000000000E+00  0.00000000000E+00  0.74505805969E-08  0.10566000000E+00  0.10566000000E+00 0. -1.
     999900   -1    0    0    0    0 -0.00000000000E+00 -0.00000000000E+00 -0.74505805969E-08  0.93827000000E+00  0.93827000000E+00 0. -1.
     999902    2    1    2    0    0  0.13200098853E-01  0.19935812032E-01 -0.51009987986E-02  0.10194821085E+01  0.10191889276E+01 0.  0.
     999903    2    3    3    0    0  0.25814509658E-01 -0.94996527079E-01 -0.80464650827E-01  0.12872498896E+00  0.20120479190E-01 0.  0.
         14    1    1    2    0    0 -0.13200098853E-01 -0.19935812032E-01  0.51009987986E-02  0.24447891522E-01  0.00000000000E+00 0.  1.
     999901    1    3    3    0    0 -0.12614410804E-01  0.11493233911E+00  0.75363652029E-01  0.89075711952E+00  0.88000000000E+00 0.  1.
        -11    1    4    4    0    0  0.14494287204E-01 -0.31947736557E-01 -0.18783116655E-01  0.39797095685E-01  0.51100000000E-03 0. -1.
         11    1    4    4    0    0  0.11320222454E-01 -0.63048790522E-01 -0.61681534172E-01  0.88927893270E-01  0.51100000000E-03 0.  1.
</event>
<event>
 8    1  0.1104109E+005  0.1043930E+01  0.7957747E-01            NaN
         13   -1    0    0    0    0  0.00000000000E+00  0.00000000000E+00  0.74505805969E-08  0.10566000000E+00  0.10566000000E+00 0.  1.
     999900   -1    0    0    0    0 -0.00000000000E+00 -0.00000000000E+00 -0.74505805969E-08  0.93827000000E+00  0.93827000000E+00 0. -1.
     999902    2    1    2    0    0 -0.13966182801E-01  0.91971501984E-02  0.15311378818E-01  0.10212566642E+01  0.10210049432E+01 0.  0.
     999903    2    3    3    0    0  0.12132654263E+00 -0.16275883590E-01 -0.35592042820E-01  0.12909964030E+00  0.20368831090E-01 0.  0.
         14    1    1    2    0    0  0.13966182801E-01 -0.91971501984E-02 -0.15311378818E-01  0.22673335774E-01  0.00000000000E+00 0. -1.
     999901    1    3    3    0    0 -0.13529272543E+00  0.25473033788E-01  0.50903421638E-01  0.89215702393E+00  0.88000000000E+00 0. -1.
        -11    1    4    4    0    0  0.91289444032E-01 -0.18797353181E-01 -0.20708954460E-01  0.95478924346E-01  0.51100000000E-03 0.  1.
         11    1    4    4    0    0  0.30037098600E-01  0.25214695915E-02 -0.14883088360E-01  0.33620715955E-01  0.51100000000E-03 0. -1.
</event>
<event>
 8    1  0.1104109E+005  0.1043930E+01  0.7957747E-01            NaN
         13   -1    0    0    0    0  0.00000000000E+00  0.00000000000E+00  0.74505805969E-08  0.10566000000E+00  0.10566000000E+00 0. -1.
     999900   -1    0    0    0    0 -0.00000000000E+00 -0.00000000000E+00 -0.74505805969E-08  0.93827000000E+00  0.93827000000E+00 0.  1.
     999902    2    1    2    0    0 -0.86647624238E-02 -0.20242193691E-01 -0.10212473466E-01  0.10196582236E+01  0.10193693020E+01 0.  0.
     999903    2    3    3    0    0  0.78099032642E-01 -0.94509325550E-01 -0.43645895817E-01  0.13164845076E+00  0.19871558811E-01 0.  0.
         14    1    1    2    0    0  0.86647624238E-02  0.20242193691E-01  0.10212473466E-01  0.24271776358E-01  0.00000000000E+00 0. -1.
     999901    1    3    3    0    0 -0.86763795066E-01  0.74267131859E-01  0.33433422351E-01  0.88800977288E+00  0.88000000000E+00 0.  1.
        -11    1    4    4    0    0  0.61152004236E-01 -0.59955128171E-01 -0.28032586216E-01  0.90112551995E-01  0.51100000000E-03 0. -1.
         11    1    4    4    0    0  0.16947028406E-01 -0.34554197379E-01 -0.15613309601E-01  0.41535898763E-01  0.51100000000E-03 0.  1.
</event>
<event>
 8    1  0.1104109E+005  0.1043930E+01  0.7957747E-01            NaN
         13   -1    0    0    0    0  0.00000000000E+00  0.00000000000E+00  0.74505805969E-08  0.10566000000E+00  0.10566000000E+00 0. -1.
     999900   -1    0    0    0    0 -0.00000000000E+00 -0.00000000000E+00 -0.74505805969E-08  0.93827000000E+00  0.93827000000E+00 0. -1.
     999902    2    1    2    0    0 -0.18864094390E-01  0.41838851044E-02 -0.10530146426E-01  0.10219244794E+01  0.10216875250E+01 0.  0.
     999903    2    3    3    0    0  0.32695834604E-01 -0.10626060561E+00 -0.67648345294E-01  0.13168917321E+00  0.20134691775E-01 0.  0.
         14    1    1    2    0    0  0.18864094390E-01 -0.41838851044E-02  0.10530146426E-01  0.22005520568E-01  0.00000000000E+00 0.  1.
     999901    1    3    3    0    0 -0.51559928994E-01  0.11044449072E+00  0.57118198868E-01  0.89023530623E+00  0.88000000000E+00 0.  1.
        -11    1    4    4    0    0  0.17382835947E-01 -0.76630751795E-01 -0.55441855795E-01  0.96169098994E-01  0.51100000000E-03 0. -1.
         11    1    4    4    0    0  0.15312998657E-01 -0.29629853819E-01 -0.12206489499E-01  0.35520074213E-01  0.51100000000E-03 0.  1.
</event>
<event>
 8    1  0.1104109E+005  0.1043930E+01  0.7957747E-01            NaN
         13   -1    0    0    0    0  0.00000000000E+00  0.00000000000E+00  0.74505805969E-08  0.10566000000E+00  0.10566000000E+00 0.  1.
     999900   -1    0    0    0    0 -0.00000000000E+00 -0.00000000000E+00 -0.74505805969E-08  0.93827000000E+00  0.93827000000E+00 0. -1.
     999902    2    1    2    0    0  0.21546299682E-02  0.13413767387E-01  0.19535600518E-01  0.10201348057E+01  0.10198572500E+01 0.  0.
     999903    2    3    3    0    0  0.14272998238E-01  0.74950137150E-01  0.10767034112E+00  0.13351125976E+00  0.20275911501E-01 0.  0.
         14    1    1    2    0    0 -0.21546299682E-02 -0.13413767387E-01 -0.19535600518E-01  0.23795194334E-01  0.00000000000E+00 0. -1.
     999901    1    3    3    0    0 -0.12118368269E-01 -0.61536369764E-01 -0.88134740606E-01  0.88662354591E+00  0.88000000000E+00 0. -1.
        -11    1    4    4    0    0  0.68991922065E-03  0.44306442213E-02  0.18363283084E-01  0.18909729860E-01  0.51100000000E-03 0.  1.
         11    1    4    4    0    0  0.13583079017E-01  0.70519492929E-01  0.89307058040E-01  0.11460152990E+00  0.51100000000E-03 0. -1.
</event>
<event>
 8    1  0.1104109E+005  0.1043930E+01  0.7957747E-01            NaN
         13   -1    0    0    0    0  0.00000000000E+00  0.00000000000E+00  0.74505805969E-08  0.10566000000E+00  0.10566000000E+00 0. -1.
     999900   -1    0    0    0    0 -0.00000000000E+00 -0.00000000000E+00 -0.74505805969E-08  0.93827000000E+00  0.93827000000E+00 0.  1.
     999902    2    1    2    0    0  0.54648039339E-03  0.12014476027E-01  0.19421290248E-01  0.10210863403E+01  0.10208307800E+01 0.  0.
     999903    2    3    3    0    0 -0.49312420605E-01  0.92750412813E-01 -0.75570606527E-01  0.13090227955E+00  0.19751868735E-01 0.  0.
         14    1    1    2    0    0 -0.54648039339E-03 -0.12014476027E-01 -0.19421290248E-01  0.22843659732E-01  0.00000000000E+00 0.  1.
     999901    1    3    3    0    0  0.49858900999E-01 -0.80735936786E-01  0.94991896775E-01  0.89018406071E+00  0.88000000000E+00 0. -1.
        -11    1    4    4    0    0 -0.13474554180E-01  0.40278197151E-01 -0.38545079158E-01  0.57357484467E-01  0.51100000000E-03 0. -1.
         11    1    4    4    0    0 -0.35837866425E-01  0.52472215662E-01 -0.37025527369E-01  0.73544795086E-01  0.51100000000E-03 0.  1.
</event>
<event>
 8    1  0.1104109E+005  0.1043930E+01  0.7957747E-01            NaN
         13   -1    0    0    0    0  0.00000000000E+00  0.00000000000E+00  0.74505805969E-08  0.10566000000E+00  0.10566000000E+00 0. -1.
     999900   -1    0    0    0    0 -0.00000000000E+00 -0.00000000000E+00 -0.74505805969E-08  0.93827000000E+00  0.93827000000E+00 0. -1.
     999902    2    1    2    0    0 -0.23987386722E-01 -0.65754994176E-02 -0.18590176950E-02  0.10189883108E+01  0.10186830173E+01 0.  0.
     999903    2    3    3    0    0  0.85545078726E-02 -0.12590389118E+00 -0.24171739740E-01  0.13005856240E+00  0.20149124853E-01 0.  0.
         14    1    1    2    0    0  0.23987386722E-01  0.65754994176E-02  0.18590176950E-02  0.24941689220E-01  0.00000000000E+00 0. -1.
     999901    1    3    3    0    0 -0.32541894595E-01  0.11932839177E+00  0.22312722045E-01  0.88892974838E+00  0.88000000000E+00 0.  1.
        -11    1    4    4    0    0  0.13342136548E-01 -0.71180608198E-01 -0.19050100236E-01  0.74885639685E-01  0.51100000000E-03 0.  1.
         11    1    4    4    0    0 -0.47876286751E-02 -0.54723282985E-01 -0.51216395036E-02  0.55172922718E-01  0.51100000000E-03 0. -1.
</event>
<event>
 8    1  0.1104109E+005  0.1043930E+01  0.7957747E-01            NaN
         13   -1    0    0    0    0  0.00000000000E+00  0.00000000000E+00  0.74505805969E-08  0.10566000000E+00  0.10566000000E+00 0.  1.
     999900   -1    0    0    0    0 -0.00000000000E+00 -0.00000000000E+00 -0.74505805969E-08  0.93827000000E+00  0.93827000000E+00 0.  1.
     999902    2    1    2    0    0 -0.84727968748E-02 -0.12725527429E-01  0.17447002813E-01  0.10207324734E+01  0.10204688417E+01 0.  0.
     999903    2    3    3    0    0 -0.11475293466E+00  0.44381020098E-02 -0.59396058121E-01  0.13084769774E+00  0.20131952694E-01 0.  0.
         14    1    1    2    0    0  0.84727968748E-02  0.12725527429E-01 -0.17447002813E-01  0.23197526644E-01  0.00000000000E+00 0. -1.
     999901    1    3    3    0    0  0.10628013779E+00 -0.17163629439E-01  0.76843060935E-01  0.88988477562E+00  0.88000000000E+00 0. -1.
        -11    1    4    4    0    0 -0.21695548915E-01  0.30561039623E-02 -0.32525489780E-02  0.22155739888E-01  0.51100000000E-03 0.  1.
         11    1    4    4    0    0 -0.93057385749E-01  0.13819980475E-02 -0.56143509143E-01  0.10869195785E+00  0.51100000000E-03 0. -1.
</event>
<event>
 8    1  0.1104109E+005  0.1043930E+01  0.7957747E-01            NaN
         13   -1    0    0    0    0  0.00000000000E+00  0.00000000000E+00  0.74505805969E-08  0.10566000000E+00  0.10566000000E+00 0.  1.
     999900   -1    0    0    0    0 -0.00000000000E+00 -0.00000000000E+00 -0.74505805969E-08  0.93827000000E+00  0.93827000000E+00 0. -1.
     999902    2    1    2    0    0  0.51131459933E-02 -0.13299795150E-01  0.20214220012E-01  0.10191985726E+01  0.10188984674E+01 0.  0.
     999903    2    3    3    0    0 -0.23449903676E-01  0.43957802287E-01  0.11983525551E+00  0.13126916602E+00  0.19721032440E-01 0.  0.
         14    1    1    2    0    0 -0.51131459933E-02  0.13299795150E-01 -0.20214220012E-01  0.24731427449E-01  0.00000000000E+00 0. -1.
     999901    1    3    3    0    0  0.28563049670E-01 -0.57257597438E-01 -0.99621035495E-01  0.88792940653E+00  0.88000000000E+00 0. -1.
        -11    1    4    4    0    0 -0.21137194623E-01  0.30686679162E-01  0.66224520051E-01  0.75989482506E-01  0.51100000000E-03 0.  1.
         11    1    4    4    0    0 -0.23127090539E-02  0.13271123125E-01  0.53610735456E-01  0.55279683514E-01  0.51100000000E-03 0. -1.
</event>
<event>
 8    1  0.1104109E+005  0.1043930E+01  0.7957747E-01            NaN
         13   -1    0    0    0    0  0.00000000000E+00  0.00000000000E+00  0.74505805969E-08  0.10566000000E+00  0.10566000000E+00 0.  1.
     999900   -1    0    0    0    0 -0.00000000000E+00 -0.00000000000E+00 -0.74505805969E-08  0.93827000000E+00  0.93827000000E+00 0. -1.
     999902    2    1    2    0    0  0.12566695181E-01 -0.33550593473E-02  0.20052377974E-01  0.10200286169E+01  0.10197485490E+01 0.  0.
     999903    2    3    3    0    0 -0.77422845801E-01  0.10186307711E+00 -0.63867596995E-02  0.12881147069E+00  0.13461825751E-01 0.  0.
         14    1    1    2    0    0 -0.12566695181E-01  0.33550593473E-02 -0.20052377974E-01  0.23901383085E-01  0.00000000000E+00 0. -1.
     999901    1    3    3    0    0  0.89989540981E-01 -0.10521813645E+00  0.26439137673E-01  0.89121714623E+00  0.88000000000E+00 0. -1.
        -11    1    4    4    0    0 -0.38804929063E-01  0.60914999163E-01 -0.65486938507E-02  0.72523142202E-01  0.51100000000E-03 0.  1.
         11    1    4    4    0    0 -0.38617916738E-01  0.40948077942E-01  0.16193415119E-03  0.56288328488E-01  0.51100000000E-03 0. -1.
</event>
<event>
 8    1  0.1104109E+005  0.1043930E+01  0.7957747E-01            NaN
         13   -1    0    0    0    0  0.00000000000E+00  0.00000000000E+00  0.74505805969E-08  0.10566000000E+00  0.10566000000E+00 0.  1.
     999900   -1    0    0    0    0 -0.00000000000E+00 -0.00000000000E+00 -0.74505805969E-08  0.93827000000E+00  0.93827000000E+00 0. -1.
     999902    2    1    2    0    0 -0.13392942751E-01 -0.27352009064E-02  0.19737184434E-01  0.10199214872E+01  0.10196388730E+01 0.  0.
     999903    2    3    3    0    0 -0.21818909241E-01 -0.10384130597E+00  0.76624340633E-01  0.13226750619E+00  0.19087220575E-01 0.  0.
         14    1    1    2    0    0  0.13392942751E-01  0.27352009064E-02 -0.19737184434E-01  0.24008512842E-01  0.00000000000E+00 0. -1.
     999901    1    3    3    0    0  0.84259664900E-02  0.10110610506E+00 -0.56887156199E-01  0.88765398097E+00  0.88000000000E+00 0. -1.
        -11    1    4    4    0    0  0.16768913131E-02 -0.34386867762E-01  0.26514530139E-01  0.43457451242E-01  0.51100000000E-03 0. -1.
         11    1    4    4    0    0 -0.23495800554E-01 -0.69454438209E-01  0.50109810493E-01  0.88810054945E-01  0.51100000000E-03 0.  1.
</event>
<event>
 8    1  0.1104109E+005  0.1043930E+01  0.7957747E-01            NaN
         13   -1    0    0    0    0  0.00000000000E+00  0.00000000000E+00  0.74505805969E-08  0.10566000000E+00  0.10566000000E+00 0.  1.
     999900   -1    0    0    0    0 -0.00000000000E+00 -0.00000000000E+00 -0.74505805969E-08  0.93827000000E+00  0.93827000000E+00 0.  1.
     999902    2    1    2    0    0 -0.10452710799E-01  0.16286744727E-01 -0.13867395704E-01  0.10201219787E+01  0.10198441202E+01 0.  0.
     999903    2    3    3    0    0  0.20235636670E-01  0.12835861043E+00  0.11691674215E-01  0.13211570401E+00  0.20795435510E-01 0.  0.
         14    1    1    2    0    0  0.10452710799E-01 -0.16286744727E-01  0.13867395704E-01  0.23808021347E-01  0.00000000000E+00 0.  1.
     999901    1    3    3    0    0 -0.30688347469E-01 -0.11207186570E+00 -0.25559069918E-01  0.88800627464E+00  0.88000000000E+00 0. -1.
        -11    1    4    4    0    0  0.22297824808E-01  0.10957136938E+00  0.45691903216E-02  0.11191164640E+00  0.51100000000E-03 0.  1.
         11    1    4    4    0    0 -0.20621881381E-02  0.18787241043E-01  0.71224838930E-02  0.20204057606E-01  0.51100000000E-03 0. -1.
</event>
<event>
 8    1  0.1104109E+005  0.1043930E+01  0.7957747E-01            NaN
         13   -1    0    0    0    0  0.00000000000E+00  0.00000000000E+00  0.74505805969E-08  0.10566000000E+00  0.10566000000E+00 0. -1.
     999900   -1    0    0    0    0 -0.00000000000E+00 -0.00000000000E+00 -0.74505805969E-08  0.93827000000E+00  0.93827000000E+00 0. -1.
     999902    2    1    2    0    0  0.21879122629E-01  0.12211440566E-01 -0.15656428872E-02  0.10188248905E+01  0.10185155330E+01 0.  0.
     999903    2    3    3    0    0 -0.10631003477E+00 -0.22705271694E-01 -0.61785586650E-01  0.12681699895E+00  0.21159859430E-01 0.  0.
         14    1    1    2    0    0 -0.21879122629E-01 -0.12211440566E-01  0.15656428872E-02  0.25105109547E-01  0.00000000000E+00 0. -1.
     999901    1    3    3    0    0  0.12818915740E+00  0.34916712260E-01  0.60219943763E-01  0.89200789150E+00  0.88000000000E+00 0.  1.
        -11    1    4    4    0    0 -0.22511104843E-01  0.35692385496E-02 -0.15231386065E-01  0.27417978546E-01  0.51100000000E-03 0. -1.
         11    1    4    4    0    0 -0.83798929924E-01 -0.26274510243E-01 -0.46554200585E-01  0.99399020408E-01  0.51100000000E-03 0.  1.
</event>
<event>
 7    1  0.1552321E+005  0.1043930E+01  0.7957747E-01            NaN
         13   -1    0    0    0    0  0.00000000000E+00  0.00000000000E+00  0.74505805969E-08  0.10566000000E+00  0.10566000000E+00 0. -1.
     999900   -1    0    0    0    0 -0.00000000000E+00 -0.00000000000E+00 -0.74505805969E-08  0.93827000000E+00  0.93827000000E+00 0.  1.
     999903    2    1    2    0    0 -0.28662707721E-01 -0.10389548875E+00  0.23160161494E-01  0.11200931109E+00  0.19846140540E-01 0.  0.
         14    1    1    2    0    0  0.27608830009E-01  0.22015042841E-01 -0.32613805948E-01  0.48068388200E-01  0.00000000000E+00 0.  1.
     999901    1    1    2    0    0  0.10538777126E-02  0.81880445905E-01  0.94536444543E-02  0.88385230071E+00  0.88000000000E+00 0. -1.
        -11    1    3    3    0    0 -0.17401094334E-01 -0.79607300411E-01  0.24809946928E-01  0.85181658532E-01  0.51100000000E-03 0. -1.
         11    1    3    3    0    0 -0.11261613387E-01 -0.24288188336E-01 -0.16497854342E-02  0.26827652556E-01  0.51100000000E-03 0.  1.
</event>
<event>
 8    1  0.1104109E+005  0.1043930E+01  0.7957747E-01            NaN
         13   -1    0    0    0    0  0.00000000000E+00  0.00000000000E+00  0.74505805969E-08  0.10566000000E+00  0.10566000000E+00 0. -1.
     999900   -1    0    0    0    0 -0.00000000000E+00 -0.00000000000E+00 -0.74505805969E-08  0.93827000000E+00  0.93827000000E+00 0. -1.
     999902    2    1    2    0    0 -0.16193954874E-01  0.14754959211E-01 -0.89719014274E-02  0.10202562168E+01  0.10199815194E+01 0.  0.
     999903    2    3    3    0    0 -0.82050589246E-01  0.63726238936E-01 -0.81458870679E-01  0.13347008518E+00  0.19631181832E-01 0.  0.
         14    1    1    2    0    0  0.16193954874E-01 -0.14754959211E-01  0.89719014274E-02  0.23673783200E-01  0.00000000000E+00 0.  1.
     999901    1    3    3    0    0  0.65856634372E-01 -0.48971279725E-01  0.72486969251E-01  0.88678613162E+00  0.88000000000E+00 0.  1.
        -11    1    4    4    0    0 -0.19957082231E-01  0.23463344977E-01 -0.32232012773E-01  0.44586740822E-01  0.51100000000E-03 0.  1.
         11    1    4    4    0    0 -0.62093507015E-01  0.40262893959E-01 -0.49226857905E-01  0.88883344354E-01  0.51100000000E-03 0. -1.
</event>
<event>
 8    1  0.1104109E+005  0.1043930E+01  0.7957747E-01            NaN
         13   -1    0    0    0    0  0.00000000000E+00  0.00000000000E+00  0.74505805969E-08  0.10566000000E+00  0.10566000000E+00 0.  1.
     999900   -1    0    0    0    0 -0.00000000000E+00 -0.00000000000E+00 -0.74505805969E-08  0.93827000000E+00  0.93827000000E+00 0.  1.
     999902    2    1    2    0    0 -0.15408285924E-01 -0.11010388611E-01  0.14752446759E-01  0.10199241962E+01  0.10196416465E+01 0.  0.
     999903    2    3    3    0    0 -0.84442832270E-01 -0.96074685316E-01  0.30588552250E-01  0.13298987763E+00  0.19741097784E-01 0.  0.
         14    1    1    2    0    0  0.15408285924E-01  0.11010388611E-01 -0.14752446759E-01  0.24005803837E-01  0.00000000000E+00 0.  1.
     999901    1    3    3    0    0  0.69034546346E-01  0.85064296705E-01 -0.15836105491E-01  0.88693431854E+00  0.88000000000E+00 0. -1.
        -11    1    4    4    0    0 -0.73431452617E-01 -0.73057249453E-01  0.20776811502E-01  0.10564789136E+00  0.51100000000E-03 0. -1.
         11    1    4    4    0    0 -0.11011379653E-01 -0.23017435863E-01  0.98117407483E-02  0.27341986268E-01  0.51100000000E-03 0.  1.
</event>
<event>
 7    1  0.1104109E+005  0.1043930E+01  0.7957747E-01            NaN
         13   -1    0    0    0    0  0.00000000000E+00  0.00000000000E+00  0.74505805969E-08  0.10566000000E+00  0.10566000000E+00 0.  1.
     999900   -1    0    0    0    0 -0.00000000000E+00 -0.00000000000E+00 -0.74505805969E-08  0.93827000000E+00  0.93827000000E+00 0.  1.
     999903    2    1    2    0    0 -0.86634637092E-01 -0.14920965074E-01  0.65163571842E-01  0.11108129167E+00  0.19093630387E-01 0.  0.
         14    1    1    2    0    0  0.26073391518E-01  0.64671066083E-02  0.36029140291E-01  0.44941563872E-01  0.00000000000E+00 0.  1.
     999901    1    1    2    0    0  0.60561245574E-01  0.84538584655E-02 -0.10119271213E+00  0.88790714446E+00  0.88000000000E+00 0.  1.
        -11    1    3    3    0    0 -0.59533435198E-01 -0.53453356270E-02  0.52920667191E-01  0.79835209378E-01  0.51100000000E-03 0.  1.
         11    1    3    3    0    0 -0.27101201894E-01 -0.95756294468E-02  0.12242904651E-01  0.31246082294E-01  0.51100000000E-03 0. -1.
</event>
<event>
 8    1  0.1104109E+005  0.1043930E+01  0.7957747E-01            NaN
         13   -1    0    0    0    0  0.00000000000E+00  0.00000000000E+00  0.74505805969E-08  0.10566000000E+00  0.10566000000E+00 0. -1.
     999900   -1    0    0    0    0 -0.00000000000E+00 -0.00000000000E+00 -0.74505805969E-08  0.93827000000E+00  0.93827000000E+00 0.  1.
     999902    2    1    2    0    0 -0.20832526016E-01  0.64305239689E-02 -0.96862317549E-02  0.10200727398E+01  0.10197937172E+01 0.  0.
     999903    2    3    3    0    0  0.43884440333E-01 -0.11537045760E+00  0.28251689555E-01  0.12852181544E+00  0.21988917501E-01 0.  0.
         14    1    1    2    0    0  0.20832526016E-01 -0.64305239689E-02  0.96862317549E-02  0.23857260202E-01  0.00000000000E+00 0. -1.
     999901    1    3    3    0    0 -0.64716966349E-01  0.12180098157E+00 -0.37937921309E-01  0.89155092435E+00  0.88000000000E+00 0.  1.
        -11    1    4    4    0    0  0.21630437089E-01 -0.49379757472E-01  0.23209426512E-01  0.58695611903E-01  0.51100000000E-03 0. -1.
         11    1    4    4    0    0  0.22254003243E-01 -0.65990700125E-01  0.50422630428E-02  0.69826203541E-01  0.51100000000E-03 0.  1.
</event>
<event>
 8    1  0.1104109E+005  0.1043930E+01  0.7957747E-01            NaN
         13   -1    0    0    0    0  0.00000000000E+00  0.00000000000E+00  0.74505805969E-08  0.10566000000E+00  0.10566000000E+00 0.  1.
     999900   -1    0    0    0    0 -0.00000000000E+00 -0.00000000000E+00 -0.74505805969E-08  0.93827000000E+00  0.93827000000E+00 0.  1.
     999902    2    1    2    0    0  0.15822080126E-01  0.17221175796E-01  0.15325144908E-02  0.10204937948E+01  0.10202246466E+01 0.  0.
     999903    2    3    3    0    0 -0.30796319748E-01 -0.57068081521E-01  0.11011533959E+00  0.12949300976E+00  0.20925399091E-01 0.  0.
         14    1    1    2    0    0 -0.15822080126E-01 -0.17221175796E-01 -0.15325144908E-02  0.23436205239E-01  0.00000000000E+00 0. -1.
     999901    1    3    3    0    0  0.46618399875E-01  0.74289257317E-01 -0.10858282510E+00  0.89100078500E+00  0.88000000000E+00 0.  1.
        -11    1    4    4    0    0 -0.13434428752E-01 -0.97487724122E-02  0.38380186545E-01  0.41818922507E-01  0.51100000000E-03 0.  1.
         11    1    4    4    0    0 -0.17361890996E-01 -0.47319309109E-01  0.71735153041E-01  0.87674087257E-01  0.51100000000E-03 0. -1.
</event>
<event>
 8    1  0.1104109E+005  0.1043930E+01  0.7957747E-01            NaN
         13   -1    0    0    0    0  0.00000000000E+00  0.00000000000E+00  0.74505805969E-08  0.10566000000E+00  0.10566000000E+00 0.  1.
     999900   -1    0    0    0    0 -0.00000000000E+00 -0.00000000000E+00 -0.74505805969E-08  0.93827000000E+00  0.93827000000E+00 0. -1.
     999902    2    1    2    0    0  0.20430762701E-01  0.46203531021E-02 -0.10551147502E-01  0.10204759931E+01  0.10202064311E+01 0.  0.
     999903    2    3    3    0    0 -0.37958644356E-02 -0.26094218627E-01  0.12486718957E+00  0.12925860074E+00  0.20509851368E-01 0.  0.
         14    1    1    2    0    0 -0.20430762701E-01 -0.46203531021E-02  0.10551147502E-01  0.23454006927E-01  0.00000000000E+00 0.  1.
     999901    1    3    3    0    0  0.24226627136E-01  0.30714571729E-01 -0.13541833707E+00  0.89121739233E+00  0.88000000000E+00 0. -1.
        -11    1    4    4    0    0 -0.66387237249E-02  0.47462340259E-03  0.24029031457E-01  0.24938993441E-01  0.51100000000E-03 0. -1.
         11    1    4    4    0    0  0.28428592893E-02 -0.26568842030E-01  0.10083815811E+00  0.10431960730E+00  0.51100000000E-03 0.  1.
</event>
<event>
 8    1  0.1104109E+005  0.1043930E+01  0.7957747E-01            NaN
         13   -1    0    0    0    0  0.00000000000E+00  0.00000000000E+00  0.74505805969E-08  0.10566000000E+00  0.10566000000E+00 0. -1.
     999900   -1    0    0    0    0 -0.00000000000E+00 -0.00000000000E+00 -0.74505805969E-08  0.93827000000E+00  0.93827000000E+00 0.  1.
     999902    2    1    2    0    0  0.14954280467E-01 -0.18456213363E-01  0.16230557006E-02  0.10201204090E+01  0.10198425134E+01 0.  0.
     999903    2    3    3    0    0  0.12700133044E+00 -0.10129662056E-01  0.30474005590E-01  0.13250773995E+00  0.19942119831E-01 0.  0.
         14    1    1    2    0    0 -0.14954280467E-01  0.18456213363E-01 -0.16230557006E-02  0.23809591046E-01  0.00000000000E+00 0.  1.
     999901    1    3    3    0    0 -0.11204704997E+00 -0.83265513067E-02 -0.28850949889E-01  0.88761266900E+00  0.88000000000E+00 0.  1.
        -11    1    4    4    0    0  0.43194535942E-01 -0.14408206423E-02  0.96540664390E-03  0.43232360915E-01  0.51100000000E-03 0.  1.
         11    1    4    4    0    0  0.83806794498E-01 -0.86888414139E-02  0.29508598946E-01  0.89275379036E-01  0.51100000000E-03 0. -1.
</event>
<event>
 8    1  0.1104109E+005  0.1043930E+01  0.7957747E-01            NaN
         13   -1    0    0    0    0  0.00000000000E+00  0.00000000000E+00  0.74505805969E-08  0.10566000000E+00  0.10566000000E+00 0. -1.
     999900   -1    0    0    0    0 -0.00000000000E+00 -0.00000000000E+00 -0.74505805969E-08  0.93827000000E+00  0.93827000000E+00 0. -1.
     999902    2    1    2    0    0  0.79084262384E-03  0.22795043949E-01 -0.39401431211E-02  0.10207834195E+01  0.10205209578E+01 0.  0.
     999903    2    3    3    0    0  0.98926109987E-02  0.11095360495E+00 -0.71256123771E-01  0.13377371532E+00  0.20233772067E-01 0.  0.
         14    1    1    2    0    0 -0.79084262384E-03 -0.22795043949E-01  0.39401431211E-02  0.23146580493E-01  0.00000000000E+00 0. -1.
     999901    1    3    3    0    0 -0.91017683748E-02 -0.88158561004E-01  0.67315980650E-01  0.88700970418E+00  0.88000000000E+00 0.  1.
        -11    1    4    4    0    0  0.10054364513E-01  0.81743182025E-01 -0.62127149879E-01  0.10316531358E+00  0.51100000000E-03 0.  1.
         11    1    4    4    0    0 -0.16175351467E-03  0.29210422928E-01 -0.91289738916E-02  0.30608401741E-01  0.51100000000E-03 0. -1.
</event>
<event>
 8    1  0.1104109E+005  0.1043930E+01  0.7957747E-01            NaN
         13   -1    0    0    0    0  0.00000000000E+00  0.00000000000E+00  0.74505805969E-08  0.10566000000E+00  0.10566000000E+00 0.  1.
     999900   -1    0    0    0    0 -0.00000000000E+00 -0.00000000000E+00 -0.74505805969E-08  0.93827000000E+00  0.93827000000E+00 0. -1.
     999902    2    1    2    0    0 -0.38551965622E-02 -0.11175385737E-01 -0.20205563189E-01  0.10205202462E+01  0.10202517123E+01 0.  0.
     999903    2    3    3    0    0  0.31680062899E-01  0.97419959412E-01 -0.79304935783E-01  0.13116742566E+00  0.20526710330E-01 0.  0.
         14    1    1    2    0    0  0.38551965622E-02  0.11175385737E-01  0.20205563189E-01  0.23409753751E-01  0.00000000000E+00 0.  1.
     999901    1    3    3    0    0 -0.35535259461E-01 -0.10859534515E+00  0.59099372594E-01  0.88935282059E+00  0.88000000000E+00 0.  1.
        -11    1    4    4    0    0  0.30062636776E-02  0.36446434828E-01 -0.21756546090E-01  0.42555712328E-01  0.51100000000E-03 0.  1.
         11    1    4    4    0    0  0.28673799221E-01  0.60973524585E-01 -0.57548389693E-01  0.88611713330E-01  0.51100000000E-03 0. -1.
</event>
<event>
 8    1  0.1104109E+005  0.1043930E+01  0.7957747E-01            NaN
         13   -1    0    0    0    0  0.00000000000E+00  0.00000000000E+00  0.74505805969E-08  0.10566000000E+00  0.10566000000E+00 0.  1.
     999900   -1    0    0    0    0 -0.00000000000E+00 -0.00000000000E+00 -0.74505805969E-08  0.93827000000E+00  0.93827000000E+00 0.  1.
     999902    2    1    2    0    0 -0.10310486521E-02  0.13391433757E-01  0.18794221118E-01  0.10208298635E+01  0.10205684660E+01 0.  0.
     999903    2    3    3    0    0 -0.24667416272E-01  0.49694622629E-01  0.12021825157E+00  0.13394574854E+00  0.20273100327E-01 0.  0.
         14    1    1    2    0    0  0.10310486521E-02 -0.13391433757E-01 -0.18794221118E-01  0.23100136511E-01  0.00000000000E+00 0. -1.
     999901    1    3    3    0    0  0.23636367620E-01 -0.36303188872E-01 -0.10142403045E+00  0.88688411495E+00  0.88000000000E+00 0.  1.
        -11    1    4    4    0    0 -0.17460890174E-01  0.14840360233E-01  0.56251983092E-01  0.60742618484E-01  0.51100000000E-03 0.  1.
         11    1    4    4    0    0 -0.72065260983E-02  0.34854262397E-01  0.63966268479E-01  0.73203130055E-01  0.51100000000E-03 0. -1.
</event>
<event>
 8    1  0.1104109E+005  0.1043930E+01  0.7957747E-01            NaN
         13   -1    0    0    0    0  0.00000000000E+00  0.00000000000E+00  0.74505805969E-08  0.10566000000E+00  0.10566000000E+00 0.  1.
     999900   -1    0    0    0    0 -0.00000000000E+00 -0.00000000000E+00 -0.74505805969E-08  0.93827000000E+00  0.93827000000E+00 0.  1.
     999902    2    1    2    0    0 -0.13341215021E-01 -0.63596302850E-02  0.18398886397E-01  0.10203301708E+01  0.10200572070E+01 0.  0.
     999903    2    3    3    0    0 -0.64411024887E-01 -0.57400837897E-01  0.99976819129E-01  0.13361246522E+00  0.20329539617E-01 0.  0.
         14    1    1    2    0    0  0.13341215021E-01  0.63596302850E-02 -0.18398886397E-01  0.23599829157E-01  0.00000000000E+00 0. -1.
     999901    1    3    3    0    0  0.51069809866E-01  0.51041207612E-01 -0.81577932732E-01  0.88671770562E+00  0.88000000000E+00 0.  1.
        -11    1    4    4    0    0 -0.27643451385E-01 -0.20445527498E-01  0.54449561761E-01  0.64398725889E-01  0.51100000000E-03 0. -1.
         11    1    4    4    0    0 -0.36767573502E-01 -0.36955310399E-01  0.45527257369E-01  0.69213739332E-01  0.51100000000E-03 0.  1.
</event>
<event>
 8    1  0.1104109E+005  0.1043930E+01  0.7957747E-01            NaN
         13   -1    0    0    0    0  0.00000000000E+00  0.00000000000E+00  0.74505805969E-08  0.10566000000E+00  0.10566000000E+00 0.  1.
     999900   -1    0    0    0    0 -0.00000000000E+00 -0.00000000000E+00 -0.74505805969E-08  0.93827000000E+00  0.93827000000E+00 0.  1.
     999902    2    1    2    0    0 -0.42198121612E-03  0.89349432788E-02 -0.22421787488E-01  0.10197898295E+01  0.10195040698E+01 0.  0.
     999903    2    3    3    0    0 -0.84357271416E-01 -0.74658211362E-01 -0.63451532227E-01  0.13090491655E+00  0.20493961811E-01 0.  0.
         14    1    1    2    0    0  0.42198121612E-03 -0.89349432788E-02  0.22421787488E-01  0.24140170540E-01  0.00000000000E+00 0.  1.
     999901    1    3    3    0    0  0.83935290200E-01  0.83593154641E-01  0.41029744738E-01  0.88888491291E+00  0.88000000000E+00 0. -1.
        -11    1    4    4    0    0 -0.58596080615E-01 -0.60396254101E-01 -0.39578827511E-01  0.92994370157E-01  0.51100000000E-03 0. -1.
         11    1    4    4    0    0 -0.25761190801E-01 -0.14261957262E-01 -0.23872704715E-01  0.37910546394E-01  0.51100000000E-03 0.  1.
</event>
<event>
 8    1  0.1104109E+005  0.1043930E+01  0.7957747E-01            NaN
         13   -1    0    0    0    0  0.00000000000E+00  0.00000000000E+00  0.74505805969E-08  0.10566000000E+00  0.10566000000E+00 0. -1.
     999900   -1    0    0    0    0 -0.00000000000E+00 -0.00000000000E+00 -0.74505805969E-08  0.93827000000E+00  0.93827000000E+00 0. -1.
     999902    2    1    2    0    0 -0.60249266357E-02  0.20763881853E-01 -0.12081314552E-01  0.10191631534E+01  0.10188621774E+01 0.  0.
     999903    2    3    3    0    0 -0.72131717542E-01  0.24862316407E-01  0.10239584821E+00  0.12928005669E+00  0.20181770835E-01 0.  0.
         14    1    1    2    0    0  0.60249266357E-02 -0.20763881853E-01  0.12081314552E-01  0.24766846628E-01  0.00000000000E+00 0. -1.
     999901    1    3    3    0    0  0.66106790907E-01 -0.40984345536E-02 -0.11447716276E+00  0.88988309668E+00  0.88000000000E+00 0. -1.
        -11    1    4    4    0    0 -0.27221854858E-01  0.45410215413E-02  0.23508855480E-01  0.36257105035E-01  0.51100000000E-03 0.  1.
         11    1    4    4    0    0 -0.44909862684E-01  0.20321294866E-01  0.78886992730E-01  0.93022951654E-01  0.51100000000E-03 0. -1.
</event>
<event>
 8    1  0.1104109E+005  0.1043930E+01  0.7957747E-01            NaN
         13   -1    0    0    0    0  0.00000000000E+00  0.00000000000E+00  0.74505805969E-08  0.10566000000E+00  0.10566000000E+00 0.  1.
     999900   -1    0    0    0    0 -0.00000000000E+00 -0.00000000000E+00 -0.74505805969E-08  0.93827000000E+00  0.93827000000E+00 0.  1.
     999902    2    1    2    0    0 -0.10248903713E-01  0.19866060417E-01 -0.84011948048E-02  0.10200494544E+01  0.10197698804E+01 0.  0.
     999903    2    3    3    0    0 -0.10685640746E-01  0.11144692232E+00 -0.69295319127E-01  0.13320372972E+00  0.20169108751E-01 0.  0.
         14    1    1    2    0    0  0.10248903713E-01 -0.19866060417E-01  0.84011948048E-02  0.23880545596E-01  0.00000000000E+00 0.  1.
     999901    1    3    3    0    0  0.43673703291E-03 -0.91580861899E-01  0.60894124322E-01  0.88684572468E+00  0.88000000000E+00 0.  1.
        -11    1    4    4    0    0 -0.72857518082E-02  0.32357386432E-01 -0.30425329892E-01  0.45011603573E-01  0.51100000000E-03 0.  1.
         11    1    4    4    0    0 -0.33998889374E-02  0.79089535884E-01 -0.38869989235E-01  0.88192126152E-01  0.51100000000E-03 0. -1.
</event>
<event>
 8    1  0.1104109E+005  0.1043930E+01  0.7957747E-01            NaN
         13   -1    0    0    0    0  0.00000000000E+00  0.00000000000E+00  0.74505805969E-08  0.10566000000E+00  0.10566000000E+00 0.  1.
     999900   -1    0    0    0    0 -0.00000000000E+00 -0.00000000000E+00 -0.74505805969E-08  0.93827000000E+00  0.93827000000E+00 0. -1.
     999902    2    1    2    0    0  0.67062002221E-02 -0.22583825173E-01 -0.81402134283E-02  0.10190048048E+01  0.10186999199E+01 0.  0.
     999903    2    3    3    0    0  0.89351310031E-01 -0.44972078516E-01  0.81204791627E-01  0.13034627759E+00  0.19743086084E-01 0.  0.
         14    1    1    2    0    0 -0.67062002221E-02  0.22583825173E-01  0.81402134283E-02  0.24925195195E-01  0.00000000000E+00 0.  1.
     999901    1    3    3    0    0 -0.82645109808E-01  0.22388253343E-01 -0.89345005055E-01  0.88865852721E+00  0.88000000000E+00 0. -1.
        -11    1    4    4    0    0  0.66897509536E-01 -0.42685629300E-01  0.61954528358E-01  0.10067752697E+00  0.51100000000E-03 0. -1.
         11    1    4    4    0    0  0.22453800495E-01 -0.22864492158E-02  0.19250263269E-01  0.29668750624E-01  0.51100000000E-03 0.  1.
</event>
<event>
 8    1  0.1104109E+005  0.1043930E+01  0.7957747E-01            NaN
         13   -1    0    0    0    0  0.00000000000E+00  0.00000000000E+00  0.74505805969E-08  0.10566000000E+00  0.10566000000E+00 0. -1.
     999900   -1    0    0    0    0 -0.00000000000E+00 -0.00000000000E+00 -0.74505805969E-08  0.93827000000E+00  0.93827000000E+00 0.  1.
     999902    2    1    2    0    0  0.15984080038E-01  0.14719234860E-01 -0.11790573546E-01  0.10192082623E+01  0.10189083951E+01 0.  0.
     999903    2    3    3    0    0 -0.10995111021E+00  0.50307018218E-01 -0.42390384088E-01  0.12900462782E+00  0.15006885626E-01 0.  0.
         14    1    1    2    0    0 -0.15984080038E-01 -0.14719234860E-01  0.11790573546E-01  0.24721737683E-01  0.00000000000E+00 0. -1.
     999901    1    3    3    0    0  0.12593519025E+00 -0.35587783358E-01  0.30599810541E-01  0.89020363450E+00  0.88000000000E+00 0.  1.
        -11    1    4    4    0    0 -0.51260351462E-01  0.30193199719E-01 -0.16203981037E-01  0.61661033593E-01  0.51100000000E-03 0. -1.
         11    1    4    4    0    0 -0.58690758752E-01  0.20113818499E-01 -0.26186403051E-01  0.67343594226E-01  0.51100000000E-03 0.  1.
</event>
<event>
 8    1  0.1104109E+005  0.1043930E+01  0.7957747E-01            NaN
         13   -1    0    0    0    0  0.00000000000E+00  0.00000000000E+00  0.74505805969E-08  0.10566000000E+00  0.10566000000E+00 0. -1.
     999900   -1    0    0    0    0 -0.00000000000E+00 -0.00000000000E+00 -0.74505805969E-08  0.93827000000E+00  0.93827000000E+00 0. -1.
     999902    2    1    2    0    0  0.11732709012E-01  0.11259115331E-02 -0.22573932710E-03  0.10321412301E+01  0.10320739042E+01 0.  0.
     999903    2    3    3    0    0  0.78152122680E-02  0.13595228559E+00 -0.32011010796E-01  0.14129679845E+00  0.19899219559E-01 0.  0.
         14    1    1    2    0    0 -0.11732709012E-01 -0.11259115331E-02  0.22573932710E-03  0.11788769901E-01  0.00000000000E+00 0.  1.
     999901    1    3    3    0    0  0.39174967436E-02 -0.13482637406E+00  0.31785271469E-01  0.89084443165E+00  0.88000000000E+00 0.  1.
        -11    1    4    4    0    0 -0.30910347292E-02  0.99515197893E-01 -0.22063029843E-01  0.10197974071E+00  0.51100000000E-03 0.  1.
         11    1    4    4    0    0  0.10906246997E-01  0.36437087698E-01 -0.99479809531E-02  0.39317057742E-01  0.51100000000E-03 0. -1.
</event>
<event>
 8    1  0.1104109E+005  0.1043930E+01  0.7957747E-01            NaN
         13   -1    0    0    0    0  0.00000000000E+00  0.00000000000E+00  0.74505805969E-08  0.10566000000E+00  0.10566000000E+00 0. -1.
     999900   -1    0    0    0    0 -0.00000000000E+00 -0.00000000000E+00 -0.74505805969E-08  0.93827000000E+00  0.93827000000E+00 0. -1.
     999902    2    1    2    0    0 -0.20408912886E-01  0.10718847033E-01 -0.44651308453E-02  0.10204490545E+01  0.10201788657E+01 0.  0.
     999903    2    3    3    0    0 -0.55775054218E-01  0.11439146155E+00 -0.33774110202E-01  0.13317356674E+00  0.19956082007E-01 0.  0.
         14    1    1    2    0    0  0.20408912886E-01 -0.10718847033E-01  0.44651308453E-02  0.23480945474E-01  0.00000000000E+00 0.  1.
     999901    1    3    3    0    0  0.35366141333E-01 -0.10367261452E+00  0.29308979357E-01  0.88727548779E+00  0.88000000000E+00 0.  1.
        -11    1    4    4    0    0 -0.38572663344E-01  0.63661155291E-01 -0.12235938516E-01  0.75435882462E-01  0.51100000000E-03 0.  1.
         11    1    4    4    0    0 -0.17202390874E-01  0.50730306263E-01 -0.21538171686E-01  0.57737684279E-01  0.51100000000E-03 0. -1.
</event>
<event>
 8    1  0.1104109E+005  0.1043930E+01  0.7957747E-01            NaN
         13   -1    0    0    0    0  0.00000000000E+00  0.00000000000E+00  0.74505805969E-08  0.10566000000E+00  0.10566000000E+00 0.  1.
     999900   -1    0    0    0    0 -0.00000000000E+00 -0.00000000000E+00 -0.74505805969E-08  0.93827000000E+00  0.93827000000E+00 0.  1.
     999902    2    1    2    0    0 -0.16178048989E-01  0.11814505195E-01 -0.13229231828E-01  0.10199232431E+01  0.10196406707E+01 0.  0.
     999903    2    3    3    0    0  0.87838744668E-01  0.34410607695E-01 -0.87922719062E-01  0.13036762694E+00  0.19120110860E-01 0.  0.
         14    1    1    2    0    0  0.16178048989E-01 -0.11814505195E-01  0.13229231828E-01  0.24006756900E-01  0.00000000000E+00 0. -1.
     999901    1    3    3    0    0 -0.10401679366E+00 -0.22596102500E-01  0.74693487235E-01  0.88955561616E+00  0.88000000000E+00 0. -1.
        -11    1    4    4    0    0  0.26622937747E-01  0.12060353297E-01 -0.39676675865E-01  0.49282173903E-01  0.51100000000E-03 0.  1.
         11    1    4    4    0    0  0.61215806921E-01  0.22350254398E-01 -0.48246043197E-01  0.81085453034E-01  0.51100000000E-03 0. -1.
</event>
<event>
 8    1  0.1104109E+005  0.1043930E+01  0.7957747E-01            NaN
         13   -1    0    0    0    0  0.00000000000E+00  0.00000000000E+00  0.74505805969E-08  0.10566000000E+00  0.10566000000E+00 0.  1.
     999900   -1    0    0    0    0 -0.00000000000E+00 -0.00000000000E+00 -0.74505805969E-08  0.93827000000E+00  0.93827000000E+00 0. -1.
     999902    2    1    2    0    0 -0.11646766768E-01  0.13206511387E-01  0.16649001442E-01  0.10196967920E+01  0.10194087989E+01 0.  0.
     999903    2    3    3    0    0 -0.66655496514E-01  0.82224234614E-01  0.78249953442E-01  0.13313935805E+00  0.19981328164E-01 0.  0.
         14    1    1    2    0    0  0.11646766768E-01 -0.13206511387E-01 -0.16649001442E-01  0.24233207963E-01  0.00000000000E+00 0.  1.
     999901    1    3    3    0    0  0.55008729746E-01 -0.69017723227E-01 -0.61600952001E-01  0.88655743399E+00  0.88000000000E+00 0. -1.
        -11    1    4    4    0    0 -0.93058111175E-02  0.58564533498E-02  0.14934632769E-01  0.18552642490E-01  0.51100000000E-03 0.  1.
         11    1    4    4    0    0 -0.57349685397E-01  0.76367781265E-01  0.63315320673E-01  0.11458671556E+00  0.51100000000E-03 0. -1.
</event>
<event>
 8    1  0.1104109E+005  0.1043930E+01  0.7957747E-01            NaN
         13   -1    0    0    0    0  0.00000000000E+00  0.00000000000E+00  0.74505805969E-08  0.10566000000E+00  0.10566000000E+00 0. -1.
     999900   -1    0    0    0    0 -0.00000000000E+00 -0.00000000000E+00 -0.74505805969E-08  0.93827000000E+00  0.93827000000E+00 0. -1.
     999902    2    1    2    0    0 -0.16157719717E-01 -0.37883436269E-02 -0.16297215870E-01  0.10206701054E+01  0.10204050378E+01 0.  0.
     999903    2    3    3    0    0  0.89003467374E-01 -0.90654181787E-01 -0.26415698282E-01  0.13010459244E+00  0.94666772020E-02 0.  0.
         14    1    1    2    0    0  0.16157719717E-01  0.37883436269E-02  0.16297215870E-01  0.23259894647E-01  0.00000000000E+00 0. -1.
     999901    1    3    3    0    0 -0.10516118709E+00  0.86865838161E-01  0.10118482413E-01  0.89056551292E+00  0.88000000000E+00 0. -1.
        -11    1    4    4    0    0  0.13415110015E-01 -0.13313786447E-01 -0.73815162102E-02  0.20297043844E-01  0.51100000000E-03 0.  1.
         11    1    4    4    0    0  0.75588357359E-01 -0.77340395341E-01 -0.19034182072E-01  0.10980754859E+00  0.51100000000E-03 0. -1.
</event>
<event>
 8    1  0.1104109E+005  0.1043930E+01  0.7957747E-01            NaN
         13   -1    0    0    0    0  0.00000000000E+00  0.00000000000E+00  0.74505805969E-08  0.10566000000E+00  0.10566000000E+00 0.  1.
     999900   -1    0    0    0    0 -0.00000000000E+00 -0.00000000000E+00 -0.74505805969E-08  0.93827000000E+00  0.93827000000E+00 0.  1.
     999902    2    1    2    0    0 -0.14634088643E-01  0.18492597184E-01  0.43067213017E-02  0.10199575043E+01  0.10196757475E+01 0.  0.
     999903    2    3    3    0    0  0.10657949222E+00  0.97775483563E-02 -0.68415710900E-01  0.12863419798E+00  0.20279516241E-01 0.  0.
         14    1    1    2    0    0  0.14634088643E-01 -0.18492597184E-01 -0.43067213017E-02  0.23972495686E-01  0.00000000000E+00 0.  1.
     999901    1    3    3    0    0 -0.12121358086E+00  0.87150488282E-02  0.72722432202E-01  0.89132330633E+00  0.88000000000E+00 0. -1.
        -11    1    4    4    0    0  0.21265127943E-01  0.41401097035E-02 -0.23814692791E-01  0.32198554137E-01  0.51100000000E-03 0.  1.
         11    1    4    4    0    0  0.85314364278E-01  0.56374386528E-02 -0.44601018109E-01  0.96435643847E-01  0.51100000000E-03 0. -1.
</event>
<event>
 8    1  0.1104109E+005  0.1043930E+01  0.7957747E-01            NaN
         13   -1    0    0    0    0  0.00000000000E+00  0.00000000000E+00  0.74505805969E-08  0.10566000000E+00  0.10566000000E+00 0.  1.
     999900   -1    0    0    0    0 -0.00000000000E+00 -0.00000000000E+00 -0.74505805969E-08  0.93827000000E+00  0.93827000000E+00 0. -1.
     999902    2    1    2    0    0  0.31912748059E-03  0.90735203778E-03  0.22847329584E-01  0.10210624335E+01  0.10208063320E+01 0.  0.
     999903    2    3    3    0    0  0.12278187831E+00  0.40718997235E-01  0.14498380200E-01  0.13165150628E+00  0.19710142097E-01 0.  0.
         14    1    1    2    0    0 -0.31912748059E-03 -0.90735203778E-03 -0.22847329584E-01  0.22867566534E-01  0.00000000000E+00 0. -1.
     999901    1    3    3    0    0 -0.12246275083E+00 -0.39811645197E-01  0.83489493844E-02  0.88941092718E+00  0.88000000000E+00 0.  1.
        -11    1    4    4    0    0  0.52203366503E-01  0.24838356884E-01  0.13169326234E-01  0.59294415600E-01  0.51100000000E-03 0.  1.
         11    1    4    4    0    0  0.70578511807E-01  0.15880640350E-01  0.13290539658E-02  0.72357090684E-01  0.51100000000E-03 0. -1.
</event>
<event>
 8    1  0.1104109E+005  0.1043930E+01  0.7957747E-01            NaN
         13   -1    0    0    0    0  0.00000000000E+00  0.00000000000E+00  0.74505805969E-08  0.10566000000E+00  0.10566000000E+00 0. -1.
     999900   -1    0    0    0    0 -0.00000000000E+00 -0.00000000000E+00 -0.74505805969E-08  0.93827000000E+00  0.93827000000E+00 0.  1.
     999902    2    1    2    0    0 -0.10201292744E-01  0.18803666148E-01  0.64595043783E-02  0.10215834246E+01  0.10213389859E+01 0.  0.
     999903    2    3    3    0    0  0.98562787207E-01  0.85262420017E-01 -0.89812695132E-02  0.13226637849E+00  0.20722653945E-01 0.  0.
         14    1    1    2    0    0  0.10201292744E-01 -0.18803666148E-01 -0.64595043783E-02  0.22346575377E-01  0.00000000000E+00 0.  1.
     999901    1    3    3    0    0 -0.10876407995E+00 -0.66458753869E-01  0.15440773891E-01  0.88931704614E+00  0.88000000000E+00 0. -1.
        -11    1    4    4    0    0  0.40427222600E-01  0.44250671702E-01 -0.11683512738E-01  0.61067568022E-01  0.51100000000E-03 0. -1.
         11    1    4    4    0    0  0.58135564606E-01  0.41011748315E-01  0.27022432244E-02  0.71198810463E-01  0.51100000000E-03 0.  1.
</event>
<event>
 8    1  0.1104109E+005  0.1043930E+01  0.7957747E-01            NaN
         13   -1    0    0    0    0  0.00000000000E+00  0.00000000000E+00  0.74505805969E-08  0.10566000000E+00  0.10566000000E+00 0. -1.
     999900   -1    0    0    0    0 -0.00000000000E+00 -0.00000000000E+00 -0.74505805969E-08  0.93827000000E+00  0.93827000000E+00 0.  1.
     999902    2    1    2    0    0  0.24440347652E-01  0.71030246006E-02  0.70373168936E-02  0.10175234216E+01  0.10171807146E+01 0.  0.
     999903    2    3    3    0    0 -0.34306136153E-01 -0.66813427444E-01 -0.99487045491E-01  0.12608512819E+00  0.18943132404E-01 0.  0.
         14    1    1    2    0    0 -0.24440347652E-01 -0.71030246006E-02 -0.70373168936E-02  0.26406578364E-01  0.00000000000E+00 0. -1.
     999901    1    3    3    0    0  0.58746483805E-01  0.73916452044E-01  0.10652436239E+00  0.89143829345E+00  0.88000000000E+00 0. -1.
        -11    1    4    4    0    0 -0.36557839737E-01 -0.63542548812E-01 -0.95886681766E-01  0.12070065458E+00  0.51100000000E-03 0. -1.
         11    1    4    4    0    0  0.22517035838E-02 -0.32708786317E-02 -0.36003637252E-02  0.53844736053E-02  0.51100000000E-03 0.  1.
</event>
<event>
 8    1  0.1104109E+005  0.1043930E+01  0.7957747E-01            NaN
         13   -1    0    0    0    0  0.00000000000E+00  0.00000000000E+00  0.74505805969E-08  0.10566000000E+00  0.10566000000E+00 0. -1.
     999900   -1    0    0    0    0 -0.00000000000E+00 -0.00000000000E+00 -0.74505805969E-08  0.93827000000E+00  0.93827000000E+00 0.  1.
     999902    2    1    2    0    0 -0.57245895050E-02 -0.10334342998E-01  0.20536149887E-01  0.10202381655E+01  0.10199630441E+01 0.  0.
     999903    2    3    3    0    0  0.54824643073E-01 -0.11393545007E+00 -0.27402983128E-01  0.13080151264E+00  0.19263539509E-01 0.  0.
         14    1    1    2    0    0  0.57245895050E-02  0.10334342998E-01 -0.20536149887E-01  0.23691834509E-01  0.00000000000E+00 0.  1.
     999901    1    3    3    0    0 -0.60549232578E-01  0.10360110707E+00  0.47939133015E-01  0.88943665285E+00  0.88000000000E+00 0. -1.
        -11    1    4    4    0    0  0.22034287533E-02 -0.71990833238E-02 -0.65338718767E-02  0.99817083545E-02  0.51100000000E-03 0. -1.
         11    1    4    4    0    0  0.52621214320E-01 -0.10673636675E+00 -0.20869111251E-01  0.12081980429E+00  0.51100000000E-03 0.  1.
</event>
<event>
 8    1  0.1104109E+005  0.1043930E+01  0.7957747E-01            NaN
         13   -1    0    0    0    0  0.00000000000E+00  0.00000000000E+00  0.74505805969E-08  0.10566000000E+00  0.10566000000E+00 0.  1.
     999900   -1    0    0    0    0 -0.00000000000E+00 -0.00000000000E+00 -0.74505805969E-08  0.93827000000E+00  0.93827000000E+00 0.  1.
     999902    2    1    2    0    0  0.16115918139E-01 -0.56857429714E-03 -0.17431462517E-01  0.10201833796E+01  0.10199069693E+01 0.  0.
     999903    2    3    3    0    0 -0.62208276939E-01 -0.11516556223E-01 -0.11353827079E+00  0.13142522554E+00  0.19471779231E-01 0.  0.
         14    1    1    2    0    0 -0.16115918139E-01  0.56857429714E-03  0.17431462517E-01  0.23746620384E-01  0.00000000000E+00 0.  1.
     999901    1    3    3    0    0  0.78324195077E-01  0.10947981926E-01  0.96106808275E-01  0.88875815408E+00  0.88000000000E+00 0. -1.
        -11    1    4    4    0    0 -0.59398369943E-01 -0.10431707925E-01 -0.94234112131E-01  0.11188081110E+00  0.51100000000E-03 0.  1.
         11    1    4    4    0    0 -0.28099069958E-02 -0.10848482974E-02 -0.19304158661E-01  0.19544414439E-01  0.51100000000E-03 0. -1.
</event>
<event>
 8    1  0.1104109E+005  0.1043930E+01  0.7957747E-01            NaN
         13   -1    0    0    0    0  0.00000000000E+00  0.00000000000E+00  0.74505805969E-08  0.10566000000E+00  0.10566000000E+00 0.  1.
     999900   -1    0    0    0    0 -0.00000000000E+00 -0.00000000000E+00 -0.74505805969E-08  0.93827000000E+00  0.93827000000E+00 0.  1.
     999902    2    1    2    0    0 -0.31284726098E-02  0.21557056952E-01 -0.82993112576E-02  0.10206196458E+01  0.10203534137E+01 0.  0.
     999903    2    3    3    0    0 -0.63119601326E-01 -0.10974139905E+00  0.12094764964E-01  0.12862517362E+00  0.19258587972E-01 0.  0.
         14    1    1    2    0    0  0.31284726098E-02 -0.21557056952E-01  0.82993112576E-02  0.23310354194E-01  0.00000000000E+00 0. -1.
     999901    1    3    3    0    0  0.59991128716E-01  0.13129845600E+00 -0.20394076222E-01  0.89199447219E+00  0.88000000000E+00 0.  1.
        -11    1    4    4    0    0 -0.33768827547E-01 -0.75305194462E-01  0.11822934163E-01  0.83374150192E-01  0.51100000000E-03 0.  1.
         11    1    4    4    0    0 -0.29350773779E-01 -0.34436204590E-01  0.27183080110E-03  0.45251023424E-01  0.51100000000E-03 0. -1.
</event>
<event>
 8    1  0.1104109E+005  0.1043930E+01  0.7957747E-01            NaN
         13   -1    0    0    0    0  0.00000000000E+00  0.00000000000E+00  0.74505805969E-08  0.10566000000E+00  0.10566000000E+00 0.  1.
     999900   -1    0    0    0    0 -0.00000000000E+00 -0.00000000000E+00 -0.74505805969E-08  0.93827000000E+00  0.93827000000E+00 0. -1.
     999902    2    1    2    0    0  0.20825061128E-01  0.83480231540E-02 -0.70009698117E-02  0.10204271015E+01  0.10201564013E+01 0.  0.
     999903    2    3    3    0    0  0.33645139094E-01  0.26210151778E-01  0.12197356060E+00  0.13075421802E+00  0.20003714690E-01 0.  0.
         14    1    1    2    0    0 -0.20825061128E-01 -0.83480231540E-02  0.70009698117E-02  0.23502898542E-01  0.00000000000E+00 0.  1.
     999901    1    3    3    0    0 -0.12820077966E-01 -0.17862128624E-01 -0.12897453042E+00  0.88967288344E+00  0.88000000000E+00 0. -1.
        -11    1    4    4    0    0  0.88957545752E-02 -0.23504224362E-02  0.20732119191E-01  0.22687900349E-01  0.51100000000E-03 0. -1.
         11    1    4    4    0    0  0.24749384518E-01  0.28560574214E-01  0.10124144141E+00  0.10806631767E+00  0.51100000000E-03 0.  1.
</event>
<event>
 8    1  0.1104109E+005  0.1043930E+01  0.7957747E-01            NaN
         13   -1    0    0    0    0  0.00000000000E+00  0.00000000000E+00  0.74505805969E-08  0.10566000000E+00  0.10566000000E+00 0.  1.
     999900   -1    0    0    0    0 -0.00000000000E+00 -0.00000000000E+00 -0.74505805969E-08  0.93827000000E+00  0.93827000000E+00 0. -1.
     999902    2    1    2    0    0 -0.18717070737E-01 -0.72965017678E-02  0.11216900722E-01  0.10209215986E+01  0.10206622967E+01 0.  0.
     999903    2    3    3    0    0  0.75987456173E-01  0.99094833743E-01 -0.24918050253E-01  0.12873675315E+00  0.18930473159E-01 0.  0.
         14    1    1    2    0    0  0.18717070737E-01  0.72965017678E-02 -0.11216900722E-01  0.23008401440E-01  0.00000000000E+00 0. -1.
     999901    1    3    3    0    0 -0.94704526911E-01 -0.10639133551E+00  0.36134950975E-01  0.89218484541E+00  0.88000000000E+00 0.  1.
        -11    1    4    4    0    0  0.39593225141E-01  0.65032551501E-01 -0.10614738042E-01  0.76875158644E-01  0.51100000000E-03 0.  1.
         11    1    4    4    0    0  0.36394231032E-01  0.34062282242E-01 -0.14303312211E-01  0.51861594510E-01  0.51100000000E-03 0. -1.
</event>
<event>
 8    1  0.1104109E+005  0.1043930E+01  0.7957747E-01            NaN
         13   -1    0    0    0    0  0.00000000000E+00  0.00000000000E+00  0.74505805969E-08  0.10566000000E+00  0.10566000000E+00 0. -1.
     999900   -1    0    0    0    0 -0.00000000000E+00 -0.00000000000E+00 -0.74505805969E-08  0.93827000000E+00  0.93827000000E+00 0. -1.
     999902    2    1    2    0    0 -0.11410918736E-01  0.10767829855E-01  0.14136901197E-01  0.10228111174E+01  0.10225930641E+01 0.  0.
     999903    2    3    3    0    0 -0.95930501819E-01  0.63124822934E-01 -0.65039198829E-01  0.13368026683E+00  0.21281727030E-01 0.  0.
         14    1    1    2    0    0  0.11410918736E-01 -0.10767829855E-01 -0.14136901197E-01  0.21118882585E-01  0.00000000000E+00 0.  1.
     999901    1    3    3    0    0  0.84519583082E-01 -0.52356993080E-01  0.79176100026E-01  0.88913085059E+00  0.88000000000E+00 0. -1.
        -11    1    4    4    0    0 -0.19882283059E-01  0.21819560818E-01 -0.23230012947E-01  0.37567180310E-01  0.51100000000E-03 0. -1.
         11    1    4    4    0    0 -0.76048218759E-01  0.41305262116E-01 -0.41809185882E-01  0.96113086518E-01  0.51100000000E-03 0.  1.
</event>
<event>
 8    1  0.1104109E+005  0.1043930E+01  0.7957747E-01            NaN
         13   -1    0    0    0    0  0.00000000000E+00  0.00000000000E+00  0.74505805969E-08  0.10566000000E+00  0.10566000000E+00 0. -1.
     999900   -1    0    0    0    0 -0.00000000000E+00 -0.00000000000E+00 -0.74505805969E-08  0.93827000000E+00  0.93827000000E+00 0.  1.
     999902    2    1    2    0    0  0.23231243959E-01 -0.24604824497E-02  0.83746355885E-03  0.10205538152E+01  0.10202860598E+01 0.  0.
     999903    2    3    3    0    0  0.77679342094E-01 -0.60460398741E-01 -0.86759627444E-01  0.13263386610E+00  0.19364128680E-01 0.  0.
         14    1    1    2    0    0 -0.23231243959E-01  0.24604824497E-02 -0.83746355885E-03  0.23376184783E-01  0.00000000000E+00 0.  1.
     999901    1    3    3    0    0 -0.54448098135E-01  0.57999916291E-01  0.87597091002E-01  0.88791994911E+00  0.88000000000E+00 0. -1.
        -11    1    4    4    0    0  0.24825834855E-01 -0.87815897727E-02 -0.20766265893E-01  0.33540085202E-01  0.51100000000E-03 0.  1.
         11    1    4    4    0    0  0.52853507239E-01 -0.51678808968E-01 -0.65993361551E-01  0.99093780903E-01  0.51100000000E-03 0. -1.
</event>
<event>
 8    1  0.1104109E+005  0.1043930E+01  0.7957747E-01            NaN
         13   -1    0    0    0    0  0.00000000000E+00  0.00000000000E+00  0.74505805969E-08  0.10566000000E+00  0.10566000000E+00 0.  1.
     999900   -1    0    0    0    0 -0.00000000000E+00 -0.00000000000E+00 -0.74505805969E-08  0.93827000000E+00  0.93827000000E+00 0. -1.
     999902    2    1    2    0    0 -0.67299844118E-02  0.55649561194E-02 -0.21155006195E-01  0.10210434163E+01  0.10207868838E+01 0.  0.
     999903    2    3    3    0    0  0.66445096606E-01  0.14495932319E-01  0.10739616387E+00  0.12865350255E+00  0.19816780439E-01 0.  0.
         14    1    1    2    0    0  0.67299844118E-02 -0.55649561194E-02  0.21155006195E-01  0.22886583710E-01  0.00000000000E+00 0.  1.
     999901    1    3    3    0    0 -0.73175081018E-01 -0.89309761992E-02 -0.12855117007E+00  0.89238991374E+00  0.88000000000E+00 0. -1.
        -11    1    4    4    0    0  0.35227275844E-01  0.12856706186E-01  0.42920165108E-01  0.56996995984E-01  0.51100000000E-03 0.  1.
         11    1    4    4    0    0  0.31217820762E-01  0.16392261327E-02  0.64475998766E-01  0.71656506566E-01  0.51100000000E-03 0. -1.
</event>
<event>
 8    1  0.1104109E+005  0.1043930E+01  0.7957747E-01            NaN
         13   -1    0    0    0    0  0.00000000000E+00  0.00000000000E+00  0.74505805969E-08  0.10566000000E+00  0.10566000000E+00 0.  1.
     999900   -1    0    0    0    0 -0.00000000000E+00 -0.00000000000E+00 -0.74505805969E-08  0.93827000000E+00  0.93827000000E+00 0. -1.
     999902    2    1    2    0    0 -0.32495160439E-02  0.19840919927E-01  0.12992614515E-01  0.10199919656E+01  0.10197110279E+01 0.  0.
     999903    2    3    3    0    0 -0.81890195620E-02 -0.40757989122E-01 -0.11949557617E+00  0.12799995493E+00  0.19404175301E-01 0.  0.
         14    1    1    2    0    0  0.32495160439E-02 -0.19840919927E-01 -0.12992614515E-01  0.23938034380E-01  0.00000000000E+00 0. -1.
     999901    1    3    3    0    0  0.49395035181E-02  0.60598909049E-01  0.13248819068E+00  0.89199201069E+00  0.88000000000E+00 0.  1.
        -11    1    4    4    0    0 -0.32831137676E-02 -0.65269429699E-02 -0.48262731891E-01  0.48815286859E-01  0.51100000000E-03 0.  1.
         11    1    4    4    0    0 -0.49059057944E-02 -0.34231046152E-01 -0.71232844274E-01  0.79184668066E-01  0.51100000000E-03 0. -1.
</event>
<event>
 8    1  0.1104109E+005  0.1043930E+01  0.7957747E-01            NaN
         13   -1    0    0    0    0  0.00000000000E+00  0.00000000000E+00  0.74505805969E-08  0.10566000000E+00  0.10566000000E+00 0.  1.
     999900   -1    0    0    0    0 -0.00000000000E+00 -0.00000000000E+00 -0.74505805969E-08  0.93827000000E+00  0.93827000000E+00 0. -1.
     999902    2    1    2    0    0  0.72109630919E-03  0.23142162577E-01 -0.57110250104E-02  0.10200826631E+01  0.10198038753E+01 0.  0.
     999903    2    3    3    0    0 -0.43755023138E-01  0.11305028022E+00 -0.53032998825E-01  0.13312101570E+00  0.14623199004E-01 0.  0.
         14    1    1    2    0    0 -0.72109630919E-03 -0.23142162577E-01  0.57110250104E-02  0.23847336859E-01  0.00000000000E+00 0. -1.
     999901    1    3    3    0    0  0.44476119447E-01 -0.89908117646E-01  0.47321973814E-01  0.88696164744E+00  0.88000000000E+00 0.  1.
        -11    1    4    4    0    0 -0.16233933807E-01  0.38994992107E-01 -0.26080159933E-01  0.49644595672E-01  0.51100000000E-03 0.  1.
         11    1    4    4    0    0 -0.27521089331E-01  0.74055288116E-01 -0.26952838892E-01  0.83476420031E-01  0.51100000000E-03 0. -1.
</event>
<event>
 8    1  0.1303983E+005  0.1043930E+01  0.7957747E-01            NaN
         13   -1    0    0    0    0  0.00000000000E+00  0.00000000000E+00  0.74505805969E-08  0.10566000000E+00  0.10566000000E+00 0.  1.
     999900   -1    0    0    0    0 -0.00000000000E+00 -0.00000000000E+00 -0.74505805969E-08  0.93827000000E+00  0.93827000000E+00 0.  1.
     999902    2    1    2    0    0 -0.44334234202E-02  0.20354588809E-02 -0.22883837317E-01  0.10205319585E+01  0.10202636963E+01 0.  0.
     999903    2    3    3    0    0 -0.13352829585E-01 -0.23927634195E-02  0.12567096040E+00  0.12802554793E+00  0.20330451578E-01 0.  0.
         14    1    1    2    0    0  0.44334234202E-02 -0.20354588809E-02  0.22883837317E-01  0.23398041509E-01  0.00000000000E+00 0.  1.
     999901    1    3    3    0    0  0.89194061644E-02  0.44282223005E-02 -0.14855479772E+00  0.89250641056E+00  0.88000000000E+00 0.  1.
        -11    1    4    4    0    0 -0.17788044383E-01 -0.37116826394E-03  0.73482813160E-01  0.75607785576E-01  0.51100000000E-03 0.  1.
         11    1    4    4    0    0  0.44352147985E-02 -0.20215951556E-02  0.52188147240E-01  0.52417762359E-01  0.51100000000E-03 0. -1.
</event>
<event>
 8    1  0.1104109E+005  0.1043930E+01  0.7957747E-01            NaN
         13   -1    0    0    0    0  0.00000000000E+00  0.00000000000E+00  0.74505805969E-08  0.10566000000E+00  0.10566000000E+00 0. -1.
     999900   -1    0    0    0    0 -0.00000000000E+00 -0.00000000000E+00 -0.74505805969E-08  0.93827000000E+00  0.93827000000E+00 0.  1.
     999902    2    1    2    0    0 -0.22322632813E-01 -0.10589245710E-02 -0.51109044289E-02  0.10210052841E+01  0.10207478863E+01 0.  0.
     999903    2    3    3    0    0  0.54805684869E-01  0.34163151741E-01  0.11003461024E+00  0.12946287811E+00  0.21959902756E-01 0.  0.
         14    1    1    2    0    0  0.22322632813E-01  0.10589245710E-02  0.51109044289E-02  0.22924715943E-01  0.00000000000E+00 0. -1.
     999901    1    3    3    0    0 -0.77128317683E-01 -0.35222076312E-01 -0.11514551466E+00  0.89154240594E+00  0.88000000000E+00 0.  1.
        -11    1    4    4    0    0  0.11005181707E-01 -0.13936516811E-02  0.25703156818E-01  0.27999458581E-01  0.51100000000E-03 0. -1.
         11    1    4    4    0    0  0.43800503162E-01  0.35556803422E-01  0.84331453417E-01  0.10146341953E+00  0.51100000000E-03 0.  1.
</event>
<event>
 8    1  0.1104109E+005  0.1043930E+01  0.7957747E-01            NaN
         13   -1    0    0    0    0  0.00000000000E+00  0.00000000000E+00  0.74505805969E-08  0.10566000000E+00  0.10566000000E+00 0. -1.
     999900   -1    0    0    0    0 -0.00000000000E+00 -0.00000000000E+00 -0.74505805969E-08  0.93827000000E+00  0.93827000000E+00 0. -1.
     999902    2    1    2    0    0  0.12271381270E-01  0.17994872763E-01  0.69944578020E-02  0.10210537091E+01  0.10207974100E+01 0.  0.
     999903    2    3    3    0    0  0.10405687472E+00 -0.42528571679E-01 -0.65989333821E-01  0.13121423036E+00  0.15035607219E-01 0.  0.
         14    1    1    2    0    0 -0.12271381270E-01 -0.17994872763E-01 -0.69944578020E-02  0.22876290870E-01  0.00000000000E+00 0.  1.
     999901    1    3    3    0    0 -0.91785493455E-01  0.60523444442E-01  0.72983791623E-01  0.88983947877E+00  0.88000000000E+00 0.  1.
        -11    1    4    4    0    0  0.33751902038E-01 -0.11895980751E-01 -0.29024273544E-01  0.46080091417E-01  0.51100000000E-03 0. -1.
         11    1    4    4    0    0  0.70304972687E-01 -0.30632590928E-01 -0.36965060277E-01  0.85134138944E-01  0.51100000000E-03 0.  1.
</event>
<event>
 8    1  0.1104109E+005  0.1043930E+01  0.7957747E-01            NaN
         13   -1    0    0    0    0  0.00000000000E+00  0.00000000000E+00  0.74505805969E-08  0.10566000000E+00  0.10566000000E+00 0.  1.
     999900   -1    0    0    0    0 -0.00000000000E+00 -0.00000000000E+00 -0.74505805969E-08  0.93827000000E+00  0.93827000000E+00 0.  1.
     999902    2    1    2    0    0  0.12946122568E-01  0.91540625120E-02 -0.17370500659E-01  0.10204112151E+01  0.10201401446E+01 0.  0.
     999903    2    3    3    0    0 -0.93796387551E-01  0.75805601917E-01 -0.46467387530E-01  0.13098273568E+00  0.21283969169E-01 0.  0.
         14    1    1    2    0    0 -0.12946122568E-01 -0.91540625120E-02  0.17370500659E-01  0.23518784900E-01  0.00000000000E+00 0.  1.
     999901    1    3    3    0    0  0.10674251012E+00 -0.66651539405E-01  0.29096886871E-01  0.88942847942E+00  0.88000000000E+00 0. -1.
        -11    1    4    4    0    0 -0.59782109436E-01  0.52469415196E-01 -0.40627276275E-01  0.89318401453E-01  0.51100000000E-03 0. -1.
         11    1    4    4    0    0 -0.34014278115E-01  0.23336186722E-01 -0.58401112553E-02  0.41664334231E-01  0.51100000000E-03 0.  1.
</event>
<event>
 8    1  0.1254228E+005  0.1043930E+01  0.7957747E-01            NaN
         13   -1    0    0    0    0  0.00000000000E+00  0.00000000000E+00  0.74505805969E-08  0.10566000000E+00  0.10566000000E+00 0. -1.
     999900   -1    0    0    0    0 -0.00000000000E+00 -0.00000000000E+00 -0.74505805969E-08  0.93827000000E+00  0.93827000000E+00 0.  1.
     999902    2    1    2    0    0 -0.77951948962E-02  0.16573272095E-01  0.14479944505E-01  0.10205824690E+01  0.10203153771E+01 0.  0.
     999903    2    3    3    0    0 -0.10568295252E+00  0.63838012097E-01 -0.42473179667E-01  0.13206706277E+00  0.19838342553E-01 0.  0.
         14    1    1    2    0    0  0.77951948962E-02 -0.16573272095E-01 -0.14479944505E-01  0.23347531010E-01  0.00000000000E+00 0.  1.
     999901    1    3    3    0    0  0.97887757625E-01 -0.47264740002E-01  0.56953124172E-01  0.88851540622E+00  0.88000000000E+00 0.  1.
        -11    1    4    4    0    0 -0.43801910945E-01  0.37346900964E-01 -0.23030528349E-01  0.62000522345E-01  0.51100000000E-03 0.  1.
         11    1    4    4    0    0 -0.61881041577E-01  0.26491111132E-01 -0.19442651318E-01  0.70066540423E-01  0.51100000000E-03 0. -1.
</event>
<event>
 8    1  0.1104109E+005  0.1043930E+01  0.7957747E-01            NaN
         13   -1    0    0    0    0  0.00000000000E+00  0.00000000000E+00  0.74505805969E-08  0.10566000000E+00  0.10566000000E+00 0.  1.
     999900   -1    0    0    0    0 -0.00000000000E+00 -0.00000000000E+00 -0.74505805969E-08  0.93827000000E+00  0.93827000000E+00 0.  1.
     999902    2    1    2    0    0 -0.88656390984E-02 -0.16977389727E-01 -0.13002928651E-01  0.10207803246E+01  0.10205177919E+01 0.  0.
     999903    2    3    3    0    0 -0.76209960715E-01  0.36533787328E-01  0.96482537528E-01  0.12983376556E+00  0.20130844566E-01 0.  0.
         14    1    1    2    0    0  0.88656390984E-02  0.16977389727E-01  0.13002928651E-01  0.23149675420E-01  0.00000000000E+00 0.  1.
     999901    1    3    3    0    0  0.67344321617E-01 -0.53511177055E-01 -0.10948546618E+00  0.89094655902E+00  0.88000000000E+00 0. -1.
        -11    1    4    4    0    0 -0.19516458937E-01  0.13485874904E-01  0.40236942708E-01  0.46712243265E-01  0.51100000000E-03 0.  1.
         11    1    4    4    0    0 -0.56693501779E-01  0.23047912424E-01  0.56245594820E-01  0.83121522295E-01  0.51100000000E-03 0. -1.
</event>
<event>
 8    1  0.1104109E+005  0.1043930E+01  0.7957747E-01            NaN
         13   -1    0    0    0    0  0.00000000000E+00  0.00000000000E+00  0.74505805969E-08  0.10566000000E+00  0.10566000000E+00 0. -1.
     999900   -1    0    0    0    0 -0.00000000000E+00 -0.00000000000E+00 -0.74505805969E-08  0.93827000000E+00  0.93827000000E+00 0.  1.
     999902    2    1    2    0    0  0.12845598051E-01 -0.15713334517E-01 -0.12578279435E-01  0.10200525758E+01  0.10197730758E+01 0.  0.
     999903    2    3    3    0    0 -0.65382708436E-02  0.71312753580E-01 -0.10717403885E+00  0.13050345854E+00  0.20411278224E-01 0.  0.
         14    1    1    2    0    0 -0.12845598051E-01  0.15713334517E-01  0.12578279435E-01  0.23877424159E-01  0.00000000000E+00 0. -1.
     999901    1    3    3    0    0  0.19383868895E-01 -0.87026088097E-01  0.94595759420E-01  0.88954911730E+00  0.88000000000E+00 0. -1.
        -11    1    4    4    0    0  0.70894408527E-02  0.30326857516E-01 -0.48588216817E-01  0.57715287341E-01  0.51100000000E-03 0. -1.
         11    1    4    4    0    0 -0.13627711696E-01  0.40985896064E-01 -0.58585822038E-01  0.72788171203E-01  0.51100000000E-03 0.  1.
</event>
<event>
 8    1  0.1104109E+005  0.1043930E+01  0.7957747E-01            NaN
         13   -1    0    0    0    0  0.00000000000E+00  0.00000000000E+00  0.74505805969E-08  0.10566000000E+00  0.10566000000E+00 0. -1.
     999900   -1    0    0    0    0 -0.00000000000E+00 -0.00000000000E+00 -0.74505805969E-08  0.93827000000E+00  0.93827000000E+00 0. -1.
     999902    2    1    2    0    0  0.91758531325E-02  0.18548784698E-01  0.11242557791E-01  0.10203790170E+01  0.10201071951E+01 0.  0.
     999903    2    3    3    0    0 -0.47727508237E-01  0.67554570916E-01  0.10170907761E+00  0.13255935579E+00  0.19639532743E-01 0.  0.
         14    1    1    2    0    0 -0.91758531325E-02 -0.18548784698E-01 -0.11242557791E-01  0.23550982998E-01  0.00000000000E+00 0. -1.
     999901    1    3    3    0    0  0.56903361369E-01 -0.49005786217E-01 -0.90466519819E-01  0.88781966121E+00  0.88000000000E+00 0. -1.
        -11    1    4    4    0    0 -0.24152532607E-01  0.23247722949E-01  0.29736336646E-01  0.44814197435E-01  0.51100000000E-03 0. -1.
         11    1    4    4    0    0 -0.23574975630E-01  0.44306847967E-01  0.71972740964E-01  0.87745158360E-01  0.51100000000E-03 0.  1.
</event>
<event>
 8    1  0.1104109E+005  0.1043930E+01  0.7957747E-01            NaN
         13   -1    0    0    0    0  0.00000000000E+00  0.00000000000E+00  0.74505805969E-08  0.10566000000E+00  0.10566000000E+00 0.  1.
     999900   -1    0    0    0    0 -0.00000000000E+00 -0.00000000000E+00 -0.74505805969E-08  0.93827000000E+00  0.93827000000E+00 0.  1.
     999902    2    1    2    0    0 -0.19837628546E-01  0.11032810375E-01 -0.78296753402E-02  0.10199183731E+01  0.10196356847E+01 0.  0.
     999903    2    3    3    0    0 -0.10798720432E+00  0.19477463676E-01 -0.72757177665E-01  0.13309412870E+00  0.19489286900E-01 0.  0.
         14    1    1    2    0    0  0.19837628546E-01 -0.11032810375E-01  0.78296753402E-02  0.24011626914E-01  0.00000000000E+00 0.  1.
     999901    1    3    3    0    0  0.88149575774E-01 -0.84446533002E-02  0.64927502325E-01  0.88682424439E+00  0.88000000000E+00 0.  1.
        -11    1    4    4    0    0 -0.75819551233E-01  0.22427936564E-01 -0.53796163694E-01  0.95634225238E-01  0.51100000000E-03 0.  1.
         11    1    4    4    0    0 -0.32167653086E-01 -0.29504728880E-02 -0.18961013971E-01  0.37459903459E-01  0.51100000000E-03 0. -1.
</event>
<event>
 8    1  0.1104109E+005  0.1043930E+01  0.7957747E-01            NaN
         13   -1    0    0    0    0  0.00000000000E+00  0.00000000000E+00  0.74505805969E-08  0.10566000000E+00  0.10566000000E+00 0.  1.
     999900   -1    0    0    0    0 -0.00000000000E+00 -0.00000000000E+00 -0.74505805969E-08  0.93827000000E+00  0.93827000000E+00 0.  1.
     999902    2    1    2    0    0 -0.12454118138E-01 -0.17433327806E-01  0.10913229866E-01  0.10198857790E+01  0.10196023135E+01 0.  0.
     999903    2    3    3    0    0 -0.12946524500E+00 -0.17198227635E-01  0.51231532775E-02  0.13212163011E+00  0.19309317639E-01 0.  0.
         14    1    1    2    0    0  0.12454118138E-01  0.17433327806E-01 -0.10913229866E-01  0.24044220992E-01  0.00000000000E+00 0. -1.
     999901    1    3    3    0    0  0.11701112686E+00 -0.23510017164E-03  0.57900765888E-02  0.88776414890E+00  0.88000000000E+00 0. -1.
        -11    1    4    4    0    0 -0.31408675979E-02 -0.10995874042E-02 -0.30086139397E-02  0.45151988401E-02  0.51100000000E-03 0.  1.
         11    1    4    4    0    0 -0.12632437740E+00 -0.16098640231E-01  0.81317672172E-02  0.12760643127E+00  0.51100000000E-03 0. -1.
</event>
<event>
 8    1  0.1104109E+005  0.1043930E+01  0.7957747E-01            NaN
         13   -1    0    0    0    0  0.00000000000E+00  0.00000000000E+00  0.74505805969E-08  0.10566000000E+00  0.10566000000E+00 0. -1.
     999900   -1    0    0    0    0 -0.00000000000E+00 -0.00000000000E+00 -0.74505805969E-08  0.93827000000E+00  0.93827000000E+00 0. -1.
     999902    2    1    2    0    0  0.15791553079E-01 -0.13308781796E-01 -0.12066147876E-01  0.10200116233E+01  0.10197311522E+01 0.  0.
     999903    2    3    3    0    0 -0.50781677911E-01 -0.66848587109E-01 -0.99387476649E-01  0.13157281259E+00  0.19647444829E-01 0.  0.
         14    1    1    2    0    0 -0.15791553079E-01  0.13308781796E-01  0.12066147876E-01  0.23918376745E-01  0.00000000000E+00 0. -1.
     999901    1    3    3    0    0  0.66573230991E-01  0.53539805313E-01  0.87321328773E-01  0.88843881067E+00  0.88000000000E+00 0.  1.
        -11    1    4    4    0    0 -0.36564366509E-01 -0.32058027409E-01 -0.56275748196E-01  0.74376683010E-01  0.51100000000E-03 0.  1.
         11    1    4    4    0    0 -0.14217311402E-01 -0.34790559700E-01 -0.43111728452E-01  0.57196129580E-01  0.51100000000E-03 0. -1.
</event>
<event>
 8    1  0.1104109E+005  0.1043930E+01  0.7957747E-01            NaN
         13   -1    0    0    0    0  0.00000000000E+00  0.00000000000E+00  0.74505805969E-08  0.10566000000E+00  0.10566000000E+00 0. -1.
     999900   -1    0    0    0    0 -0.00000000000E+00 -0.00000000000E+00 -0.74505805969E-08  0.93827000000E+00  0.93827000000E+00 0.  1.
     999902    2    1    2    0    0  0.15078037777E-01  0.63528164418E-02 -0.17391485792E-01  0.10200517824E+01  0.10197722635E+01 0.  0.
     999903    2    3    3    0    0  0.10827358479E+00 -0.69280015466E-01  0.74244700507E-02  0.13155779424E+00  0.27008161066E-01 0.  0.
         14    1    1    2    0    0 -0.15078037777E-01 -0.63528164418E-02  0.17391485792E-01  0.23878217647E-01  0.00000000000E+00 0. -1.
     999901    1    3    3    0    0 -0.93195547012E-01  0.75632831908E-01 -0.24815955842E-01  0.88849398811E+00  0.88000000000E+00 0. -1.
        -11    1    4    4    0    0  0.39003490569E-01 -0.12500408422E-01 -0.44651158475E-02  0.41203529798E-01  0.51100000000E-03 0.  1.
         11    1    4    4    0    0  0.69270094220E-01 -0.56779607044E-01  0.11889585898E-01  0.90354264444E-01  0.51100000000E-03 0. -1.
</event>
<event>
 8    1  0.1104109E+005  0.1043930E+01  0.7957747E-01            NaN
         13   -1    0    0    0    0  0.00000000000E+00  0.00000000000E+00  0.74505805969E-08  0.10566000000E+00  0.10566000000E+00 0.  1.
     999900   -1    0    0    0    0 -0.00000000000E+00 -0.00000000000E+00 -0.74505805969E-08  0.93827000000E+00  0.93827000000E+00 0.  1.
     999902    2    1    2    0    0  0.19172699169E-01  0.13314963729E-01  0.52868853511E-02  0.10199960950E+01  0.10197152553E+01 0.  0.
     999903    2    3    3    0    0 -0.71113814565E-01 -0.38539389963E-01  0.98359927671E-01  0.12898368218E+00  0.20485499691E-01 0.  0.
         14    1    1    2    0    0 -0.19172699169E-01 -0.13314963729E-01 -0.52868853511E-02  0.23933905014E-01  0.00000000000E+00 0. -1.
     999901    1    3    3    0    0  0.90286513734E-01  0.51854353692E-01 -0.93073042320E-01  0.89101241280E+00  0.88000000000E+00 0.  1.
        -11    1    4    4    0    0 -0.14220654377E-02 -0.66069851482E-02  0.81538884013E-02  0.10602902429E-01  0.51100000000E-03 0.  1.
         11    1    4    4    0    0 -0.69691749128E-01 -0.31932404815E-01  0.90206039270E-01  0.11838077976E+00  0.51100000000E-03 0. -1.
</event>
<event>
 8    1  0.1104109E+005  0.1043930E+01  0.7957747E-01            NaN
         13   -1    0    0    0    0  0.00000000000E+00  0.00000000000E+00  0.74505805969E-08  0.10566000000E+00  0.10566000000E+00 0. -1.
     999900   -1    0    0    0    0 -0.00000000000E+00 -0.00000000000E+00 -0.74505805969E-08  0.93827000000E+00  0.93827000000E+00 0. -1.
     999902    2    1    2    0    0 -0.49884380248E-04  0.13852781504E-01  0.15569895803E-01  0.10230895658E+01  0.10228772829E+01 0.  0.
     999903    2    3    3    0    0 -0.17093331588E-01  0.13026887849E+00  0.24666906601E-01  0.13521235447E+00  0.20291915409E-01 0.  0.
         14    1    1    2    0    0  0.49884380248E-04 -0.13852781504E-01 -0.15569895803E-01  0.20840434236E-01  0.00000000000E+00 0. -1.
     999901    1    3    3    0    0  0.17043447208E-01 -0.11641609699E+00 -0.90970107982E-02  0.88787721129E+00  0.88000000000E+00 0. -1.
        -11    1    4    4    0    0 -0.61704130213E-02  0.48959277066E-01 -0.64950399105E-03  0.49353498196E-01  0.51100000000E-03 0. -1.
         11    1    4    4    0    0 -0.10922918567E-01  0.81309601428E-01  0.25316410592E-01  0.85858856274E-01  0.51100000000E-03 0.  1.
</event>
<event>
 8    1  0.1104109E+005  0.1043930E+01  0.7957747E-01            NaN
         13   -1    0    0    0    0  0.00000000000E+00  0.00000000000E+00  0.74505805969E-08  0.10566000000E+00  0.10566000000E+00 0. -1.
     999900   -1    0    0    0    0 -0.00000000000E+00 -0.00000000000E+00 -0.74505805969E-08  0.93827000000E+00  0.93827000000E+00 0. -1.
     999902    2    1    2    0    0  0.15172057480E-01  0.16524643526E-01 -0.11852450349E-01  0.10185580519E+01  0.10182419994E+01 0.  0.
     999903    2    3    3    0    0  0.17604387802E-01  0.73337899464E-01 -0.10680087299E+00  0.13162577418E+00  0.15184070230E-01 0.  0.
         14    1    1    2    0    0 -0.15172057480E-01 -0.16524643526E-01  0.11852450349E-01  0.25371948115E-01  0.00000000000E+00 0.  1.
     999901    1    3    3    0    0 -0.24323303214E-02 -0.56813255938E-01  0.94948422639E-01  0.88693227771E+00  0.88000000000E+00 0.  1.
        -11    1    4    4    0    0  0.14742123003E-01  0.30454308213E-01 -0.50616034430E-01  0.60885459198E-01  0.51100000000E-03 0.  1.
         11    1    4    4    0    0  0.28622647990E-02  0.42883591251E-01 -0.56184838558E-01  0.70740314978E-01  0.51100000000E-03 0. -1.
</event>
<event>
 8    1  0.1104109E+005  0.1043930E+01  0.7957747E-01            NaN
         13   -1    0    0    0    0  0.00000000000E+00  0.00000000000E+00  0.74505805969E-08  0.10566000000E+00  0.10566000000E+00 0. -1.
     999900   -1    0    0    0    0 -0.00000000000E+00 -0.00000000000E+00 -0.74505805969E-08  0.93827000000E+00  0.93827000000E+00 0. -1.
     999902    2    1    2    0    0 -0.18376292940E-01  0.14503720983E-01  0.66555405536E-02  0.10195919170E+01  0.10193013955E+01 0.  0.
     999903    2    3    3    0    0  0.70958548429E-01  0.85356007753E-01 -0.62936780126E-01  0.12951110520E+00  0.22165839082E-01 0.  0.
         14    1    1    2    0    0  0.18376292940E-01 -0.14503720983E-01 -0.66555405536E-02  0.24338083011E-01  0.00000000000E+00 0.  1.
     999901    1    3    3    0    0 -0.89334841369E-01 -0.70852286770E-01  0.69592320679E-01  0.89008081179E+00  0.88000000000E+00 0. -1.
        -11    1    4    4    0    0  0.58572228668E-02  0.34128830851E-02  0.99675475509E-03  0.68709149104E-02  0.51100000000E-03 0. -1.
         11    1    4    4    0    0  0.65101325562E-01  0.81943124668E-01 -0.63933534881E-01  0.12264019029E+00  0.51100000000E-03 0.  1.
</event>
<event>
 8    1  0.1104109E+005  0.1043930E+01  0.7957747E-01            NaN
         13   -1    0    0    0    0  0.00000000000E+00  0.00000000000E+00  0.74505805969E-08  0.10566000000E+00  0.10566000000E+00 0.  1.
     999900   -1    0    0    0    0 -0.00000000000E+00 -0.00000000000E+00 -0.74505805969E-08  0.93827000000E+00  0.93827000000E+00 0. -1.
     999902    2    1    2    0    0  0.30806235103E-02  0.21704978892E-01 -0.95244120851E-02  0.10200278918E+01  0.10197478067E+01 0.  0.
     999903    2    3    3    0    0 -0.93997664438E-01 -0.26991173962E-01  0.81133549699E-01  0.12872862932E+00  0.20599095332E-01 0.  0.
         14    1    1    2    0    0 -0.30806235103E-02 -0.21704978892E-01  0.95244120851E-02  0.23902108181E-01  0.00000000000E+00 0.  1.
     999901    1    3    3    0    0  0.97078287949E-01  0.48696152854E-01 -0.90657961785E-01  0.89129926250E+00  0.88000000000E+00 0. -1.
        -11    1    4    4    0    0 -0.65882038350E-01 -0.90133157275E-02  0.56247920080E-01  0.87096340175E-01  0.51100000000E-03 0. -1.
         11    1    4    4    0    0 -0.28115626088E-01 -0.17977858234E-01  0.24885629620E-01  0.41632289146E-01  0.51100000000E-03 0.  1.
</event>
<event>
 8    1  0.1104109E+005  0.1043930E+01  0.7957747E-01            NaN
         13   -1    0    0    0    0  0.00000000000E+00  0.00000000000E+00  0.74505805969E-08  0.10566000000E+00  0.10566000000E+00 0. -1.
     999900   -1    0    0    0    0 -0.00000000000E+00 -0.00000000000E+00 -0.74505805969E-08  0.93827000000E+00  0.93827000000E+00 0. -1.
     999902    2    1    2    0    0 -0.57506443504E-02  0.11740792227E-01  0.19510274985E-01  0.10204445376E+01  0.10201742437E+01 0.  0.
     999903    2    3    3    0    0  0.22092736782E-01 -0.62353823210E-01 -0.10757810186E+00  0.12779862719E+00  0.19579397941E-01 0.  0.
         14    1    1    2    0    0  0.57506443504E-02 -0.11740792227E-01 -0.19510274985E-01  0.23485462367E-01  0.00000000000E+00 0.  1.
     999901    1    3    3    0    0 -0.27843381132E-01  0.74094615437E-01  0.12708837684E+00  0.89264591045E+00  0.88000000000E+00 0.  1.
        -11    1    4    4    0    0  0.19906771474E-01 -0.44655893005E-01 -0.91677784029E-01  0.10390142220E+00  0.51100000000E-03 0. -1.
         11    1    4    4    0    0  0.21859653083E-02 -0.17697930205E-01 -0.15900317830E-01  0.23897204982E-01  0.51100000000E-03 0.  1.
</event>
<event>
 8    1  0.1104109E+005  0.1043930E+01  0.7957747E-01            NaN
         13   -1    0    0    0    0  0.00000000000E+00  0.00000000000E+00  0.74505805969E-08  0.10566000000E+00  0.10566000000E+00 0. -1.
     999900   -1    0    0    0    0 -0.00000000000E+00 -0.00000000000E+00 -0.74505805969E-08  0.93827000000E+00  0.93827000000E+00 0.  1.
     999902    2    1    2    0    0  0.24412972155E-01  0.34069460390E-02 -0.20133634347E-03  0.10192796242E+01  0.10189815068E+01 0.  0.
     999903    2    3    3    0    0  0.11960884717E+00  0.41736846638E-01 -0.33265250474E-01  0.13269930730E+00  0.21314046517E-01 0.  0.
         14    1    1    2    0    0 -0.24412972155E-01 -0.34069460390E-02  0.20133634347E-03  0.24650375800E-01  0.00000000000E+00 0.  1.
     999901    1    3    3    0    0 -0.95195875018E-01 -0.38329900599E-01  0.33063914130E-01  0.88658031690E+00  0.88000000000E+00 0.  1.
        -11    1    4    4    0    0  0.56683858720E-01  0.26951025538E-01 -0.79090192654E-02  0.63263190907E-01  0.51100000000E-03 0. -1.
         11    1    4    4    0    0  0.62924988453E-01  0.14785821100E-01 -0.25356231208E-01  0.69436116391E-01  0.51100000000E-03 0.  1.
</event>
<event>
 8    1  0.1104109E+005  0.1043930E+01  0.7957747E-01            NaN
         13   -1    0    0    0    0  0.00000000000E+00  0.00000000000E+00  0.74505805969E-08  0.10566000000E+00  0.10566000000E+00 0.  1.
     999900   -1    0    0    0    0 -0.00000000000E+00 -0.00000000000E+00 -0.74505805969E-08  0.93827000000E+00  0.93827000000E+00 0.  1.
     999902    2    1    2    0    0 -0.35939201106E-02  0.22019231302E-01  0.11043794509E-01  0.10190356592E+01  0.10187315380E+01 0.  0.
     999903    2    3    3    0    0 -0.25309459015E-01 -0.11837132651E+00  0.34683758515E-01  0.12732947366E+00  0.18907461589E-01 0.  0.
         14    1    1    2    0    0  0.35939201106E-02 -0.22019231302E-01 -0.11043794509E-01  0.24894340844E-01  0.00000000000E+00 0. -1.
     999901    1    3    3    0    0  0.21715538904E-01  0.14039055781E+00 -0.23639964005E-01  0.89170618549E+00  0.88000000000E+00 0.  1.
        -11    1    4    4    0    0 -0.19211834339E-01 -0.65263772872E-01  0.27531936349E-01  0.73394299972E-01  0.51100000000E-03 0. -1.
         11    1    4    4    0    0 -0.60976246757E-02 -0.53107553634E-01  0.71518221656E-02  0.53935173690E-01  0.51100000000E-03 0.  1.
</event>
<event>
 8    1  0.1104109E+005  0.1043930E+01  0.7957747E-01            NaN
         13   -1    0    0    0    0  0.00000000000E+00  0.00000000000E+00  0.74505805969E-08  0.10566000000E+00  0.10566000000E+00 0. -1.
     999900   -1    0    0    0    0 -0.00000000000E+00 -0.00000000000E+00 -0.74505805969E-08  0.93827000000E+00  0.93827000000E+00 0. -1.
     999902    2    1    2    0    0  0.82330178077E-02 -0.15791314977E-01 -0.17200480559E-01  0.10191710674E+01  0.10188702861E+01 0.  0.
     999903    2    3    3    0    0 -0.22633530994E-01 -0.12667608499E+00  0.12808425019E-01  0.13116841513E+00  0.21954273936E-01 0.  0.
         14    1    1    2    0    0 -0.82330178077E-02  0.15791314977E-01  0.17200480559E-01  0.24758932578E-01  0.00000000000E+00 0. -1.
     999901    1    3    3    0    0  0.30866548802E-01  0.11088477001E+00 -0.30008905578E-01  0.88800265229E+00  0.88000000000E+00 0.  1.
        -11    1    4    4    0    0 -0.45591914765E-02 -0.34992861291E-01  0.13307501516E-01  0.37717864280E-01  0.51100000000E-03 0. -1.
         11    1    4    4    0    0 -0.18074339518E-01 -0.91683223698E-01 -0.49907649742E-03  0.93450550855E-01  0.51100000000E-03 0.  1.
</event>
<event>
 8    1  0.1104109E+005  0.1043930E+01  0.7957747E-01            NaN
         13   -1    0    0    0    0  0.00000000000E+00  0.00000000000E+00  0.74505805969E-08  0.10566000000E+00  0.10566000000E+00 0. -1.
     999900   -1    0    0    0    0 -0.00000000000E+00 -0.00000000000E+00 -0.74505805969E-08  0.93827000000E+00  0.93827000000E+00 0.  1.
     999902    2    1    2    0    0 -0.39689558726E-02 -0.90324236784E-02  0.19978456434E-01  0.10216482584E+01  0.10214052515E+01 0.  0.
     999903    2    3    3    0    0 -0.64014901333E-01 -0.11333923681E+00  0.93155047391E-02  0.13339203106E+00  0.27621823403E-01 0.  0.
         14    1    1    2    0    0  0.39689558726E-02  0.90324236784E-02 -0.19978456434E-01  0.22281741622E-01  0.00000000000E+00 0.  1.
     999901    1    3    3    0    0  0.60045945460E-01  0.10430681313E+00  0.10662951695E-01  0.88825622732E+00  0.88000000000E+00 0.  1.
        -11    1    4    4    0    0 -0.34478067596E-01 -0.34236932071E-01  0.19087783336E-02  0.48629304113E-01  0.51100000000E-03 0. -1.
         11    1    4    4    0    0 -0.29536833737E-01 -0.79102304740E-01  0.74067264055E-02  0.84762726946E-01  0.51100000000E-03 0.  1.
</event>
<event>
 8    1  0.1104109E+005  0.1043930E+01  0.7957747E-01            NaN
         13   -1    0    0    0    0  0.00000000000E+00  0.00000000000E+00  0.74505805969E-08  0.10566000000E+00  0.10566000000E+00 0.  1.
     999900   -1    0    0    0    0 -0.00000000000E+00 -0.00000000000E+00 -0.74505805969E-08  0.93827000000E+00  0.93827000000E+00 0. -1.
     999902    2    1    2    0    0  0.14495669120E-01  0.19292290096E-01  0.26529164233E-02  0.10196533683E+01  0.10193643297E+01 0.  0.
     999903    2    3    3    0    0 -0.57632593799E-01 -0.92337763571E-01  0.64094884014E-01  0.12755535208E+00  0.17732321839E-01 0.  0.
         14    1    1    2    0    0 -0.14495669120E-01 -0.19292290096E-01 -0.26529164233E-02  0.24276631684E-01  0.00000000000E+00 0.  1.
     999901    1    3    3    0    0  0.72128262918E-01  0.11163005367E+00 -0.61441967590E-01  0.89209801624E+00  0.88000000000E+00 0. -1.
        -11    1    4    4    0    0 -0.34501648776E-01 -0.66609470325E-01  0.50227192731E-01  0.90278554020E-01  0.51100000000E-03 0. -1.
         11    1    4    4    0    0 -0.23130945022E-01 -0.25728293247E-01  0.13867691283E-01  0.37276798059E-01  0.51100000000E-03 0.  1.
</event>
<event>
 8    1  0.1104109E+005  0.1043930E+01  0.7957747E-01            NaN
         13   -1    0    0    0    0  0.00000000000E+00  0.00000000000E+00  0.74505805969E-08  0.10566000000E+00  0.10566000000E+00 0. -1.
     999900   -1    0    0    0    0 -0.00000000000E+00 -0.00000000000E+00 -0.74505805969E-08  0.93827000000E+00  0.93827000000E+00 0.  1.
     999902    2    1    2    0    0 -0.13962624769E-01 -0.15718899079E-01  0.13248499033E-01  0.10190792172E+01  0.10187761724E+01 0.  0.
     999903    2    3    3    0    0 -0.92418866443E-02  0.96746380866E-01 -0.79073981176E-01  0.12711836330E+00  0.21473451253E-01 0.  0.
         14    1    1    2    0    0  0.13962624769E-01  0.15718899079E-01 -0.13248499033E-01  0.24850782791E-01  0.00000000000E+00 0.  1.
     999901    1    3    3    0    0 -0.47207381248E-02 -0.11246527994E+00  0.92322480209E-01  0.89196085391E+00  0.88000000000E+00 0. -1.
        -11    1    4    4    0    0  0.37924564769E-02  0.65742255427E-01 -0.54051820596E-01  0.85195582664E-01  0.51100000000E-03 0. -1.
         11    1    4    4    0    0 -0.13034343121E-01  0.31004125439E-01 -0.25022160580E-01  0.41922780632E-01  0.51100000000E-03 0.  1.
</event>
<event>
 8    1  0.1104109E+005  0.1043930E+01  0.7957747E-01            NaN
         13   -1    0    0    0    0  0.00000000000E+00  0.00000000000E+00  0.74505805969E-08  0.10566000000E+00  0.10566000000E+00 0.  1.
     999900   -1    0    0    0    0 -0.00000000000E+00 -0.00000000000E+00 -0.74505805969E-08  0.93827000000E+00  0.93827000000E+00 0.  1.
     999902    2    1    2    0    0  0.11350131575E-01 -0.13515693033E-01  0.15147479369E-01  0.10206717633E+01  0.10204067340E+01 0.  0.
     999903    2    3    3    0    0 -0.20849318690E-01 -0.10477254920E+00  0.76951199552E-01  0.13321228913E+00  0.20298909038E-01 0.  0.
         14    1    1    2    0    0 -0.11350131575E-01  0.13515693033E-01 -0.15147479369E-01  0.23258236738E-01  0.00000000000E+00 0. -1.
     999901    1    3    3    0    0  0.32199450265E-01  0.91256856164E-01 -0.61803720183E-01  0.88745947413E+00  0.88000000000E+00 0.  1.
        -11    1    4    4    0    0  0.14107261104E-02 -0.32299769465E-01  0.16834896212E-01  0.36454630805E-01  0.51100000000E-03 0.  1.
         11    1    4    4    0    0 -0.22260044800E-01 -0.72472779732E-01  0.60116303341E-01  0.96757658327E-01  0.51100000000E-03 0. -1.
</event>
<event>
 8    1  0.1104109E+005  0.1043930E+01  0.7957747E-01            NaN
         13   -1    0    0    0    0  0.00000000000E+00  0.00000000000E+00  0.74505805969E-08  0.10566000000E+00  0.10566000000E+00 0. -1.
     999900   -1    0    0    0    0 -0.00000000000E+00 -0.00000000000E+00 -0.74505805969E-08  0.93827000000E+00  0.93827000000E+00 0. -1.
     999902    2    1    2    0    0 -0.31808236069E-02 -0.23797010535E-01  0.22118638196E-04  0.10199213383E+01  0.10196387205E+01 0.  0.
     999903    2    3    3    0    0 -0.58741922694E-01 -0.10871099990E+00  0.45084837418E-01  0.13294441075E+00  0.19310069964E-01 0.  0.
         14    1    1    2    0    0  0.31808236069E-02  0.23797010535E-01 -0.22118638196E-04  0.24008661738E-01  0.00000000000E+00 0.  1.
     999901    1    3    3    0    0  0.55561099087E-01  0.84913989367E-01 -0.45062718780E-01  0.88697692752E+00  0.88000000000E+00 0.  1.
        -11    1    4    4    0    0 -0.38726347249E-01 -0.55531696568E-01  0.18352579466E-01  0.70146828788E-01  0.51100000000E-03 0.  1.
         11    1    4    4    0    0 -0.20015575444E-01 -0.53179303334E-01  0.26732257952E-01  0.62797581957E-01  0.51100000000E-03 0. -1.
</event>
<event>
 8    1  0.1104109E+005  0.1043930E+01  0.7957747E-01            NaN
         13   -1    0    0    0    0  0.00000000000E+00  0.00000000000E+00  0.74505805969E-08  0.10566000000E+00  0.10566000000E+00 0. -1.
     999900   -1    0    0    0    0 -0.00000000000E+00 -0.00000000000E+00 -0.74505805969E-08  0.93827000000E+00  0.93827000000E+00 0.  1.
     999902    2    1    2    0    0 -0.54106453284E-02 -0.39707625545E-02  0.22727088153E-01  0.10202326885E+01  0.10199574383E+01 0.  0.
     999903    2    3    3    0    0 -0.87852926776E-01  0.66553803615E-01  0.69615477471E-01  0.13233124953E+00  0.22753008165E-01 0.  0.
         14    1    1    2    0    0  0.54106453284E-02  0.39707625545E-02 -0.22727088153E-01  0.23697311536E-01  0.00000000000E+00 0.  1.
     999901    1    3    3    0    0  0.82442281447E-01 -0.70524566170E-01 -0.46888389318E-01  0.88790143893E+00  0.88000000000E+00 0.  1.
        -11    1    4    4    0    0 -0.63842464958E-01  0.48644082618E-01  0.61994729354E-01  0.10141851258E+00  0.51100000000E-03 0.  1.
         11    1    4    4    0    0 -0.24010461818E-01  0.17909720997E-01  0.76207481171E-02  0.30912736950E-01  0.51100000000E-03 0. -1.
</event>
<event>
 8    1  0.1104109E+005  0.1043930E+01  0.7957747E-01            NaN
         13   -1    0    0    0    0  0.00000000000E+00  0.00000000000E+00  0.74505805969E-08  0.10566000000E+00  0.10566000000E+00 0. -1.
     999900   -1    0    0    0    0 -0.00000000000E+00 -0.00000000000E+00 -0.74505805969E-08  0.93827000000E+00  0.93827000000E+00 0.  1.
     999902    2    1    2    0    0 -0.20975538803E-01  0.39442106328E-02 -0.10836316854E-01  0.10199935051E+01  0.10197126039E+01 0.  0.
     999903    2    3    3    0    0  0.89789697489E-01 -0.39491635934E-01 -0.81285599247E-01  0.12919683260E+00  0.21510319008E-01 0.  0.
         14    1    1    2    0    0  0.20975538803E-01 -0.39442106328E-02  0.10836316854E-01  0.23936494910E-01  0.00000000000E+00 0.  1.
     999901    1    3    3    0    0 -0.11076523629E+00  0.43435846567E-01  0.70449282392E-01  0.89079667249E+00  0.88000000000E+00 0. -1.
        -11    1    4    4    0    0  0.32632023211E-01 -0.22137160044E-01 -0.42477746569E-01  0.57961391186E-01  0.51100000000E-03 0. -1.
         11    1    4    4    0    0  0.57157674279E-01 -0.17354475891E-01 -0.38807852678E-01  0.71235441410E-01  0.51100000000E-03 0.  1.
</event>
<event>
 8    1  0.1104109E+005  0.1043930E+01  0.7957747E-01            NaN
         13   -1    0    0    0    0  0.00000000000E+00  0.00000000000E+00  0.74505805969E-08  0.10566000000E+00  0.10566000000E+00 0. -1.
     999900   -1    0    0    0    0 -0.00000000000E+00 -0.00000000000E+00 -0.74505805969E-08  0.93827000000E+00  0.93827000000E+00 0.  1.
     999902    2    1    2    0    0 -0.10526812148E-01  0.18269874900E-01 -0.11708889560E-01  0.10198115382E+01  0.10195262985E+01 0.  0.
     999903    2    3    3    0    0  0.65103342222E-01  0.10931070343E+00  0.26045203105E-01  0.13108563887E+00  0.17827424325E-01 0.  0.
         14    1    1    2    0    0  0.10526812148E-01 -0.18269874900E-01  0.11708889560E-01  0.24118461758E-01  0.00000000000E+00 0.  1.
     999901    1    3    3    0    0 -0.75630154370E-01 -0.91040828534E-01 -0.37754092665E-01  0.88872589938E+00  0.88000000000E+00 0.  1.
        -11    1    4    4    0    0  0.13462884642E-01  0.17976539142E-01 -0.17804215639E-02  0.22535222305E-01  0.51100000000E-03 0. -1.
         11    1    4    4    0    0  0.51640457580E-01  0.91334164293E-01  0.27825624669E-01  0.10855041656E+00  0.51100000000E-03 0.  1.
</event>
<event>
 8    1  0.1104109E+005  0.1043930E+01  0.7957747E-01            NaN
         13   -1    0    0    0    0  0.00000000000E+00  0.00000000000E+00  0.74505805969E-08  0.10566000000E+00  0.10566000000E+00 0. -1.
     999900   -1    0    0    0    0 -0.00000000000E+00 -0.00000000000E+00 -0.74505805969E-08  0.93827000000E+00  0.93827000000E+00 0. -1.
     999902    2    1    2    0    0  0.18693438249E-01 -0.53506992579E-03  0.14600083885E-01  0.10202046258E+01  0.10199287157E+01 0.  0.
     999903    2    3    3    0    0  0.58324436734E-01  0.11594345855E+00 -0.44702524490E-03  0.13151779727E+00  0.21262776570E-01 0.  0.
         14    1    1    2    0    0 -0.18693438249E-01  0.53506992579E-03 -0.14600083885E-01  0.23725374240E-01  0.00000000000E+00 0.  1.
     999901    1    3    3    0    0 -0.39630998486E-01 -0.11647852847E+00  0.15047109130E-01  0.88868682849E+00  0.88000000000E+00 0.  1.
        -11    1    4    4    0    0  0.57543796414E-01  0.10356906834E+00  0.33826934138E-02  0.11853077304E+00  0.51100000000E-03 0.  1.
         11    1    4    4    0    0  0.78064032088E-03  0.12374390210E-01 -0.38297186587E-02  0.12987024232E-01  0.51100000000E-03 0. -1.
</event>
<event>
 8    1  0.1104109E+005  0.1043930E+01  0.7957747E-01            NaN
         13   -1    0    0    0    0  0.00000000000E+00  0.00000000000E+00  0.74505805969E-08  0.10566000000E+00  0.10566000000E+00 0. -1.
     999900   -1    0    0    0    0 -0.00000000000E+00 -0.00000000000E+00 -0.74505805969E-08  0.93827000000E+00  0.93827000000E+00 0.  1.
     999902    2    1    2    0    0 -0.14502997632E-01 -0.14467160839E-01 -0.10793672432E-01  0.10207753234E+01  0.10205126760E+01 0.  0.
     999903    2    3    3    0    0  0.52089478414E-01 -0.49491600758E-01  0.10627448926E+00  0.12983973442E+00  0.20033902770E-01 0.  0.
         14    1    1    2    0    0  0.14502997632E-01  0.14467160839E-01  0.10793672432E-01  0.23154676582E-01  0.00000000000E+00 0. -1.
     999901    1    3    3    0    0 -0.66592476046E-01  0.35024439919E-01 -0.11706816169E+00  0.89093558900E+00  0.88000000000E+00 0.  1.
        -11    1    4    4    0    0  0.28324301448E-02 -0.12404578144E-01  0.21950922844E-01  0.25377162059E-01  0.51100000000E-03 0.  1.
         11    1    4    4    0    0  0.49257048269E-01 -0.37087022614E-01  0.84323566416E-01  0.10446257236E+00  0.51100000000E-03 0. -1.
</event>
<event>
 8    1  0.1104109E+005  0.1043930E+01  0.7957747E-01            NaN
         13   -1    0    0    0    0  0.00000000000E+00  0.00000000000E+00  0.74505805969E-08  0.10566000000E+00  0.10566000000E+00 0. -1.
     999900   -1    0    0    0    0 -0.00000000000E+00 -0.00000000000E+00 -0.74505805969E-08  0.93827000000E+00  0.93827000000E+00 0. -1.
     999902    2    1    2    0    0 -0.55324043780E-02  0.21104759229E-01  0.11761944901E-01  0.10191436790E+01  0.10188422237E+01 0.  0.
     999903    2    3    3    0    0  0.90040890479E-01  0.86302306751E-01 -0.33202150938E-01  0.13043295847E+00  0.18839419286E-01 0.  0.
         14    1    1    2    0    0  0.55324043780E-02 -0.21104759229E-01 -0.11761944901E-01  0.24786320989E-01  0.00000000000E+00 0. -1.
     999901    1    3    3    0    0 -0.95573294857E-01 -0.65197547522E-01  0.44964095839E-01  0.88871072054E+00  0.88000000000E+00 0. -1.
        -11    1    4    4    0    0  0.39718485195E-01  0.32641192534E-01 -0.50379324943E-02  0.51658952767E-01  0.51100000000E-03 0.  1.
         11    1    4    4    0    0  0.50322405284E-01  0.53661114217E-01 -0.28164218444E-01  0.78774005701E-01  0.51100000000E-03 0. -1.
</event>
<event>
 8    1  0.1104109E+005  0.1043930E+01  0.7957747E-01            NaN
         13   -1    0    0    0    0  0.00000000000E+00  0.00000000000E+00  0.74505805969E-08  0.10566000000E+00  0.10566000000E+00 0. -1.
     999900   -1    0    0    0    0 -0.00000000000E+00 -0.00000000000E+00 -0.74505805969E-08  0.93827000000E+00  0.93827000000E+00 0.  1.
     999902    2    1    2    0    0  0.10512754489E-01  0.82125875611E-02 -0.13659650191E-01  0.10248367906E+01  0.10246589173E+01 0.  0.
     999903    2    3    3    0    0 -0.14924990085E-01 -0.21491439061E-01  0.12802079553E+00  0.13264692475E+00  0.22830796663E-01 0.  0.
         14    1    1    2    0    0 -0.10512754489E-01 -0.82125875611E-02  0.13659650191E-01  0.19093209388E-01  0.00000000000E+00 0. -1.
     999901    1    3    3    0    0  0.25437744574E-01  0.29704026622E-01 -0.14168044572E+00  0.89218986586E+00  0.88000000000E+00 0.  1.
        -11    1    4    4    0    0  0.12198463156E-03 -0.19214691519E-01  0.79622498898E-01  0.81909844965E-01  0.51100000000E-03 0. -1.
         11    1    4    4    0    0 -0.15046974717E-01 -0.22767475413E-02  0.48398296630E-01  0.50737079786E-01  0.51100000000E-03 0.  1.
</event>
<event>
 8    1  0.1104109E+005  0.1043930E+01  0.7957747E-01            NaN
         13   -1    0    0    0    0  0.00000000000E+00  0.00000000000E+00  0.74505805969E-08  0.10566000000E+00  0.10566000000E+00 0.  1.
     999900   -1    0    0    0    0 -0.00000000000E+00 -0.00000000000E+00 -0.74505805969E-08  0.93827000000E+00  0.93827000000E+00 0. -1.
     999902    2    1    2    0    0 -0.69462389899E-03 -0.13892728054E-01  0.17610139867E-01  0.10214888008E+01  0.10212422645E+01 0.  0.
     999903    2    3    3    0    0  0.75909523387E-01  0.45050343109E-01 -0.92622452376E-01  0.12936005146E+00  0.19060825636E-01 0.  0.
         14    1    1    2    0    0  0.69462389899E-03  0.13892728054E-01 -0.17610139867E-01  0.22441199195E-01  0.00000000000E+00 0. -1.
     999901    1    3    3    0    0 -0.76604147286E-01 -0.58943071163E-01  0.11023259224E+00  0.89212874935E+00  0.88000000000E+00 0.  1.
        -11    1    4    4    0    0  0.61406222701E-01  0.26836352763E-01 -0.68491554119E-01  0.95824152084E-01  0.51100000000E-03 0.  1.
         11    1    4    4    0    0  0.14503300686E-01  0.18213990346E-01 -0.24130898257E-01  0.33535899374E-01  0.51100000000E-03 0. -1.
</event>
<event>
 8    1  0.1357811E+005  0.1043930E+01  0.7957747E-01            NaN
         13   -1    0    0    0    0  0.00000000000E+00  0.00000000000E+00  0.74505805969E-08  0.10566000000E+00  0.10566000000E+00 0. -1.
     999900   -1    0    0    0    0 -0.00000000000E+00 -0.00000000000E+00 -0.74505805969E-08  0.93827000000E+00  0.93827000000E+00 0. -1.
     999902    2    1    2    0    0 -0.10717979875E-01 -0.19563612393E-01 -0.73644365496E-02  0.10204386197E+01  0.10201681879E+01 0.  0.
     999903    2    3    3    0    0 -0.38566397117E-01  0.12122911717E+00 -0.59279724200E-02  0.12881078789E+00  0.19318705552E-01 0.  0.
         14    1    1    2    0    0  0.10717979875E-01  0.19563612393E-01  0.73644365496E-02  0.23491380294E-01  0.00000000000E+00 0. -1.
     999901    1    3    3    0    0  0.27848417243E-01 -0.14079272956E+00 -0.14364641297E-02  0.89162783182E+00  0.88000000000E+00 0. -1.
        -11    1    4    4    0    0 -0.12641543928E-01  0.49307132375E-01  0.66246356340E-02  0.51333700960E-01  0.51100000000E-03 0.  1.
         11    1    4    4    0    0 -0.25924853189E-01  0.71921984792E-01 -0.12552608054E-01  0.77477086930E-01  0.51100000000E-03 0. -1.
</event>
<event>
 8    1  0.1104109E+005  0.1043930E+01  0.7957747E-01            NaN
         13   -1    0    0    0    0  0.00000000000E+00  0.00000000000E+00  0.74505805969E-08  0.10566000000E+00  0.10566000000E+00 0.  1.
     999900   -1    0    0    0    0 -0.00000000000E+00 -0.00000000000E+00 -0.74505805969E-08  0.93827000000E+00  0.93827000000E+00 0. -1.
     999902    2    1    2    0    0  0.60900922272E-02 -0.79122311316E-02 -0.21968610158E-01  0.10197988488E+01  0.10195133053E+01 0.  0.
     999903    2    3    3    0    0 -0.11455073483E+00  0.51892167438E-01 -0.21346551317E-01  0.12955665582E+00  0.22684442296E-01 0.  0.
         14    1    1    2    0    0 -0.60900922272E-02  0.79122311316E-02  0.21968610158E-01  0.24131151176E-01  0.00000000000E+00 0.  1.
     999901    1    3    3    0    0  0.12064082706E+00 -0.59804398570E-01 -0.62205884103E-03  0.89024219300E+00  0.88000000000E+00 0. -1.
        -11    1    4    4    0    0 -0.75169298854E-01  0.38133736144E-01 -0.24329657048E-01  0.87731400625E-01  0.51100000000E-03 0. -1.
         11    1    4    4    0    0 -0.39381435980E-01  0.13758431295E-01  0.29831057314E-02  0.41825255198E-01  0.51100000000E-03 0.  1.
</event>
<event>
 8    1  0.1104109E+005  0.1043930E+01  0.7957747E-01            NaN
         13   -1    0    0    0    0  0.00000000000E+00  0.00000000000E+00  0.74505805969E-08  0.10566000000E+00  0.10566000000E+00 0.  1.
     999900   -1    0    0    0    0 -0.00000000000E+00 -0.00000000000E+00 -0.74505805969E-08  0.93827000000E+00  0.93827000000E+00 0. -1.
     999902    2    1    2    0    0  0.88292123978E-02  0.17826067076E-01  0.12607545906E-01  0.10203784847E+01  0.10201066504E+01 0.  0.
     999903    2    3    3    0    0  0.23827630482E-01 -0.10759780214E+00  0.65872828158E-01  0.12976448874E+00  0.18829499448E-01 0.  0.
         14    1    1    2    0    0 -0.88292123978E-02 -0.17826067076E-01 -0.12607545906E-01  0.23551515296E-01  0.00000000000E+00 0.  1.
     999901    1    3    3    0    0 -0.14998418084E-01  0.12542386921E+00 -0.53265282252E-01  0.89061399596E+00  0.88000000000E+00 0. -1.
        -11    1    4    4    0    0  0.13876788474E-01 -0.37395309111E-01  0.32221654345E-01  0.51278363192E-01  0.51100000000E-03 0.  1.
         11    1    4    4    0    0  0.99508420080E-02 -0.70202493026E-01  0.33651173813E-01  0.78486125549E-01  0.51100000000E-03 0. -1.
</event>
<event>
 8    1  0.1104109E+005  0.1043930E+01  0.7957747E-01            NaN
         13   -1    0    0    0    0  0.00000000000E+00  0.00000000000E+00  0.74505805969E-08  0.10566000000E+00  0.10566000000E+00 0. -1.
     999900   -1    0    0    0    0 -0.00000000000E+00 -0.00000000000E+00 -0.74505805969E-08  0.93827000000E+00  0.93827000000E+00 0. -1.
     999902    2    1    2    0    0  0.74162808676E-02  0.22192313285E-01 -0.29213823440E-02  0.10203496169E+01  0.10200771080E+01 0.  0.
     999903    2    3    3    0    0  0.92618024793E-02  0.42311097446E-01 -0.12299470934E+00  0.13196581739E+00  0.20279755458E-01 0.  0.
         14    1    1    2    0    0 -0.74162808676E-02 -0.22192313285E-01  0.29213823440E-02  0.23580383068E-01  0.00000000000E+00 0. -1.
     999901    1    3    3    0    0 -0.18455216117E-02 -0.20118784161E-01  0.12007332700E+00  0.88838379954E+00  0.88000000000E+00 0.  1.
        -11    1    4    4    0    0  0.22165181323E-02  0.19071935426E-01 -0.82831852425E-01  0.85029574682E-01  0.51100000000E-03 0. -1.
         11    1    4    4    0    0  0.70452843470E-02  0.23239162020E-01 -0.40162856919E-01  0.46936242711E-01  0.51100000000E-03 0.  1.
</event>
<event>
 8    1  0.1104109E+005  0.1043930E+01  0.7957747E-01            NaN
         13   -1    0    0    0    0  0.00000000000E+00  0.00000000000E+00  0.74505805969E-08  0.10566000000E+00  0.10566000000E+00 0.  1.
     999900   -1    0    0    0    0 -0.00000000000E+00 -0.00000000000E+00 -0.74505805969E-08  0.93827000000E+00  0.93827000000E+00 0. -1.
     999902    2    1    2    0    0  0.15605447450E-01  0.17013361825E-01  0.49450940322E-02  0.10203198660E+01  0.10200466610E+01 0.  0.
     999903    2    3    3    0    0 -0.62480661986E-01  0.11387211532E+00  0.84869065759E-02  0.13156140445E+00  0.19122860334E-01 0.  0.
         14    1    1    2    0    0 -0.15605447450E-01 -0.17013361825E-01 -0.49450940322E-02  0.23610133961E-01  0.00000000000E+00 0. -1.
     999901    1    3    3    0    0  0.78086109436E-01 -0.96858753494E-01 -0.35418125437E-02  0.88875846159E+00  0.88000000000E+00 0. -1.
        -11    1    4    4    0    0 -0.49385592569E-01  0.99802226025E-01  0.23519245886E-02  0.11137869519E+00  0.51100000000E-03 0.  1.
         11    1    4    4    0    0 -0.13095069418E-01  0.14069889294E-01  0.61349819873E-02  0.20182709253E-01  0.51100000000E-03 0. -1.
</event>
<event>
 8    1  0.1104109E+005  0.1043930E+01  0.7957747E-01            NaN
         13   -1    0    0    0    0  0.00000000000E+00  0.00000000000E+00  0.74505805969E-08  0.10566000000E+00  0.10566000000E+00 0. -1.
     999900   -1    0    0    0    0 -0.00000000000E+00 -0.00000000000E+00 -0.74505805969E-08  0.93827000000E+00  0.93827000000E+00 0. -1.
     999902    2    1    2    0    0  0.22040246045E-01 -0.81349423016E-02 -0.30568876981E-02  0.10202383497E+01  0.10199632326E+01 0.  0.
     999903    2    3    3    0    0  0.37031788522E-01  0.11228001680E+00  0.51170221432E-01  0.13025796334E+00  0.19250712198E-01 0.  0.
         14    1    1    2    0    0 -0.22040246045E-01  0.81349423016E-02  0.30568876981E-02  0.23691650309E-01  0.00000000000E+00 0.  1.
     999901    1    3    3    0    0 -0.14991542477E-01 -0.12041495910E+00 -0.54227109130E-01  0.88998038635E+00  0.88000000000E+00 0. -1.
        -11    1    4    4    0    0  0.47041100122E-02  0.43021918049E-01  0.16342407811E-01  0.46263911396E-01  0.51100000000E-03 0.  1.
         11    1    4    4    0    0  0.32327678509E-01  0.69258098747E-01  0.34827813621E-01  0.83994051947E-01  0.51100000000E-03 0. -1.
</event>
<event>
 8    1  0.1104109E+005  0.1043930E+01  0.7957747E-01            NaN
         13   -1    0    0    0    0  0.00000000000E+00  0.00000000000E+00  0.74505805969E-08  0.10566000000E+00  0.10566000000E+00 0. -1.
     999900   -1    0    0    0    0 -0.00000000000E+00 -0.00000000000E+00 -0.74505805969E-08  0.93827000000E+00  0.93827000000E+00 0. -1.
     999902    2    1    2    0    0 -0.15243549384E-01  0.15945342909E-01  0.60704490761E-02  0.10210505308E+01  0.10207941596E+01 0.  0.
     999903    2    3    3    0    0  0.24013167452E-01 -0.68010617476E-01 -0.10540588481E+00  0.12918918166E+00  0.19425956975E-01 0.  0.
         14    1    1    2    0    0  0.15243549384E-01 -0.15945342909E-01 -0.60704490761E-02  0.22879469188E-01  0.00000000000E+00 0. -1.
     999901    1    3    3    0    0 -0.39256716837E-01  0.83955960385E-01  0.11147633388E+00  0.89186134916E+00  0.88000000000E+00 0.  1.
        -11    1    4    4    0    0  0.24079249636E-01 -0.47635405221E-01 -0.84837701608E-01  0.10023292288E+00  0.51100000000E-03 0. -1.
         11    1    4    4    0    0 -0.66082183960E-04 -0.20375212255E-01 -0.20568183201E-01  0.28956258779E-01  0.51100000000E-03 0.  1.
</event>
<event>
 8    1  0.1104109E+005  0.1043930E+01  0.7957747E-01            NaN
         13   -1    0    0    0    0  0.00000000000E+00  0.00000000000E+00  0.74505805969E-08  0.10566000000E+00  0.10566000000E+00 0. -1.
     999900   -1    0    0    0    0 -0.00000000000E+00 -0.00000000000E+00 -0.74505805969E-08  0.93827000000E+00  0.93827000000E+00 0. -1.
     999902    2    1    2    0    0 -0.69065265017E-02  0.13562807611E-01  0.34422287205E-01  0.10062930007E+01  0.10055889118E+01 0.  0.
     999903    2    3    3    0    0 -0.75262235571E-01 -0.87654850772E-01  0.35679344314E-02  0.11732196158E+00  0.20098147849E-01 0.  0.
         14    1    1    2    0    0  0.69065265017E-02 -0.13562807611E-01 -0.34422287205E-01  0.37636999283E-01  0.00000000000E+00 0.  1.
     999901    1    3    3    0    0  0.68355709070E-01  0.10121765838E+00  0.30854352773E-01  0.88897103913E+00  0.88000000000E+00 0. -1.
        -11    1    4    4    0    0 -0.55287310344E-01 -0.70247507968E-01  0.10278558571E-01  0.89985048469E-01  0.51100000000E-03 0.  1.
         11    1    4    4    0    0 -0.19974925228E-01 -0.17407342804E-01 -0.67106241394E-02  0.27336913115E-01  0.51100000000E-03 0. -1.
</event>
<event>
 8    1  0.1104109E+005  0.1043930E+01  0.7957747E-01            NaN
         13   -1    0    0    0    0  0.00000000000E+00  0.00000000000E+00  0.74505805969E-08  0.10566000000E+00  0.10566000000E+00 0.  1.
     999900   -1    0    0    0    0 -0.00000000000E+00 -0.00000000000E+00 -0.74505805969E-08  0.93827000000E+00  0.93827000000E+00 0.  1.
     999902    2    1    2    0    0  0.14800826586E-01 -0.23363377872E-02 -0.17762917168E-01  0.10206911496E+01  0.10204265670E+01 0.  0.
     999903    2    3    3    0    0 -0.23726909543E-01 -0.29992076216E-02 -0.12918356619E+00  0.13282889289E+00  0.19574461192E-01 0.  0.
         14    1    1    2    0    0 -0.14800826586E-01  0.23363377872E-02  0.17762917168E-01  0.23238850406E-01  0.00000000000E+00 0.  1.
     999901    1    3    3    0    0  0.38527736129E-01  0.66286983435E-03  0.11142064902E+00  0.88786225670E+00  0.88000000000E+00 0. -1.
        -11    1    4    4    0    0 -0.13293533632E-01 -0.47223156685E-02 -0.11013420104E+00  0.11103522712E+00  0.51100000000E-03 0. -1.
         11    1    4    4    0    0 -0.10433375911E-01  0.17231080469E-02 -0.19049365144E-01  0.21793665769E-01  0.51100000000E-03 0.  1.
</event>
<event>
 8    1  0.1104109E+005  0.1043930E+01  0.7957747E-01            NaN
         13   -1    0    0    0    0  0.00000000000E+00  0.00000000000E+00  0.74505805969E-08  0.10566000000E+00  0.10566000000E+00 0.  1.
     999900   -1    0    0    0    0 -0.00000000000E+00 -0.00000000000E+00 -0.74505805969E-08  0.93827000000E+00  0.93827000000E+00 0.  1.
     999902    2    1    2    0    0  0.96943907444E-04  0.17846670240E-01 -0.15994452371E-01  0.10199647013E+01  0.10196831156E+01 0.  0.
     999903    2    3    3    0    0 -0.10842049167E-01 -0.10436121999E+00 -0.73480068209E-01  0.12959453890E+00  0.19662396076E-01 0.  0.
         14    1    1    2    0    0 -0.96943907444E-04 -0.17846670240E-01  0.15994452371E-01  0.23965298734E-01  0.00000000000E+00 0. -1.
     999901    1    3    3    0    0  0.10938993075E-01  0.12220789023E+00  0.57485615838E-01  0.89037016237E+00  0.88000000000E+00 0.  1.
        -11    1    4    4    0    0  0.32379163668E-02 -0.62372310647E-01 -0.42679133319E-01  0.75647595994E-01  0.51100000000E-03 0.  1.
         11    1    4    4    0    0 -0.14079965534E-01 -0.41988909347E-01 -0.30800934890E-01  0.53946942904E-01  0.51100000000E-03 0. -1.
</event>
<event>
 8    1  0.1104109E+005  0.1043930E+01  0.7957747E-01            NaN
         13   -1    0    0    0    0  0.00000000000E+00  0.00000000000E+00  0.74505805969E-08  0.10566000000E+00  0.10566000000E+00 0.  1.
     999900   -1    0    0    0    0 -0.00000000000E+00 -0.00000000000E+00 -0.74505805969E-08  0.93827000000E+00  0.93827000000E+00 0. -1.
     999902    2    1    2    0    0  0.15029180452E-01 -0.77836155922E-02  0.16032147435E-01  0.10206171133E+01  0.10203508226E+01 0.  0.
     999903    2    3    3    0    0  0.15420948218E-01 -0.10218450421E+00 -0.78889570942E-01  0.13049250745E+00  0.11191584003E-01 0.  0.
         14    1    1    2    0    0 -0.15029180452E-01  0.77836155922E-02 -0.16032147435E-01  0.23312886739E-01  0.00000000000E+00 0. -1.
     999901    1    3    3    0    0 -0.39176776628E-03  0.94400888616E-01  0.94921718377E-01  0.89012460581E+00  0.88000000000E+00 0.  1.
        -11    1    4    4    0    0  0.58316128752E-02 -0.51801338940E-01 -0.33215706571E-01  0.61813677359E-01  0.51100000000E-03 0.  1.
         11    1    4    4    0    0  0.95893353427E-02 -0.50383165269E-01 -0.45673864371E-01  0.68678830089E-01  0.51100000000E-03 0. -1.
</event>
<event>
 8    1  0.1104109E+005  0.1043930E+01  0.7957747E-01            NaN
         13   -1    0    0    0    0  0.00000000000E+00  0.00000000000E+00  0.74505805969E-08  0.10566000000E+00  0.10566000000E+00 0. -1.
     999900   -1    0    0    0    0 -0.00000000000E+00 -0.00000000000E+00 -0.74505805969E-08  0.93827000000E+00  0.93827000000E+00 0.  1.
     999902    2    1    2    0    0 -0.68712996335E-02 -0.22833131646E-01  0.13667524969E-02  0.10200462258E+01  0.10197665753E+01 0.  0.
     999903    2    3    3    0    0  0.56902174125E-02 -0.12022083268E+00  0.53040455399E-01  0.13307817245E+00  0.20275179120E-01 0.  0.
         14    1    1    2    0    0  0.68712996335E-02  0.22833131646E-01 -0.13667524969E-02  0.23883774237E-01  0.00000000000E+00 0.  1.
     999901    1    3    3    0    0 -0.12561517046E-01  0.97387701039E-01 -0.51673702902E-01  0.88696805331E+00  0.88000000000E+00 0.  1.
        -11    1    4    4    0    0  0.57221323067E-02 -0.83260506634E-02  0.53474779711E-02  0.11442139635E-01  0.51100000000E-03 0.  1.
         11    1    4    4    0    0 -0.31914894111E-04 -0.11189478202E+00  0.47692977428E-01  0.12163603282E+00  0.51100000000E-03 0. -1.
</event>
<event>
 8    1  0.1104109E+005  0.1043930E+01  0.7957747E-01            NaN
         13   -1    0    0    0    0  0.00000000000E+00  0.00000000000E+00  0.74505805969E-08  0.10566000000E+00  0.10566000000E+00 0. -1.
     999900   -1    0    0    0    0 -0.00000000000E+00 -0.00000000000E+00 -0.74505805969E-08  0.93827000000E+00  0.93827000000E+00 0. -1.
     999902    2    1    2    0    0 -0.21089700996E-01 -0.10553594515E-01 -0.20836777610E-02  0.10202552126E+01  0.10199804916E+01 0.  0.
     999903    2    3    3    0    0  0.23532565975E-01 -0.66811141173E-01 -0.10823886144E+00  0.13097180373E+00  0.20504926255E-01 0.  0.
         14    1    1    2    0    0  0.21089700996E-01  0.10553594515E-01  0.20836777610E-02  0.23674787397E-01  0.00000000000E+00 0. -1.
     999901    1    3    3    0    0 -0.44622266970E-01  0.56257546658E-01  0.10615518368E+00  0.88928340887E+00  0.88000000000E+00 0.  1.
        -11    1    4    4    0    0  0.15278639912E-01 -0.19488813319E-01 -0.27399535414E-01  0.36935705545E-01  0.51100000000E-03 0.  1.
         11    1    4    4    0    0  0.82539260621E-02 -0.47322327854E-01 -0.80839326029E-01  0.94036098190E-01  0.51100000000E-03 0. -1.
</event>
<event>
 8    1  0.1104109E+005  0.1043930E+01  0.7957747E-01            NaN
         13   -1    0    0    0    0  0.00000000000E+00  0.00000000000E+00  0.74505805969E-08  0.10566000000E+00  0.10566000000E+00 0. -1.
     999900   -1    0    0    0    0 -0.00000000000E+00 -0.00000000000E+00 -0.74505805969E-08  0.93827000000E+00  0.93827000000E+00 0. -1.
     999902    2    1    2    0    0 -0.22096834243E-01  0.27820406019E-02  0.69533821391E-02  0.10205984900E+01  0.10203317689E+01 0.  0.
     999903    2    3    3    0    0 -0.20273007031E-01  0.12252882907E+00 -0.37427299803E-01  0.13137845843E+00  0.20861155325E-01 0.  0.
         14    1    1    2    0    0  0.22096834243E-01 -0.27820406019E-02 -0.69533821391E-02  0.23331509952E-01  0.00000000000E+00 0.  1.
     999901    1    3    3    0    0 -0.18238272118E-02 -0.11974678847E+00  0.44380681942E-01  0.88922003161E+00  0.88000000000E+00 0. -1.
        -11    1    4    4    0    0 -0.45495124498E-02  0.44510273522E-01 -0.23633867980E-01  0.50603195050E-01  0.51100000000E-03 0.  1.
         11    1    4    4    0    0 -0.15723494581E-01  0.78018555552E-01 -0.13793431823E-01  0.80775263384E-01  0.51100000000E-03 0. -1.
</event>
<event>
 8    1  0.1104109E+005  0.1043930E+01  0.7957747E-01            NaN
         13   -1    0    0    0    0  0.00000000000E+00  0.00000000000E+00  0.74505805969E-08  0.10566000000E+00  0.10566000000E+00 0.  1.
     999900   -1    0    0    0    0 -0.00000000000E+00 -0.00000000000E+00 -0.74505805969E-08  0.93827000000E+00  0.93827000000E+00 0. -1.
     999902    2    1    2    0    0 -0.52456868039E-02  0.14169335160E-01 -0.18014513657E-01  0.10204180883E+01  0.10201471781E+01 0.  0.
     999903    2    3    3    0    0  0.92084218635E-02 -0.56324463608E-01  0.11235309825E+00  0.12790813814E+00  0.21909652736E-01 0.  0.
         14    1    1    2    0    0  0.52456868039E-02 -0.14169335160E-01  0.18014513657E-01  0.23511911688E-01  0.00000000000E+00 0.  1.
     999901    1    3    3    0    0 -0.14454108667E-01  0.70493798768E-01 -0.13036761190E+00  0.89250995017E+00  0.88000000000E+00 0. -1.
        -11    1    4    4    0    0  0.69064452439E-02 -0.43922638414E-01  0.63974054467E-01  0.77909164526E-01  0.51100000000E-03 0. -1.
         11    1    4    4    0    0  0.23019766197E-02 -0.12401825194E-01  0.48379043780E-01  0.49998973615E-01  0.51100000000E-03 0.  1.
</event>
<event>
 8    1  0.1104109E+005  0.1043930E+01  0.7957747E-01            NaN
         13   -1    0    0    0    0  0.00000000000E+00  0.00000000000E+00  0.74505805969E-08  0.10566000000E+00  0.10566000000E+00 0.  1.
     999900   -1    0    0    0    0 -0.00000000000E+00 -0.00000000000E+00 -0.74505805969E-08  0.93827000000E+00  0.93827000000E+00 0. -1.
     999902    2    1    2    0    0  0.28164259609E-01  0.24347250964E-02  0.23728441454E-03  0.10156597027E+01  0.10152661828E+01 0.  0.
     999903    2    3    3    0    0 -0.17110998886E-01  0.20899553473E-02  0.12317381416E+00  0.12596123791E+00  0.19932154034E-01 0.  0.
         14    1    1    2    0    0 -0.28164259609E-01 -0.24347250964E-02 -0.23728441454E-03  0.28270297302E-01  0.00000000000E+00 0.  1.
     999901    1    3    3    0    0  0.45275258495E-01  0.34476974908E-03 -0.12293652975E+00  0.88969846479E+00  0.88000000000E+00 0. -1.
        -11    1    4    4    0    0 -0.73475881136E-02 -0.38749624176E-02  0.14763860648E-01  0.16948011301E-01  0.51100000000E-03 0.  1.
         11    1    4    4    0    0 -0.97634107723E-02  0.59649177649E-02  0.10840995351E+00  0.10901322661E+00  0.51100000000E-03 0. -1.
</event>
<event>
 8    1  0.1104109E+005  0.1043930E+01  0.7957747E-01            NaN
         13   -1    0    0    0    0  0.00000000000E+00  0.00000000000E+00  0.74505805969E-08  0.10566000000E+00  0.10566000000E+00 0.  1.
     999900   -1    0    0    0    0 -0.00000000000E+00 -0.00000000000E+00 -0.74505805969E-08  0.93827000000E+00  0.93827000000E+00 0.  1.
     999902    2    1    2    0    0  0.19133305723E-01  0.71535677795E-02 -0.96596976991E-02  0.10213342774E+01  0.10210842960E+01 0.  0.
     999903    2    3    3    0    0  0.67166738763E-01 -0.41822600776E-01 -0.10589543538E+00  0.13343383649E+00  0.18172637525E-01 0.  0.
         14    1    1    2    0    0 -0.19133305723E-01 -0.71535677795E-02  0.96596976991E-02  0.22595722593E-01  0.00000000000E+00 0.  1.
     999901    1    3    3    0    0 -0.48033433040E-01  0.48976168555E-01  0.96235737679E-01  0.88790044092E+00  0.88000000000E+00 0. -1.
        -11    1    4    4    0    0  0.27844965945E-01 -0.79786503068E-02 -0.43830393158E-01  0.52539180376E-01  0.51100000000E-03 0. -1.
         11    1    4    4    0    0  0.39321772818E-01 -0.33843950469E-01 -0.62065042220E-01  0.80894656113E-01  0.51100000000E-03 0.  1.
</event>
<event>
 8    1  0.1143764E+005  0.1043930E+01  0.7957747E-01            NaN
         13   -1    0    0    0    0  0.00000000000E+00  0.00000000000E+00  0.74505805969E-08  0.10566000000E+00  0.10566000000E+00 0. -1.
     999900   -1    0    0    0    0 -0.00000000000E+00 -0.00000000000E+00 -0.74505805969E-08  0.93827000000E+00  0.93827000000E+00 0.  1.
     999902    2    1    2    0    0 -0.19042251682E-01  0.85867841704E-02  0.10631139889E-01  0.10204915413E+01  0.10202223407E+01 0.  0.
     999903    2    3    3    0    0 -0.65888924755E-01  0.11353576382E+00 -0.31218654517E-02  0.13291166079E+00  0.20592315532E-01 0.  0.
         14    1    1    2    0    0  0.19042251682E-01 -0.85867841704E-02 -0.10631139889E-01  0.23438458713E-01  0.00000000000E+00 0. -1.
     999901    1    3    3    0    0  0.46846673073E-01 -0.10494897965E+00  0.13753005341E-01  0.88757988050E+00  0.88000000000E+00 0. -1.
        -11    1    4    4    0    0 -0.22026796394E-01  0.56858234783E-01  0.24417265089E-02  0.61026729974E-01  0.51100000000E-03 0.  1.
         11    1    4    4    0    0 -0.43862128361E-01  0.56677529035E-01 -0.55635919605E-02  0.71884930816E-01  0.51100000000E-03 0. -1.
</event>
<event>
 8    1  0.1104109E+005  0.1043930E+01  0.7957747E-01            NaN
         13   -1    0    0    0    0  0.00000000000E+00  0.00000000000E+00  0.74505805969E-08  0.10566000000E+00  0.10566000000E+00 0. -1.
     999900   -1    0    0    0    0 -0.00000000000E+00 -0.00000000000E+00 -0.74505805969E-08  0.93827000000E+00  0.93827000000E+00 0.  1.
     999902    2    1    2    0    0 -0.15260443425E-01  0.39401473237E-02 -0.17288071162E-01  0.10205359132E+01  0.10202677427E+01 0.  0.
     999903    2    3    3    0    0  0.52303694370E-01 -0.11205581989E+00 -0.35359573349E-01  0.13017275337E+00  0.20061482398E-01 0.  0.
         14    1    1    2    0    0  0.15260443425E-01 -0.39401473237E-02  0.17288071162E-01  0.23394086837E-01  0.00000000000E+00 0.  1.
     999901    1    3    3    0    0 -0.67564137794E-01  0.11599596722E+00  0.18071502187E-01  0.89036315979E+00  0.88000000000E+00 0.  1.
        -11    1    4    4    0    0  0.49302316098E-01 -0.93435838978E-01 -0.35029065893E-01  0.11130260984E+00  0.51100000000E-03 0.  1.
         11    1    4    4    0    0  0.30013782715E-02 -0.18619980914E-01 -0.33050745608E-03  0.18870143532E-01  0.51100000000E-03 0. -1.
</event>
<event>
 8    1  0.1104109E+005  0.1043930E+01  0.7957747E-01            NaN
         13   -1    0    0    0    0  0.00000000000E+00  0.00000000000E+00  0.74505805969E-08  0.10566000000E+00  0.10566000000E+00 0.  1.
     999900   -1    0    0    0    0 -0.00000000000E+00 -0.00000000000E+00 -0.74505805969E-08  0.93827000000E+00  0.93827000000E+00 0.  1.
     999902    2    1    2    0    0  0.28531467062E-01 -0.10130447167E-01  0.10533162296E-02  0.10136351152E+01  0.10131822968E+01 0.  0.
     999903    2    3    3    0    0  0.43941519333E-01  0.10576782073E+00  0.45022389557E-01  0.12481389713E+00  0.20827969931E-01 0.  0.
         14    1    1    2    0    0 -0.28531467062E-01  0.10130447167E-01 -0.10533162296E-02  0.30294884842E-01  0.00000000000E+00 0. -1.
     999901    1    3    3    0    0 -0.15410052271E-01 -0.11589826790E+00 -0.43969073327E-01  0.88882121803E+00  0.88000000000E+00 0. -1.
        -11    1    4    4    0    0  0.44059453616E-01  0.93847973927E-01  0.44632824111E-01  0.11287616122E+00  0.51100000000E-03 0. -1.
         11    1    4    4    0    0 -0.11793428303E-03  0.11919846803E-01  0.38956544564E-03  0.11937735905E-01  0.51100000000E-03 0.  1.
</event>
<event>
 8    1  0.1104109E+005  0.1043930E+01  0.7957747E-01            NaN
         13   -1    0    0    0    0  0.00000000000E+00  0.00000000000E+00  0.74505805969E-08  0.10566000000E+00  0.10566000000E+00 0. -1.
     999900   -1    0    0    0    0 -0.00000000000E+00 -0.00000000000E+00 -0.74505805969E-08  0.93827000000E+00  0.93827000000E+00 0. -1.
     999902    2    1    2    0    0  0.10422985085E-01  0.15201360312E-01 -0.14653860560E-01  0.10203831190E+01  0.10201113930E+01 0.  0.
     999903    2    3    3    0    0  0.11929198643E+00  0.31692867956E-01  0.41662478203E-01  0.13173473003E+00  0.19577055481E-01 0.  0.
         14    1    1    2    0    0 -0.10422985085E-01 -0.15201360312E-01  0.14653860560E-01  0.23546880956E-01  0.00000000000E+00 0. -1.
     999901    1    3    3    0    0 -0.10886900135E+00 -0.16491507644E-01 -0.56316338763E-01  0.88864838901E+00  0.88000000000E+00 0.  1.
        -11    1    4    4    0    0  0.63903416038E-01  0.69785008101E-02  0.19915146843E-01  0.67299481793E-01  0.51100000000E-03 0. -1.
         11    1    4    4    0    0  0.55388570393E-01  0.24714367146E-01  0.21747331360E-01  0.64435248241E-01  0.51100000000E-03 0.  1.
</event>
<event>
 8    1  0.1104109E+005  0.1043930E+01  0.7957747E-01            NaN
         13   -1    0    0    0    0  0.00000000000E+00  0.00000000000E+00  0.74505805969E-08  0.10566000000E+00  0.10566000000E+00 0.  1.
     999900   -1    0    0    0    0 -0.00000000000E+00 -0.00000000000E+00 -0.74505805969E-08  0.93827000000E+00  0.93827000000E+00 0. -1.
     999902    2    1    2    0    0  0.14507135340E-01 -0.33686083673E-02  0.19961526449E-01  0.10190248392E+01  0.10187204503E+01 0.  0.
     999903    2    3    3    0    0  0.10876041022E+00 -0.45827898798E-01  0.55676222163E-01  0.13225428786E+00  0.21501902294E-01 0.  0.
         14    1    1    2    0    0 -0.14507135340E-01  0.33686083673E-02 -0.19961526449E-01  0.24905160837E-01  0.00000000000E+00 0. -1.
     999901    1    3    3    0    0 -0.94253274885E-01  0.42459290430E-01 -0.35714695714E-01  0.88677055130E+00  0.88000000000E+00 0.  1.
        -11    1    4    4    0    0  0.48085632986E-01 -0.19604144154E-01  0.12865855019E-01  0.53500859003E-01  0.51100000000E-03 0.  1.
         11    1    4    4    0    0  0.60674777239E-01 -0.26223754644E-01  0.42810367144E-01  0.78753428856E-01  0.51100000000E-03 0. -1.
</event>
<event>
 8    1  0.1104109E+005  0.1043930E+01  0.7957747E-01            NaN
         13   -1    0    0    0    0  0.00000000000E+00  0.00000000000E+00  0.74505805969E-08  0.10566000000E+00  0.10566000000E+00 0.  1.
     999900   -1    0    0    0    0 -0.00000000000E+00 -0.00000000000E+00 -0.74505805969E-08  0.93827000000E+00  0.93827000000E+00 0.  1.
     999902    2    1    2    0    0  0.21684052241E-01 -0.15021227643E-02 -0.77859704200E-02  0.10208415650E+01  0.10205804354E+01 0.  0.
     999903    2    3    3    0    0 -0.81772591287E-01  0.20502183379E-01 -0.96932302247E-01  0.13003601101E+00  0.20159283996E-01 0.  0.
         14    1    1    2    0    0 -0.21684052241E-01  0.15021227643E-02  0.77859704200E-02  0.23088434979E-01  0.00000000000E+00 0.  1.
     999901    1    3    3    0    0  0.10345664353E+00 -0.22004306144E-01  0.89146331827E-01  0.89080555401E+00  0.88000000000E+00 0. -1.
        -11    1    4    4    0    0 -0.47857487259E-01  0.11184423194E-01 -0.41210867720E-01  0.64140682473E-01  0.51100000000E-03 0.  1.
         11    1    4    4    0    0 -0.33915104029E-01  0.93177601854E-02 -0.55721434528E-01  0.65895328537E-01  0.51100000000E-03 0. -1.
</event>
<event>
 8    1  0.1104109E+005  0.1043930E+01  0.7957747E-01            NaN
         13   -1    0    0    0    0  0.00000000000E+00  0.00000000000E+00  0.74505805969E-08  0.10566000000E+00  0.10566000000E+00 0.  1.
     999900   -1    0    0    0    0 -0.00000000000E+00 -0.00000000000E+00 -0.74505805969E-08  0.93827000000E+00  0.93827000000E+00 0. -1.
     999902    2    1    2    0    0  0.13170916837E-01 -0.16573003481E-01  0.13493257272E-01  0.10188261061E+01  0.10185167790E+01 0.  0.
     999903    2    3    3    0    0  0.64514563352E-01 -0.66193941498E-01  0.92478688792E-01  0.13240797348E+00  0.20875746343E-01 0.  0.
         14    1    1    2    0    0 -0.13170916837E-01  0.16573003481E-01 -0.13493257272E-01  0.25103893852E-01  0.00000000000E+00 0.  1.
     999901    1    3    3    0    0 -0.51343646515E-01  0.49620938017E-01 -0.78985431521E-01  0.88641813267E+00  0.88000000000E+00 0. -1.
        -11    1    4    4    0    0  0.33092844790E-01 -0.42215537259E-01  0.64948022853E-01  0.84236540503E-01  0.51100000000E-03 0.  1.
         11    1    4    4    0    0  0.31421718562E-01 -0.23978404239E-01  0.27530665939E-01  0.48171432979E-01  0.51100000000E-03 0. -1.
</event>
<event>
 7    1  0.1104109E+005  0.1043930E+01  0.7957747E-01            NaN
         13   -1    0    0    0    0  0.00000000000E+00  0.00000000000E+00  0.74505805969E-08  0.10566000000E+00  0.10566000000E+00 0. -1.
     999900   -1    0    0    0    0 -0.00000000000E+00 -0.00000000000E+00 -0.74505805969E-08  0.93827000000E+00  0.93827000000E+00 0.  1.
     999903    2    1    2    0    0 -0.33924955394E-01  0.89299312856E-01 -0.66086003194E-01  0.11790602208E+00  0.20228701124E-01 0.  0.
         14    1    1    2    0    0  0.17610783831E-01 -0.98624048885E-02  0.36608072356E-01  0.41803800054E-01  0.00000000000E+00 0. -1.
     999901    1    1    2    0    0  0.16314171563E-01 -0.79436907968E-01  0.29477930839E-01  0.88422017787E+00  0.88000000000E+00 0. -1.
        -11    1    3    3    0    0 -0.17966261759E-01  0.56098023812E-01 -0.29101628139E-01  0.65703430036E-01  0.51100000000E-03 0.  1.
         11    1    3    3    0    0 -0.15958693635E-01  0.33201289045E-01 -0.36984375055E-01  0.52202592043E-01  0.51100000000E-03 0. -1.
</event>
<event>
 8    1  0.1104109E+005  0.1043930E+01  0.7957747E-01            NaN
         13   -1    0    0    0    0  0.00000000000E+00  0.00000000000E+00  0.74505805969E-08  0.10566000000E+00  0.10566000000E+00 0.  1.
     999900   -1    0    0    0    0 -0.00000000000E+00 -0.00000000000E+00 -0.74505805969E-08  0.93827000000E+00  0.93827000000E+00 0.  1.
     999902    2    1    2    0    0  0.31197990470E-01 -0.24434905794E-02 -0.13519869297E-01  0.10098408211E+01  0.10092652831E+01 0.  0.
     999903    2    3    3    0    0  0.64174533980E-02 -0.97223875097E-01  0.63078461052E-01  0.12109749448E+00  0.34526009390E-01 0.  0.
         14    1    1    2    0    0 -0.31197990470E-01  0.24434905794E-02  0.13519869297E-01  0.34089178949E-01  0.00000000000E+00 0.  1.
     999901    1    3    3    0    0  0.24780537072E-01  0.94780384518E-01 -0.76598330349E-01  0.88874332657E+00  0.88000000000E+00 0.  1.
        -11    1    4    4    0    0  0.66208061716E-02 -0.65967636586E-01  0.22801453009E-01  0.70112278036E-01  0.51100000000E-03 0.  1.
         11    1    4    4    0    0 -0.20335277355E-03 -0.31256238511E-01  0.40277008043E-01  0.50985216447E-01  0.51100000000E-03 0. -1.
</event>
<event>
 8    1  0.1104109E+005  0.1043930E+01  0.7957747E-01            NaN
         13   -1    0    0    0    0  0.00000000000E+00  0.00000000000E+00  0.74505805969E-08  0.10566000000E+00  0.10566000000E+00 0.  1.
     999900   -1    0    0    0    0 -0.00000000000E+00 -0.00000000000E+00 -0.74505805969E-08  0.93827000000E+00  0.93827000000E+00 0.  1.
     999902    2    1    2    0    0  0.13389546605E-01 -0.19168768448E-01  0.31541770574E-03  0.10205457931E+01  0.10202778517E+01 0.  0.
     999903    2    3    3    0    0  0.11230653138E-01  0.10615924378E+00  0.67812174604E-01  0.12910449745E+00  0.25953181468E-01 0.  0.
         14    1    1    2    0    0 -0.13389546605E-01  0.19168768448E-01 -0.31541770574E-03  0.23384206859E-01  0.00000000000E+00 0. -1.
     999901    1    3    3    0    0  0.21588934669E-02 -0.12532801223E+00 -0.67496756898E-01  0.89144129569E+00  0.88000000000E+00 0.  1.
        -11    1    4    4    0    0  0.94834513051E-02  0.66577996034E-01  0.27733595004E-01  0.72745988325E-01  0.51100000000E-03 0.  1.
         11    1    4    4    0    0  0.17472018327E-02  0.39581247744E-01  0.40078579600E-01  0.56358509127E-01  0.51100000000E-03 0. -1.
</event>
<event>
 8    1  0.1104109E+005  0.1043930E+01  0.7957747E-01            NaN
         13   -1    0    0    0    0  0.00000000000E+00  0.00000000000E+00  0.74505805969E-08  0.10566000000E+00  0.10566000000E+00 0.  1.
     999900   -1    0    0    0    0 -0.00000000000E+00 -0.00000000000E+00 -0.74505805969E-08  0.93827000000E+00  0.93827000000E+00 0. -1.
     999902    2    1    2    0    0 -0.19938741221E-02  0.23527629742E-01 -0.10683799566E-01  0.10180134325E+01  0.10176834873E+01 0.  0.
     999903    2    3    3    0    0  0.44067794385E-01  0.64667304544E-01  0.10043308178E+00  0.12887839698E+00  0.19975147434E-01 0.  0.
         14    1    1    2    0    0  0.19938741221E-02 -0.23527629742E-01  0.10683799566E-01  0.25916567451E-01  0.00000000000E+00 0.  1.
     999901    1    3    3    0    0 -0.46061668507E-01 -0.41139674802E-01 -0.11111688134E+00  0.88913503556E+00  0.88000000000E+00 0. -1.
        -11    1    4    4    0    0  0.24114086205E-01  0.51453591840E-01  0.70559841187E-01  0.90597536258E-01  0.51100000000E-03 0. -1.
         11    1    4    4    0    0  0.19953708180E-01  0.13213712705E-01  0.29873240591E-01  0.38280860727E-01  0.51100000000E-03 0.  1.
</event>
<event>
 8    1  0.1104109E+005  0.1043930E+01  0.7957747E-01            NaN
         13   -1    0    0    0    0  0.00000000000E+00  0.00000000000E+00  0.74505805969E-08  0.10566000000E+00  0.10566000000E+00 0.  1.
     999900   -1    0    0    0    0 -0.00000000000E+00 -0.00000000000E+00 -0.74505805969E-08  0.93827000000E+00  0.93827000000E+00 0. -1.
     999902    2    1    2    0    0 -0.23105532855E-01 -0.56450805534E-02 -0.13338764518E-02  0.10201074936E+01  0.10198292930E+01 0.  0.
     999903    2    3    3    0    0  0.89961208977E-03  0.12285449485E+00  0.36667214876E-01  0.12963993623E+00  0.19183123104E-01 0.  0.
         14    1    1    2    0    0  0.23105532855E-01  0.56450805534E-02  0.13338764518E-02  0.23822506362E-01  0.00000000000E+00 0.  1.
     999901    1    3    3    0    0 -0.24005144945E-01 -0.12849957540E+00 -0.38001091328E-01  0.89046755741E+00  0.88000000000E+00 0. -1.
        -11    1    4    4    0    0 -0.67834706624E-02  0.75934796656E-01  0.28524778436E-01  0.81400447931E-01  0.51100000000E-03 0. -1.
         11    1    4    4    0    0  0.76830827522E-02  0.46919698190E-01  0.81424364404E-02  0.48239488295E-01  0.51100000000E-03 0.  1.
</event>
<event>
 8    1  0.1104109E+005  0.1043930E+01  0.7957747E-01            NaN
         13   -1    0    0    0    0  0.00000000000E+00  0.00000000000E+00  0.74505805969E-08  0.10566000000E+00  0.10566000000E+00 0. -1.
     999900   -1    0    0    0    0 -0.00000000000E+00 -0.00000000000E+00 -0.74505805969E-08  0.93827000000E+00  0.93827000000E+00 0.  1.
     999902    2    1    2    0    0 -0.20260995404E-01  0.30797644791E-02 -0.16038145969E-01  0.10179066449E+01  0.10175739397E+01 0.  0.
     999903    2    3    3    0    0  0.82126313375E-01  0.73156855117E-01 -0.62267686400E-01  0.12800152073E+00  0.20260003470E-01 0.  0.
         14    1    1    2    0    0  0.20260995404E-01 -0.30797644791E-02  0.16038145969E-01  0.26023355090E-01  0.00000000000E+00 0. -1.
     999901    1    3    3    0    0 -0.10238730878E+00 -0.70077090638E-01  0.46229540430E-01  0.88990512418E+00  0.88000000000E+00 0.  1.
        -11    1    4    4    0    0  0.35027958476E-01  0.19905074764E-01 -0.28107624825E-01  0.49127075739E-01  0.51100000000E-03 0.  1.
         11    1    4    4    0    0  0.47098354899E-01  0.53251780353E-01 -0.34160061574E-01  0.78874444992E-01  0.51100000000E-03 0. -1.
</event>
<event>
 8    1  0.1104109E+005  0.1043930E+01  0.7957747E-01            NaN
         13   -1    0    0    0    0  0.00000000000E+00  0.00000000000E+00  0.74505805969E-08  0.10566000000E+00  0.10566000000E+00 0.  1.
     999900   -1    0    0    0    0 -0.00000000000E+00 -0.00000000000E+00 -0.74505805969E-08  0.93827000000E+00  0.93827000000E+00 0.  1.
     999902    2    1    2    0    0  0.19831916462E-02  0.12352624263E-01 -0.19595256369E-01  0.10206814635E+01  0.10204166578E+01 0.  0.
     999903    2    3    3    0    0 -0.12741437242E-01 -0.13463817184E-01 -0.13049365782E+00  0.13322343141E+00  0.19397663556E-01 0.  0.
         14    1    1    2    0    0 -0.19831916462E-02 -0.12352624263E-01  0.19595256369E-01  0.23248536459E-01  0.00000000000E+00 0.  1.
     999901    1    3    3    0    0  0.14724628888E-01  0.25816441448E-01  0.11089840145E+00  0.88745803213E+00  0.88000000000E+00 0. -1.
        -11    1    4    4    0    0 -0.39895606868E-02 -0.13679466963E-01 -0.11016548226E+00  0.11108437790E+00  0.51100000000E-03 0. -1.
         11    1    4    4    0    0 -0.87518765548E-02  0.21564977894E-03 -0.20328175552E-01  0.22139053511E-01  0.51100000000E-03 0.  1.
</event>
<event>
 8    1  0.1104109E+005  0.1043930E+01  0.7957747E-01            NaN
         13   -1    0    0    0    0  0.00000000000E+00  0.00000000000E+00  0.74505805969E-08  0.10566000000E+00  0.10566000000E+00 0.  1.
     999900   -1    0    0    0    0 -0.00000000000E+00 -0.00000000000E+00 -0.74505805969E-08  0.93827000000E+00  0.93827000000E+00 0.  1.
     999902    2    1    2    0    0  0.35135342579E-02  0.10402899387E-01 -0.18328040095E-01  0.10225645538E+01  0.10223413248E+01 0.  0.
     999903    2    3    3    0    0  0.64064362294E-01 -0.84622236581E-01  0.73377343971E-01  0.13065309141E+00  0.20514147445E-01 0.  0.
         14    1    1    2    0    0 -0.35135342579E-02 -0.10402899387E-01  0.18328040095E-01  0.21365446224E-01  0.00000000000E+00 0.  1.
     999901    1    3    3    0    0 -0.60550828036E-01  0.95025135968E-01 -0.91705384066E-01  0.89191146237E+00  0.88000000000E+00 0. -1.
        -11    1    4    4    0    0  0.59500007737E-01 -0.83238730963E-01  0.65686873286E-01  0.12158932394E+00  0.51100000000E-03 0. -1.
         11    1    4    4    0    0  0.45643545571E-02 -0.13835056185E-02  0.76904706846E-02  0.90637674656E-02  0.51100000000E-03 0.  1.
</event>
<event>
 8    1  0.1104109E+005  0.1043930E+01  0.7957747E-01            NaN
         13   -1    0    0    0    0  0.00000000000E+00  0.00000000000E+00  0.74505805969E-08  0.10566000000E+00  0.10566000000E+00 0. -1.
     999900   -1    0    0    0    0 -0.00000000000E+00 -0.00000000000E+00 -0.74505805969E-08  0.93827000000E+00  0.93827000000E+00 0. -1.
     999902    2    1    2    0    0 -0.14190474996E-01 -0.49566864104E-02 -0.17435074305E-01  0.10209100057E+01  0.10206504395E+01 0.  0.
     999903    2    3    3    0    0  0.68723011731E-01  0.98761672580E-01 -0.45884919065E-01  0.13049350882E+00  0.21128410617E-01 0.  0.
         14    1    1    2    0    0  0.14190474996E-01  0.49566864104E-02  0.17435074305E-01  0.23019994283E-01  0.00000000000E+00 0. -1.
     999901    1    3    3    0    0 -0.82913486727E-01 -0.10371835899E+00  0.28449844760E-01  0.89041649689E+00  0.88000000000E+00 0.  1.
        -11    1    4    4    0    0  0.60986606993E-01  0.75667515095E-01 -0.41792036398E-01  0.10579118347E+00  0.51100000000E-03 0.  1.
         11    1    4    4    0    0  0.77364047376E-02  0.23094157485E-01 -0.40928826670E-02  0.24702325350E-01  0.51100000000E-03 0. -1.
</event>
<event>
 8    1  0.1104109E+005  0.1043930E+01  0.7957747E-01            NaN
         13   -1    0    0    0    0  0.00000000000E+00  0.00000000000E+00  0.74505805969E-08  0.10566000000E+00  0.10566000000E+00 0.  1.
     999900   -1    0    0    0    0 -0.00000000000E+00 -0.00000000000E+00 -0.74505805969E-08  0.93827000000E+00  0.93827000000E+00 0. -1.
     999902    2    1    2    0    0  0.23026305770E-02 -0.12987069282E-01  0.20088332897E-01  0.10198986206E+01  0.10196154614E+01 0.  0.
     999903    2    3    3    0    0  0.88292382538E-01  0.87907704888E-01 -0.29338604312E-01  0.12859787732E+00  0.12383495252E-01 0.  0.
         14    1    1    2    0    0 -0.23026305770E-02  0.12987069282E-01 -0.20088332897E-01  0.24031379376E-01  0.00000000000E+00 0.  1.
     999901    1    3    3    0    0 -0.85989751961E-01 -0.10089477417E+00  0.49426937209E-01  0.89130074331E+00  0.88000000000E+00 0.  1.
        -11    1    4    4    0    0  0.31921240084E-01  0.26418954930E-01 -0.14277052744E-01  0.43829466163E-01  0.51100000000E-03 0.  1.
         11    1    4    4    0    0  0.56371142454E-01  0.61488749958E-01 -0.15061551568E-01  0.84768411154E-01  0.51100000000E-03 0. -1.
</event>
<event>
 7    1  0.1104109E+005  0.1043930E+01  0.7957747E-01            NaN
         13   -1    0    0    0    0  0.00000000000E+00  0.00000000000E+00  0.74505805969E-08  0.10566000000E+00  0.10566000000E+00 0.  1.
     999900   -1    0    0    0    0 -0.00000000000E+00 -0.00000000000E+00 -0.74505805969E-08  0.93827000000E+00  0.93827000000E+00 0. -1.
     999902    2    1    2    0    0  0.11149863571E-01  0.15632639424E-01 -0.13591784611E-01  0.10204047905E+01  0.10201335702E+01 0.  0.
         14    1    1    2    0    0 -0.11149863571E-01 -0.15632639424E-01  0.13591784611E-01  0.23525209498E-01  0.00000000000E+00 0.  1.
     999901    1    3    3    0    0 -0.10483700194E-01  0.10192184769E+00 -0.96568466079E-01  0.89119214519E+00  0.88000000000E+00 0. -1.
        -11    1    3    3    0    0  0.57484965324E-02 -0.82340450989E-01  0.71632997870E-01  0.10929109107E+00  0.51100000000E-03 0. -1.
         11    1    3    3    0    0  0.15885067232E-01 -0.39487572805E-02  0.11343683597E-01  0.19921554246E-01  0.51100000000E-03 0.  1.
</event>
<event>
 8    1  0.1104109E+005  0.1043930E+01  0.7957747E-01            NaN
         13   -1    0    0    0    0  0.00000000000E+00  0.00000000000E+00  0.74505805969E-08  0.10566000000E+00  0.10566000000E+00 0. -1.
     999900   -1    0    0    0    0 -0.00000000000E+00 -0.00000000000E+00 -0.74505805969E-08  0.93827000000E+00  0.93827000000E+00 0.  1.
     999902    2    1    2    0    0  0.19770961750E-01  0.12173407585E-01  0.30388010536E-02  0.10205138284E+01  0.10202451455E+01 0.  0.
     999903    2    3    3    0    0 -0.16752525620E-01 -0.12425711408E+00  0.22943332967E-01  0.12902998515E+00  0.20046521564E-01 0.  0.
         14    1    1    2    0    0 -0.19770961750E-01 -0.12173407585E-01 -0.30388010536E-02  0.23416171604E-01  0.00000000000E+00 0. -1.
     999901    1    3    3    0    0  0.36523487369E-01  0.13643052167E+00 -0.19904531914E-01  0.89148384324E+00  0.88000000000E+00 0.  1.
        -11    1    4    4    0    0 -0.13622431200E-01 -0.86366555297E-01  0.67297709887E-02  0.87694375215E-01  0.51100000000E-03 0. -1.
         11    1    4    4    0    0 -0.31300944197E-02 -0.37890558783E-01  0.16213561979E-01  0.41335609939E-01  0.51100000000E-03 0.  1.
</event>
<event>
 8    1  0.1104109E+005  0.1043930E+01  0.7957747E-01            NaN
         13   -1    0    0    0    0  0.00000000000E+00  0.00000000000E+00  0.74505805969E-08  0.10566000000E+00  0.10566000000E+00 0. -1.
     999900   -1    0    0    0    0 -0.00000000000E+00 -0.00000000000E+00 -0.74505805969E-08  0.93827000000E+00  0.93827000000E+00 0. -1.
     999902    2    1    2    0    0 -0.88267434923E-02  0.38661985900E-02 -0.21982766041E-01  0.10199278981E+01  0.10196454366E+01 0.  0.
     999903    2    3    3    0    0 -0.61662386281E-01 -0.10852653584E+00  0.29350871191E-01  0.12972630622E+00  0.19676941373E-01 0.  0.
         14    1    1    2    0    0  0.88267434923E-02 -0.38661985900E-02  0.21982766041E-01  0.24002101888E-01  0.00000000000E+00 0. -1.
     999901    1    3    3    0    0  0.52835642788E-01  0.11239273443E+00 -0.51333637233E-01  0.89020159190E+00  0.88000000000E+00 0. -1.
        -11    1    4    4    0    0 -0.11689776154E-02 -0.10427145587E-01  0.61133446170E-02  0.12154257573E-01  0.51100000000E-03 0. -1.
         11    1    4    4    0    0 -0.60493408665E-01 -0.98099390253E-01  0.23237526574E-01  0.11757204864E+00  0.51100000000E-03 0.  1.
</event>
<event>
 8    1  0.1104109E+005  0.1043930E+01  0.7957747E-01            NaN
         13   -1    0    0    0    0  0.00000000000E+00  0.00000000000E+00  0.74505805969E-08  0.10566000000E+00  0.10566000000E+00 0. -1.
     999900   -1    0    0    0    0 -0.00000000000E+00 -0.00000000000E+00 -0.74505805969E-08  0.93827000000E+00  0.93827000000E+00 0.  1.
     999902    2    1    2    0    0 -0.16683284187E-01  0.25711268890E-02 -0.16315298561E-01  0.10204538071E+01  0.10201837290E+01 0.  0.
     999903    2    3    3    0    0  0.50383183171E-01  0.11204309730E+00 -0.40209845516E-01  0.13081737986E+00  0.20105581214E-01 0.  0.
         14    1    1    2    0    0  0.16683284187E-01 -0.25711268890E-02  0.16315298561E-01  0.23476192875E-01  0.00000000000E+00 0. -1.
     999901    1    3    3    0    0 -0.67066467358E-01 -0.10947197042E+00  0.23894546954E-01  0.88963642727E+00  0.88000000000E+00 0.  1.
        -11    1    4    4    0    0  0.91054725970E-02  0.16351118425E-01 -0.13936921787E-01  0.23340257386E-01  0.51100000000E-03 0. -1.
         11    1    4    4    0    0  0.41277710574E-01  0.95691978880E-01 -0.26272923729E-01  0.10747712247E+00  0.51100000000E-03 0.  1.
</event>
<event>
 8    1  0.1104109E+005  0.1043930E+01  0.7957747E-01            NaN
         13   -1    0    0    0    0  0.00000000000E+00  0.00000000000E+00  0.74505805969E-08  0.10566000000E+00  0.10566000000E+00 0. -1.
     999900   -1    0    0    0    0 -0.00000000000E+00 -0.00000000000E+00 -0.74505805969E-08  0.93827000000E+00  0.93827000000E+00 0. -1.
     999902    2    1    2    0    0  0.12061914258E-01  0.81586360405E-02 -0.18462733499E-01  0.10204156290E+01  0.10201446614E+01 0.  0.
     999903    2    3    3    0    0 -0.14012902556E-01 -0.12727825091E+00 -0.24388592491E-02  0.12952853680E+00  0.19379866320E-01 0.  0.
         14    1    1    2    0    0 -0.12061914258E-01 -0.81586360405E-02  0.18462733499E-01  0.23514371049E-01  0.00000000000E+00 0. -1.
     999901    1    3    3    0    0  0.26074816814E-01  0.13543688695E+00 -0.16023874249E-01  0.89088709215E+00  0.88000000000E+00 0. -1.
        -11    1    4    4    0    0  0.32392520505E-03 -0.43764084832E-01 -0.84566524059E-02  0.44577753865E-01  0.51100000000E-03 0. -1.
         11    1    4    4    0    0 -0.14336827761E-01 -0.83514166075E-01  0.60177931567E-02  0.84950782933E-01  0.51100000000E-03 0.  1.
</event>
<event>
 8    1  0.1104109E+005  0.1043930E+01  0.7957747E-01            NaN
         13   -1    0    0    0    0  0.00000000000E+00  0.00000000000E+00  0.74505805969E-08  0.10566000000E+00  0.10566000000E+00 0.  1.
     999900   -1    0    0    0    0 -0.00000000000E+00 -0.00000000000E+00 -0.74505805969E-08  0.93827000000E+00  0.93827000000E+00 0.  1.
     999902    2    1    2    0    0  0.12453149704E-01  0.60118833715E-02  0.18657183152E-01  0.10207068615E+01  0.10204426407E+01 0.  0.
     999903    2    3    3    0    0  0.59506564885E-01 -0.11113743225E+00 -0.28226362852E-01  0.13046192164E+00  0.18194101470E-01 0.  0.
         14    1    1    2    0    0 -0.12453149704E-01 -0.60118833715E-02 -0.18657183152E-01  0.23223138513E-01  0.00000000000E+00 0. -1.
     999901    1    3    3    0    0 -0.47053415181E-01  0.11714931562E+00  0.46883546004E-01  0.89024493984E+00  0.88000000000E+00 0. -1.
        -11    1    4    4    0    0  0.40947020865E-03 -0.82585024567E-02 -0.46371614460E-02  0.94939410128E-02  0.51100000000E-03 0. -1.
         11    1    4    4    0    0  0.59097094676E-01 -0.10287892979E+00 -0.23589201406E-01  0.12096798063E+00  0.51100000000E-03 0.  1.
</event>
<event>
 8    1  0.1104109E+005  0.1043930E+01  0.7957747E-01            NaN
         13   -1    0    0    0    0  0.00000000000E+00  0.00000000000E+00  0.74505805969E-08  0.10566000000E+00  0.10566000000E+00 0. -1.
     999900   -1    0    0    0    0 -0.00000000000E+00 -0.00000000000E+00 -0.74505805969E-08  0.93827000000E+00  0.93827000000E+00 0.  1.
     999902    2    1    2    0    0  0.21029415630E-01  0.26856705883E-02 -0.12540278781E-01  0.10192985620E+01  0.10190009081E+01 0.  0.
     999903    2    3    3    0    0 -0.80944218078E-02 -0.11760342117E+00 -0.52964242469E-01  0.12971902063E+00  0.11212894245E-01 0.  0.
         14    1    1    2    0    0 -0.21029415630E-01 -0.26856705883E-02  0.12540278781E-01  0.24631438045E-01  0.00000000000E+00 0. -1.
     999901    1    3    3    0    0  0.29123837438E-01  0.12028909176E+00  0.40423963688E-01  0.88957954132E+00  0.88000000000E+00 0.  1.
        -11    1    4    4    0    0  0.49859168149E-03 -0.34226297964E-01 -0.20013422466E-01  0.39654586945E-01  0.51100000000E-03 0. -1.
         11    1    4    4    0    0 -0.85930134893E-02 -0.83377123207E-01 -0.32950820003E-01  0.90064433685E-01  0.51100000000E-03 0.  1.
</event>
<event>
 8    1  0.1104109E+005  0.1043930E+01  0.7957747E-01            NaN
         13   -1    0    0    0    0  0.00000000000E+00  0.00000000000E+00  0.74505805969E-08  0.10566000000E+00  0.10566000000E+00 0.  1.
     999900   -1    0    0    0    0 -0.00000000000E+00 -0.00000000000E+00 -0.74505805969E-08  0.93827000000E+00  0.93827000000E+00 0. -1.
     999902    2    1    2    0    0 -0.20326470095E-01  0.89706538231E-02  0.87557973831E-02  0.10200490033E+01  0.10197694186E+01 0.  0.
     999903    2    3    3    0    0  0.18892551807E-01  0.12263110703E+00  0.38382470147E-01  0.13137889011E+00  0.19796005331E-01 0.  0.
         14    1    1    2    0    0  0.20326470095E-01 -0.89706538231E-02 -0.87557973831E-02  0.23880996720E-01  0.00000000000E+00 0. -1.
     999901    1    3    3    0    0 -0.39219021902E-01 -0.11366045321E+00 -0.29626672764E-01  0.88867011317E+00  0.88000000000E+00 0. -1.
        -11    1    4    4    0    0  0.12387058628E-01  0.10300256720E+00  0.38596639537E-01  0.11069295269E+00  0.51100000000E-03 0. -1.
         11    1    4    4    0    0  0.65054931790E-02  0.19628539828E-01 -0.21416938986E-03  0.20685937417E-01  0.51100000000E-03 0.  1.
</event>
<event>
 8    1  0.1104109E+005  0.1043930E+01  0.7957747E-01            NaN
         13   -1    0    0    0    0  0.00000000000E+00  0.00000000000E+00  0.74505805969E-08  0.10566000000E+00  0.10566000000E+00 0. -1.
     999900   -1    0    0    0    0 -0.00000000000E+00 -0.00000000000E+00 -0.74505805969E-08  0.93827000000E+00  0.93827000000E+00 0.  1.
     999902    2    1    2    0    0 -0.95494444935E-02 -0.98068822730E-02 -0.19428858008E-01  0.10201634825E+01  0.10198866034E+01 0.  0.
     999903    2    3    3    0    0  0.84267973594E-02  0.11399089325E+00 -0.59435469096E-01  0.13041657275E+00  0.20272464168E-01 0.  0.
         14    1    1    2    0    0  0.95494444935E-02  0.98068822730E-02  0.19428858008E-01  0.23766517489E-01  0.00000000000E+00 0. -1.
     999901    1    3    3    0    0 -0.17976241853E-01 -0.12379777553E+00  0.40006611088E-01  0.88974690976E+00  0.88000000000E+00 0. -1.
        -11    1    4    4    0    0  0.91713331736E-02  0.20614733171E-01 -0.14117766304E-01  0.26620537603E-01  0.51100000000E-03 0. -1.
         11    1    4    4    0    0 -0.74453581418E-03  0.93376160082E-01 -0.45317702792E-01  0.10379603515E+00  0.51100000000E-03 0.  1.
</event>
<event>
 8    1  0.1104109E+005  0.1043930E+01  0.7957747E-01            NaN
         13   -1    0    0    0    0  0.00000000000E+00  0.00000000000E+00  0.74505805969E-08  0.10566000000E+00  0.10566000000E+00 0. -1.
     999900   -1    0    0    0    0 -0.00000000000E+00 -0.00000000000E+00 -0.74505805969E-08  0.93827000000E+00  0.93827000000E+00 0.  1.
     999902    2    1    2    0    0  0.39876377250E-02 -0.34395916657E-02 -0.24353570274E-01  0.10190135711E+01  0.10187089033E+01 0.  0.
     999903    2    3    3    0    0  0.20739940501E-01  0.60502900380E-01 -0.11350144653E+00  0.13204309480E+00  0.21495451445E-01 0.  0.
         14    1    1    2    0    0 -0.39876377250E-02  0.34395916657E-02  0.24353570274E-01  0.24916428928E-01  0.00000000000E+00 0. -1.
     999901    1    3    3    0    0 -0.16752302776E-01 -0.63942492045E-01  0.89147876259E-01  0.88697047627E+00  0.88000000000E+00 0. -1.
        -11    1    4    4    0    0  0.20278927148E-01  0.26251006523E-01 -0.58117695912E-01  0.66919936707E-01  0.51100000000E-03 0. -1.
         11    1    4    4    0    0  0.46101335280E-03  0.34251893857E-01 -0.55383750620E-01  0.65123158092E-01  0.51100000000E-03 0.  1.
</event>
<event>
 8    1  0.1104109E+005  0.1043930E+01  0.7957747E-01            NaN
         13   -1    0    0    0    0  0.00000000000E+00  0.00000000000E+00  0.74505805969E-08  0.10566000000E+00  0.10566000000E+00 0.  1.
     999900   -1    0    0    0    0 -0.00000000000E+00 -0.00000000000E+00 -0.74505805969E-08  0.93827000000E+00  0.93827000000E+00 0.  1.
     999902    2    1    2    0    0  0.75643413308E-02  0.46433030026E-02 -0.22462087516E-01  0.10197778800E+01  0.10194918341E+01 0.  0.
     999903    2    3    3    0    0  0.94692046115E-01  0.49667204551E-01 -0.75806684703E-01  0.13272431081E+00  0.20872815548E-01 0.  0.
         14    1    1    2    0    0 -0.75643413308E-02 -0.46433030026E-02  0.22462087516E-01  0.24152119951E-01  0.00000000000E+00 0.  1.
     999901    1    3    3    0    0 -0.87127704784E-01 -0.45023901549E-01  0.53344597187E-01  0.88705356924E+00  0.88000000000E+00 0. -1.
        -11    1    4    4    0    0  0.66071491855E-01  0.33123911351E-01 -0.40205261555E-01  0.84138931042E-01  0.51100000000E-03 0. -1.
         11    1    4    4    0    0  0.28620554260E-01  0.16543293200E-01 -0.35601423148E-01  0.48585379768E-01  0.51100000000E-03 0.  1.
</event>
<event>
 8    1  0.1104109E+005  0.1043930E+01  0.7957747E-01            NaN
         13   -1    0    0    0    0  0.00000000000E+00  0.00000000000E+00  0.74505805969E-08  0.10566000000E+00  0.10566000000E+00 0. -1.
     999900   -1    0    0    0    0 -0.00000000000E+00 -0.00000000000E+00 -0.74505805969E-08  0.93827000000E+00  0.93827000000E+00 0. -1.
     999902    2    1    2    0    0  0.21032100707E-01 -0.78258254373E-02  0.61272146322E-02  0.10206676793E+01  0.10204025559E+01 0.  0.
     999903    2    3    3    0    0  0.11820228888E+00 -0.92715610268E-02  0.58482370434E-01  0.13377129420E+00  0.20416379678E-01 0.  0.
         14    1    1    2    0    0 -0.21032100707E-01  0.78258254373E-02 -0.61272146322E-02  0.23262320672E-01  0.00000000000E+00 0.  1.
     999901    1    3    3    0    0 -0.97170188173E-01  0.14457355895E-02 -0.52355155801E-01  0.88689638513E+00  0.88000000000E+00 0. -1.
        -11    1    4    4    0    0  0.60786982955E-01 -0.52184037774E-02  0.18747706423E-01  0.63828102368E-01  0.51100000000E-03 0.  1.
         11    1    4    4    0    0  0.57415305924E-01 -0.40531572494E-02  0.39734664010E-01  0.69943191828E-01  0.51100000000E-03 0. -1.
</event>
<event>
 8    1  0.1104109E+005  0.1043930E+01  0.7957747E-01            NaN
         13   -1    0    0    0    0  0.00000000000E+00  0.00000000000E+00  0.74505805969E-08  0.10566000000E+00  0.10566000000E+00 0. -1.
     999900   -1    0    0    0    0 -0.00000000000E+00 -0.00000000000E+00 -0.74505805969E-08  0.93827000000E+00  0.93827000000E+00 0. -1.
     999902    2    1    2    0    0 -0.12034036633E-01 -0.17684742168E-01 -0.96779309265E-02  0.10204517017E+01  0.10201815745E+01 0.  0.
     999903    2    3    3    0    0  0.74060046400E-01 -0.99843236261E-01 -0.39174956993E-01  0.13195168268E+00  0.20567134131E-01 0.  0.
         14    1    1    2    0    0  0.12034036633E-01  0.17684742168E-01  0.96779309265E-02  0.23478298282E-01  0.00000000000E+00 0. -1.
     999901    1    3    3    0    0 -0.86094083033E-01  0.82158494093E-01  0.29497026067E-01  0.88850001904E+00  0.88000000000E+00 0.  1.
        -11    1    4    4    0    0  0.49240448577E-01 -0.78059164603E-01 -0.34796126027E-01  0.98635117793E-01  0.51100000000E-03 0.  1.
         11    1    4    4    0    0  0.24819597824E-01 -0.21784071658E-01 -0.43788309664E-02  0.33316564885E-01  0.51100000000E-03 0. -1.
</event>
<event>
 8    1  0.1104109E+005  0.1043930E+01  0.7957747E-01            NaN
         13   -1    0    0    0    0  0.00000000000E+00  0.00000000000E+00  0.74505805969E-08  0.10566000000E+00  0.10566000000E+00 0.  1.
     999900   -1    0    0    0    0 -0.00000000000E+00 -0.00000000000E+00 -0.74505805969E-08  0.93827000000E+00  0.93827000000E+00 0. -1.
     999902    2    1    2    0    0  0.10023193945E-01  0.17925879725E-01 -0.11947497540E-01  0.10201698595E+01  0.10198931306E+01 0.  0.
     999903    2    3    3    0    0 -0.82683614159E-01 -0.13920780069E-03  0.96366432162E-01  0.12851252224E+00  0.19808576328E-01 0.  0.
         14    1    1    2    0    0 -0.10023193945E-01 -0.17925879725E-01  0.11947497540E-01  0.23760140535E-01  0.00000000000E+00 0. -1.
     999901    1    3    3    0    0  0.92706808104E-01  0.18065087525E-01 -0.10831392970E+00  0.89165733722E+00  0.88000000000E+00 0. -1.
        -11    1    4    4    0    0 -0.19927651255E-01 -0.49745494486E-02  0.14057510740E-01  0.24894420177E-01  0.51100000000E-03 0.  1.
         11    1    4    4    0    0 -0.62755962904E-01  0.48353416479E-02  0.82308921422E-01  0.10361810206E+00  0.51100000000E-03 0. -1.
</event>
<event>
 8    1  0.1104109E+005  0.1043930E+01  0.7957747E-01            NaN
         13   -1    0    0    0    0  0.00000000000E+00  0.00000000000E+00  0.74505805969E-08  0.10566000000E+00  0.10566000000E+00 0.  1.
     999900   -1    0    0    0    0 -0.00000000000E+00 -0.00000000000E+00 -0.74505805969E-08  0.93827000000E+00  0.93827000000E+00 0. -1.
     999902    2    1    2    0    0  0.15403200455E-02  0.14915624302E-02  0.23239234700E-01  0.10205920615E+01  0.10203251916E+01 0.  0.
     999903    2    3    3    0    0 -0.25982088016E-01  0.73236695131E-01 -0.10041941735E+00  0.12863000555E+00  0.20565420851E-01 0.  0.
         14    1    1    2    0    0 -0.15403200455E-02 -0.14915624302E-02 -0.23239234700E-01  0.23337938507E-01  0.00000000000E+00 0. -1.
     999901    1    3    3    0    0  0.27522408061E-01 -0.71745132701E-01  0.12365865205E+00  0.89196205594E+00  0.88000000000E+00 0.  1.
        -11    1    4    4    0    0 -0.16283092282E-01  0.19672379007E-01 -0.38263303405E-01  0.46005250772E-01  0.51100000000E-03 0. -1.
         11    1    4    4    0    0 -0.96989957338E-02  0.53564316124E-01 -0.62156113950E-01  0.82624754779E-01  0.51100000000E-03 0.  1.
</event>
<event>
 8    1  0.1104109E+005  0.1043930E+01  0.7957747E-01            NaN
         13   -1    0    0    0    0  0.00000000000E+00  0.00000000000E+00  0.74505805969E-08  0.10566000000E+00  0.10566000000E+00 0.  1.
     999900   -1    0    0    0    0 -0.00000000000E+00 -0.00000000000E+00 -0.74505805969E-08  0.93827000000E+00  0.93827000000E+00 0. -1.
     999902    2    1    2    0    0  0.15863049142E-01  0.22979636094E-02 -0.17894702336E-01  0.10199063172E+01  0.10196233415E+01 0.  0.
     999903    2    3    3    0    0  0.73409494477E-01  0.57949133041E-01 -0.92664822338E-01  0.13311478763E+00  0.19639793450E-01 0.  0.
         14    1    1    2    0    0 -0.15863049142E-01 -0.22979636094E-02  0.17894702336E-01  0.24023682826E-01  0.00000000000E+00 0.  1.
     999901    1    3    3    0    0 -0.57546445335E-01 -0.55651169431E-01  0.74770120002E-01  0.88679152955E+00  0.88000000000E+00 0.  1.
        -11    1    4    4    0    0  0.39409001852E-01  0.31643891606E-01 -0.63520511722E-01  0.81175869773E-01  0.51100000000E-03 0.  1.
         11    1    4    4    0    0  0.34000492625E-01  0.26305241435E-01 -0.29144310616E-01  0.51938917855E-01  0.51100000000E-03 0. -1.
</event>
<event>
 8    1  0.1104109E+005  0.1043930E+01  0.7957747E-01            NaN
         13   -1    0    0    0    0  0.00000000000E+00  0.00000000000E+00  0.74505805969E-08  0.10566000000E+00  0.10566000000E+00 0. -1.
     999900   -1    0    0    0    0 -0.00000000000E+00 -0.00000000000E+00 -0.74505805969E-08  0.93827000000E+00  0.93827000000E+00 0.  1.
     999902    2    1    2    0    0 -0.87342696262E-02  0.39969457715E-02  0.24045450984E-01  0.10180370134E+01  0.10177076761E+01 0.  0.
     999903    2    3    3    0    0 -0.46113477428E-01  0.11328877567E+00  0.40003504141E-01  0.13034530526E+00  0.20707939702E-01 0.  0.
         14    1    1    2    0    0  0.87342696262E-02 -0.39969457715E-02 -0.24045450984E-01  0.25892986587E-01  0.00000000000E+00 0.  1.
     999901    1    3    3    0    0  0.37379207802E-01 -0.10929182990E+00 -0.15958053157E-01  0.88769170815E+00  0.88000000000E+00 0. -1.
        -11    1    4    4    0    0 -0.47065601277E-01  0.10249871511E+00  0.39441880684E-01  0.11948673774E+00  0.51100000000E-03 0.  1.
         11    1    4    4    0    0  0.95212384907E-03  0.10790060558E-01  0.56162345648E-03  0.10858567519E-01  0.51100000000E-03 0. -1.
</event>
<event>
 8    1  0.1104109E+005  0.1043930E+01  0.7957747E-01            NaN
         13   -1    0    0    0    0  0.00000000000E+00  0.00000000000E+00  0.74505805969E-08  0.10566000000E+00  0.10566000000E+00 0. -1.
     999900   -1    0    0    0    0 -0.00000000000E+00 -0.00000000000E+00 -0.74505805969E-08  0.93827000000E+00  0.93827000000E+00 0.  1.
     999902    2    1    2    0    0  0.21277348574E-01  0.52858843879E-02 -0.64044407446E-02  0.10210896192E+01  0.10208341331E+01 0.  0.
     999903    2    3    3    0    0  0.37234294464E-01 -0.47819427918E-01  0.11439682821E+00  0.13110774018E+00  0.20724740287E-01 0.  0.
         14    1    1    2    0    0 -0.21277348574E-01 -0.52858843879E-02  0.64044407446E-02  0.22840380850E-01  0.00000000000E+00 0.  1.
     999901    1    3    3    0    0 -0.15956945890E-01  0.53105312306E-01 -0.12080126895E+00  0.88998187897E+00  0.88000000000E+00 0.  1.
        -11    1    4    4    0    0  0.14559570160E-02 -0.10750486145E-01  0.10345478018E-01  0.14999426643E-01  0.51100000000E-03 0. -1.
         11    1    4    4    0    0  0.35778337448E-01 -0.37068941773E-01  0.10405135019E+00  0.11610831354E+00  0.51100000000E-03 0.  1.
</event>
<event>
 8    1  0.1104109E+005  0.1043930E+01  0.7957747E-01            NaN
         13   -1    0    0    0    0  0.00000000000E+00  0.00000000000E+00  0.74505805969E-08  0.10566000000E+00  0.10566000000E+00 0.  1.
     999900   -1    0    0    0    0 -0.00000000000E+00 -0.00000000000E+00 -0.74505805969E-08  0.93827000000E+00  0.93827000000E+00 0. -1.
     999902    2    1    2    0    0  0.54008731121E-02  0.74288267503E-02  0.21735489957E-01  0.10203336354E+01  0.10200607527E+01 0.  0.
     999903    2    3    3    0    0 -0.31460457419E-01 -0.24252392212E-01  0.12531934195E+00  0.13292613506E+00  0.19659120156E-01 0.  0.
         14    1    1    2    0    0 -0.54008731121E-02 -0.74288267503E-02 -0.21735489957E-01  0.23596364570E-01  0.00000000000E+00 0. -1.
     999901    1    3    3    0    0  0.36861330532E-01  0.31681218962E-01 -0.10358385199E+00  0.88740750037E+00  0.88000000000E+00 0. -1.
        -11    1    4    4    0    0 -0.29725072689E-01 -0.26536718650E-01  0.10338955086E+00  0.11080359981E+00  0.51100000000E-03 0. -1.
         11    1    4    4    0    0 -0.17353847306E-02  0.22843264376E-02  0.21929791094E-01  0.22122535250E-01  0.51100000000E-03 0.  1.
</event>
<event>
 8    1  0.1104109E+005  0.1043930E+01  0.7957747E-01            NaN
         13   -1    0    0    0    0  0.00000000000E+00  0.00000000000E+00  0.74505805969E-08  0.10566000000E+00  0.10566000000E+00 0. -1.
     999900   -1    0    0    0    0 -0.00000000000E+00 -0.00000000000E+00 -0.74505805969E-08  0.93827000000E+00  0.93827000000E+00 0.  1.
     999902    2    1    2    0    0 -0.42551944560E-03  0.37530361968E-02  0.23733586579E-01  0.10198977409E+01  0.10196145607E+01 0.  0.
     999903    2    3    3    0    0  0.35462353444E-01 -0.57101555916E-02  0.12648623762E+00  0.13314208189E+00  0.20925134975E-01 0.  0.
         14    1    1    2    0    0  0.42551944560E-03 -0.37530361968E-02 -0.23733586579E-01  0.24032259141E-01  0.00000000000E+00 0.  1.
     999901    1    3    3    0    0 -0.35887872889E-01  0.94631917884E-02 -0.10275265104E+00  0.88675565897E+00  0.88000000000E+00 0. -1.
        -11    1    4    4    0    0  0.25117291493E-01 -0.11457410307E-01  0.10539758975E+00  0.10895441079E+00  0.51100000000E-03 0. -1.
         11    1    4    4    0    0  0.10345061950E-01  0.57472547155E-02  0.21088647866E-01  0.24187671102E-01  0.51100000000E-03 0.  1.
</event>
<event>
 8    1  0.1104109E+005  0.1043930E+01  0.7957747E-01            NaN
         13   -1    0    0    0    0  0.00000000000E+00  0.00000000000E+00  0.74505805969E-08  0.10566000000E+00  0.10566000000E+00 0. -1.
     999900   -1    0    0    0    0 -0.00000000000E+00 -0.00000000000E+00 -0.74505805969E-08  0.93827000000E+00  0.93827000000E+00 0. -1.
     999902    2    1    2    0    0  0.17851085867E-01 -0.39266834923E-02 -0.14217671218E-01  0.10207735261E+01  0.10205108374E+01 0.  0.
     999903    2    3    3    0    0 -0.25575406768E-01 -0.50907957866E-01 -0.11799316668E+00  0.13236908334E+00  0.18800671132E-01 0.  0.
         14    1    1    2    0    0 -0.17851085867E-01  0.39266834923E-02  0.14217671218E-01  0.23156473928E-01  0.00000000000E+00 0.  1.
     999901    1    3    3    0    0  0.43426492636E-01  0.46981274374E-01  0.10377549547E+00  0.88840444273E+00  0.88000000000E+00 0.  1.
        -11    1    4    4    0    0 -0.45751082050E-02 -0.22708919478E-01 -0.62674581618E-01  0.66820587703E-01  0.51100000000E-03 0.  1.
         11    1    4    4    0    0 -0.21000298563E-01 -0.28199038388E-01 -0.55318585066E-01  0.65548495639E-01  0.51100000000E-03 0. -1.
</event>
<event>
 8    1  0.1104109E+005  0.1043930E+01  0.7957747E-01            NaN
         13   -1    0    0    0    0  0.00000000000E+00  0.00000000000E+00  0.74505805969E-08  0.10566000000E+00  0.10566000000E+00 0.  1.
     999900   -1    0    0    0    0 -0.00000000000E+00 -0.00000000000E+00 -0.74505805969E-08  0.93827000000E+00  0.93827000000E+00 0. -1.
     999902    2    1    2    0    0 -0.21155592858E-01 -0.49596559028E-02 -0.10063100285E-01  0.10199837418E+01  0.10197026087E+01 0.  0.
     999903    2    3    3    0    0  0.59385057325E-01 -0.37144224065E-02  0.11162608146E+00  0.12796546623E+00  0.19349328636E-01 0.  0.
         14    1    1    2    0    0  0.21155592858E-01  0.49596559028E-02  0.10063100285E-01  0.23946258230E-01  0.00000000000E+00 0.  1.
     999901    1    3    3    0    0 -0.80540650183E-01 -0.12452334964E-02 -0.12168918175E+00  0.89201827554E+00  0.88000000000E+00 0. -1.
        -11    1    4    4    0    0 -0.60786912318E-04 -0.30340802404E-02  0.65340996956E-02  0.72225284898E-02  0.51100000000E-03 0. -1.
         11    1    4    4    0    0  0.59445844237E-01 -0.68034216602E-03  0.10509198177E+00  0.12074293774E+00  0.51100000000E-03 0.  1.
</event>
<event>
 8    1  0.1104109E+005  0.1043930E+01  0.7957747E-01            NaN
         13   -1    0    0    0    0  0.00000000000E+00  0.00000000000E+00  0.74505805969E-08  0.10566000000E+00  0.10566000000E+00 0.  1.
     999900   -1    0    0    0    0 -0.00000000000E+00 -0.00000000000E+00 -0.74505805969E-08  0.93827000000E+00  0.93827000000E+00 0.  1.
     999902    2    1    2    0    0  0.14737599751E-01  0.11100145735E-01 -0.15140417934E-01  0.10200628188E+01  0.10197835614E+01 0.  0.
     999903    2    3    3    0    0  0.94992805173E-01 -0.37590558892E-01 -0.82014225648E-01  0.13254730411E+00  0.20143769888E-01 0.  0.
         14    1    1    2    0    0 -0.14737599751E-01 -0.11100145735E-01  0.15140417934E-01  0.23867181169E-01  0.00000000000E+00 0.  1.
     999901    1    3    3    0    0 -0.80255205422E-01  0.48690704626E-01  0.66873807715E-01  0.88751551472E+00  0.88000000000E+00 0. -1.
        -11    1    4    4    0    0  0.46812007105E-01 -0.26825062527E-01 -0.34607212952E-01  0.64100454741E-01  0.51100000000E-03 0. -1.
         11    1    4    4    0    0  0.48180798069E-01 -0.10765496365E-01 -0.47407012697E-01  0.68446849368E-01  0.51100000000E-03 0.  1.
</event>
<event>
 8    1  0.1104109E+005  0.1043930E+01  0.7957747E-01            NaN
         13   -1    0    0    0    0  0.00000000000E+00  0.00000000000E+00  0.74505805969E-08  0.10566000000E+00  0.10566000000E+00 0. -1.
     999900   -1    0    0    0    0 -0.00000000000E+00 -0.00000000000E+00 -0.74505805969E-08  0.93827000000E+00  0.93827000000E+00 0.  1.
     999902    2    1    2    0    0  0.21672085986E-01 -0.11503869445E-02 -0.11975102004E-01  0.10191427902E+01  0.10188413130E+01 0.  0.
     999903    2    3    3    0    0 -0.66784571441E-01  0.10370053526E+00 -0.29123484112E-01  0.12834968116E+00  0.20285051873E-01 0.  0.
         14    1    1    2    0    0 -0.21672085986E-01  0.11503869445E-02  0.11975102004E-01  0.24787209789E-01  0.00000000000E+00 0. -1.
     999901    1    3    3    0    0  0.88456657427E-01 -0.10485092221E+00  0.17148382108E-01  0.89079310906E+00  0.88000000000E+00 0.  1.
        -11    1    4    4    0    0 -0.22543090871E-01  0.44728288884E-01 -0.20497663500E-01  0.54122325361E-01  0.51100000000E-03 0. -1.
         11    1    4    4    0    0 -0.44241480570E-01  0.58972246379E-01 -0.86258206119E-02  0.74227355795E-01  0.51100000000E-03 0.  1.
</event>
<event>
 8    1  0.1104109E+005  0.1043930E+01  0.7957747E-01            NaN
         13   -1    0    0    0    0  0.00000000000E+00  0.00000000000E+00  0.74505805969E-08  0.10566000000E+00  0.10566000000E+00 0.  1.
     999900   -1    0    0    0    0 -0.00000000000E+00 -0.00000000000E+00 -0.74505805969E-08  0.93827000000E+00  0.93827000000E+00 0. -1.
     999902    2    1    2    0    0 -0.14301674278E-01  0.17980553590E-01 -0.30204880420E-02  0.10207575693E+01  0.10204945144E+01 0.  0.
     999903    2    3    3    0    0 -0.22204672158E-01 -0.65966458334E-01  0.10772226886E+00  0.12981788766E+00  0.20099145730E-01 0.  0.
         14    1    1    2    0    0  0.14301674278E-01 -0.17980553590E-01  0.30204880420E-02  0.23172430657E-01  0.00000000000E+00 0.  1.
     999901    1    3    3    0    0  0.79029978795E-02  0.83947011923E-01 -0.11074275690E+00  0.89093968168E+00  0.88000000000E+00 0.  1.
        -11    1    4    4    0    0 -0.11528187985E-01 -0.15429101997E-01  0.18438974227E-01  0.26668580731E-01  0.51100000000E-03 0.  1.
         11    1    4    4    0    0 -0.10676484173E-01 -0.50537356337E-01  0.89283294629E-01  0.10314930693E+00  0.51100000000E-03 0. -1.
</event>
<event>
 8    1  0.1104109E+005  0.1043930E+01  0.7957747E-01            NaN
         13   -1    0    0    0    0  0.00000000000E+00  0.00000000000E+00  0.74505805969E-08  0.10566000000E+00  0.10566000000E+00 0.  1.
     999900   -1    0    0    0    0 -0.00000000000E+00 -0.00000000000E+00 -0.74505805969E-08  0.93827000000E+00  0.93827000000E+00 0. -1.
     999902    2    1    2    0    0 -0.54853776377E-02  0.23099386993E-01 -0.10163839909E-01  0.10181041469E+01  0.10177765370E+01 0.  0.
     999903    2    3    3    0    0 -0.72619420235E-01 -0.15414162147E-01 -0.10433202098E+00  0.12970225615E+00  0.20647713149E-01 0.  0.
         14    1    1    2    0    0  0.54853776377E-02 -0.23099386993E-01  0.10163839909E-01  0.25825853112E-01  0.00000000000E+00 0. -1.
     999901    1    3    3    0    0  0.67134042597E-01  0.38513549140E-01  0.94168181071E-01  0.88840189074E+00  0.88000000000E+00 0.  1.
        -11    1    4    4    0    0 -0.19410489105E-01 -0.13705657597E-01 -0.30082661087E-01  0.38338489231E-01  0.51100000000E-03 0.  1.
         11    1    4    4    0    0 -0.53208931130E-01 -0.17085045500E-02 -0.74249359894E-01  0.91363766918E-01  0.51100000000E-03 0. -1.
</event>
<event>
 8    1  0.1104109E+005  0.1043930E+01  0.7957747E-01            NaN
         13   -1    0    0    0    0  0.00000000000E+00  0.00000000000E+00  0.74505805969E-08  0.10566000000E+00  0.10566000000E+00 0. -1.
     999900   -1    0    0    0    0 -0.00000000000E+00 -0.00000000000E+00 -0.74505805969E-08  0.93827000000E+00  0.93827000000E+00 0. -1.
     999902    2    1    2    0    0  0.21726556156E-01  0.78813064195E-03  0.89182449817E-02  0.10204310748E+01  0.10201604672E+01 0.  0.
     999903    2    3    3    0    0 -0.60721030644E-01  0.51642288358E-01  0.10139025894E+00  0.13029916137E+00  0.18545008382E-01 0.  0.
         14    1    1    2    0    0 -0.21726556156E-01 -0.78813064195E-03 -0.89182449817E-02  0.23498925207E-01  0.00000000000E+00 0.  1.
     999901    1    3    3    0    0  0.82447586801E-01 -0.50854157716E-01 -0.92472013962E-01  0.89013191342E+00  0.88000000000E+00 0. -1.
        -11    1    4    4    0    0 -0.17120441914E-01  0.26362997850E-01  0.39190764539E-01  0.50242355967E-01  0.51100000000E-03 0. -1.
         11    1    4    4    0    0 -0.43600588731E-01  0.25279290508E-01  0.62199494405E-01  0.80056805404E-01  0.51100000000E-03 0.  1.
</event>
<event>
 8    1  0.1104109E+005  0.1043930E+01  0.7957747E-01            NaN
         13   -1    0    0    0    0  0.00000000000E+00  0.00000000000E+00  0.74505805969E-08  0.10566000000E+00  0.10566000000E+00 0.  1.
     999900   -1    0    0    0    0 -0.00000000000E+00 -0.00000000000E+00 -0.74505805969E-08  0.93827000000E+00  0.93827000000E+00 0. -1.
     999902    2    1    2    0    0  0.13762577450E-01 -0.34059107813E-02  0.18839364353E-01  0.10203518233E+01  0.10200793660E+01 0.  0.
     999903    2    3    3    0    0  0.10853323890E+00 -0.65995830196E-01 -0.27935009063E-01  0.13182111575E+00  0.21483209210E-01 0.  0.
         14    1    1    2    0    0 -0.13762577450E-01  0.34059107813E-02 -0.18839364353E-01  0.23578176680E-01  0.00000000000E+00 0. -1.
     999901    1    3    3    0    0 -0.94770661447E-01  0.62589919415E-01  0.46774373416E-01  0.88853070757E+00  0.88000000000E+00 0. -1.
        -11    1    4    4    0    0  0.25896404028E-01 -0.17359550985E-01  0.23356598192E-02  0.31268101634E-01  0.51100000000E-03 0.  1.
         11    1    4    4    0    0  0.82636834869E-01 -0.48636279211E-01 -0.30270668882E-01  0.10055301412E+00  0.51100000000E-03 0. -1.
</event>
<event>
 8    1  0.1104109E+005  0.1043930E+01  0.7957747E-01            NaN
         13   -1    0    0    0    0  0.00000000000E+00  0.00000000000E+00  0.74505805969E-08  0.10566000000E+00  0.10566000000E+00 0. -1.
     999900   -1    0    0    0    0 -0.00000000000E+00 -0.00000000000E+00 -0.74505805969E-08  0.93827000000E+00  0.93827000000E+00 0. -1.
     999902    2    1    2    0    0 -0.11828053121E-01 -0.15685886491E-01 -0.16248502053E-01  0.10184356144E+01  0.10181164654E+01 0.  0.
     999903    2    3    3    0    0  0.64683704814E-02 -0.99431708183E-01  0.79619577051E-01  0.12908820744E+00  0.19899342719E-01 0.  0.
         14    1    1    2    0    0  0.11828053121E-01  0.15685886491E-01  0.16248502053E-01  0.25494385551E-01  0.00000000000E+00 0. -1.
     999901    1    3    3    0    0 -0.18296423603E-01  0.83745821692E-01 -0.95868079104E-01  0.88934740701E+00  0.88000000000E+00 0. -1.
        -11    1    4    4    0    0 -0.62763642964E-02 -0.37186673509E-01  0.34941543540E-01  0.51414142232E-01  0.51100000000E-03 0.  1.
         11    1    4    4    0    0  0.12744734778E-01 -0.62245034674E-01  0.44678033510E-01  0.77674065205E-01  0.51100000000E-03 0. -1.
</event>
<event>
 8    1  0.1104109E+005  0.1043930E+01  0.7957747E-01            NaN
         13   -1    0    0    0    0  0.00000000000E+00  0.00000000000E+00  0.74505805969E-08  0.10566000000E+00  0.10566000000E+00 0. -1.
     999900   -1    0    0    0    0 -0.00000000000E+00 -0.00000000000E+00 -0.74505805969E-08  0.93827000000E+00  0.93827000000E+00 0.  1.
     999902    2    1    2    0    0  0.57873207310E-02  0.59022800811E-03  0.23384880762E-01  0.10198324047E+01  0.10195476642E+01 0.  0.
     999903    2    3    3    0    0 -0.67011997818E-02 -0.93078885152E-01 -0.85468607836E-01  0.12810433636E+00  0.19931209945E-01 0.  0.
         14    1    1    2    0    0 -0.57873207310E-02 -0.59022800811E-03 -0.23384880762E-01  0.24097595286E-01  0.00000000000E+00 0.  1.
     999901    1    3    3    0    0  0.12488520513E-01  0.93669113161E-01  0.10885348860E+00  0.89172806835E+00  0.88000000000E+00 0. -1.
        -11    1    4    4    0    0 -0.70038187943E-02 -0.79983281809E-01 -0.81502437983E-01  0.11440842349E+00  0.51100000000E-03 0.  1.
         11    1    4    4    0    0  0.30261901252E-03 -0.13095603344E-01 -0.39661698526E-02  0.13695912876E-01  0.51100000000E-03 0. -1.
</event>
<event>
 8    1  0.1104109E+005  0.1043930E+01  0.7957747E-01            NaN
         13   -1    0    0    0    0  0.00000000000E+00  0.00000000000E+00  0.74505805969E-08  0.10566000000E+00  0.10566000000E+00 0. -1.
     999900   -1    0    0    0    0 -0.00000000000E+00 -0.00000000000E+00 -0.74505805969E-08  0.93827000000E+00  0.93827000000E+00 0. -1.
     999902    2    1    2    0    0 -0.20307576800E-01 -0.17515234926E-01  0.16491099873E-01  0.10124476636E+01  0.10119580693E+01 0.  0.
     999903    2    3    3    0    0 -0.10044659351E+00  0.68301464618E-01 -0.16047222045E-01  0.12405275687E+00  0.19415584819E-01 0.  0.
         14    1    1    2    0    0  0.20307576800E-01  0.17515234926E-01 -0.16491099873E-01  0.31482336398E-01  0.00000000000E+00 0. -1.
     999901    1    3    3    0    0  0.80139016711E-01 -0.85816699544E-01  0.32538321918E-01  0.88839490674E+00  0.88000000000E+00 0.  1.
        -11    1    4    4    0    0 -0.69792277832E-01  0.42385292547E-01 -0.25367665084E-02  0.81695601930E-01  0.51100000000E-03 0. -1.
         11    1    4    4    0    0 -0.30654315680E-01  0.25916172071E-01 -0.13510455537E-01  0.42357154937E-01  0.51100000000E-03 0.  1.
</event>
<event>
 8    1  0.1104109E+005  0.1043930E+01  0.7957747E-01            NaN
         13   -1    0    0    0    0  0.00000000000E+00  0.00000000000E+00  0.74505805969E-08  0.10566000000E+00  0.10566000000E+00 0. -1.
     999900   -1    0    0    0    0 -0.00000000000E+00 -0.00000000000E+00 -0.74505805969E-08  0.93827000000E+00  0.93827000000E+00 0.  1.
     999902    2    1    2    0    0  0.18868033252E-01  0.12451156587E-01 -0.16983742416E-02  0.10212602304E+01  0.10210085894E+01 0.  0.
     999903    2    3    3    0    0  0.58135754753E-01 -0.49475195568E-01 -0.10540875355E+00  0.13214118897E+00  0.22863235563E-01 0.  0.
         14    1    1    2    0    0 -0.18868033252E-01 -0.12451156587E-01  0.16983742416E-02  0.22669769611E-01  0.00000000000E+00 0.  1.
     999901    1    3    3    0    0 -0.39267721501E-01  0.61926352155E-01  0.10371037930E+00  0.88911904142E+00  0.88000000000E+00 0. -1.
        -11    1    4    4    0    0  0.33137747752E-01 -0.35885048737E-01 -0.50283771433E-01  0.70103964506E-01  0.51100000000E-03 0. -1.
         11    1    4    4    0    0  0.24998007001E-01 -0.13590146831E-01 -0.55124982113E-01  0.62037224461E-01  0.51100000000E-03 0.  1.
</event>
<event>
 8    1  0.1104109E+005  0.1043930E+01  0.7957747E-01            NaN
         13   -1    0    0    0    0  0.00000000000E+00  0.00000000000E+00  0.74505805969E-08  0.10566000000E+00  0.10566000000E+00 0.  1.
     999900   -1    0    0    0    0 -0.00000000000E+00 -0.00000000000E+00 -0.74505805969E-08  0.93827000000E+00  0.93827000000E+00 0.  1.
     999902    2    1    2    0    0 -0.46946171182E-02  0.77777349076E-02  0.21947387383E-01  0.10201766760E+01  0.10199001077E+01 0.  0.
     999903    2    3    3    0    0 -0.94457444502E-01  0.65290208943E-01  0.63387785604E-01  0.13277464956E+00  0.20641608368E-01 0.  0.
         14    1    1    2    0    0  0.46946171182E-02 -0.77777349076E-02 -0.21947387383E-01  0.23753324044E-01  0.00000000000E+00 0. -1.
     999901    1    3    3    0    0  0.89762827384E-01 -0.57512474035E-01 -0.41440398220E-01  0.88740202640E+00  0.88000000000E+00 0.  1.
        -11    1    4    4    0    0 -0.39104985738E-01  0.34750324609E-01  0.19586330785E-01  0.55862961295E-01  0.51100000000E-03 0.  1.
         11    1    4    4    0    0 -0.55352458764E-01  0.30539884333E-01  0.43801454819E-01  0.76911688264E-01  0.51100000000E-03 0. -1.
</event>
<event>
 8    1  0.1104109E+005  0.1043930E+01  0.7957747E-01            NaN
         13   -1    0    0    0    0  0.00000000000E+00  0.00000000000E+00  0.74505805969E-08  0.10566000000E+00  0.10566000000E+00 0. -1.
     999900   -1    0    0    0    0 -0.00000000000E+00 -0.00000000000E+00 -0.74505805969E-08  0.93827000000E+00  0.93827000000E+00 0. -1.
     999902    2    1    2    0    0 -0.25938071270E-01 -0.11294060746E-01 -0.16883186808E-01  0.10109848737E+01  0.10104479371E+01 0.  0.
     999903    2    3    3    0    0  0.17709410865E-01  0.92284366983E-01 -0.74924976987E-01  0.12193906905E+00  0.20624179025E-01 0.  0.
         14    1    1    2    0    0  0.25938071270E-01  0.11294060746E-01  0.16883186808E-01  0.32945126289E-01  0.00000000000E+00 0. -1.
     999901    1    3    3    0    0 -0.43647482135E-01 -0.10357842773E+00  0.58041790179E-01  0.88904580467E+00  0.88000000000E+00 0.  1.
        -11    1    4    4    0    0  0.42614998589E-02  0.13616114574E-01 -0.21817806536E-01  0.26073679453E-01  0.51100000000E-03 0. -1.
         11    1    4    4    0    0  0.13447911006E-01  0.78668252408E-01 -0.53107170451E-01  0.95865389593E-01  0.51100000000E-03 0.  1.
</event>
<event>
 8    1  0.1104109E+005  0.1043930E+01  0.7957747E-01            NaN
         13   -1    0    0    0    0  0.00000000000E+00  0.00000000000E+00  0.74505805969E-08  0.10566000000E+00  0.10566000000E+00 0.  1.
     999900   -1    0    0    0    0 -0.00000000000E+00 -0.00000000000E+00 -0.74505805969E-08  0.93827000000E+00  0.93827000000E+00 0. -1.
     999902    2    1    2    0    0 -0.41791307079E-02  0.21079308129E-01 -0.86332445931E-02  0.10207710864E+01  0.10205083418E+01 0.  0.
     999903    2    3    3    0    0  0.46775116065E-01  0.32249380601E-02 -0.12172560169E+00  0.13189258236E+00  0.19499217054E-01 0.  0.
         14    1    1    2    0    0  0.41791307079E-02 -0.21079308129E-01  0.86332445931E-02  0.23158913551E-01  0.00000000000E+00 0. -1.
     999901    1    3    3    0    0 -0.50954246772E-01  0.17854370069E-01  0.11309235710E+00  0.88887850409E+00  0.88000000000E+00 0.  1.
        -11    1    4    4    0    0  0.14526130728E-01 -0.61840462387E-02 -0.54439271280E-01  0.56684621197E-01  0.51100000000E-03 0. -1.
         11    1    4    4    0    0  0.32248985336E-01  0.94089842988E-02 -0.67286330414E-01  0.75207961164E-01  0.51100000000E-03 0.  1.
</event>
<event>
 8    1  0.1104109E+005  0.1043930E+01  0.7957747E-01            NaN
         13   -1    0    0    0    0  0.00000000000E+00  0.00000000000E+00  0.74505805969E-08  0.10566000000E+00  0.10566000000E+00 0.  1.
     999900   -1    0    0    0    0 -0.00000000000E+00 -0.00000000000E+00 -0.74505805969E-08  0.93827000000E+00  0.93827000000E+00 0. -1.
     999902    2    1    2    0    0 -0.10232107386E-01 -0.99888115056E-02  0.18190365486E-01  0.10207921139E+01  0.10205298516E+01 0.  0.
     999903    2    3    3    0    0 -0.12990605517E+00  0.13727422548E-01  0.90213620215E-02  0.13232805488E+00  0.19112923275E-01 0.  0.
         14    1    1    2    0    0  0.10232107386E-01  0.99888115056E-02 -0.18190365486E-01  0.23137886104E-01  0.00000000000E+00 0. -1.
     999901    1    3    3    0    0  0.11967394779E+00 -0.23716234053E-01  0.91690034643E-02  0.88846405901E+00  0.88000000000E+00 0.  1.
        -11    1    4    4    0    0 -0.42997203165E-01 -0.39934567790E-02  0.13556640823E-03  0.43185491502E-01  0.51100000000E-03 0.  1.
         11    1    4    4    0    0 -0.86908852006E-01  0.17720879327E-01  0.88857956132E-02  0.89142563379E-01  0.51100000000E-03 0. -1.
</event>
<event>
 8    1  0.1104109E+005  0.1043930E+01  0.7957747E-01            NaN
         13   -1    0    0    0    0  0.00000000000E+00  0.00000000000E+00  0.74505805969E-08  0.10566000000E+00  0.10566000000E+00 0.  1.
     999900   -1    0    0    0    0 -0.00000000000E+00 -0.00000000000E+00 -0.74505805969E-08  0.93827000000E+00  0.93827000000E+00 0.  1.
     999902    2    1    2    0    0 -0.47846313510E-02  0.15800946736E-01  0.17743710578E-01  0.10196936249E+01  0.10194055556E+01 0.  0.
     999903    2    3    3    0    0 -0.51449571582E-01  0.53713554177E-01  0.10896778352E+00  0.13293728068E+00  0.16313749815E-01 0.  0.
         14    1    1    2    0    0  0.47846313510E-02 -0.15800946736E-01 -0.17743710578E-01  0.24236375142E-01  0.00000000000E+00 0. -1.
     999901    1    3    3    0    0  0.46664940231E-01 -0.37912607441E-01 -0.91224072938E-01  0.88675634417E+00  0.88000000000E+00 0. -1.
        -11    1    4    4    0    0 -0.33998699949E-01  0.32484589844E-01  0.81407657793E-01  0.94013977917E-01  0.51100000000E-03 0. -1.
         11    1    4    4    0    0 -0.17450871633E-01  0.21228964332E-01  0.27560125724E-01  0.38923302767E-01  0.51100000000E-03 0.  1.
</event>
<event>
 8    1  0.1104109E+005  0.1043930E+01  0.7957747E-01            NaN
         13   -1    0    0    0    0  0.00000000000E+00  0.00000000000E+00  0.74505805969E-08  0.10566000000E+00  0.10566000000E+00 0.  1.
     999900   -1    0    0    0    0 -0.00000000000E+00 -0.00000000000E+00 -0.74505805969E-08  0.93827000000E+00  0.93827000000E+00 0.  1.
     999902    2    1    2    0    0 -0.13744675592E-01 -0.71759299289E-03 -0.34922674193E-02  0.10297304585E+01  0.10296325511E+01 0.  0.
     999903    2    3    3    0    0  0.31086411632E-01 -0.22959626406E-01 -0.13196040861E+00  0.13899559463E+00  0.20315424043E-01 0.  0.
         14    1    1    2    0    0  0.13744675592E-01  0.71759299289E-03  0.34922674193E-02  0.14199541491E-01  0.00000000000E+00 0.  1.
     999901    1    3    3    0    0 -0.44831087224E-01  0.22242033414E-01  0.12846814119E+00  0.89073486388E+00  0.88000000000E+00 0. -1.
        -11    1    4    4    0    0  0.11850803234E-02 -0.45907680933E-02 -0.44519348211E-01  0.44774022079E-01  0.51100000000E-03 0.  1.
         11    1    4    4    0    0  0.29901331308E-01 -0.18368858313E-01 -0.87441060395E-01  0.94221572549E-01  0.51100000000E-03 0. -1.
</event>
<event>
 8    1  0.1104109E+005  0.1043930E+01  0.7957747E-01            NaN
         13   -1    0    0    0    0  0.00000000000E+00  0.00000000000E+00  0.74505805969E-08  0.10566000000E+00  0.10566000000E+00 0. -1.
     999900   -1    0    0    0    0 -0.00000000000E+00 -0.00000000000E+00 -0.74505805969E-08  0.93827000000E+00  0.93827000000E+00 0.  1.
     999902    2    1    2    0    0  0.40238982227E-02 -0.10636720915E-01  0.19422373999E-01  0.10214231077E+01  0.10211751097E+01 0.  0.
     999903    2    3    3    0    0 -0.70729788751E-01 -0.10973405189E+00  0.21787711913E-01  0.13270831120E+00  0.96190596265E-02 0.  0.
         14    1    1    2    0    0 -0.40238982227E-02  0.10636720915E-01 -0.19422373999E-01  0.22506892289E-01  0.00000000000E+00 0.  1.
     999901    1    3    3    0    0  0.74753686973E-01  0.99097330979E-01 -0.23653379135E-02  0.88871479652E+00  0.88000000000E+00 0. -1.
        -11    1    4    4    0    0 -0.35151996190E-01 -0.54115694262E-01  0.15612142034E-01  0.66394060740E-01  0.51100000000E-03 0. -1.
         11    1    4    4    0    0 -0.35577792561E-01 -0.55618357632E-01  0.61755698791E-02  0.66314250455E-01  0.51100000000E-03 0.  1.
</event>
<event>
 8    1  0.1104109E+005  0.1043930E+01  0.7957747E-01            NaN
         13   -1    0    0    0    0  0.00000000000E+00  0.00000000000E+00  0.74505805969E-08  0.10566000000E+00  0.10566000000E+00 0.  1.
     999900   -1    0    0    0    0 -0.00000000000E+00 -0.00000000000E+00 -0.74505805969E-08  0.93827000000E+00  0.93827000000E+00 0.  1.
     999902    2    1    2    0    0 -0.24450345656E-01 -0.20288796446E-03 -0.99297799599E-02  0.10175394506E+01  0.10171971650E+01 0.  0.
     999903    2    3    3    0    0  0.83610617195E-01 -0.91800134441E-01  0.54473071318E-02  0.12607790795E+00  0.21165200877E-01 0.  0.
         14    1    1    2    0    0  0.24450345656E-01  0.20288796446E-03  0.99297799599E-02  0.26390549374E-01  0.00000000000E+00 0.  1.
     999901    1    3    3    0    0 -0.10806096285E+00  0.91597246476E-01 -0.15377087092E-01  0.89146154267E+00  0.88000000000E+00 0. -1.
        -11    1    4    4    0    0  0.28078927786E-01 -0.36493679955E-01 -0.74506637611E-02  0.46647490541E-01  0.51100000000E-03 0. -1.
         11    1    4    4    0    0  0.55531689408E-01 -0.55306454486E-01  0.12897970893E-01  0.79430417414E-01  0.51100000000E-03 0.  1.
</event>
<event>
 8    1  0.1104109E+005  0.1043930E+01  0.7957747E-01            NaN
         13   -1    0    0    0    0  0.00000000000E+00  0.00000000000E+00  0.74505805969E-08  0.10566000000E+00  0.10566000000E+00 0. -1.
     999900   -1    0    0    0    0 -0.00000000000E+00 -0.00000000000E+00 -0.74505805969E-08  0.93827000000E+00  0.93827000000E+00 0.  1.
     999902    2    1    2    0    0  0.86779953196E-02 -0.73917136640E-02  0.20139375589E-01  0.10207882740E+01  0.10205259236E+01 0.  0.
     999903    2    3    3    0    0 -0.11239087627E+00 -0.32430687440E-02  0.64893709689E-01  0.13136271030E+00  0.20068421393E-01 0.  0.
         14    1    1    2    0    0 -0.86779953196E-02  0.73917136640E-02 -0.20139375589E-01  0.23141726011E-01  0.00000000000E+00 0.  1.
     999901    1    3    3    0    0  0.12106887159E+00 -0.41486449200E-02 -0.44754334100E-01  0.88942556369E+00  0.88000000000E+00 0. -1.
        -11    1    4    4    0    0 -0.88105484402E-01 -0.26986322765E-02  0.40756394604E-01  0.97114385237E-01  0.51100000000E-03 0.  1.
         11    1    4    4    0    0 -0.24285391866E-01 -0.54443646753E-03  0.24137315085E-01  0.34248325063E-01  0.51100000000E-03 0. -1.
</event>
<event>
 8    1  0.1104109E+005  0.1043930E+01  0.7957747E-01            NaN
         13   -1    0    0    0    0  0.00000000000E+00  0.00000000000E+00  0.74505805969E-08  0.10566000000E+00  0.10566000000E+00 0.  1.
     999900   -1    0    0    0    0 -0.00000000000E+00 -0.00000000000E+00 -0.74505805969E-08  0.93827000000E+00  0.93827000000E+00 0.  1.
     999902    2    1    2    0    0  0.14322929353E-01 -0.10193508251E-01  0.13694295866E-01  0.10216457532E+01  0.10214026911E+01 0.  0.
     999903    2    3    3    0    0 -0.85795004240E-01  0.33270418710E-01  0.92081537278E-01  0.13144506056E+00  0.18195904081E-01 0.  0.
         14    1    1    2    0    0 -0.14322929353E-01  0.10193508251E-01 -0.13694295866E-01  0.22284246789E-01  0.00000000000E+00 0. -1.
     999901    1    3    3    0    0  0.10011793359E+00 -0.43463926961E-01 -0.78387241412E-01  0.89020069265E+00  0.88000000000E+00 0.  1.
        -11    1    4    4    0    0 -0.66579311874E-01  0.20598154216E-01  0.77323803103E-01  0.10409764826E+00  0.51100000000E-03 0. -1.
         11    1    4    4    0    0 -0.19215692366E-01  0.12672264494E-01  0.14757734175E-01  0.27347412300E-01  0.51100000000E-03 0.  1.
</event>
<event>
 8    1  0.1497544E+005  0.1043930E+01  0.7957747E-01            NaN
         13   -1    0    0    0    0  0.00000000000E+00  0.00000000000E+00  0.74505805969E-08  0.10566000000E+00  0.10566000000E+00 0. -1.
     999900   -1    0    0    0    0 -0.00000000000E+00 -0.00000000000E+00 -0.74505805969E-08  0.93827000000E+00  0.93827000000E+00 0. -1.
     999902    2    1    2    0    0 -0.13416083340E-01 -0.19607280530E-01  0.17543331492E-02  0.10201074387E+01  0.10198292367E+01 0.  0.
     999903    2    3    3    0    0  0.32877819997E-01 -0.12609561652E+00  0.11896848014E-01  0.13242181767E+00  0.20321103496E-01 0.  0.
         14    1    1    2    0    0  0.13416083340E-01  0.19607280530E-01 -0.17543331492E-02  0.23822561297E-01  0.00000000000E+00 0.  1.
     999901    1    3    3    0    0 -0.46293903337E-01  0.10648833599E+00 -0.10142514865E-01  0.88768562104E+00  0.88000000000E+00 0.  1.
        -11    1    4    4    0    0  0.69371417178E-02 -0.64245014594E-01  0.94242155512E-02  0.65304079468E-01  0.51100000000E-03 0. -1.
         11    1    4    4    0    0  0.25940678279E-01 -0.61850601928E-01  0.24726324626E-02  0.67117738197E-01  0.51100000000E-03 0.  1.
</event>
<event>
 8    1  0.1104109E+005  0.1043930E+01  0.7957747E-01            NaN
         13   -1    0    0    0    0  0.00000000000E+00  0.00000000000E+00  0.74505805969E-08  0.10566000000E+00  0.10566000000E+00 0. -1.
     999900   -1    0    0    0    0 -0.00000000000E+00 -0.00000000000E+00 -0.74505805969E-08  0.93827000000E+00  0.93827000000E+00 0.  1.
     999902    2    1    2    0    0  0.28748966598E-02 -0.31881026793E-02 -0.23818411536E-01  0.10197278150E+01  0.10194405677E+01 0.  0.
     999903    2    3    3    0    0  0.71353135442E-01  0.85059277794E-01  0.61655021655E-01  0.12855859589E+00  0.19990502899E-01 0.  0.
         14    1    1    2    0    0 -0.28748966598E-02  0.31881026793E-02  0.23818411536E-01  0.24202184976E-01  0.00000000000E+00 0. -1.
     999901    1    3    3    0    0 -0.68478238782E-01 -0.88247380473E-01 -0.85473433192E-01  0.89116921913E+00  0.88000000000E+00 0.  1.
        -11    1    4    4    0    0  0.28679021010E-01  0.22928114935E-01  0.13558132339E-01  0.39144204860E-01  0.51100000000E-03 0.  1.
         11    1    4    4    0    0  0.42674114432E-01  0.62131162859E-01  0.48096889317E-01  0.89414391032E-01  0.51100000000E-03 0. -1.
</event>
<event>
 8    1  0.1104109E+005  0.1043930E+01  0.7957747E-01            NaN
         13   -1    0    0    0    0  0.00000000000E+00  0.00000000000E+00  0.74505805969E-08  0.10566000000E+00  0.10566000000E+00 0. -1.
     999900   -1    0    0    0    0 -0.00000000000E+00 -0.00000000000E+00 -0.74505805969E-08  0.93827000000E+00  0.93827000000E+00 0. -1.
     999902    2    1    2    0    0 -0.23014622846E-01  0.33284602203E-02 -0.23493681358E-02  0.10205575580E+01  0.10202898893E+01 0.  0.
     999903    2    3    3    0    0 -0.12706889668E+00  0.25122740008E-01 -0.27301568891E-01  0.13380793450E+00  0.19532821185E-01 0.  0.
         14    1    1    2    0    0  0.23014622846E-01 -0.33284602203E-02  0.23493681358E-02  0.23372441952E-01  0.00000000000E+00 0.  1.
     999901    1    3    3    0    0  0.10405427383E+00 -0.21794279788E-01  0.24952200755E-01  0.88674962354E+00  0.88000000000E+00 0. -1.
        -11    1    4    4    0    0 -0.85058989739E-01  0.14992986751E-01 -0.88747196469E-02  0.86826511832E-01  0.51100000000E-03 0. -1.
         11    1    4    4    0    0 -0.42009906939E-01  0.10129753257E-01 -0.18426849244E-01  0.46981422671E-01  0.51100000000E-03 0.  1.
</event>
<event>
 8    1  0.1104109E+005  0.1043930E+01  0.7957747E-01            NaN
         13   -1    0    0    0    0  0.00000000000E+00  0.00000000000E+00  0.74505805969E-08  0.10566000000E+00  0.10566000000E+00 0.  1.
     999900   -1    0    0    0    0 -0.00000000000E+00 -0.00000000000E+00 -0.74505805969E-08  0.93827000000E+00  0.93827000000E+00 0. -1.
     999902    2    1    2    0    0  0.19277036174E-01  0.68942647705E-03  0.12896165841E-01  0.10207267561E+01  0.10204629930E+01 0.  0.
     999903    2    3    3    0    0  0.28074188399E-01 -0.12651148898E+00  0.88429035743E-02  0.13152830150E+00  0.20692516851E-01 0.  0.
         14    1    1    2    0    0 -0.19277036174E-01 -0.68942647705E-03 -0.12896165841E-01  0.23203243866E-01  0.00000000000E+00 0. -1.
     999901    1    3    3    0    0 -0.87971522255E-02  0.12720091546E+00  0.40532622664E-02  0.88919845463E+00  0.88000000000E+00 0. -1.
        -11    1    4    4    0    0  0.12509912229E-01 -0.33200492480E-01 -0.52964551842E-02  0.35875955226E-01  0.51100000000E-03 0.  1.
         11    1    4    4    0    0  0.15564276170E-01 -0.93310996505E-01  0.14139358758E-01  0.95652346278E-01  0.51100000000E-03 0. -1.
</event>
<event>
 8    1  0.1104109E+005  0.1043930E+01  0.7957747E-01            NaN
         13   -1    0    0    0    0  0.00000000000E+00  0.00000000000E+00  0.74505805969E-08  0.10566000000E+00  0.10566000000E+00 0. -1.
     999900   -1    0    0    0    0 -0.00000000000E+00 -0.00000000000E+00 -0.74505805969E-08  0.93827000000E+00  0.93827000000E+00 0. -1.
     999902    2    1    2    0    0  0.99179444842E-02  0.12946518839E-01  0.16361298204E-01  0.10208287002E+01  0.10205672761E+01 0.  0.
     999903    2    3    3    0    0 -0.43641771921E-01  0.64472669791E-01  0.10611764705E+00  0.13314644309E+00  0.20141769677E-01 0.  0.
         14    1    1    2    0    0 -0.99179444842E-02 -0.12946518839E-01 -0.16361298204E-01  0.23101299785E-01  0.00000000000E+00 0.  1.
     999901    1    3    3    0    0  0.53559716405E-01 -0.51526150952E-01 -0.89756348848E-01  0.88768225712E+00  0.88000000000E+00 0. -1.
        -11    1    4    4    0    0 -0.33157254898E-01  0.31287631512E-01  0.61669665921E-01  0.76692426314E-01  0.51100000000E-03 0.  1.
         11    1    4    4    0    0 -0.10484517022E-01  0.33185038279E-01  0.44447981131E-01  0.56454016778E-01  0.51100000000E-03 0. -1.
</event>
<event>
 8    1  0.1104109E+005  0.1043930E+01  0.7957747E-01            NaN
         13   -1    0    0    0    0  0.00000000000E+00  0.00000000000E+00  0.74505805969E-08  0.10566000000E+00  0.10566000000E+00 0.  1.
     999900   -1    0    0    0    0 -0.00000000000E+00 -0.00000000000E+00 -0.74505805969E-08  0.93827000000E+00  0.93827000000E+00 0.  1.
     999902    2    1    2    0    0 -0.15807652134E-02  0.13138807480E-01 -0.20532959425E-01  0.10195019525E+01  0.10192092531E+01 0.  0.
     999903    2    3    3    0    0 -0.23901678051E-01 -0.11095092204E+00  0.54229621272E-01  0.12737756232E+00  0.20069734575E-01 0.  0.
         14    1    1    2    0    0  0.15807652134E-02 -0.13138807480E-01  0.20532959425E-01  0.24428047475E-01  0.00000000000E+00 0. -1.
     999901    1    3    3    0    0  0.22320912837E-01  0.12408972952E+00 -0.74762580698E-01  0.89212439020E+00  0.88000000000E+00 0.  1.
        -11    1    4    4    0    0 -0.68874368305E-02 -0.56238175494E-01  0.17438898933E-01  0.59283602168E-01  0.51100000000E-03 0.  1.
         11    1    4    4    0    0 -0.17014241220E-01 -0.54712746541E-01  0.36790722339E-01  0.68093960155E-01  0.51100000000E-03 0. -1.
</event>
<event>
 8    1  0.1104109E+005  0.1043930E+01  0.7957747E-01            NaN
         13   -1    0    0    0    0  0.00000000000E+00  0.00000000000E+00  0.74505805969E-08  0.10566000000E+00  0.10566000000E+00 0.  1.
     999900   -1    0    0    0    0 -0.00000000000E+00 -0.00000000000E+00 -0.74505805969E-08  0.93827000000E+00  0.93827000000E+00 0. -1.
     999902    2    1    2    0    0  0.13568801416E-01 -0.10587885454E-01  0.33859514239E-02  0.10263891803E+01  0.10262392845E+01 0.  0.
     999903    2    3    3    0    0  0.70887908534E-01  0.10336252442E-01  0.11499687844E+00  0.13724335497E+00  0.21898007705E-01 0.  0.
         14    1    1    2    0    0 -0.13568801416E-01  0.10587885454E-01 -0.33859514239E-02  0.17540819744E-01  0.00000000000E+00 0. -1.
     999901    1    3    3    0    0 -0.57319107117E-01 -0.20924137896E-01 -0.11161092702E+00  0.88914582528E+00  0.88000000000E+00 0. -1.
        -11    1    4    4    0    0  0.32995870909E-01 -0.61444207432E-02  0.53065932471E-01  0.62791207293E-01  0.51100000000E-03 0.  1.
         11    1    4    4    0    0  0.37892037624E-01  0.16480673185E-01  0.61930945974E-01  0.74452147680E-01  0.51100000000E-03 0. -1.
</event>
<event>
 8    1  0.1104109E+005  0.1043930E+01  0.7957747E-01            NaN
         13   -1    0    0    0    0  0.00000000000E+00  0.00000000000E+00  0.74505805969E-08  0.10566000000E+00  0.10566000000E+00 0. -1.
     999900   -1    0    0    0    0 -0.00000000000E+00 -0.00000000000E+00 -0.74505805969E-08  0.93827000000E+00  0.93827000000E+00 0.  1.
     999902    2    1    2    0    0  0.20352658818E-01  0.80178551479E-02  0.60100390599E-02  0.10212443814E+01  0.10209923845E+01 0.  0.
     999903    2    3    3    0    0 -0.17634798019E-01  0.12589254332E+00  0.31404888620E-01  0.13220985598E+00  0.18255421815E-01 0.  0.
         14    1    1    2    0    0 -0.20352658818E-01 -0.80178551479E-02 -0.60100390599E-02  0.22685618608E-01  0.00000000000E+00 0.  1.
     999901    1    3    3    0    0  0.37987456837E-01 -0.11787468817E+00 -0.25394849560E-01  0.88903452541E+00  0.88000000000E+00 0.  1.
        -11    1    4    4    0    0 -0.63336747138E-02  0.64038814796E-01  0.24868842246E-01  0.68991344903E-01  0.51100000000E-03 0. -1.
         11    1    4    4    0    0 -0.11301123306E-01  0.61853728520E-01  0.65360463743E-02  0.63218511078E-01  0.51100000000E-03 0.  1.
</event>
<event>
 8    1  0.1104109E+005  0.1043930E+01  0.7957747E-01            NaN
         13   -1    0    0    0    0  0.00000000000E+00  0.00000000000E+00  0.74505805969E-08  0.10566000000E+00  0.10566000000E+00 0. -1.
     999900   -1    0    0    0    0 -0.00000000000E+00 -0.00000000000E+00 -0.74505805969E-08  0.93827000000E+00  0.93827000000E+00 0.  1.
     999902    2    1    2    0    0 -0.18117916190E-02 -0.22737259250E-01 -0.70145724881E-02  0.10200664342E+01  0.10197872623E+01 0.  0.
     999903    2    3    3    0    0  0.54453429598E-01  0.10115808712E+00 -0.53627378624E-01  0.12838903417E+00  0.20241387584E-01 0.  0.
         14    1    1    2    0    0  0.18117916190E-02  0.22737259250E-01  0.70145724881E-02  0.23863565833E-01  0.00000000000E+00 0. -1.
     999901    1    3    3    0    0 -0.56265221217E-01 -0.12389534637E+00  0.46612806136E-01  0.89167740000E+00  0.88000000000E+00 0. -1.
        -11    1    4    4    0    0  0.36043532325E-01  0.71055622941E-01 -0.26809017294E-01  0.84065583346E-01  0.51100000000E-03 0.  1.
         11    1    4    4    0    0  0.18409897273E-01  0.30102464182E-01 -0.26818361330E-01  0.44323450823E-01  0.51100000000E-03 0. -1.
</event>
<event>
 7    1  0.1104109E+005  0.1043930E+01  0.7957747E-01            NaN
         13   -1    0    0    0    0  0.00000000000E+00  0.00000000000E+00  0.74505805969E-08  0.10566000000E+00  0.10566000000E+00 0. -1.
     999900   -1    0    0    0    0 -0.00000000000E+00 -0.00000000000E+00 -0.74505805969E-08  0.93827000000E+00  0.93827000000E+00 0. -1.
     999902    2    1    2    0    0 -0.49360774344E-02 -0.17895058468E-01 -0.15042420598E-01  0.10200370639E+01  0.10197571963E+01 0.  0.
         14    1    1    2    0    0  0.49360774344E-02  0.17895058468E-01  0.15042420598E-01  0.23892936099E-01  0.00000000000E+00 0.  1.
     999901    1    3    3    0    0 -0.76541773226E-01  0.86149756612E-01 -0.27715121839E-01  0.88794625490E+00  0.88000000000E+00 0.  1.
        -11    1    3    3    0    0  0.45207667096E-01 -0.49530925570E-01 -0.92025744539E-02  0.67690429528E-01  0.51100000000E-03 0. -1.
         11    1    3    3    0    0  0.26398028696E-01 -0.54513889510E-01  0.21875275696E-01  0.64400379473E-01  0.51100000000E-03 0.  1.
</event>
<event>
 8    1  0.1104109E+005  0.1043930E+01  0.7957747E-01            NaN
         13   -1    0    0    0    0  0.00000000000E+00  0.00000000000E+00  0.74505805969E-08  0.10566000000E+00  0.10566000000E+00 0. -1.
     999900   -1    0    0    0    0 -0.00000000000E+00 -0.00000000000E+00 -0.74505805969E-08  0.93827000000E+00  0.93827000000E+00 0.  1.
     999902    2    1    2    0    0  0.20840271508E-01  0.95328169952E-02 -0.53146084204E-02  0.10204047672E+01  0.10201335463E+01 0.  0.
     999903    2    3    3    0    0  0.12780331161E+00 -0.26051831810E-01 -0.18292610467E-01  0.13311913802E+00  0.19331345307E-01 0.  0.
         14    1    1    2    0    0 -0.20840271508E-01 -0.95328169952E-02  0.53146084204E-02  0.23525232816E-01  0.00000000000E+00 0. -1.
     999901    1    3    3    0    0 -0.10696304010E+00  0.35584648805E-01  0.12978002046E-01  0.88728562916E+00  0.88000000000E+00 0. -1.
        -11    1    4    4    0    0  0.13537850385E-01 -0.74228179155E-02 -0.64485803610E-02  0.16739681255E-01  0.51100000000E-03 0. -1.
         11    1    4    4    0    0  0.11426546122E+00 -0.18629013895E-01 -0.11844030106E-01  0.11637945677E+00  0.51100000000E-03 0.  1.
</event>
<event>
 8    1  0.1104109E+005  0.1043930E+01  0.7957747E-01            NaN
         13   -1    0    0    0    0  0.00000000000E+00  0.00000000000E+00  0.74505805969E-08  0.10566000000E+00  0.10566000000E+00 0.  1.
     999900   -1    0    0    0    0 -0.00000000000E+00 -0.00000000000E+00 -0.74505805969E-08  0.93827000000E+00  0.93827000000E+00 0.  1.
     999902    2    1    2    0    0  0.22705564370E-01  0.46674247040E-02  0.41063583345E-02  0.10203887663E+01  0.10201171720E+01 0.  0.
     999903    2    3    3    0    0 -0.10449618610E+00  0.52990754256E-01  0.49765536439E-01  0.12876093469E+00  0.19372577003E-01 0.  0.
         14    1    1    2    0    0 -0.22705564370E-01 -0.46674247040E-02 -0.41063583345E-02  0.23541233730E-01  0.00000000000E+00 0.  1.
     999901    1    3    3    0    0  0.12720175047E+00 -0.48323329552E-01 -0.45659178104E-01  0.89162783158E+00  0.88000000000E+00 0.  1.
        -11    1    4    4    0    0 -0.34924253979E-01  0.28207848143E-01  0.18361520905E-01  0.48505595387E-01  0.51100000000E-03 0.  1.
         11    1    4    4    0    0 -0.69571932120E-01  0.24782906112E-01  0.31404015534E-01  0.80255339304E-01  0.51100000000E-03 0. -1.
</event>
<event>
 8    1  0.1104109E+005  0.1043930E+01  0.7957747E-01            NaN
         13   -1    0    0    0    0  0.00000000000E+00  0.00000000000E+00  0.74505805969E-08  0.10566000000E+00  0.10566000000E+00 0.  1.
     999900   -1    0    0    0    0 -0.00000000000E+00 -0.00000000000E+00 -0.74505805969E-08  0.93827000000E+00  0.93827000000E+00 0.  1.
     999902    2    1    2    0    0  0.86207958120E-02 -0.15428630660E-01  0.16115156592E-01  0.10200122443E+01  0.10197317880E+01 0.  0.
     999903    2    3    3    0    0  0.93853742235E-02  0.11342835263E+00  0.57995810281E-01  0.12964226736E+00  0.22125258138E-01 0.  0.
         14    1    1    2    0    0 -0.86207958120E-02  0.15428630660E-01 -0.16115156592E-01  0.23917755673E-01  0.00000000000E+00 0. -1.
     999901    1    3    3    0    0 -0.76457841148E-03 -0.12885698329E+00 -0.41880653689E-01  0.89036997696E+00  0.88000000000E+00 0. -1.
        -11    1    4    4    0    0 -0.70346927057E-02  0.45181241052E-01  0.24102448822E-01  0.51691591238E-01  0.51100000000E-03 0. -1.
         11    1    4    4    0    0  0.16420066929E-01  0.68247111577E-01  0.33893361458E-01  0.77950676126E-01  0.51100000000E-03 0.  1.
</event>
<event>
 8    1  0.1104109E+005  0.1043930E+01  0.7957747E-01            NaN
         13   -1    0    0    0    0  0.00000000000E+00  0.00000000000E+00  0.74505805969E-08  0.10566000000E+00  0.10566000000E+00 0.  1.
     999900   -1    0    0    0    0 -0.00000000000E+00 -0.00000000000E+00 -0.74505805969E-08  0.93827000000E+00  0.93827000000E+00 0. -1.
     999902    2    1    2    0    0  0.21207960177E-01  0.13194507363E-01  0.17036553331E-03  0.10189519772E+01  0.10186457825E+01 0.  0.
     999903    2    3    3    0    0 -0.11655241335E+00  0.47660864836E-01 -0.47695330692E-03  0.12756750944E+00  0.20425936573E-01 0.  0.
         14    1    1    2    0    0 -0.21207960177E-01 -0.13194507363E-01 -0.17036553331E-03  0.24978022817E-01  0.00000000000E+00 0.  1.
     999901    1    3    3    0    0  0.13776037353E+00 -0.34466357473E-01  0.64731884022E-03  0.89138446774E+00  0.88000000000E+00 0. -1.
        -11    1    4    4    0    0 -0.56792251616E-01  0.12632004734E-01 -0.28871203776E-02  0.58253961000E-01  0.51100000000E-03 0. -1.
         11    1    4    4    0    0 -0.59760161738E-01  0.35028860102E-01  0.24101670707E-02  0.69313548440E-01  0.51100000000E-03 0.  1.
</event>
<event>
 8    1  0.1104109E+005  0.1043930E+01  0.7957747E-01            NaN
         13   -1    0    0    0    0  0.00000000000E+00  0.00000000000E+00  0.74505805969E-08  0.10566000000E+00  0.10566000000E+00 0.  1.
     999900   -1    0    0    0    0 -0.00000000000E+00 -0.00000000000E+00 -0.74505805969E-08  0.93827000000E+00  0.93827000000E+00 0. -1.
     999902    2    1    2    0    0 -0.74870461255E-02 -0.17981865840E-01  0.14235282509E-01  0.10198043575E+01  0.10195189458E+01 0.  0.
     999903    2    3    3    0    0  0.75677707323E-02  0.11713149942E+00 -0.44999735896E-01  0.12739690772E+00  0.20686627452E-01 0.  0.
         14    1    1    2    0    0  0.74870461255E-02  0.17981865840E-01 -0.14235282509E-01  0.24125642518E-01  0.00000000000E+00 0. -1.
     999901    1    3    3    0    0 -0.15054816858E-01 -0.13511336526E+00  0.59235018404E-01  0.89240744976E+00  0.88000000000E+00 0.  1.
        -11    1    4    4    0    0 -0.57053613369E-02  0.42872581127E-01 -0.22025392091E-01  0.48538524681E-01  0.51100000000E-03 0. -1.
         11    1    4    4    0    0  0.13273132069E-01  0.74258918297E-01 -0.22974343804E-01  0.78858383040E-01  0.51100000000E-03 0.  1.
</event>
<event>
 8    1  0.1104109E+005  0.1043930E+01  0.7957747E-01            NaN
         13   -1    0    0    0    0  0.00000000000E+00  0.00000000000E+00  0.74505805969E-08  0.10566000000E+00  0.10566000000E+00 0.  1.
     999900   -1    0    0    0    0 -0.00000000000E+00 -0.00000000000E+00 -0.74505805969E-08  0.93827000000E+00  0.93827000000E+00 0. -1.
     999902    2    1    2    0    0  0.18108689006E-01 -0.56135896190E-02  0.15082130151E-01  0.10197038229E+01  0.10194159989E+01 0.  0.
     999903    2    3    3    0    0  0.70400744162E-01 -0.96947470655E-02  0.11066514072E+00  0.13297543904E+00  0.19632654370E-01 0.  0.
         14    1    1    2    0    0 -0.18108689006E-01  0.56135896190E-02 -0.15082130151E-01  0.24226177079E-01  0.00000000000E+00 0.  1.
     999901    1    3    3    0    0 -0.52292055155E-01  0.40811574465E-02 -0.95583010566E-01  0.88672838389E+00  0.88000000000E+00 0. -1.
        -11    1    4    4    0    0  0.53499007241E-01  0.11202461851E-02  0.76709033627E-01  0.93530399808E-01  0.51100000000E-03 0. -1.
         11    1    4    4    0    0  0.16901736921E-01 -0.10814993251E-01  0.33956107091E-01  0.39445039228E-01  0.51100000000E-03 0.  1.
</event>
<event>
 8    1  0.1104109E+005  0.1043930E+01  0.7957747E-01            NaN
         13   -1    0    0    0    0  0.00000000000E+00  0.00000000000E+00  0.74505805969E-08  0.10566000000E+00  0.10566000000E+00 0. -1.
     999900   -1    0    0    0    0 -0.00000000000E+00 -0.00000000000E+00 -0.74505805969E-08  0.93827000000E+00  0.93827000000E+00 0. -1.
     999902    2    1    2    0    0  0.18328264906E-01  0.13106113796E-01  0.79440400274E-02  0.10200385102E+01  0.10197586768E+01 0.  0.
     999903    2    3    3    0    0  0.98188502916E-01  0.34568932080E-01 -0.78718575663E-01  0.13192324789E+00  0.19264890556E-01 0.  0.
         14    1    1    2    0    0 -0.18328264906E-01 -0.13106113796E-01 -0.79440400274E-02  0.23891489808E-01  0.00000000000E+00 0. -1.
     999901    1    3    3    0    0 -0.79860238010E-01 -0.21462818284E-01  0.86662615691E-01  0.88811526231E+00  0.88000000000E+00 0.  1.
        -11    1    4    4    0    0  0.76953094306E-01  0.27000540721E-01 -0.50987046242E-01  0.96180808522E-01  0.51100000000E-03 0.  1.
         11    1    4    4    0    0  0.21235408610E-01  0.75683913590E-02 -0.27731529421E-01  0.35742439363E-01  0.51100000000E-03 0. -1.
</event>
<event>
 8    1  0.1104109E+005  0.1043930E+01  0.7957747E-01            NaN
         13   -1    0    0    0    0  0.00000000000E+00  0.00000000000E+00  0.74505805969E-08  0.10566000000E+00  0.10566000000E+00 0.  1.
     999900   -1    0    0    0    0 -0.00000000000E+00 -0.00000000000E+00 -0.74505805969E-08  0.93827000000E+00  0.93827000000E+00 0.  1.
     999902    2    1    2    0    0 -0.54622118700E-02 -0.21930768384E-02  0.22518117858E-01  0.10206553147E+01  0.10203899061E+01 0.  0.
     999903    2    3    3    0    0 -0.43057273336E-01 -0.11142686475E+00 -0.48366530645E-01  0.13027896591E+00  0.19063386308E-01 0.  0.
         14    1    1    2    0    0  0.54622118700E-02  0.21930768384E-02 -0.22518117858E-01  0.23274685313E-01  0.00000000000E+00 0. -1.
     999901    1    3    3    0    0  0.37595061466E-01  0.10923378791E+00  0.70884648503E-01  0.89037634878E+00  0.88000000000E+00 0. -1.
        -11    1    4    4    0    0 -0.18171651538E-01 -0.53482488793E-01 -0.32807622316E-01  0.65323707259E-01  0.51100000000E-03 0. -1.
         11    1    4    4    0    0 -0.24885621798E-01 -0.57944375955E-01 -0.15558908329E-01  0.64955258652E-01  0.51100000000E-03 0.  1.
</event>
<event>
 7    1  0.1104109E+005  0.1043930E+01  0.7957747E-01            NaN
         13   -1    0    0    0    0  0.00000000000E+00  0.00000000000E+00  0.74505805969E-08  0.10566000000E+00  0.10566000000E+00 0.  1.
     999900   -1    0    0    0    0 -0.00000000000E+00 -0.00000000000E+00 -0.74505805969E-08  0.93827000000E+00  0.93827000000E+00 0.  1.
     999903    2    1    2    0    0  0.10153794087E+00  0.41235269850E-01 -0.14809704432E-01  0.11234356342E+00  0.19785044363E-01 0.  0.
         14    1    1    2    0    0 -0.56407733933E-02 -0.45634493732E-01  0.55666265356E-02  0.46317520158E-01  0.00000000000E+00 0.  1.
     999901    1    1    2    0    0 -0.95897167475E-01  0.43992238814E-02  0.92430778964E-02  0.88526891643E+00  0.88000000000E+00 0.  1.
        -11    1    3    3    0    0  0.60570237097E-01  0.17340178805E-01 -0.12673631033E-02  0.63018273169E-01  0.51100000000E-03 0. -1.
         11    1    3    3    0    0  0.40967703771E-01  0.23895091046E-01 -0.13542341329E-01  0.49325290248E-01  0.51100000000E-03 0.  1.
</event>
<event>
 8    1  0.1104109E+005  0.1043930E+01  0.7957747E-01            NaN
         13   -1    0    0    0    0  0.00000000000E+00  0.00000000000E+00  0.74505805969E-08  0.10566000000E+00  0.10566000000E+00 0.  1.
     999900   -1    0    0    0    0 -0.00000000000E+00 -0.00000000000E+00 -0.74505805969E-08  0.93827000000E+00  0.93827000000E+00 0. -1.
     999902    2    1    2    0    0  0.10611655661E-02  0.15203216947E-01  0.17229861969E-01  0.10209271301E+01  0.10206679544E+01 0.  0.
     999903    2    3    3    0    0  0.28781766800E-01 -0.50054030710E-01  0.11748370302E+00  0.13240151276E+00  0.19848022961E-01 0.  0.
         14    1    1    2    0    0 -0.10611655661E-02 -0.15203216947E-01 -0.17229861969E-01  0.23002869850E-01  0.00000000000E+00 0.  1.
     999901    1    3    3    0    0 -0.27720601234E-01  0.65257247657E-01 -0.10025384106E+00  0.88852561739E+00  0.88000000000E+00 0.  1.
        -11    1    4    4    0    0  0.11408770632E-01 -0.60749873225E-02  0.35137733258E-01  0.37443116027E-01  0.51100000000E-03 0.  1.
         11    1    4    4    0    0  0.17372996168E-01 -0.43979043387E-01  0.82345969766E-01  0.94958396737E-01  0.51100000000E-03 0. -1.
</event>
<event>
 8    1  0.1104109E+005  0.1043930E+01  0.7957747E-01            NaN
         13   -1    0    0    0    0  0.00000000000E+00  0.00000000000E+00  0.74505805969E-08  0.10566000000E+00  0.10566000000E+00 0.  1.
     999900   -1    0    0    0    0 -0.00000000000E+00 -0.00000000000E+00 -0.74505805969E-08  0.93827000000E+00  0.93827000000E+00 0. -1.
     999902    2    1    2    0    0 -0.14405228481E-01 -0.91193525722E-02 -0.16600200311E-01  0.10201342052E+01  0.10198566354E+01 0.  0.
     999903    2    3    3    0    0 -0.13716745904E-01 -0.85248873627E-01  0.94647066019E-01  0.12986900189E+00  0.21269014412E-01 0.  0.
         14    1    1    2    0    0  0.14405228481E-01  0.91193525722E-02  0.16600200311E-01  0.23795794782E-01  0.00000000000E+00 0.  1.
     999901    1    3    3    0    0 -0.68848257783E-03  0.76129521055E-01 -0.11124726633E+00  0.89026520332E+00  0.88000000000E+00 0. -1.
        -11    1    4    4    0    0  0.11444819653E-02 -0.43836859968E-01  0.37200523492E-01  0.57507566458E-01  0.51100000000E-03 0.  1.
         11    1    4    4    0    0 -0.14861227869E-01 -0.41412013659E-01  0.57446542526E-01  0.72361435436E-01  0.51100000000E-03 0. -1.
</event>
<event>
 8    1  0.1104109E+005  0.1043930E+01  0.7957747E-01            NaN
         13   -1    0    0    0    0  0.00000000000E+00  0.00000000000E+00  0.74505805969E-08  0.10566000000E+00  0.10566000000E+00 0. -1.
     999900   -1    0    0    0    0 -0.00000000000E+00 -0.00000000000E+00 -0.74505805969E-08  0.93827000000E+00  0.93827000000E+00 0. -1.
     999902    2    1    2    0    0 -0.13835614457E-01  0.72813442120E-02 -0.17880644131E-01  0.10201779551E+01  0.10199014170E+01 0.  0.
     999903    2    3    3    0    0  0.74752629140E-01 -0.48621552281E-02 -0.10577905312E+00  0.13129018281E+00  0.20887984716E-01 0.  0.
         14    1    1    2    0    0  0.13835614457E-01 -0.72813442120E-02  0.17880644131E-01  0.23752044869E-01  0.00000000000E+00 0. -1.
     999901    1    3    3    0    0 -0.88588243597E-01  0.12143499440E-01  0.87898408991E-01  0.88888777232E+00  0.88000000000E+00 0.  1.
        -11    1    4    4    0    0  0.57574013227E-01 -0.48477397906E-02 -0.94397012669E-01  0.11067666738E+00  0.51100000000E-03 0.  1.
         11    1    4    4    0    0  0.17178615912E-01 -0.14415437490E-04 -0.11382040453E-01  0.20613515429E-01  0.51100000000E-03 0. -1.
</event>
<event>
 8    1  0.1104109E+005  0.1043930E+01  0.7957747E-01            NaN
         13   -1    0    0    0    0  0.00000000000E+00  0.00000000000E+00  0.74505805969E-08  0.10566000000E+00  0.10566000000E+00 0.  1.
     999900   -1    0    0    0    0 -0.00000000000E+00 -0.00000000000E+00 -0.74505805969E-08  0.93827000000E+00  0.93827000000E+00 0.  1.
     999902    2    1    2    0    0 -0.21429462639E-01  0.52980483773E-02 -0.93263105738E-02  0.10199660426E+01  0.10196844888E+01 0.  0.
     999903    2    3    3    0    0  0.10946548847E+00  0.49508749370E-01  0.38722367598E-01  0.12789163439E+00  0.20567911022E-01 0.  0.
         14    1    1    2    0    0  0.21429462639E-01 -0.52980483773E-02  0.93263105738E-02  0.23963957405E-01  0.00000000000E+00 0.  1.
     999901    1    3    3    0    0 -0.13089495111E+00 -0.44210700992E-01 -0.48048678172E-01  0.89207440821E+00  0.88000000000E+00 0.  1.
        -11    1    4    4    0    0  0.79149587721E-02  0.97781929960E-02  0.15637227929E-02  0.12687236918E-01  0.51100000000E-03 0.  1.
         11    1    4    4    0    0  0.10155052970E+00  0.39730556374E-01  0.37158644805E-01  0.11520439747E+00  0.51100000000E-03 0. -1.
</event>
<event>
 8    1  0.1104109E+005  0.1043930E+01  0.7957747E-01            NaN
         13   -1    0    0    0    0  0.00000000000E+00  0.00000000000E+00  0.74505805969E-08  0.10566000000E+00  0.10566000000E+00 0. -1.
     999900   -1    0    0    0    0 -0.00000000000E+00 -0.00000000000E+00 -0.74505805969E-08  0.93827000000E+00  0.93827000000E+00 0.  1.
     999902    2    1    2    0    0 -0.43590852540E-02  0.18609431290E-01  0.14747928692E-01  0.10197884599E+01  0.10195026675E+01 0.  0.
     999903    2    3    3    0    0 -0.81202120333E-02  0.10943097528E+00  0.72745956145E-01  0.13320712122E+00  0.20275275901E-01 0.  0.
         14    1    1    2    0    0  0.43590852540E-02 -0.18609431290E-01 -0.14747928692E-01  0.24141540089E-01  0.00000000000E+00 0.  1.
     999901    1    3    3    0    0  0.37611267793E-02 -0.90821543994E-01 -0.57998027453E-01  0.88658133869E+00  0.88000000000E+00 0.  1.
        -11    1    4    4    0    0 -0.14313534187E-01  0.58970212605E-01  0.41802250986E-01  0.73688890235E-01  0.51100000000E-03 0. -1.
         11    1    4    4    0    0  0.61933221536E-02  0.50460762678E-01  0.30943705160E-01  0.59518230983E-01  0.51100000000E-03 0.  1.
</event>
<event>
 8    1  0.1104109E+005  0.1043930E+01  0.7957747E-01            NaN
         13   -1    0    0    0    0  0.00000000000E+00  0.00000000000E+00  0.74505805969E-08  0.10566000000E+00  0.10566000000E+00 0.  1.
     999900   -1    0    0    0    0 -0.00000000000E+00 -0.00000000000E+00 -0.74505805969E-08  0.93827000000E+00  0.93827000000E+00 0. -1.
     999902    2    1    2    0    0  0.10100619064E-01  0.83119530627E-02  0.16719113121E-01  0.10227017214E+01  0.10224813794E+01 0.  0.
     999903    2    3    3    0    0  0.25243063914E-01 -0.57337188455E-01 -0.11288958257E+00  0.13066051303E+00  0.20083484663E-01 0.  0.
         14    1    1    2    0    0 -0.10100619064E-01 -0.83119530627E-02 -0.16719113121E-01  0.21228278610E-01  0.00000000000E+00 0. -1.
     999901    1    3    3    0    0 -0.15142444850E-01  0.65649141517E-01  0.12960869569E+00  0.89204120836E+00  0.88000000000E+00 0.  1.
        -11    1    4    4    0    0  0.24792277679E-01 -0.35460318085E-01 -0.66084037278E-01  0.78990203792E-01  0.51100000000E-03 0. -1.
         11    1    4    4    0    0  0.45078623523E-03 -0.21876870370E-01 -0.46805545292E-01  0.51670309236E-01  0.51100000000E-03 0.  1.
</event>
<event>
 8    1  0.1104109E+005  0.1043930E+01  0.7957747E-01            NaN
         13   -1    0    0    0    0  0.00000000000E+00  0.00000000000E+00  0.74505805969E-08  0.10566000000E+00  0.10566000000E+00 0.  1.
     999900   -1    0    0    0    0 -0.00000000000E+00 -0.00000000000E+00 -0.74505805969E-08  0.93827000000E+00  0.93827000000E+00 0. -1.
     999902    2    1    2    0    0  0.60931565992E-02  0.24974410488E-02 -0.22869959159E-01  0.10201308655E+01  0.10198532169E+01 0.  0.
     999903    2    3    3    0    0  0.92906114010E-01  0.54885308381E-01 -0.74675231943E-01  0.13279509792E+00  0.20352018769E-01 0.  0.
         14    1    1    2    0    0 -0.60931565992E-02 -0.24974410488E-02  0.22869959159E-01  0.23799134460E-01  0.00000000000E+00 0.  1.
     999901    1    3    3    0    0 -0.86812957411E-01 -0.52387867333E-01  0.51805272784E-01  0.88733576762E+00  0.88000000000E+00 0. -1.
        -11    1    4    4    0    0  0.22871992913E-01  0.16333178698E-01 -0.95732397710E-02  0.29695266069E-01  0.51100000000E-03 0.  1.
         11    1    4    4    0    0  0.70034121098E-01  0.38552129683E-01 -0.65101992172E-01  0.10309983185E+00  0.51100000000E-03 0. -1.
</event>
<event>
 7    1  0.1104109E+005  0.1043930E+01  0.7957747E-01            NaN
         13   -1    0    0    0    0  0.00000000000E+00  0.00000000000E+00  0.74505805969E-08  0.10566000000E+00  0.10566000000E+00 0.  1.
     999900   -1    0    0    0    0 -0.00000000000E+00 -0.00000000000E+00 -0.74505805969E-08  0.93827000000E+00  0.93827000000E+00 0.  1.
     999903    2    1    2    0    0  0.25938723975E-01  0.36795330379E-01  0.42740807370E-01  0.65175788606E-01  0.19859331979E-01 0.  0.
         14    1    1    2    0    0  0.40900095697E-01  0.23490755081E-01 -0.80563372300E-01  0.93354648297E-01  0.00000000000E+00 0. -1.
     999901    1    1    2    0    0 -0.66838819672E-01 -0.60286085460E-01  0.37822564930E-01  0.88539956310E+00  0.88000000000E+00 0.  1.
        -11    1    3    3    0    0  0.44169861062E-02  0.36857089664E-02  0.17199666785E-01  0.18143425128E-01  0.51100000000E-03 0. -1.
         11    1    3    3    0    0  0.21521737869E-01  0.33109621413E-01  0.25541140584E-01  0.47032363478E-01  0.51100000000E-03 0.  1.
</event>
<event>
 8    1  0.1104109E+005  0.1043930E+01  0.7957747E-01            NaN
         13   -1    0    0    0    0  0.00000000000E+00  0.00000000000E+00  0.74505805969E-08  0.10566000000E+00  0.10566000000E+00 0.  1.
     999900   -1    0    0    0    0 -0.00000000000E+00 -0.00000000000E+00 -0.74505805969E-08  0.93827000000E+00  0.93827000000E+00 0. -1.
     999902    2    1    2    0    0  0.63955758105E-02  0.23022653854E-01  0.60587815691E-05  0.10200355233E+01  0.10197556191E+01 0.  0.
     999903    2    3    3    0    0  0.28095287758E-01  0.99272186508E-01 -0.81074348109E-01  0.13275941006E+00  0.20191553437E-01 0.  0.
         14    1    1    2    0    0 -0.63955758105E-02 -0.23022653854E-01 -0.60587815691E-05  0.23894476708E-01  0.00000000000E+00 0.  1.
     999901    1    3    3    0    0 -0.21699711948E-01 -0.76249532654E-01  0.81080406891E-01  0.88727611323E+00  0.88000000000E+00 0.  1.
        -11    1    4    4    0    0  0.19566572805E-02  0.32946197821E-01 -0.18148245192E-01  0.37668294137E-01  0.51100000000E-03 0. -1.
         11    1    4    4    0    0  0.26138630478E-01  0.66325988686E-01 -0.62926102917E-01  0.95091115925E-01  0.51100000000E-03 0.  1.
</event>
<event>
 8    1  0.1104109E+005  0.1043930E+01  0.7957747E-01            NaN
         13   -1    0    0    0    0  0.00000000000E+00  0.00000000000E+00  0.74505805969E-08  0.10566000000E+00  0.10566000000E+00 0. -1.
     999900   -1    0    0    0    0 -0.00000000000E+00 -0.00000000000E+00 -0.74505805969E-08  0.93827000000E+00  0.93827000000E+00 0. -1.
     999902    2    1    2    0    0 -0.21640472838E-01  0.87917287426E-02 -0.33532182943E-02  0.10203323596E+01  0.10200594470E+01 0.  0.
     999903    2    3    3    0    0 -0.10754585573E+00  0.42339128667E-01  0.62775585599E-01  0.13304538148E+00  0.20039622890E-01 0.  0.
         14    1    1    2    0    0  0.21640472838E-01 -0.87917287426E-02  0.33532182943E-02  0.23597640388E-01  0.00000000000E+00 0. -1.
     999901    1    3    3    0    0  0.85905382893E-01 -0.33547399924E-01 -0.66128803894E-01  0.88728697813E+00  0.88000000000E+00 0. -1.
        -11    1    4    4    0    0 -0.86654365722E-01  0.25540570006E-01  0.45532886770E-01  0.10116721165E+00  0.51100000000E-03 0.  1.
         11    1    4    4    0    0 -0.20891490010E-01  0.16798558661E-01  0.17242698829E-01  0.31878169831E-01  0.51100000000E-03 0. -1.
</event>
<event>
 8    1  0.1192739E+005  0.1043930E+01  0.7957747E-01            NaN
         13   -1    0    0    0    0  0.00000000000E+00  0.00000000000E+00  0.74505805969E-08  0.10566000000E+00  0.10566000000E+00 0. -1.
     999900   -1    0    0    0    0 -0.00000000000E+00 -0.00000000000E+00 -0.74505805969E-08  0.93827000000E+00  0.93827000000E+00 0.  1.
     999902    2    1    2    0    0 -0.22487694398E-02 -0.35610869258E-02 -0.23752136059E-01  0.10198073494E+01  0.10195220094E+01 0.  0.
     999903    2    3    3    0    0 -0.31788561623E-01  0.10953229664E-01 -0.12744231707E+00  0.13310846120E+00  0.18596568848E-01 0.  0.
         14    1    1    2    0    0  0.22487694398E-02  0.35610869258E-02  0.23752136059E-01  0.24122650589E-01  0.00000000000E+00 0. -1.
     999901    1    3    3    0    0  0.29539792183E-01 -0.14514316590E-01  0.10369018102E+00  0.88669888821E+00  0.88000000000E+00 0. -1.
        -11    1    4    4    0    0 -0.13077756125E-01  0.11564516656E-01 -0.39416484489E-01  0.43112482197E-01  0.51100000000E-03 0. -1.
         11    1    4    4    0    0 -0.18710805498E-01 -0.61128699168E-03 -0.88025832585E-01  0.89995979007E-01  0.51100000000E-03 0.  1.
</event>
<event>
 8    1  0.1104109E+005  0.1043930E+01  0.7957747E-01            NaN
         13   -1    0    0    0    0  0.00000000000E+00  0.00000000000E+00  0.74505805969E-08  0.10566000000E+00  0.10566000000E+00 0.  1.
     999900   -1    0    0    0    0 -0.00000000000E+00 -0.00000000000E+00 -0.74505805969E-08  0.93827000000E+00  0.93827000000E+00 0. -1.
     999902    2    1    2    0    0  0.12402376941E-01  0.19299256680E-01 -0.25095716949E-02  0.10208523439E+01  0.10205914608E+01 0.  0.
     999903    2    3    3    0    0  0.86028207040E-01  0.57871172832E-01  0.80428628102E-01  0.13305321087E+00  0.22010625926E-01 0.  0.
         14    1    1    2    0    0 -0.12402376941E-01 -0.19299256680E-01  0.25095716949E-02  0.23077656126E-01  0.00000000000E+00 0.  1.
     999901    1    3    3    0    0 -0.73625830099E-01 -0.38571916152E-01 -0.82938199797E-01  0.88779913300E+00  0.88000000000E+00 0.  1.
        -11    1    4    4    0    0  0.73595000272E-01  0.57329424628E-01  0.67880974001E-01  0.11537319769E+00  0.51100000000E-03 0.  1.
         11    1    4    4    0    0  0.12433206767E-01  0.54174820424E-03  0.12547654101E-01  0.17680013181E-01  0.51100000000E-03 0. -1.
</event>
<event>
 8    1  0.1104109E+005  0.1043930E+01  0.7957747E-01            NaN
         13   -1    0    0    0    0  0.00000000000E+00  0.00000000000E+00  0.74505805969E-08  0.10566000000E+00  0.10566000000E+00 0.  1.
     999900   -1    0    0    0    0 -0.00000000000E+00 -0.00000000000E+00 -0.74505805969E-08  0.93827000000E+00  0.93827000000E+00 0.  1.
     999902    2    1    2    0    0  0.15065531629E-01  0.17094690946E-01 -0.22750758902E-02  0.10210307714E+01  0.10207739522E+01 0.  0.
     999903    2    3    3    0    0  0.20115181093E-01 -0.46902834134E-01 -0.11919251475E+00  0.13097972244E+00  0.18556286236E-01 0.  0.
         14    1    1    2    0    0 -0.15065531629E-01 -0.17094690946E-01  0.22750758902E-02  0.22899228636E-01  0.00000000000E+00 0.  1.
     999901    1    3    3    0    0 -0.50496494641E-02  0.63997525080E-01  0.11691743886E+00  0.89005104892E+00  0.88000000000E+00 0. -1.
        -11    1    4    4    0    0  0.22815686873E-01 -0.33004040352E-01 -0.87010722055E-01  0.95817269428E-01  0.51100000000E-03 0.  1.
         11    1    4    4    0    0 -0.27005057799E-02 -0.13898793782E-01 -0.32181792694E-01  0.35162453016E-01  0.51100000000E-03 0. -1.
</event>
<event>
 8    1  0.1104109E+005  0.1043930E+01  0.7957747E-01            NaN
         13   -1    0    0    0    0  0.00000000000E+00  0.00000000000E+00  0.74505805969E-08  0.10566000000E+00  0.10566000000E+00 0. -1.
     999900   -1    0    0    0    0 -0.00000000000E+00 -0.00000000000E+00 -0.74505805969E-08  0.93827000000E+00  0.93827000000E+00 0.  1.
     999902    2    1    2    0    0 -0.53038888221E-02 -0.22426237216E-01  0.55918564254E-02  0.10202163708E+01  0.10199407370E+01 0.  0.
     999903    2    3    3    0    0  0.12699949894E+00 -0.63140626916E-02 -0.16440545999E-01  0.12990787631E+00  0.20905134627E-01 0.  0.
         14    1    1    2    0    0  0.53038888221E-02  0.22426237216E-01 -0.55918564254E-02  0.23713629216E-01  0.00000000000E+00 0. -1.
     999901    1    3    3    0    0 -0.13230338777E+00 -0.16112174525E-01  0.22032402425E-01  0.89030849448E+00  0.88000000000E+00 0. -1.
        -11    1    4    4    0    0  0.70937798609E-01 -0.26440125821E-03  0.79029826470E-03  0.70944533770E-01  0.51100000000E-03 0. -1.
         11    1    4    4    0    0  0.56061700336E-01 -0.60496614334E-02 -0.17230844264E-01  0.58963342536E-01  0.51100000000E-03 0.  1.
</event>
<event>
 8    1  0.1104109E+005  0.1043930E+01  0.7957747E-01            NaN
         13   -1    0    0    0    0  0.00000000000E+00  0.00000000000E+00  0.74505805969E-08  0.10566000000E+00  0.10566000000E+00 0.  1.
     999900   -1    0    0    0    0 -0.00000000000E+00 -0.00000000000E+00 -0.74505805969E-08  0.93827000000E+00  0.93827000000E+00 0. -1.
     999902    2    1    2    0    0  0.23217608210E-01  0.39487657046E-02 -0.13787751507E-01  0.10166398521E+01  0.10162735049E+01 0.  0.
     999903    2    3    3    0    0  0.18826932279E-01  0.84195215166E-01 -0.94139753574E-01  0.12933200533E+00  0.20522835150E-01 0.  0.
         14    1    1    2    0    0 -0.23217608210E-01 -0.39487657046E-02  0.13787751507E-01  0.27290147915E-01  0.00000000000E+00 0. -1.
     999901    1    3    3    0    0  0.43906759311E-02 -0.80246449461E-01  0.80352002067E-01  0.88730784676E+00  0.88000000000E+00 0.  1.
        -11    1    4    4    0    0  0.15295686446E-01  0.45977301112E-01 -0.65326073695E-01  0.81336506359E-01  0.51100000000E-03 0.  1.
         11    1    4    4    0    0  0.35312458323E-02  0.38217914054E-01 -0.28813679880E-01  0.47995498966E-01  0.51100000000E-03 0. -1.
</event>
<event>
 8    1  0.1104109E+005  0.1043930E+01  0.7957747E-01            NaN
         13   -1    0    0    0    0  0.00000000000E+00  0.00000000000E+00  0.74505805969E-08  0.10566000000E+00  0.10566000000E+00 0.  1.
     999900   -1    0    0    0    0 -0.00000000000E+00 -0.00000000000E+00 -0.74505805969E-08  0.93827000000E+00  0.93827000000E+00 0.  1.
     999902    2    1    2    0    0 -0.13824089881E-01  0.19625627128E-01 -0.15255761397E-02  0.10198759342E+01  0.10195922337E+01 0.  0.
     999903    2    3    3    0    0  0.40893772449E-01 -0.88668735919E-01 -0.80820717961E-01  0.12801864005E+00  0.17953784960E-01 0.  0.
         14    1    1    2    0    0  0.13824089881E-01 -0.19625627128E-01  0.15255761397E-02  0.24054065847E-01  0.00000000000E+00 0. -1.
     999901    1    3    3    0    0 -0.54717862330E-01  0.10829436305E+00  0.79295141821E-01  0.89185729410E+00  0.88000000000E+00 0. -1.
        -11    1    4    4    0    0  0.24167888031E-01 -0.58013502282E-01 -0.62268428113E-01  0.88471868521E-01  0.51100000000E-03 0. -1.
         11    1    4    4    0    0  0.16725884418E-01 -0.30655233637E-01 -0.18552289847E-01  0.39546771531E-01  0.51100000000E-03 0.  1.
</event>
<event>
 8    1  0.1205275E+005  0.1043930E+01  0.7957747E-01            NaN
         13   -1    0    0    0    0  0.00000000000E+00  0.00000000000E+00  0.74505805969E-08  0.10566000000E+00  0.10566000000E+00 0. -1.
     999900   -1    0    0    0    0 -0.00000000000E+00 -0.00000000000E+00 -0.74505805969E-08  0.93827000000E+00  0.93827000000E+00 0.  1.
     999902    2    1    2    0    0  0.45251583902E-02 -0.26855506486E-02 -0.24324364746E-01  0.10190429761E+01  0.10187390358E+01 0.  0.
     999903    2    3    3    0    0  0.29602248857E-01 -0.12482759084E+00 -0.66256738155E-02  0.13007684503E+00  0.20441758400E-01 0.  0.
         14    1    1    2    0    0 -0.45251583902E-02  0.26855506486E-02  0.24324364746E-01  0.24887023949E-01  0.00000000000E+00 0. -1.
     999901    1    3    3    0    0 -0.25077090467E-01  0.12214204019E+00 -0.17698690930E-01  0.88896613102E+00  0.88000000000E+00 0. -1.
        -11    1    4    4    0    0  0.11156867776E-01 -0.55516438929E-01  0.70290142752E-02  0.57063288133E-01  0.51100000000E-03 0. -1.
         11    1    4    4    0    0  0.18445381081E-01 -0.69311151910E-01 -0.13654688091E-01  0.73013556893E-01  0.51100000000E-03 0.  1.
</event>
<event>
 8    1  0.1104109E+005  0.1043930E+01  0.7957747E-01            NaN
         13   -1    0    0    0    0  0.00000000000E+00  0.00000000000E+00  0.74505805969E-08  0.10566000000E+00  0.10566000000E+00 0. -1.
     999900   -1    0    0    0    0 -0.00000000000E+00 -0.00000000000E+00 -0.74505805969E-08  0.93827000000E+00  0.93827000000E+00 0. -1.
     999902    2    1    2    0    0  0.21661496018E-02  0.23477724582E-01 -0.57601444457E-03  0.10203455231E+01  0.10200729185E+01 0.  0.
     999903    2    3    3    0    0 -0.11880855000E+00  0.43431474317E-01 -0.29046615056E-01  0.13138905336E+00  0.20435581294E-01 0.  0.
         14    1    1    2    0    0 -0.21661496018E-02 -0.23477724582E-01  0.57601444457E-03  0.23584476850E-01  0.00000000000E+00 0.  1.
     999901    1    3    3    0    0  0.12097469960E+00 -0.19953749734E-01  0.28470600612E-01  0.88895646978E+00  0.88000000000E+00 0. -1.
        -11    1    4    4    0    0 -0.22885459052E-01  0.11500820152E-01 -0.13947078250E-01  0.29168394075E-01  0.51100000000E-03 0.  1.
         11    1    4    4    0    0 -0.95923090951E-01  0.31930654165E-01 -0.15099536806E-01  0.10222065929E+00  0.51100000000E-03 0. -1.
</event>
<event>
 8    1  0.1104109E+005  0.1043930E+01  0.7957747E-01            NaN
         13   -1    0    0    0    0  0.00000000000E+00  0.00000000000E+00  0.74505805969E-08  0.10566000000E+00  0.10566000000E+00 0.  1.
     999900   -1    0    0    0    0 -0.00000000000E+00 -0.00000000000E+00 -0.74505805969E-08  0.93827000000E+00  0.93827000000E+00 0.  1.
     999902    2    1    2    0    0 -0.15554282742E-01 -0.53923051200E-02 -0.18990884981E-01  0.10187970261E+01  0.10184869729E+01 0.  0.
     999903    2    3    3    0    0 -0.11231882357E+00  0.15503600504E-01  0.60251800064E-01  0.12970793134E+00  0.18384457703E-01 0.  0.
         14    1    1    2    0    0  0.15554282742E-01  0.53923051200E-02  0.18990884981E-01  0.25132973928E-01  0.00000000000E+00 0.  1.
     999901    1    3    3    0    0  0.96764540830E-01 -0.20895905624E-01 -0.79242685045E-01  0.88908909473E+00  0.88000000000E+00 0.  1.
        -11    1    4    4    0    0 -0.34075144441E-01 -0.37049347380E-02  0.16991436821E-01  0.38259796867E-01  0.51100000000E-03 0.  1.
         11    1    4    4    0    0 -0.78243679131E-01  0.19208535242E-01  0.43260363243E-01  0.91448134475E-01  0.51100000000E-03 0. -1.
</event>
<event>
 8    1  0.1104109E+005  0.1043930E+01  0.7957747E-01            NaN
         13   -1    0    0    0    0  0.00000000000E+00  0.00000000000E+00  0.74505805969E-08  0.10566000000E+00  0.10566000000E+00 0. -1.
     999900   -1    0    0    0    0 -0.00000000000E+00 -0.00000000000E+00 -0.74505805969E-08  0.93827000000E+00  0.93827000000E+00 0. -1.
     999902    2    1    2    0    0 -0.26316363363E-01  0.23452516246E-01 -0.74791101391E-02  0.10078951754E+01  0.10072508009E+01 0.  0.
     999903    2    3    3    0    0 -0.21264690214E-01  0.11741032679E+00 -0.20689732982E-01  0.12278043131E+00  0.20238512198E-01 0.  0.
         14    1    1    2    0    0  0.26316363363E-01 -0.23452516246E-01  0.74791101391E-02  0.36034824648E-01  0.00000000000E+00 0.  1.
     999901    1    3    3    0    0 -0.50516731494E-02 -0.93957810541E-01  0.13210622843E-01  0.88511474404E+00  0.88000000000E+00 0.  1.
        -11    1    4    4    0    0 -0.23012779725E-01  0.97988818202E-01 -0.11806284147E-01  0.10134616909E+00  0.51100000000E-03 0.  1.
         11    1    4    4    0    0  0.17480895114E-02  0.19421508585E-01 -0.88834488358E-02  0.21434262219E-01  0.51100000000E-03 0. -1.
</event>
<event>
 8    1  0.1104109E+005  0.1043930E+01  0.7957747E-01            NaN
         13   -1    0    0    0    0  0.00000000000E+00  0.00000000000E+00  0.74505805969E-08  0.10566000000E+00  0.10566000000E+00 0.  1.
     999900   -1    0    0    0    0 -0.00000000000E+00 -0.00000000000E+00 -0.74505805969E-08  0.93827000000E+00  0.93827000000E+00 0.  1.
     999902    2    1    2    0    0  0.88849945707E-02  0.21725149608E-02 -0.19495838536E-01  0.10223951290E+01  0.10221683076E+01 0.  0.
     999903    2    3    3    0    0 -0.22600209455E-01 -0.93709050020E-01 -0.90809870511E-01  0.13376118649E+00  0.18800715595E-01 0.  0.
         14    1    1    2    0    0 -0.88849945707E-02 -0.21725149608E-02  0.19495838536E-01  0.21534871024E-01  0.00000000000E+00 0. -1.
     999901    1    3    3    0    0  0.31485204026E-01  0.95881564981E-01  0.71314031975E-01  0.88863394248E+00  0.88000000000E+00 0. -1.
        -11    1    4    4    0    0 -0.12325799390E-01 -0.50885189655E-01 -0.61916905742E-01  0.81087558814E-01  0.51100000000E-03 0.  1.
         11    1    4    4    0    0 -0.10274410065E-01 -0.42823860365E-01 -0.28892964769E-01  0.52673627679E-01  0.51100000000E-03 0. -1.
</event>
