<event>
 8    1  0.2001339E+004  0.1043930E+01  0.7957747E-01            NaN
         13   -1    0    0    0    0  0.00000000000E+00  0.00000000000E+00  0.74505805969E-08  0.10566000000E+00  0.10566000000E+00 0. -1.
     999900   -1    0    0    0    0 -0.00000000000E+00 -0.00000000000E+00 -0.74505805969E-08  0.93827000000E+00  0.93827000000E+00 0.  1.
     999902    2    1    2    0    0  0.85462813859E-02 -0.21384224168E-02 -0.11148151332E-01  0.10297210924E+01  0.10296230549E+01 0.  0.
     999903    2    3    3    0    0  0.27091393317E-01  0.11790078138E+00  0.51930543348E-01  0.13914136364E+00  0.45044421419E-01 0.  0.
         14    1    1    2    0    0 -0.85462813859E-02  0.21384224168E-02  0.11148151332E-01  0.14208907561E-01  0.00000000000E+00 0. -1.
     999901    1    3    3    0    0 -0.18545111931E-01 -0.12003920380E+00 -0.63078694679E-01  0.89057972880E+00  0.88000000000E+00 0.  1.
        -11    1    4    4    0    0  0.23346623785E-01  0.27504257086E-01  0.27671573639E-01  0.45470057276E-01  0.51100000000E-03 0.  1.
         11    1    4    4    0    0  0.37447695319E-02  0.90396524296E-01  0.24258969708E-01  0.93671306364E-01  0.51100000000E-03 0. -1.
</event>
<event>
 8    1  0.2001339E+004  0.1043930E+01  0.7957747E-01            NaN
         13   -1    0    0    0    0  0.00000000000E+00  0.00000000000E+00  0.74505805969E-08  0.10566000000E+00  0.10566000000E+00 0. -1.
     999900   -1    0    0    0    0 -0.00000000000E+00 -0.00000000000E+00 -0.74505805969E-08  0.93827000000E+00  0.93827000000E+00 0. -1.
     999902    2    1    2    0    0  0.13315479255E-01  0.42424611999E-03 -0.55172374245E-02  0.10295105034E+01  0.10294095175E+01 0.  0.
     999903    2    3    3    0    0 -0.51209834039E-01  0.24878406521E-01  0.11753802108E+00  0.13827309473E+00  0.45418940020E-01 0.  0.
         14    1    1    2    0    0 -0.13315479255E-01 -0.42424611999E-03  0.55172374245E-02  0.14419496571E-01  0.00000000000E+00 0. -1.
     999901    1    3    3    0    0  0.64525313294E-01 -0.24454160401E-01 -0.12305525851E+00  0.89123740870E+00  0.88000000000E+00 0. -1.
        -11    1    4    4    0    0 -0.18095004679E-01  0.28640750694E-01  0.85801549278E-01  0.92249058391E-01  0.51100000000E-03 0.  1.
         11    1    4    4    0    0 -0.33114829360E-01 -0.37623441723E-02  0.31736471807E-01  0.46024036339E-01  0.51100000000E-03 0. -1.
</event>
<event>
 8    1  0.2001339E+004  0.1043930E+01  0.7957747E-01            NaN
         13   -1    0    0    0    0  0.00000000000E+00  0.00000000000E+00  0.74505805969E-08  0.10566000000E+00  0.10566000000E+00 0. -1.
     999900   -1    0    0    0    0 -0.00000000000E+00 -0.00000000000E+00 -0.74505805969E-08  0.93827000000E+00  0.93827000000E+00 0.  1.
     999902    2    1    2    0    0  0.24407782763E-02 -0.58474617850E-03 -0.13945369229E-01  0.10297605734E+01  0.10296630837E+01 0.  0.
     999903    2    3    3    0    0 -0.44392034092E-01 -0.10797543553E+00 -0.64268290173E-01  0.14057079118E+00  0.44725684372E-01 0.  0.
         14    1    1    2    0    0 -0.24407782763E-02  0.58474617850E-03  0.13945369229E-01  0.14169426580E-01  0.00000000000E+00 0. -1.
     999901    1    3    3    0    0  0.46832812368E-01  0.10739068935E+00  0.50322920944E-01  0.88918978224E+00  0.88000000000E+00 0. -1.
        -11    1    4    4    0    0 -0.32187671359E-01 -0.33507468388E-01 -0.97582372788E-02  0.47479268540E-01  0.51100000000E-03 0. -1.
         11    1    4    4    0    0 -0.12204362733E-01 -0.74467967138E-01 -0.54510052894E-01  0.93091522637E-01  0.51100000000E-03 0.  1.
</event>
<event>
 8    1  0.2001339E+004  0.1043930E+01  0.7957747E-01            NaN
         13   -1    0    0    0    0  0.00000000000E+00  0.00000000000E+00  0.74505805969E-08  0.10566000000E+00  0.10566000000E+00 0. -1.
     999900   -1    0    0    0    0 -0.00000000000E+00 -0.00000000000E+00 -0.74505805969E-08  0.93827000000E+00  0.93827000000E+00 0. -1.
     999902    2    1    2    0    0  0.63994970840E-02 -0.21807787047E-02  0.12240300641E-01  0.10299466414E+01  0.10298517125E+01 0.  0.
     999903    2    3    3    0    0 -0.12314546865E-01  0.24014959782E-01 -0.12784986997E+00  0.13828432409E+00  0.45261448077E-01 0.  0.
         14    1    1    2    0    0 -0.63994970840E-02  0.21807787047E-02 -0.12240300641E-01  0.13983358627E-01  0.00000000000E+00 0.  1.
     999901    1    3    3    0    0  0.18714043949E-01 -0.26195738487E-01  0.14009017061E+00  0.89166231728E+00  0.88000000000E+00 0.  1.
        -11    1    4    4    0    0 -0.21485239773E-01  0.37400296111E-02 -0.25571579891E-01  0.33612053920E-01  0.51100000000E-03 0.  1.
         11    1    4    4    0    0  0.91706929075E-02  0.20274930171E-01 -0.10227829007E+00  0.10467227017E+00  0.51100000000E-03 0. -1.
</event>
<event>
 8    1  0.2001339E+004  0.1043930E+01  0.7957747E-01            NaN
         13   -1    0    0    0    0  0.00000000000E+00  0.00000000000E+00  0.74505805969E-08  0.10566000000E+00  0.10566000000E+00 0. -1.
     999900   -1    0    0    0    0 -0.00000000000E+00 -0.00000000000E+00 -0.74505805969E-08  0.93827000000E+00  0.93827000000E+00 0.  1.
     999902    2    1    2    0    0  0.13065308667E-01  0.35405408436E-02  0.14514860856E-02  0.10303158701E+01  0.10302259207E+01 0.  0.
     999903    2    3    3    0    0  0.47897053230E-01  0.46541511902E-01  0.11646397425E+00  0.14110824176E+00  0.43444660839E-01 0.  0.
         14    1    1    2    0    0 -0.13065308667E-01 -0.35405408436E-02 -0.14514860856E-02  0.13614129862E-01  0.00000000000E+00 0.  1.
     999901    1    3    3    0    0 -0.34831744562E-01 -0.43000971058E-01 -0.11501248816E+00  0.88920762838E+00  0.88000000000E+00 0.  1.
        -11    1    4    4    0    0  0.28342392877E-01  0.15859395447E-01  0.91196162733E-01  0.96808124019E-01  0.51100000000E-03 0.  1.
         11    1    4    4    0    0  0.19554660353E-01  0.30682116455E-01  0.25267811515E-01  0.44300117736E-01  0.51100000000E-03 0. -1.
</event>
<event>
 8    1  0.2001339E+004  0.1043930E+01  0.7957747E-01            NaN
         13   -1    0    0    0    0  0.00000000000E+00  0.00000000000E+00  0.74505805969E-08  0.10566000000E+00  0.10566000000E+00 0. -1.
     999900   -1    0    0    0    0 -0.00000000000E+00 -0.00000000000E+00 -0.74505805969E-08  0.93827000000E+00  0.93827000000E+00 0. -1.
     999902    2    1    2    0    0 -0.63889122614E-02 -0.50553218272E-02 -0.12308535993E-01  0.10291694263E+01  0.10290635711E+01 0.  0.
     999903    2    3    3    0    0 -0.11365420477E+00 -0.56271481502E-01 -0.41451187832E-01  0.14069982513E+00  0.44659623008E-01 0.  0.
         14    1    1    2    0    0  0.63889122614E-02  0.50553218272E-02  0.12308535993E-01  0.14760573734E-01  0.00000000000E+00 0.  1.
     999901    1    3    3    0    0  0.10726529251E+00  0.51216159675E-01  0.29142651839E-01  0.88846960114E+00  0.88000000000E+00 0.  1.
        -11    1    4    4    0    0 -0.58465526915E-01 -0.49979503753E-01 -0.12069959942E-01  0.77859576719E-01  0.51100000000E-03 0.  1.
         11    1    4    4    0    0 -0.55188677851E-01 -0.62919777493E-02 -0.29381227890E-01  0.62840248411E-01  0.51100000000E-03 0. -1.
</event>
<event>
 8    1  0.2001339E+004  0.1043930E+01  0.7957747E-01            NaN
         13   -1    0    0    0    0  0.00000000000E+00  0.00000000000E+00  0.74505805969E-08  0.10566000000E+00  0.10566000000E+00 0.  1.
     999900   -1    0    0    0    0 -0.00000000000E+00 -0.00000000000E+00 -0.74505805969E-08  0.93827000000E+00  0.93827000000E+00 0.  1.
     999902    2    1    2    0    0  0.21140756103E-01  0.10805891078E-01  0.50455310989E-02  0.10196574592E+01  0.10193685192E+01 0.  0.
     999903    2    3    3    0    0  0.12013173165E+00 -0.22449668001E-01 -0.31419451632E-01  0.13273308794E+00  0.41173658460E-01 0.  0.
         14    1    1    2    0    0 -0.21140756103E-01 -0.10805891078E-01 -0.50455310989E-02  0.24272540754E-01  0.00000000000E+00 0. -1.
     999901    1    3    3    0    0 -0.98990975547E-01  0.33255559079E-01  0.36464982731E-01  0.88692437131E+00  0.88000000000E+00 0.  1.
        -11    1    4    4    0    0  0.84478787047E-01 -0.21051107897E-01 -0.30006020157E-02  0.87115322063E-01  0.51100000000E-03 0. -1.
         11    1    4    4    0    0  0.35652944603E-01 -0.13985601041E-02 -0.28418849616E-01  0.45617765878E-01  0.51100000000E-03 0.  1.
</event>
<event>
 8    1  0.2001339E+004  0.1043930E+01  0.7957747E-01            NaN
         13   -1    0    0    0    0  0.00000000000E+00  0.00000000000E+00  0.74505805969E-08  0.10566000000E+00  0.10566000000E+00 0.  1.
     999900   -1    0    0    0    0 -0.00000000000E+00 -0.00000000000E+00 -0.74505805969E-08  0.93827000000E+00  0.93827000000E+00 0. -1.
     999902    2    1    2    0    0  0.61763535096E-02 -0.83510518151E-02 -0.10135347396E-01  0.10294174993E+01  0.10293151972E+01 0.  0.
     999903    2    3    3    0    0 -0.50628806094E-01  0.10823203940E+00  0.51791654511E-01  0.13775983134E+00  0.44921545990E-01 0.  0.
         14    1    1    2    0    0 -0.61763535096E-02  0.83510518151E-02  0.10135347396E-01  0.14512500678E-01  0.00000000000E+00 0.  1.
     999901    1    3    3    0    0  0.56805159604E-01 -0.11658309121E+00 -0.61927001908E-01  0.89165766799E+00  0.88000000000E+00 0. -1.
        -11    1    4    4    0    0 -0.36091062771E-01  0.57259151220E-01  0.64279052336E-02  0.67990839803E-01  0.51100000000E-03 0.  1.
         11    1    4    4    0    0 -0.14537743324E-01  0.50972888176E-01  0.45363749278E-01  0.69768991532E-01  0.51100000000E-03 0. -1.
</event>
<event>
 8    1  0.2001339E+004  0.1043930E+01  0.7957747E-01            NaN
         13   -1    0    0    0    0  0.00000000000E+00  0.00000000000E+00  0.74505805969E-08  0.10566000000E+00  0.10566000000E+00 0. -1.
     999900   -1    0    0    0    0 -0.00000000000E+00 -0.00000000000E+00 -0.74505805969E-08  0.93827000000E+00  0.93827000000E+00 0.  1.
     999902    2    1    2    0    0  0.10658042145E-01 -0.51571830330E-02  0.73689415206E-02  0.10299839720E+01  0.10298895527E+01 0.  0.
     999903    2    3    3    0    0 -0.78715048947E-01 -0.62546625864E-01 -0.84407416182E-01  0.13885884191E+00  0.45266176468E-01 0.  0.
         14    1    1    2    0    0 -0.10658042145E-01  0.51571830330E-02 -0.73689415206E-02  0.13946028049E-01  0.00000000000E+00 0.  1.
     999901    1    3    3    0    0  0.89373091092E-01  0.57389442831E-01  0.91776357702E-01  0.89112513004E+00  0.88000000000E+00 0. -1.
        -11    1    4    4    0    0 -0.15996978806E-01 -0.11324298564E-01 -0.44400460854E-01  0.48536636821E-01  0.51100000000E-03 0. -1.
         11    1    4    4    0    0 -0.62718070141E-01 -0.51222327300E-01 -0.40006955328E-01  0.90322205088E-01  0.51100000000E-03 0.  1.
</event>
<event>
 8    1  0.2001339E+004  0.1043930E+01  0.7957747E-01            NaN
         13   -1    0    0    0    0  0.00000000000E+00  0.00000000000E+00  0.74505805969E-08  0.10566000000E+00  0.10566000000E+00 0. -1.
     999900   -1    0    0    0    0 -0.00000000000E+00 -0.00000000000E+00 -0.74505805969E-08  0.93827000000E+00  0.93827000000E+00 0.  1.
     999902    2    1    2    0    0  0.26832471005E-02  0.42709857519E-02 -0.12742193774E-01  0.10302258168E+01  0.10301346655E+01 0.  0.
     999903    2    3    3    0    0 -0.12932166449E+00  0.25988984471E-01  0.47528996223E-03  0.14001703793E+00  0.46957691492E-01 0.  0.
         14    1    1    2    0    0 -0.26832471005E-02 -0.42709857519E-02  0.12742193774E-01  0.13704183174E-01  0.00000000000E+00 0. -1.
     999901    1    3    3    0    0  0.13200491159E+00 -0.21717998719E-01 -0.13217483736E-01  0.89020877890E+00  0.88000000000E+00 0. -1.
        -11    1    4    4    0    0 -0.25090233719E-01  0.16662424980E-01  0.16183815259E-01  0.34195514788E-01  0.51100000000E-03 0. -1.
         11    1    4    4    0    0 -0.10423143077E+00  0.93265594915E-02 -0.15708525297E-01  0.10582152314E+00  0.51100000000E-03 0.  1.
</event>
<event>
 8    1  0.2001339E+004  0.1043930E+01  0.7957747E-01            NaN
         13   -1    0    0    0    0  0.00000000000E+00  0.00000000000E+00  0.74505805969E-08  0.10566000000E+00  0.10566000000E+00 0.  1.
     999900   -1    0    0    0    0 -0.00000000000E+00 -0.00000000000E+00 -0.74505805969E-08  0.93827000000E+00  0.93827000000E+00 0.  1.
     999902    2    1    2    0    0 -0.13325885027E-01  0.13067535637E-02  0.11177294984E-02  0.10304936264E+01  0.10304060257E+01 0.  0.
     999903    2    3    3    0    0  0.37070952728E-01  0.83533440181E-01 -0.95825933004E-01  0.13993248702E+00  0.45237156449E-01 0.  0.
         14    1    1    2    0    0  0.13325885027E-01 -0.13067535637E-02 -0.11177294984E-02  0.13436373612E-01  0.00000000000E+00 0. -1.
     999901    1    3    3    0    0 -0.50396837754E-01 -0.82226686617E-01  0.96943662503E-01  0.89056113937E+00  0.88000000000E+00 0. -1.
        -11    1    4    4    0    0  0.12895825340E-01  0.51439590518E-01 -0.81570829606E-01  0.97295401471E-01  0.51100000000E-03 0. -1.
         11    1    4    4    0    0  0.24175127388E-01  0.32093849663E-01 -0.14255103398E-01  0.42637085551E-01  0.51100000000E-03 0.  1.
</event>
<event>
 8    1  0.2001339E+004  0.1043930E+01  0.7957747E-01            NaN
         13   -1    0    0    0    0  0.00000000000E+00  0.00000000000E+00  0.74505805969E-08  0.10566000000E+00  0.10566000000E+00 0.  1.
     999900   -1    0    0    0    0 -0.00000000000E+00 -0.00000000000E+00 -0.74505805969E-08  0.93827000000E+00  0.93827000000E+00 0.  1.
     999902    2    1    2    0    0 -0.11950312097E-02 -0.10027778597E-01 -0.97219962906E-02  0.10299120952E+01  0.10298166935E+01 0.  0.
     999903    2    3    3    0    0 -0.12481999541E+00 -0.27804035757E-02 -0.47194025493E-01  0.14045169181E+00  0.43722303134E-01 0.  0.
         14    1    1    2    0    0  0.11950312097E-02  0.10027778597E-01  0.97219962906E-02  0.14017904803E-01  0.00000000000E+00 0.  1.
     999901    1    3    3    0    0  0.12362496420E+00 -0.72473750215E-02  0.37472029203E-01  0.88946040339E+00  0.88000000000E+00 0. -1.
        -11    1    4    4    0    0 -0.10505359385E+00 -0.18230536438E-01 -0.43193017138E-01  0.11504133123E+00  0.51100000000E-03 0. -1.
         11    1    4    4    0    0 -0.19766401560E-01  0.15450132862E-01 -0.40010083553E-02  0.25410360583E-01  0.51100000000E-03 0.  1.
</event>
<event>
 8    1  0.2001339E+004  0.1043930E+01  0.7957747E-01            NaN
         13   -1    0    0    0    0  0.00000000000E+00  0.00000000000E+00  0.74505805969E-08  0.10566000000E+00  0.10566000000E+00 0. -1.
     999900   -1    0    0    0    0 -0.00000000000E+00 -0.00000000000E+00 -0.74505805969E-08  0.93827000000E+00  0.93827000000E+00 0. -1.
     999902    2    1    2    0    0 -0.12124204916E-01 -0.66732086856E-02  0.49207861296E-03  0.10300818882E+01  0.10299887991E+01 0.  0.
     999903    2    3    3    0    0 -0.15744195575E-01  0.94269465937E-01  0.91182038905E-01  0.13967344440E+00  0.45386065592E-01 0.  0.
         14    1    1    2    0    0  0.12124204916E-01  0.66732086856E-02 -0.49207861296E-03  0.13848111798E-01  0.00000000000E+00 0. -1.
     999901    1    3    3    0    0  0.36199906591E-02 -0.10094267462E+00 -0.90689960292E-01  0.89040844380E+00  0.88000000000E+00 0. -1.
        -11    1    4    4    0    0  0.77138836869E-02  0.62272050520E-02  0.25465089510E-01  0.27331556652E-01  0.51100000000E-03 0.  1.
         11    1    4    4    0    0 -0.23458079262E-01  0.88042260885E-01  0.65716949395E-01  0.11234188775E+00  0.51100000000E-03 0. -1.
</event>
<event>
 8    1  0.2001339E+004  0.1043930E+01  0.7957747E-01            NaN
         13   -1    0    0    0    0  0.00000000000E+00  0.00000000000E+00  0.74505805969E-08  0.10566000000E+00  0.10566000000E+00 0.  1.
     999900   -1    0    0    0    0 -0.00000000000E+00 -0.00000000000E+00 -0.74505805969E-08  0.93827000000E+00  0.93827000000E+00 0. -1.
     999902    2    1    2    0    0 -0.55367288426E-02 -0.32597174823E-02  0.12672119681E-01  0.10297221240E+01  0.10296241007E+01 0.  0.
     999903    2    3    3    0    0  0.73245393118E-01  0.10974912606E+00  0.61332296718E-02  0.13898064713E+00  0.43223205419E-01 0.  0.
         14    1    1    2    0    0  0.55367288426E-02  0.32597174823E-02 -0.12672119681E-01  0.14207876040E-01  0.00000000000E+00 0. -1.
     999901    1    3    3    0    0 -0.78782121960E-01 -0.11300884354E+00  0.65388900093E-02  0.89074147683E+00  0.88000000000E+00 0. -1.
        -11    1    4    4    0    0  0.32535081854E-01  0.79922876915E-01  0.15430713331E-01  0.87661655475E-01  0.51100000000E-03 0.  1.
         11    1    4    4    0    0  0.40710311264E-01  0.29826249147E-01 -0.92974836592E-02  0.51318991657E-01  0.51100000000E-03 0. -1.
</event>
<event>
 8    1  0.2001339E+004  0.1043930E+01  0.7957747E-01            NaN
         13   -1    0    0    0    0  0.00000000000E+00  0.00000000000E+00  0.74505805969E-08  0.10566000000E+00  0.10566000000E+00 0.  1.
     999900   -1    0    0    0    0 -0.00000000000E+00 -0.00000000000E+00 -0.74505805969E-08  0.93827000000E+00  0.93827000000E+00 0. -1.
     999902    2    1    2    0    0  0.55283694603E-02  0.31331839186E-02  0.21727847785E-02  0.10372142942E+01  0.10371925527E+01 0.  0.
     999903    2    3    3    0    0 -0.11158434216E+00 -0.81681492159E-01  0.24442061240E-02  0.14541331297E+00  0.44901290287E-01 0.  0.
         14    1    1    2    0    0 -0.55283694603E-02 -0.31331839186E-02 -0.21727847785E-02  0.67157057746E-02  0.00000000000E+00 0. -1.
     999901    1    3    3    0    0  0.11711271162E+00  0.84814676078E-01 -0.27142134556E-03  0.89180098126E+00  0.88000000000E+00 0. -1.
        -11    1    4    4    0    0 -0.52409798485E-01 -0.36758357051E-01  0.23494121990E-01  0.68192365258E-01  0.51100000000E-03 0. -1.
         11    1    4    4    0    0 -0.59174543670E-01 -0.44923135108E-01 -0.21049915866E-01  0.77220947711E-01  0.51100000000E-03 0.  1.
</event>
<event>
 8    1  0.2001339E+004  0.1043930E+01  0.7957747E-01            NaN
         13   -1    0    0    0    0  0.00000000000E+00  0.00000000000E+00  0.74505805969E-08  0.10566000000E+00  0.10566000000E+00 0. -1.
     999900   -1    0    0    0    0 -0.00000000000E+00 -0.00000000000E+00 -0.74505805969E-08  0.93827000000E+00  0.93827000000E+00 0.  1.
     999902    2    1    2    0    0  0.60413143500E-02  0.12295772408E-01  0.11388852538E-02  0.10301829800E+01  0.10300912541E+01 0.  0.
     999903    2    3    3    0    0 -0.99654431665E-01 -0.28162007704E-01  0.81273014766E-01  0.13932389948E+00  0.45626106666E-01 0.  0.
         14    1    1    2    0    0 -0.60413143500E-02 -0.12295772408E-01 -0.11388852538E-02  0.13747019961E-01  0.00000000000E+00 0. -1.
     999901    1    3    3    0    0  0.10569574601E+00  0.40457780112E-01 -0.80134129512E-01  0.89085908056E+00  0.88000000000E+00 0. -1.
        -11    1    4    4    0    0 -0.78941469610E-01 -0.30357806168E-01  0.82891854996E-01  0.11842581123E+00  0.51100000000E-03 0. -1.
         11    1    4    4    0    0 -0.20712962054E-01  0.21957984641E-02 -0.16188402300E-02  0.20898088253E-01  0.51100000000E-03 0.  1.
</event>
<event>
 8    1  0.2001339E+004  0.1043930E+01  0.7957747E-01            NaN
         13   -1    0    0    0    0  0.00000000000E+00  0.00000000000E+00  0.74505805969E-08  0.10566000000E+00  0.10566000000E+00 0.  1.
     999900   -1    0    0    0    0 -0.00000000000E+00 -0.00000000000E+00 -0.74505805969E-08  0.93827000000E+00  0.93827000000E+00 0. -1.
     999902    2    1    2    0    0  0.11508907223E-02  0.14199454961E-01  0.39390108176E-02  0.10291494426E+01  0.10290432986E+01 0.  0.
     999903    2    3    3    0    0  0.31837039332E-01  0.10824335363E+00 -0.70423707382E-01  0.14048994176E+00  0.45251568989E-01 0.  0.
         14    1    1    2    0    0 -0.11508907223E-02 -0.14199454961E-01 -0.39390108176E-02  0.14780557393E-01  0.00000000000E+00 0. -1.
     999901    1    3    3    0    0 -0.30686148609E-01 -0.94043898665E-01  0.74362718200E-01  0.88865950085E+00  0.88000000000E+00 0.  1.
        -11    1    4    4    0    0 -0.11547855257E-01  0.28742947359E-01 -0.18911201142E-01  0.36296069120E-01  0.51100000000E-03 0.  1.
         11    1    4    4    0    0  0.43384894589E-01  0.79500406266E-01 -0.51512506240E-01  0.10419387264E+00  0.51100000000E-03 0. -1.
</event>
<event>
 8    1  0.2001339E+004  0.1043930E+01  0.7957747E-01            NaN
         13   -1    0    0    0    0  0.00000000000E+00  0.00000000000E+00  0.74505805969E-08  0.10566000000E+00  0.10566000000E+00 0.  1.
     999900   -1    0    0    0    0 -0.00000000000E+00 -0.00000000000E+00 -0.74505805969E-08  0.93827000000E+00  0.93827000000E+00 0.  1.
     999902    2    1    2    0    0  0.13597349002E-01  0.41487582641E-02 -0.33918755730E-03  0.10297097629E+01  0.10296115679E+01 0.  0.
     999903    2    3    3    0    0 -0.81208074543E-01 -0.23722942167E-01  0.10051497432E+00  0.13845420921E+00  0.43689571172E-01 0.  0.
         14    1    1    2    0    0 -0.13597349002E-01 -0.41487582641E-02  0.33918755730E-03  0.14220237101E-01  0.00000000000E+00 0. -1.
     999901    1    3    3    0    0  0.94805423544E-01  0.27871700431E-01 -0.10085416188E+00  0.89125555369E+00  0.88000000000E+00 0.  1.
        -11    1    4    4    0    0 -0.47927194024E-01 -0.19747022441E-01  0.28823520791E-01  0.59312876293E-01  0.51100000000E-03 0.  1.
         11    1    4    4    0    0 -0.33280880518E-01 -0.39759197253E-02  0.71691453527E-01  0.79141332915E-01  0.51100000000E-03 0. -1.
</event>
<event>
 8    1  0.2001339E+004  0.1043930E+01  0.7957747E-01            NaN
         13   -1    0    0    0    0  0.00000000000E+00  0.00000000000E+00  0.74505805969E-08  0.10566000000E+00  0.10566000000E+00 0. -1.
     999900   -1    0    0    0    0 -0.00000000000E+00 -0.00000000000E+00 -0.74505805969E-08  0.93827000000E+00  0.93827000000E+00 0. -1.
     999902    2    1    2    0    0 -0.12414456188E-01  0.96220572255E-02  0.37730868312E-02  0.10277763969E+01  0.10276494457E+01 0.  0.
     999903    2    3    3    0    0 -0.57949728847E-01  0.86524669499E-01  0.80558388989E-01  0.13992311206E+00  0.47372288819E-01 0.  0.
         14    1    1    2    0    0  0.12414456188E-01 -0.96220572255E-02 -0.37730868312E-02  0.16153603063E-01  0.00000000000E+00 0.  1.
     999901    1    3    3    0    0  0.45535272659E-01 -0.76902612273E-01 -0.76785302158E-01  0.88785328487E+00  0.88000000000E+00 0. -1.
        -11    1    4    4    0    0 -0.15012708967E-01  0.52428242701E-01  0.19648258469E-01  0.57969105954E-01  0.51100000000E-03 0.  1.
         11    1    4    4    0    0 -0.42937019881E-01  0.34096426798E-01  0.60910130520E-01  0.81954006111E-01  0.51100000000E-03 0. -1.
</event>
<event>
 8    1  0.2001339E+004  0.1043930E+01  0.7957747E-01            NaN
         13   -1    0    0    0    0  0.00000000000E+00  0.00000000000E+00  0.74505805969E-08  0.10566000000E+00  0.10566000000E+00 0. -1.
     999900   -1    0    0    0    0 -0.00000000000E+00 -0.00000000000E+00 -0.74505805969E-08  0.93827000000E+00  0.93827000000E+00 0. -1.
     999902    2    1    2    0    0 -0.90458809032E-02  0.10423601939E-01 -0.23614708518E-02  0.10299280007E+01  0.10298328169E+01 0.  0.
     999903    2    3    3    0    0 -0.39895070694E-01  0.10100285771E-01 -0.12679429768E+00  0.14063878713E+00  0.44820108041E-01 0.  0.
         14    1    1    2    0    0  0.90458809032E-02 -0.10423601939E-01  0.23614708518E-02  0.14001999260E-01  0.00000000000E+00 0. -1.
     999901    1    3    3    0    0  0.30849189791E-01  0.32331616846E-03  0.12443282682E+00  0.88928921361E+00  0.88000000000E+00 0.  1.
        -11    1    4    4    0    0 -0.35378621667E-01  0.26145807089E-01 -0.86992223681E-01  0.97484143333E-01  0.51100000000E-03 0. -1.
         11    1    4    4    0    0 -0.45164490265E-02 -0.16045521319E-01 -0.39802073995E-01  0.43154643800E-01  0.51100000000E-03 0.  1.
</event>
<event>
 8    1  0.2001339E+004  0.1043930E+01  0.7957747E-01            NaN
         13   -1    0    0    0    0  0.00000000000E+00  0.00000000000E+00  0.74505805969E-08  0.10566000000E+00  0.10566000000E+00 0.  1.
     999900   -1    0    0    0    0 -0.00000000000E+00 -0.00000000000E+00 -0.74505805969E-08  0.93827000000E+00  0.93827000000E+00 0. -1.
     999902    2    1    2    0    0 -0.57630362549E-02  0.10773918737E-01 -0.65978393632E-02  0.10300439856E+01  0.10299503827E+01 0.  0.
     999903    2    3    3    0    0  0.10656265742E+00 -0.49129637011E-01 -0.60259581176E-01  0.13926619064E+00  0.44660200875E-01 0.  0.
         14    1    1    2    0    0  0.57630362549E-02 -0.10773918737E-01  0.65978393632E-02  0.13886014406E-01  0.00000000000E+00 0.  1.
     999901    1    3    3    0    0 -0.11232569367E+00  0.59903555748E-01  0.53661741813E-01  0.89077779496E+00  0.88000000000E+00 0.  1.
        -11    1    4    4    0    0  0.92714138744E-01 -0.37560106049E-01 -0.66549771868E-01  0.12014910048E+00  0.51100000000E-03 0.  1.
         11    1    4    4    0    0  0.13848518676E-01 -0.11569530963E-01  0.62901906916E-02  0.19117090159E-01  0.51100000000E-03 0. -1.
</event>
<event>
 8    1  0.2001339E+004  0.1043930E+01  0.7957747E-01            NaN
         13   -1    0    0    0    0  0.00000000000E+00  0.00000000000E+00  0.74505805969E-08  0.10566000000E+00  0.10566000000E+00 0.  1.
     999900   -1    0    0    0    0 -0.00000000000E+00 -0.00000000000E+00 -0.74505805969E-08  0.93827000000E+00  0.93827000000E+00 0.  1.
     999902    2    1    2    0    0  0.72606125292E-02  0.68656417893E-02  0.10469851169E-01  0.10294568761E+01  0.10293551323E+01 0.  0.
     999903    2    3    3    0    0 -0.26117609821E-01  0.67001076759E-01 -0.10965859976E+00  0.13863634369E+00  0.44986147426E-01 0.  0.
         14    1    1    2    0    0 -0.72606125292E-02 -0.68656417893E-02 -0.10469851169E-01  0.14473123885E-01  0.00000000000E+00 0. -1.
     999901    1    3    3    0    0  0.33378222351E-01 -0.60135434970E-01  0.12012845093E+00  0.89082053242E+00  0.88000000000E+00 0. -1.
        -11    1    4    4    0    0 -0.24584105347E-01  0.30893001629E-01 -0.25389709883E-01  0.46943096130E-01  0.51100000000E-03 0. -1.
         11    1    4    4    0    0 -0.15335044748E-02  0.36108075130E-01 -0.84268889880E-01  0.91693247560E-01  0.51100000000E-03 0.  1.
</event>
<event>
 8    1  0.2001339E+004  0.1043930E+01  0.7957747E-01            NaN
         13   -1    0    0    0    0  0.00000000000E+00  0.00000000000E+00  0.74505805969E-08  0.10566000000E+00  0.10566000000E+00 0. -1.
     999900   -1    0    0    0    0 -0.00000000000E+00 -0.00000000000E+00 -0.74505805969E-08  0.93827000000E+00  0.93827000000E+00 0. -1.
     999902    2    1    2    0    0  0.52933452583E-02 -0.13775429410E-01  0.33058055410E-02  0.10288068287E+01  0.10286956695E+01 0.  0.
     999903    2    3    3    0    0  0.11988385525E+00  0.47751251286E-01 -0.19073772992E-01  0.13896562774E+00  0.47909457607E-01 0.  0.
         14    1    1    2    0    0 -0.52933452583E-02  0.13775429410E-01 -0.33058055410E-02  0.15123171285E-01  0.00000000000E+00 0.  1.
     999901    1    3    3    0    0 -0.11459050999E+00 -0.61526680695E-01  0.22379578533E-01  0.88984120098E+00  0.88000000000E+00 0. -1.
        -11    1    4    4    0    0  0.75980013956E-01  0.53382691652E-01 -0.72228538062E-02  0.93140243863E-01  0.51100000000E-03 0.  1.
         11    1    4    4    0    0  0.43903841293E-01 -0.56314403664E-02 -0.11850919186E-01  0.45825383876E-01  0.51100000000E-03 0. -1.
</event>
<event>
 8    1  0.2001339E+004  0.1043930E+01  0.7957747E-01            NaN
         13   -1    0    0    0    0  0.00000000000E+00  0.00000000000E+00  0.74505805969E-08  0.10566000000E+00  0.10566000000E+00 0.  1.
     999900   -1    0    0    0    0 -0.00000000000E+00 -0.00000000000E+00 -0.74505805969E-08  0.93827000000E+00  0.93827000000E+00 0. -1.
     999902    2    1    2    0    0  0.75974139935E-02 -0.60296774566E-02  0.89814770638E-02  0.10307108987E+01  0.10306261262E+01 0.  0.
     999903    2    3    3    0    0 -0.14105740169E-01 -0.84955787718E-01 -0.10185571408E+00  0.13998914598E+00  0.42496078997E-01 0.  0.
         14    1    1    2    0    0 -0.75974139935E-02  0.60296774566E-02 -0.89814770638E-02  0.13219101326E-01  0.00000000000E+00 0. -1.
     999901    1    3    3    0    0  0.21703154163E-01  0.78926110261E-01  0.11083719114E+00  0.89072175269E+00  0.88000000000E+00 0.  1.
        -11    1    4    4    0    0 -0.16304417220E-01 -0.43417565316E-01 -0.81273162057E-01  0.93576209533E-01  0.51100000000E-03 0. -1.
         11    1    4    4    0    0  0.21986770509E-02 -0.41538222402E-01 -0.20582552018E-01  0.46412936447E-01  0.51100000000E-03 0.  1.
</event>
<event>
 8    1  0.2001339E+004  0.1043930E+01  0.7957747E-01            NaN
         13   -1    0    0    0    0  0.00000000000E+00  0.00000000000E+00  0.74505805969E-08  0.10566000000E+00  0.10566000000E+00 0. -1.
     999900   -1    0    0    0    0 -0.00000000000E+00 -0.00000000000E+00 -0.74505805969E-08  0.93827000000E+00  0.93827000000E+00 0.  1.
     999902    2    1    2    0    0 -0.62244025408E-02  0.10297249500E-01  0.16612610846E-02  0.10317835469E+01  0.10317120487E+01 0.  0.
     999903    2    3    3    0    0 -0.83090203603E-01  0.23540118021E-01  0.10372289563E+00  0.14245778984E+00  0.45581396629E-01 0.  0.
         14    1    1    2    0    0  0.62244025408E-02 -0.10297249500E-01 -0.16612610846E-02  0.12146453089E-01  0.00000000000E+00 0. -1.
     999901    1    3    3    0    0  0.76865801063E-01 -0.13242868521E-01 -0.10206163454E+00  0.88932575707E+00  0.88000000000E+00 0. -1.
        -11    1    4    4    0    0 -0.34819573413E-01 -0.12458452288E-01  0.32956311669E-01  0.49537817128E-01  0.51100000000E-03 0. -1.
         11    1    4    4    0    0 -0.48270630191E-01  0.35998570309E-01  0.70766583957E-01  0.92919972715E-01  0.51100000000E-03 0.  1.
</event>
<event>
 8    1  0.2001339E+004  0.1043930E+01  0.7957747E-01            NaN
         13   -1    0    0    0    0  0.00000000000E+00  0.00000000000E+00  0.74505805969E-08  0.10566000000E+00  0.10566000000E+00 0.  1.
     999900   -1    0    0    0    0 -0.00000000000E+00 -0.00000000000E+00 -0.74505805969E-08  0.93827000000E+00  0.93827000000E+00 0.  1.
     999902    2    1    2    0    0  0.71554544044E-03 -0.41774206348E-02 -0.13468091184E-01  0.10298107816E+01  0.10297139863E+01 0.  0.
     999903    2    3    3    0    0  0.33056220677E-02  0.91065071604E-01 -0.97455155163E-01  0.14069230369E+00  0.44643506201E-01 0.  0.
         14    1    1    2    0    0 -0.71554544044E-03  0.41774206348E-02  0.13468091184E-01  0.14119218413E-01  0.00000000000E+00 0.  1.
     999901    1    3    3    0    0 -0.25900766273E-02 -0.95242492239E-01  0.83987063979E-01  0.88911847790E+00  0.88000000000E+00 0. -1.
        -11    1    4    4    0    0 -0.11096995508E-01  0.75335461819E-01 -0.57579216695E-01  0.95468332095E-01  0.51100000000E-03 0. -1.
         11    1    4    4    0    0  0.14402617576E-01  0.15729609785E-01 -0.39875938468E-01  0.45223971593E-01  0.51100000000E-03 0.  1.
</event>
<event>
 8    1  0.2001339E+004  0.1043930E+01  0.7957747E-01            NaN
         13   -1    0    0    0    0  0.00000000000E+00  0.00000000000E+00  0.74505805969E-08  0.10566000000E+00  0.10566000000E+00 0. -1.
     999900   -1    0    0    0    0 -0.00000000000E+00 -0.00000000000E+00 -0.74505805969E-08  0.93827000000E+00  0.93827000000E+00 0.  1.
     999902    2    1    2    0    0  0.66236627622E-02 -0.10420543316E-01  0.17969913571E-03  0.10315811975E+01  0.10315072826E+01 0.  0.
     999903    2    3    3    0    0  0.32431658546E-01  0.53348650658E-01  0.11824779118E+00  0.14103493980E+00  0.44837742156E-01 0.  0.
         14    1    1    2    0    0 -0.66236627622E-02  0.10420543316E-01 -0.17969913571E-03  0.12348802499E-01  0.00000000000E+00 0. -1.
     999901    1    3    3    0    0 -0.25807995784E-01 -0.63769193974E-01 -0.11806809205E+00  0.89054625770E+00  0.88000000000E+00 0.  1.
        -11    1    4    4    0    0  0.26349751093E-01  0.40178520919E-01  0.11697979156E+00  0.12646404897E+00  0.51100000000E-03 0. -1.
         11    1    4    4    0    0  0.60819074536E-02  0.13170129739E-01  0.12679996187E-02  0.14570890832E-01  0.51100000000E-03 0.  1.
</event>
<event>
 8    1  0.2001339E+004  0.1043930E+01  0.7957747E-01            NaN
         13   -1    0    0    0    0  0.00000000000E+00  0.00000000000E+00  0.74505805969E-08  0.10566000000E+00  0.10566000000E+00 0.  1.
     999900   -1    0    0    0    0 -0.00000000000E+00 -0.00000000000E+00 -0.74505805969E-08  0.93827000000E+00  0.93827000000E+00 0.  1.
     999902    2    1    2    0    0  0.30146874694E-03 -0.30277304652E-02 -0.12549324706E-01  0.10310170768E+01  0.10309362100E+01 0.  0.
     999903    2    3    3    0    0  0.12117054755E+00  0.23510210567E-01  0.48672517704E-01  0.14025239939E+00  0.45460861833E-01 0.  0.
         14    1    1    2    0    0 -0.30146874694E-03  0.30277304652E-02  0.12549324706E-01  0.12912923207E-01  0.00000000000E+00 0.  1.
     999901    1    3    3    0    0 -0.12086907881E+00 -0.26537941033E-01 -0.61221842410E-01  0.89076467741E+00  0.88000000000E+00 0.  1.
        -11    1    4    4    0    0  0.32861686589E-01  0.27049986659E-01  0.22110848546E-01  0.47966060586E-01  0.51100000000E-03 0.  1.
         11    1    4    4    0    0  0.88308860966E-01 -0.35397760916E-02  0.26561669158E-01  0.92286338801E-01  0.51100000000E-03 0. -1.
</event>
<event>
 8    1  0.2001339E+004  0.1043930E+01  0.7957747E-01            NaN
         13   -1    0    0    0    0  0.00000000000E+00  0.00000000000E+00  0.74505805969E-08  0.10566000000E+00  0.10566000000E+00 0. -1.
     999900   -1    0    0    0    0 -0.00000000000E+00 -0.00000000000E+00 -0.74505805969E-08  0.93827000000E+00  0.93827000000E+00 0. -1.
     999902    2    1    2    0    0 -0.18433233109E-02  0.58424635159E-02  0.12103217365E-01  0.10303645995E+01  0.10302752971E+01 0.  0.
     999903    2    3    3    0    0  0.12167037326E+00 -0.50695918546E-01 -0.97555201941E-02  0.13967384153E+00  0.45164764449E-01 0.  0.
         14    1    1    2    0    0  0.18433233109E-02 -0.58424635159E-02 -0.12103217365E-01  0.13565400523E-01  0.00000000000E+00 0.  1.
     999901    1    3    3    0    0 -0.12351369657E+00  0.56538382062E-01  0.21858737559E-01  0.89069075795E+00  0.88000000000E+00 0.  1.
        -11    1    4    4    0    0  0.52286869607E-01 -0.20785589658E-01  0.18155775185E-01  0.59125719989E-01  0.51100000000E-03 0. -1.
         11    1    4    4    0    0  0.69383503650E-01 -0.29910328888E-01 -0.27911295379E-01  0.80548121540E-01  0.51100000000E-03 0.  1.
</event>
<event>
 8    1  0.2001339E+004  0.1043930E+01  0.7957747E-01            NaN
         13   -1    0    0    0    0  0.00000000000E+00  0.00000000000E+00  0.74505805969E-08  0.10566000000E+00  0.10566000000E+00 0. -1.
     999900   -1    0    0    0    0 -0.00000000000E+00 -0.00000000000E+00 -0.74505805969E-08  0.93827000000E+00  0.93827000000E+00 0. -1.
     999902    2    1    2    0    0  0.87753268647E-02 -0.89069652108E-02  0.69963297123E-02  0.10296020895E+01  0.10295023913E+01 0.  0.
     999903    2    3    3    0    0  0.19487660450E-02  0.36766180763E-01  0.12759784784E+00  0.14017678941E+00  0.44863925142E-01 0.  0.
         14    1    1    2    0    0 -0.87753268647E-02  0.89069652108E-02 -0.69963297123E-02  0.14327910535E-01  0.00000000000E+00 0.  1.
     999901    1    3    3    0    0  0.68265608197E-02 -0.45673145974E-01 -0.12060151813E+00  0.88942530005E+00  0.88000000000E+00 0. -1.
        -11    1    4    4    0    0 -0.18886751376E-01  0.31049393945E-01  0.76424913445E-01  0.84627435020E-01  0.51100000000E-03 0.  1.
         11    1    4    4    0    0  0.20835517421E-01  0.57167868180E-02  0.51172934398E-01  0.55549354394E-01  0.51100000000E-03 0. -1.
</event>
<event>
 8    1  0.2001339E+004  0.1043930E+01  0.7957747E-01            NaN
         13   -1    0    0    0    0  0.00000000000E+00  0.00000000000E+00  0.74505805969E-08  0.10566000000E+00  0.10566000000E+00 0. -1.
     999900   -1    0    0    0    0 -0.00000000000E+00 -0.00000000000E+00 -0.74505805969E-08  0.93827000000E+00  0.93827000000E+00 0. -1.
     999902    2    1    2    0    0 -0.36111266592E-02 -0.12527299234E-01  0.45293077493E-02  0.10301282577E+01  0.10300357951E+01 0.  0.
     999903    2    3    3    0    0 -0.69063357017E-01 -0.10798807603E+00 -0.39310490957E-01  0.14146708362E+00  0.45127034046E-01 0.  0.
         14    1    1    2    0    0  0.36111266592E-02  0.12527299234E-01 -0.45293077493E-02  0.13801742301E-01  0.00000000000E+00 0. -1.
     999901    1    3    3    0    0  0.65452230358E-01  0.95460776795E-01  0.43839798706E-01  0.88866117408E+00  0.88000000000E+00 0.  1.
        -11    1    4    4    0    0 -0.40687380709E-01 -0.27184993439E-01 -0.49383906394E-02  0.49184709416E-01  0.51100000000E-03 0. -1.
         11    1    4    4    0    0 -0.28375976308E-01 -0.80803082590E-01 -0.34372100317E-01  0.92282374204E-01  0.51100000000E-03 0.  1.
</event>
<event>
 8    1  0.2001339E+004  0.1043930E+01  0.7957747E-01            NaN
         13   -1    0    0    0    0  0.00000000000E+00  0.00000000000E+00  0.74505805969E-08  0.10566000000E+00  0.10566000000E+00 0. -1.
     999900   -1    0    0    0    0 -0.00000000000E+00 -0.00000000000E+00 -0.74505805969E-08  0.93827000000E+00  0.93827000000E+00 0. -1.
     999902    2    1    2    0    0 -0.13519825203E-01  0.37429083367E-02  0.11707036671E-02  0.10298528702E+01  0.10297566551E+01 0.  0.
     999903    2    3    3    0    0 -0.52773196240E-01 -0.80143315956E-01  0.91551830057E-01  0.14038872040E+00  0.46035789298E-01 0.  0.
         14    1    1    2    0    0  0.13519825203E-01 -0.37429083367E-02 -0.11707036671E-02  0.14077129800E-01  0.00000000000E+00 0.  1.
     999901    1    3    3    0    0  0.39253371037E-01  0.83886224292E-01 -0.90381126390E-01  0.88946414980E+00  0.88000000000E+00 0. -1.
        -11    1    4    4    0    0 -0.35116405010E-01 -0.15671970165E-01  0.23888727251E-01  0.45273667406E-01  0.51100000000E-03 0. -1.
         11    1    4    4    0    0 -0.17656791229E-01 -0.64471345790E-01  0.67663102806E-01  0.95115052998E-01  0.51100000000E-03 0.  1.
</event>
<event>
 8    1  0.2001339E+004  0.1043930E+01  0.7957747E-01            NaN
         13   -1    0    0    0    0  0.00000000000E+00  0.00000000000E+00  0.74505805969E-08  0.10566000000E+00  0.10566000000E+00 0. -1.
     999900   -1    0    0    0    0 -0.00000000000E+00 -0.00000000000E+00 -0.74505805969E-08  0.93827000000E+00  0.93827000000E+00 0. -1.
     999902    2    1    2    0    0  0.96926132780E-02  0.22792644082E-02  0.11379316865E-01  0.10288094626E+01  0.10286983424E+01 0.  0.
     999903    2    3    3    0    0 -0.98665560948E-01 -0.57239414056E-01  0.64175234121E-01  0.13860084893E+00  0.45612401940E-01 0.  0.
         14    1    1    2    0    0 -0.96926132780E-02 -0.22792644082E-02 -0.11379316865E-01  0.15120537382E-01  0.00000000000E+00 0.  1.
     999901    1    3    3    0    0  0.10835817423E+00  0.59518678464E-01 -0.52795917255E-01  0.89020861369E+00  0.88000000000E+00 0. -1.
        -11    1    4    4    0    0 -0.63797309665E-01 -0.55355308532E-01  0.29721112264E-01  0.89542797245E-01  0.51100000000E-03 0.  1.
         11    1    4    4    0    0 -0.34868251282E-01 -0.18841055240E-02  0.34454121856E-01  0.49058051684E-01  0.51100000000E-03 0. -1.
</event>
<event>
 8    1  0.2001339E+004  0.1043930E+01  0.7957747E-01            NaN
         13   -1    0    0    0    0  0.00000000000E+00  0.00000000000E+00  0.74505805969E-08  0.10566000000E+00  0.10566000000E+00 0.  1.
     999900   -1    0    0    0    0 -0.00000000000E+00 -0.00000000000E+00 -0.74505805969E-08  0.93827000000E+00  0.93827000000E+00 0. -1.
     999902    2    1    2    0    0 -0.39160752495E-02  0.70664954051E-02  0.10774460221E-01  0.10304630035E+01  0.10303750004E+01 0.  0.
     999903    2    3    3    0    0  0.12280308571E+00 -0.18326106551E-02 -0.47855438319E-01  0.13941058927E+00  0.45400584811E-01 0.  0.
         14    1    1    2    0    0  0.39160752495E-02 -0.70664954051E-02 -0.10774460221E-01  0.13466996537E-01  0.00000000000E+00 0. -1.
     999901    1    3    3    0    0 -0.12671916096E+00  0.88991060602E-02  0.58629898540E-01  0.89105241420E+00  0.88000000000E+00 0.  1.
        -11    1    4    4    0    0  0.90843997787E-02  0.12778274214E-01 -0.10283121821E-01  0.18756714175E-01  0.51100000000E-03 0.  1.
         11    1    4    4    0    0  0.11371868593E+00 -0.14610884870E-01 -0.37572316498E-01  0.12065387509E+00  0.51100000000E-03 0. -1.
</event>
<event>
 8    1  0.2001339E+004  0.1043930E+01  0.7957747E-01            NaN
         13   -1    0    0    0    0  0.00000000000E+00  0.00000000000E+00  0.74505805969E-08  0.10566000000E+00  0.10566000000E+00 0.  1.
     999900   -1    0    0    0    0 -0.00000000000E+00 -0.00000000000E+00 -0.74505805969E-08  0.93827000000E+00  0.93827000000E+00 0. -1.
     999902    2    1    2    0    0 -0.46895953174E-03 -0.11415799229E-01 -0.16768224246E-02  0.10323821808E+01  0.10323175941E+01 0.  0.
     999903    2    3    3    0    0 -0.19858776969E-01  0.59896778449E-01  0.11803942249E+00  0.14120687365E+00  0.44989785655E-01 0.  0.
         14    1    1    2    0    0  0.46895953174E-03  0.11415799229E-01  0.16768224246E-02  0.11547819210E-01  0.00000000000E+00 0.  1.
     999901    1    3    3    0    0  0.19389817438E-01 -0.71312577678E-01 -0.11971624492E+00  0.89117530714E+00  0.88000000000E+00 0. -1.
        -11    1    4    4    0    0 -0.45751741722E-02  0.10341940390E-01  0.68696486230E-01  0.69622958075E-01  0.51100000000E-03 0.  1.
         11    1    4    4    0    0 -0.15283602797E-01  0.49554838059E-01  0.49342936261E-01  0.71583915577E-01  0.51100000000E-03 0. -1.
</event>
<event>
 8    1  0.2001339E+004  0.1043930E+01  0.7957747E-01            NaN
         13   -1    0    0    0    0  0.00000000000E+00  0.00000000000E+00  0.74505805969E-08  0.10566000000E+00  0.10566000000E+00 0.  1.
     999900   -1    0    0    0    0 -0.00000000000E+00 -0.00000000000E+00 -0.74505805969E-08  0.93827000000E+00  0.93827000000E+00 0. -1.
     999902    2    1    2    0    0 -0.57555685467E-02 -0.57813809803E-02 -0.10953088977E-01  0.10302727275E+01  0.10301822032E+01 0.  0.
     999903    2    3    3    0    0  0.37815907375E-01 -0.12371914702E+00  0.29599978881E-01  0.14041187233E+00  0.45857005465E-01 0.  0.
         14    1    1    2    0    0  0.57555685467E-02  0.57813809803E-02  0.10953088977E-01  0.13657272549E-01  0.00000000000E+00 0.  1.
     999901    1    3    3    0    0 -0.43571475921E-01  0.11793776604E+00 -0.40553067859E-01  0.88986085513E+00  0.88000000000E+00 0. -1.
        -11    1    4    4    0    0  0.15625531679E-01 -0.38160572797E-01  0.31670434507E-01  0.51996770085E-01  0.51100000000E-03 0.  1.
         11    1    4    4    0    0  0.22190375696E-01 -0.85558574223E-01 -0.20704556261E-02  0.88415102240E-01  0.51100000000E-03 0. -1.
</event>
<event>
 8    1  0.2001339E+004  0.1043930E+01  0.7957747E-01            NaN
         13   -1    0    0    0    0  0.00000000000E+00  0.00000000000E+00  0.74505805969E-08  0.10566000000E+00  0.10566000000E+00 0. -1.
     999900   -1    0    0    0    0 -0.00000000000E+00 -0.00000000000E+00 -0.74505805969E-08  0.93827000000E+00  0.93827000000E+00 0. -1.
     999902    2    1    2    0    0  0.12538370059E-01 -0.68987599055E-02 -0.14632500834E-02  0.10295444269E+01  0.10294439190E+01 0.  0.
     999903    2    3    3    0    0  0.10136481042E-01 -0.96181825369E-01 -0.91401001521E-01  0.14046285925E+00  0.44966431579E-01 0.  0.
         14    1    1    2    0    0 -0.12538370059E-01  0.68987599055E-02  0.14632500834E-02  0.14385573078E-01  0.00000000000E+00 0. -1.
     999901    1    3    3    0    0  0.24018890167E-02  0.89283065463E-01  0.89937751438E-01  0.88908156768E+00  0.88000000000E+00 0.  1.
        -11    1    4    4    0    0 -0.17916745696E-01 -0.38513998101E-01 -0.38423318082E-01  0.57279580301E-01  0.51100000000E-03 0. -1.
         11    1    4    4    0    0  0.28053226739E-01 -0.57667827268E-01 -0.52977683440E-01  0.83183278944E-01  0.51100000000E-03 0.  1.
</event>
<event>
 8    1  0.2001339E+004  0.1043930E+01  0.7957747E-01            NaN
         13   -1    0    0    0    0  0.00000000000E+00  0.00000000000E+00  0.74505805969E-08  0.10566000000E+00  0.10566000000E+00 0.  1.
     999900   -1    0    0    0    0 -0.00000000000E+00 -0.00000000000E+00 -0.74505805969E-08  0.93827000000E+00  0.93827000000E+00 0. -1.
     999902    2    1    2    0    0  0.32846913996E-02 -0.24809001665E-02 -0.12804647070E-01  0.10304799796E+01  0.10303921997E+01 0.  0.
     999903    2    3    3    0    0  0.18853395267E-01 -0.94517189983E-02 -0.13306539615E+00  0.14213678877E+00  0.45295491658E-01 0.  0.
         14    1    1    2    0    0 -0.32846913996E-02  0.24809001665E-02  0.12804647070E-01  0.13450020439E-01  0.00000000000E+00 0.  1.
     999901    1    3    3    0    0 -0.15568703868E-01  0.69708188318E-02  0.12026074908E+00  0.88834319079E+00  0.88000000000E+00 0.  1.
        -11    1    4    4    0    0 -0.13864767591E-01 -0.33398068971E-02 -0.62576874060E-01  0.64183427600E-01  0.51100000000E-03 0. -1.
         11    1    4    4    0    0  0.32718162858E-01 -0.61119121012E-02 -0.70488522089E-01  0.77953361170E-01  0.51100000000E-03 0.  1.
</event>
<event>
 8    1  0.2001339E+004  0.1043930E+01  0.7957747E-01            NaN
         13   -1    0    0    0    0  0.00000000000E+00  0.00000000000E+00  0.74505805969E-08  0.10566000000E+00  0.10566000000E+00 0. -1.
     999900   -1    0    0    0    0 -0.00000000000E+00 -0.00000000000E+00 -0.74505805969E-08  0.93827000000E+00  0.93827000000E+00 0.  1.
     999902    2    1    2    0    0  0.47085801283E-02 -0.61252793967E-02 -0.11142077961E-01  0.10303713985E+01  0.10302821861E+01 0.  0.
     999903    2    3    3    0    0  0.11260026593E+00  0.69316671592E-01  0.11582934731E-01  0.14028795853E+00  0.45419446080E-01 0.  0.
         14    1    1    2    0    0 -0.47085801283E-02  0.61252793967E-02  0.11142077961E-01  0.13558601543E-01  0.00000000000E+00 0. -1.
     999901    1    3    3    0    0 -0.10789168580E+00 -0.75441950989E-01 -0.22725012693E-01  0.89008343993E+00  0.88000000000E+00 0. -1.
        -11    1    4    4    0    0  0.50045827040E-01  0.54815617663E-02  0.18372339269E-02  0.50381235327E-01  0.51100000000E-03 0.  1.
         11    1    4    4    0    0  0.62554438892E-01  0.63835109826E-01  0.97457008044E-02  0.89906723201E-01  0.51100000000E-03 0. -1.
</event>
<event>
 8    1  0.2001339E+004  0.1043930E+01  0.7957747E-01            NaN
         13   -1    0    0    0    0  0.00000000000E+00  0.00000000000E+00  0.74505805969E-08  0.10566000000E+00  0.10566000000E+00 0. -1.
     999900   -1    0    0    0    0 -0.00000000000E+00 -0.00000000000E+00 -0.74505805969E-08  0.93827000000E+00  0.93827000000E+00 0.  1.
     999902    2    1    2    0    0  0.35274828182E-02 -0.11044059106E-01 -0.75375552339E-02  0.10301014384E+01  0.10300086137E+01 0.  0.
     999903    2    3    3    0    0 -0.48517155794E-02  0.35419784269E-01  0.12625769868E+00  0.13873716402E+00  0.45043245247E-01 0.  0.
         14    1    1    2    0    0 -0.35274828182E-02  0.11044059106E-01  0.75375552339E-02  0.13828561583E-01  0.00000000000E+00 0. -1.
     999901    1    3    3    0    0  0.83791983976E-02 -0.46463843375E-01 -0.13379525391E+00  0.89136427440E+00  0.88000000000E+00 0. -1.
        -11    1    4    4    0    0  0.29848030090E-02  0.18555854322E-02  0.84566766686E-01  0.84641310215E-01  0.51100000000E-03 0. -1.
         11    1    4    4    0    0 -0.78365185884E-02  0.33564198837E-01  0.41690931992E-01  0.54095853801E-01  0.51100000000E-03 0.  1.
</event>
<event>
 8    1  0.2001339E+004  0.1043930E+01  0.7957747E-01            NaN
         13   -1    0    0    0    0  0.00000000000E+00  0.00000000000E+00  0.74505805969E-08  0.10566000000E+00  0.10566000000E+00 0. -1.
     999900   -1    0    0    0    0 -0.00000000000E+00 -0.00000000000E+00 -0.74505805969E-08  0.93827000000E+00  0.93827000000E+00 0.  1.
     999902    2    1    2    0    0  0.37642921854E-02  0.54338278141E-02 -0.12354589072E-01  0.10299181389E+01  0.10298228200E+01 0.  0.
     999903    2    3    3    0    0 -0.10308763273E+00 -0.24244229661E-01  0.76959410327E-01  0.13847262097E+00  0.45133947606E-01 0.  0.
         14    1    1    2    0    0 -0.37642921854E-02 -0.54338278141E-02  0.12354589072E-01  0.14011861101E-01  0.00000000000E+00 0. -1.
     999901    1    3    3    0    0  0.10685192491E+00  0.29678057475E-01 -0.89313999399E-01  0.89144551793E+00  0.88000000000E+00 0.  1.
        -11    1    4    4    0    0 -0.49933510754E-01 -0.14196793241E-01  0.10826620701E-01  0.53031889193E-01  0.51100000000E-03 0.  1.
         11    1    4    4    0    0 -0.53154121973E-01 -0.10047436420E-01  0.66132789627E-01  0.85440731774E-01  0.51100000000E-03 0. -1.
</event>
<event>
 8    1  0.2001339E+004  0.1043930E+01  0.7957747E-01            NaN
         13   -1    0    0    0    0  0.00000000000E+00  0.00000000000E+00  0.74505805969E-08  0.10566000000E+00  0.10566000000E+00 0. -1.
     999900   -1    0    0    0    0 -0.00000000000E+00 -0.00000000000E+00 -0.74505805969E-08  0.93827000000E+00  0.93827000000E+00 0.  1.
     999902    2    1    2    0    0 -0.76994629256E-02  0.38275069508E-03  0.11154379619E-01  0.10303709288E+01  0.10302817103E+01 0.  0.
     999903    2    3    3    0    0  0.15973119180E-01  0.11376266302E+00  0.67889821942E-01  0.14096983475E+00  0.45457478509E-01 0.  0.
         14    1    1    2    0    0  0.76994629256E-02 -0.38275069508E-03 -0.11154379619E-01  0.13559071212E-01  0.00000000000E+00 0.  1.
     999901    1    3    3    0    0 -0.23672582105E-01 -0.11337991232E+00 -0.56735442323E-01  0.88940109404E+00  0.88000000000E+00 0. -1.
        -11    1    4    4    0    0 -0.36391936501E-02  0.71852161414E-01  0.60716238116E-01  0.94141911613E-01  0.51100000000E-03 0.  1.
         11    1    4    4    0    0  0.19612312830E-01  0.41910501605E-01  0.71735838263E-02  0.46827923136E-01  0.51100000000E-03 0. -1.
</event>
<event>
 8    1  0.2001339E+004  0.1043930E+01  0.7957747E-01            NaN
         13   -1    0    0    0    0  0.00000000000E+00  0.00000000000E+00  0.74505805969E-08  0.10566000000E+00  0.10566000000E+00 0.  1.
     999900   -1    0    0    0    0 -0.00000000000E+00 -0.00000000000E+00 -0.74505805969E-08  0.93827000000E+00  0.93827000000E+00 0.  1.
     999902    2    1    2    0    0  0.50544491290E-02  0.62595848732E-02  0.10636211385E-01  0.10305936268E+01  0.10305073336E+01 0.  0.
     999903    2    3    3    0    0 -0.12594126591E+00 -0.39189633615E-01  0.75753615193E-02  0.13973175327E+00  0.45503262828E-01 0.  0.
         14    1    1    2    0    0 -0.50544491290E-02 -0.62595848732E-02 -0.10636211385E-01  0.13336373248E-01  0.00000000000E+00 0. -1.
     999901    1    3    3    0    0  0.13099571504E+00  0.45449218488E-01  0.30608498653E-02  0.89086187348E+00  0.88000000000E+00 0.  1.
        -11    1    4    4    0    0 -0.58306514048E-01 -0.14242328200E-01 -0.18907513185E-01  0.62930506662E-01  0.51100000000E-03 0.  1.
         11    1    4    4    0    0 -0.67634751864E-01 -0.24947305415E-01  0.26482874704E-01  0.76801246609E-01  0.51100000000E-03 0. -1.
</event>
<event>
 8    1  0.2001339E+004  0.1043930E+01  0.7957747E-01            NaN
         13   -1    0    0    0    0  0.00000000000E+00  0.00000000000E+00  0.74505805969E-08  0.10566000000E+00  0.10566000000E+00 0. -1.
     999900   -1    0    0    0    0 -0.00000000000E+00 -0.00000000000E+00 -0.74505805969E-08  0.93827000000E+00  0.93827000000E+00 0.  1.
     999902    2    1    2    0    0 -0.80773016472E-02 -0.16056993545E-01 -0.10290873199E-02  0.10259264208E+01  0.10257684398E+01 0.  0.
     999903    2    3    3    0    0 -0.12740738143E+00 -0.26834690353E-01 -0.45970169328E-02  0.13779999015E+00  0.44888342240E-01 0.  0.
         14    1    1    2    0    0  0.80773016472E-02  0.16056993545E-01  0.10290873199E-02  0.18003579208E-01  0.00000000000E+00 0.  1.
     999901    1    3    3    0    0  0.11933007979E+00  0.10777696809E-01  0.35679296129E-02  0.88812643065E+00  0.88000000000E+00 0. -1.
        -11    1    4    4    0    0 -0.57064986025E-01  0.57548896807E-02 -0.15738356927E-01  0.59476788624E-01  0.51100000000E-03 0.  1.
         11    1    4    4    0    0 -0.70342395409E-01 -0.32589580034E-01  0.11141339994E-01  0.78323201521E-01  0.51100000000E-03 0. -1.
</event>
<event>
 8    1  0.2001339E+004  0.1043930E+01  0.7957747E-01            NaN
         13   -1    0    0    0    0  0.00000000000E+00  0.00000000000E+00  0.74505805969E-08  0.10566000000E+00  0.10566000000E+00 0.  1.
     999900   -1    0    0    0    0 -0.00000000000E+00 -0.00000000000E+00 -0.74505805969E-08  0.93827000000E+00  0.93827000000E+00 0.  1.
     999902    2    1    2    0    0 -0.41836421365E-02 -0.14497443460E-01 -0.18076717745E-02  0.10287330791E+01  0.10286208250E+01 0.  0.
     999903    2    3    3    0    0 -0.89903959154E-03 -0.11154956871E+00 -0.72147308151E-01  0.14060157526E+00  0.46037531854E-01 0.  0.
         14    1    1    2    0    0  0.41836421365E-02  0.14497443460E-01  0.18076717745E-02  0.15196920926E-01  0.00000000000E+00 0.  1.
     999901    1    3    3    0    0 -0.32846025449E-02  0.97052125250E-01  0.70339636376E-01  0.88813150382E+00  0.88000000000E+00 0. -1.
        -11    1    4    4    0    0 -0.17482174791E-01 -0.28226876485E-01 -0.33824517787E-01  0.47399811351E-01  0.51100000000E-03 0.  1.
         11    1    4    4    0    0  0.16583135200E-01 -0.83322692225E-01 -0.38322790363E-01  0.93201763905E-01  0.51100000000E-03 0. -1.
</event>
<event>
 8    1  0.2001339E+004  0.1043930E+01  0.7957747E-01            NaN
         13   -1    0    0    0    0  0.00000000000E+00  0.00000000000E+00  0.74505805969E-08  0.10566000000E+00  0.10566000000E+00 0. -1.
     999900   -1    0    0    0    0 -0.00000000000E+00 -0.00000000000E+00 -0.74505805969E-08  0.93827000000E+00  0.93827000000E+00 0. -1.
     999902    2    1    2    0    0 -0.16194798637E-02  0.48557929067E-02  0.11942063925E-01  0.10309371431E+01  0.10308552656E+01 0.  0.
     999903    2    3    3    0    0  0.17498445486E-02 -0.12710014237E+00  0.39727096523E-01  0.14065868708E+00  0.45267161461E-01 0.  0.
         14    1    1    2    0    0  0.16194798637E-02 -0.48557929067E-02 -0.11942063925E-01  0.12992856905E-01  0.00000000000E+00 0.  1.
     999901    1    3    3    0    0 -0.33693244124E-02  0.13195593528E+00 -0.27785032599E-01  0.89027845601E+00  0.88000000000E+00 0. -1.
        -11    1    4    4    0    0 -0.20415278797E-01 -0.79324082778E-01  0.29109429064E-01  0.86929360393E-01  0.51100000000E-03 0.  1.
         11    1    4    4    0    0  0.22165123345E-01 -0.47776059594E-01  0.10617667460E-01  0.53729326689E-01  0.51100000000E-03 0. -1.
</event>
<event>
 8    1  0.2001339E+004  0.1043930E+01  0.7957747E-01            NaN
         13   -1    0    0    0    0  0.00000000000E+00  0.00000000000E+00  0.74505805969E-08  0.10566000000E+00  0.10566000000E+00 0. -1.
     999900   -1    0    0    0    0 -0.00000000000E+00 -0.00000000000E+00 -0.74505805969E-08  0.93827000000E+00  0.93827000000E+00 0.  1.
     999902    2    1    2    0    0 -0.24925885618E-02 -0.98691512009E-02  0.13492496835E-01  0.10270285026E+01  0.10268894218E+01 0.  0.
     999903    2    3    3    0    0  0.82107811003E-01  0.86268467522E-02 -0.98019058809E-01  0.13577424226E+00  0.44841876182E-01 0.  0.
         14    1    1    2    0    0  0.24925885618E-02  0.98691512009E-02 -0.13492496835E-01  0.16901497389E-01  0.00000000000E+00 0.  1.
     999901    1    3    3    0    0 -0.84600399565E-01 -0.18495997953E-01  0.11151155564E+00  0.89125426035E+00  0.88000000000E+00 0. -1.
        -11    1    4    4    0    0  0.19220219332E-01 -0.13806068731E-01 -0.43701576122E-01  0.49700233817E-01  0.51100000000E-03 0. -1.
         11    1    4    4    0    0  0.62887591671E-01  0.22432915484E-01 -0.54317482688E-01  0.86074008445E-01  0.51100000000E-03 0.  1.
</event>
<event>
 8    1  0.2001339E+004  0.1043930E+01  0.7957747E-01            NaN
         13   -1    0    0    0    0  0.00000000000E+00  0.00000000000E+00  0.74505805969E-08  0.10566000000E+00  0.10566000000E+00 0. -1.
     999900   -1    0    0    0    0 -0.00000000000E+00 -0.00000000000E+00 -0.74505805969E-08  0.93827000000E+00  0.93827000000E+00 0.  1.
     999902    2    1    2    0    0  0.17499837892E-02  0.91381250292E-02  0.10328001812E-01  0.10300290866E+01  0.10299352814E+01 0.  0.
     999903    2    3    3    0    0 -0.52364626924E-01 -0.10672980909E+00 -0.55468988626E-01  0.13835481130E+00  0.43953825892E-01 0.  0.
         14    1    1    2    0    0 -0.17499837892E-02 -0.91381250292E-02 -0.10328001812E-01  0.13900913414E-01  0.00000000000E+00 0.  1.
     999901    1    3    3    0    0  0.54114610713E-01  0.11586793412E+00  0.65796990438E-01  0.89167427528E+00  0.88000000000E+00 0. -1.
        -11    1    4    4    0    0 -0.27844598867E-01 -0.31995923716E-01 -0.54658940039E-03  0.42421936560E-01  0.51100000000E-03 0. -1.
         11    1    4    4    0    0 -0.24520028056E-01 -0.74733885373E-01 -0.54922399225E-01  0.95932874743E-01  0.51100000000E-03 0.  1.
</event>
<event>
 8    1  0.2001339E+004  0.1043930E+01  0.7957747E-01            NaN
         13   -1    0    0    0    0  0.00000000000E+00  0.00000000000E+00  0.74505805969E-08  0.10566000000E+00  0.10566000000E+00 0.  1.
     999900   -1    0    0    0    0 -0.00000000000E+00 -0.00000000000E+00 -0.74505805969E-08  0.93827000000E+00  0.93827000000E+00 0.  1.
     999902    2    1    2    0    0 -0.10449074242E-01 -0.84292882145E-02  0.69358928073E-03  0.10304868933E+01  0.10303992042E+01 0.  0.
     999903    2    3    3    0    0  0.13546939660E-01 -0.13139428837E+00  0.23611493454E-01  0.14131793842E+00  0.44331461798E-01 0.  0.
         14    1    1    2    0    0  0.10449074242E-01  0.84292882145E-02 -0.69358928073E-03  0.13443106725E-01  0.00000000000E+00 0. -1.
     999901    1    3    3    0    0 -0.23996013902E-01  0.12296500016E+00 -0.22917904174E-01  0.88916895486E+00  0.88000000000E+00 0. -1.
        -11    1    4    4    0    0 -0.23169530673E-02 -0.15322343608E-01 -0.11172507282E-01  0.19110953014E-01  0.51100000000E-03 0.  1.
         11    1    4    4    0    0  0.15863892727E-01 -0.11607194476E+00  0.34784000736E-01  0.12220698541E+00  0.51100000000E-03 0. -1.
</event>
<event>
 8    1  0.2001339E+004  0.1043930E+01  0.7957747E-01            NaN
         13   -1    0    0    0    0  0.00000000000E+00  0.00000000000E+00  0.74505805969E-08  0.10566000000E+00  0.10566000000E+00 0.  1.
     999900   -1    0    0    0    0 -0.00000000000E+00 -0.00000000000E+00 -0.74505805969E-08  0.93827000000E+00  0.93827000000E+00 0. -1.
     999902    2    1    2    0    0  0.58740963978E-02 -0.14831030818E-01  0.11030035788E-01  0.10245360274E+01  0.10243524517E+01 0.  0.
     999903    2    3    3    0    0  0.11992408139E+00 -0.35908224421E-01  0.31833647690E-01  0.13668218952E+00  0.44692884552E-01 0.  0.
         14    1    1    2    0    0 -0.58740963978E-02  0.14831030818E-01 -0.11030035788E-01  0.19393972597E-01  0.00000000000E+00 0. -1.
     999901    1    3    3    0    0 -0.11404998499E+00  0.21077193603E-01 -0.20803611902E-01  0.88785383788E+00  0.88000000000E+00 0. -1.
        -11    1    4    4    0    0  0.11919705541E+00 -0.34716895496E-01  0.38396705335E-01  0.12995294900E+00  0.51100000000E-03 0.  1.
         11    1    4    4    0    0  0.72702597547E-03 -0.11913289246E-02 -0.65630576447E-02  0.67292405235E-02  0.51100000000E-03 0. -1.
</event>
<event>
 8    1  0.2001339E+004  0.1043930E+01  0.7957747E-01            NaN
         13   -1    0    0    0    0  0.00000000000E+00  0.00000000000E+00  0.74505805969E-08  0.10566000000E+00  0.10566000000E+00 0. -1.
     999900   -1    0    0    0    0 -0.00000000000E+00 -0.00000000000E+00 -0.74505805969E-08  0.93827000000E+00  0.93827000000E+00 0.  1.
     999902    2    1    2    0    0 -0.10721197504E-01 -0.17481431293E-01 -0.61750460987E-03  0.10234135230E+01  0.10232078544E+01 0.  0.
     999903    2    3    3    0    0 -0.12253972058E+00  0.25313015473E-01 -0.23824580772E-01  0.13500296749E+00  0.44737665476E-01 0.  0.
         14    1    1    2    0    0  0.10721197504E-01  0.17481431293E-01  0.61750460987E-03  0.20516476986E-01  0.00000000000E+00 0. -1.
     999901    1    3    3    0    0  0.11181852307E+00 -0.42794446766E-01  0.23207076162E-01  0.88841055552E+00  0.88000000000E+00 0.  1.
        -11    1    4    4    0    0 -0.97876970431E-01  0.26236876361E-01 -0.35922359185E-01  0.10751256686E+00  0.51100000000E-03 0. -1.
         11    1    4    4    0    0 -0.24662750144E-01 -0.92386088788E-03  0.12097778413E-01  0.27490400636E-01  0.51100000000E-03 0.  1.
</event>
<event>
 8    1  0.2001339E+004  0.1043930E+01  0.7957747E-01            NaN
         13   -1    0    0    0    0  0.00000000000E+00  0.00000000000E+00  0.74505805969E-08  0.10566000000E+00  0.10566000000E+00 0. -1.
     999900   -1    0    0    0    0 -0.00000000000E+00 -0.00000000000E+00 -0.74505805969E-08  0.93827000000E+00  0.93827000000E+00 0.  1.
     999902    2    1    2    0    0  0.63318544072E-02 -0.12476771337E-02  0.10363627148E-01  0.10317212390E+01  0.10316490009E+01 0.  0.
     999903    2    3    3    0    0  0.10859569050E+00 -0.57602297497E-01 -0.53903303540E-01  0.14168529936E+00  0.45366388982E-01 0.  0.
         14    1    1    2    0    0 -0.63318544072E-02  0.12476771337E-02 -0.10363627148E-01  0.12208761040E-01  0.00000000000E+00 0.  1.
     999901    1    3    3    0    0 -0.10226383609E+00  0.56354620363E-01  0.64266930689E-01  0.89003593960E+00  0.88000000000E+00 0. -1.
        -11    1    4    4    0    0  0.79133781155E-01 -0.62775327565E-01 -0.39198808983E-01  0.10834991840E+00  0.51100000000E-03 0.  1.
         11    1    4    4    0    0  0.29461909343E-01  0.51730300681E-02 -0.14704494557E-01  0.33335380954E-01  0.51100000000E-03 0. -1.
</event>
<event>
 8    1  0.2001339E+004  0.1043930E+01  0.7957747E-01            NaN
         13   -1    0    0    0    0  0.00000000000E+00  0.00000000000E+00  0.74505805969E-08  0.10566000000E+00  0.10566000000E+00 0. -1.
     999900   -1    0    0    0    0 -0.00000000000E+00 -0.00000000000E+00 -0.74505805969E-08  0.93827000000E+00  0.93827000000E+00 0.  1.
     999902    2    1    2    0    0 -0.14046154069E-01  0.52613653771E-02  0.20933600828E-03  0.10289293256E+01  0.10288199730E+01 0.  0.
     999903    2    3    3    0    0 -0.76255004694E-01 -0.10255411758E+00  0.32964926722E-01  0.13956604318E+00  0.45385253575E-01 0.  0.
         14    1    1    2    0    0  0.14046154069E-01 -0.52613653771E-02 -0.20933600828E-03  0.15000674363E-01  0.00000000000E+00 0. -1.
     999901    1    3    3    0    0  0.62208850625E-01  0.10781548295E+00 -0.32755590714E-01  0.88936328246E+00  0.88000000000E+00 0. -1.
        -11    1    4    4    0    0 -0.72131030271E-02 -0.42630369633E-01  0.29353685770E-02  0.43338836856E-01  0.51100000000E-03 0. -1.
         11    1    4    4    0    0 -0.69041901667E-01 -0.59923747945E-01  0.30029558145E-01  0.96227206324E-01  0.51100000000E-03 0.  1.
</event>
<event>
 8    1  0.2001339E+004  0.1043930E+01  0.7957747E-01            NaN
         13   -1    0    0    0    0  0.00000000000E+00  0.00000000000E+00  0.74505805969E-08  0.10566000000E+00  0.10566000000E+00 0. -1.
     999900   -1    0    0    0    0 -0.00000000000E+00 -0.00000000000E+00 -0.74505805969E-08  0.93827000000E+00  0.93827000000E+00 0. -1.
     999902    2    1    2    0    0  0.54070172999E-02 -0.35063847011E-02  0.12069988100E-01  0.10302473401E+01  0.10301564767E+01 0.  0.
     999903    2    3    3    0    0 -0.67453272835E-01 -0.21029429291E-01  0.11380842955E+00  0.14122181208E+00  0.44710856161E-01 0.  0.
         14    1    1    2    0    0 -0.54070172999E-02  0.35063847011E-02 -0.12069988100E-01  0.13682659920E-01  0.00000000000E+00 0. -1.
     999901    1    3    3    0    0  0.72860290135E-01  0.17523044590E-01 -0.10173844145E+00  0.88902552800E+00  0.88000000000E+00 0. -1.
        -11    1    4    4    0    0 -0.59681520393E-01  0.80861891643E-03  0.89955518682E-01  0.10795737216E+00  0.51100000000E-03 0.  1.
         11    1    4    4    0    0 -0.77717524420E-02 -0.21838048208E-01  0.23852910865E-01  0.33264439921E-01  0.51100000000E-03 0. -1.
</event>
<event>
 8    1  0.2001339E+004  0.1043930E+01  0.7957747E-01            NaN
         13   -1    0    0    0    0  0.00000000000E+00  0.00000000000E+00  0.74505805969E-08  0.10566000000E+00  0.10566000000E+00 0. -1.
     999900   -1    0    0    0    0 -0.00000000000E+00 -0.00000000000E+00 -0.74505805969E-08  0.93827000000E+00  0.93827000000E+00 0.  1.
     999902    2    1    2    0    0  0.31807603565E-02 -0.32366396888E-02 -0.13474706903E-01  0.10297116738E+01  0.10296135054E+01 0.  0.
     999903    2    3    3    0    0  0.87181018452E-02  0.11547591363E+00  0.58012673743E-01  0.13885041749E+00  0.50032751202E-01 0.  0.
         14    1    1    2    0    0 -0.31807603565E-02  0.32366396888E-02  0.13474706903E-01  0.14218326169E-01  0.00000000000E+00 0. -1.
     999901    1    3    3    0    0 -0.55373414887E-02 -0.11871255332E+00 -0.71487380646E-01  0.89086125635E+00  0.88000000000E+00 0.  1.
        -11    1    4    4    0    0 -0.10720816133E-01  0.10174712622E+00  0.48338526550E-01  0.11315603326E+00  0.51100000000E-03 0. -1.
         11    1    4    4    0    0  0.19438917978E-01  0.13728787405E-01  0.96741471932E-02  0.25694384225E-01  0.51100000000E-03 0.  1.
</event>
<event>
 8    1  0.2001339E+004  0.1043930E+01  0.7957747E-01            NaN
         13   -1    0    0    0    0  0.00000000000E+00  0.00000000000E+00  0.74505805969E-08  0.10566000000E+00  0.10566000000E+00 0.  1.
     999900   -1    0    0    0    0 -0.00000000000E+00 -0.00000000000E+00 -0.74505805969E-08  0.93827000000E+00  0.93827000000E+00 0.  1.
     999902    2    1    2    0    0 -0.60967094506E-02 -0.31443480678E-02 -0.10784588952E-01  0.10311486014E+01  0.10310693837E+01 0.  0.
     999903    2    3    3    0    0 -0.84948996174E-01  0.39264947133E-01  0.94186828039E-01  0.14039878815E+00  0.45635437052E-01 0.  0.
         14    1    1    2    0    0  0.60967094506E-02  0.31443480678E-02  0.10784588952E-01  0.12781398584E-01  0.00000000000E+00 0.  1.
     999901    1    3    3    0    0  0.78852286723E-01 -0.42409295201E-01 -0.10497141699E+00  0.89074981326E+00  0.88000000000E+00 0. -1.
        -11    1    4    4    0    0 -0.74790484088E-01  0.49490299635E-01  0.81869574783E-01  0.12143226369E+00  0.51100000000E-03 0. -1.
         11    1    4    4    0    0 -0.10158512085E-01 -0.10225352502E-01  0.12317253256E-01  0.18966524467E-01  0.51100000000E-03 0.  1.
</event>
<event>
 8    1  0.2001339E+004  0.1043930E+01  0.7957747E-01            NaN
         13   -1    0    0    0    0  0.00000000000E+00  0.00000000000E+00  0.74505805969E-08  0.10566000000E+00  0.10566000000E+00 0.  1.
     999900   -1    0    0    0    0 -0.00000000000E+00 -0.00000000000E+00 -0.74505805969E-08  0.93827000000E+00  0.93827000000E+00 0.  1.
     999902    2    1    2    0    0 -0.17736094349E-03  0.12042332341E-01  0.18143230520E-02  0.10317504683E+01  0.10316785777E+01 0.  0.
     999903    2    3    3    0    0  0.93301870585E-01  0.30553431316E-01 -0.91665835380E-01  0.14168329803E+00  0.45086365399E-01 0.  0.
         14    1    1    2    0    0  0.17736094349E-03 -0.12042332341E-01 -0.18143230520E-02  0.12179531734E-01  0.00000000000E+00 0. -1.
     999901    1    3    3    0    0 -0.93479231529E-01 -0.18511098975E-01  0.93480158432E-01  0.89006717024E+00  0.88000000000E+00 0. -1.
        -11    1    4    4    0    0  0.30663645538E-01  0.27013873893E-01 -0.56587416094E-01  0.69802616867E-01  0.51100000000E-03 0.  1.
         11    1    4    4    0    0  0.62638225047E-01  0.35395574238E-02 -0.35078419286E-01  0.71880681162E-01  0.51100000000E-03 0. -1.
</event>
<event>
 8    1  0.2001339E+004  0.1043930E+01  0.7957747E-01            NaN
         13   -1    0    0    0    0  0.00000000000E+00  0.00000000000E+00  0.74505805969E-08  0.10566000000E+00  0.10566000000E+00 0.  1.
     999900   -1    0    0    0    0 -0.00000000000E+00 -0.00000000000E+00 -0.74505805969E-08  0.93827000000E+00  0.93827000000E+00 0. -1.
     999902    2    1    2    0    0  0.31267042039E-02 -0.58410296612E-02 -0.11065343299E-01  0.10310328790E+01  0.10309522113E+01 0.  0.
     999903    2    3    3    0    0 -0.11679961122E+00 -0.54439201828E-01  0.36807265845E-01  0.14028269511E+00  0.41457012075E-01 0.  0.
         14    1    1    2    0    0 -0.31267042039E-02  0.58410296612E-02  0.11065343299E-01  0.12897120958E-01  0.00000000000E+00 0.  1.
     999901    1    3    3    0    0  0.11992631543E+00  0.48598172166E-01 -0.47872609144E-01  0.89075018393E+00  0.88000000000E+00 0. -1.
        -11    1    4    4    0    0 -0.81154249937E-01 -0.36359112954E-01  0.47696208545E-02  0.89056205745E-01  0.51100000000E-03 0. -1.
         11    1    4    4    0    0 -0.35645361288E-01 -0.18080088874E-01  0.32037644991E-01  0.51226489364E-01  0.51100000000E-03 0.  1.
</event>
<event>
 8    1  0.2001339E+004  0.1043930E+01  0.7957747E-01            NaN
         13   -1    0    0    0    0  0.00000000000E+00  0.00000000000E+00  0.74505805969E-08  0.10566000000E+00  0.10566000000E+00 0.  1.
     999900   -1    0    0    0    0 -0.00000000000E+00 -0.00000000000E+00 -0.74505805969E-08  0.93827000000E+00  0.93827000000E+00 0.  1.
     999902    2    1    2    0    0 -0.66210713659E-03 -0.83540638450E-02  0.29862276904E-02  0.10350335780E+01  0.10349953436E+01 0.  0.
     999903    2    3    3    0    0  0.39689043268E-01 -0.49631193818E-01  0.12226826828E+00  0.14511210843E+00  0.45491966631E-01 0.  0.
         14    1    1    2    0    0  0.66210713659E-03  0.83540638450E-02 -0.29862276904E-02  0.88964220002E-02  0.00000000000E+00 0.  1.
     999901    1    3    3    0    0 -0.40351150404E-01  0.41277129973E-01 -0.11928204059E+00  0.88992146957E+00  0.88000000000E+00 0.  1.
        -11    1    4    4    0    0 -0.91254921942E-02 -0.13138421793E-01  0.36875569591E-01  0.40199023479E-01  0.51100000000E-03 0.  1.
         11    1    4    4    0    0  0.48814535462E-01 -0.36492772026E-01  0.85392698692E-01  0.10491308495E+00  0.51100000000E-03 0. -1.
</event>
<event>
 8    1  0.2001339E+004  0.1043930E+01  0.7957747E-01            NaN
         13   -1    0    0    0    0  0.00000000000E+00  0.00000000000E+00  0.74505805969E-08  0.10566000000E+00  0.10566000000E+00 0. -1.
     999900   -1    0    0    0    0 -0.00000000000E+00 -0.00000000000E+00 -0.74505805969E-08  0.93827000000E+00  0.93827000000E+00 0. -1.
     999902    2    1    2    0    0  0.54329632473E-02 -0.54979713617E-03  0.13076361711E-01  0.10297592342E+01  0.10296617260E+01 0.  0.
     999903    2    3    3    0    0  0.92061996582E-01  0.17558596742E-01 -0.92197134406E-01  0.13907690460E+00  0.45369133423E-01 0.  0.
         14    1    1    2    0    0 -0.54329632473E-02  0.54979713617E-03 -0.13076361711E-01  0.14170765757E-01  0.00000000000E+00 0.  1.
     999901    1    3    3    0    0 -0.86629033335E-01 -0.18108393878E-01  0.10527349612E+00  0.89068232964E+00  0.88000000000E+00 0.  1.
        -11    1    4    4    0    0  0.16331657307E-01  0.22975838452E-01 -0.24292632895E-01  0.37215659566E-01  0.51100000000E-03 0.  1.
         11    1    4    4    0    0  0.75730339275E-01 -0.54172417095E-02 -0.67904501511E-01  0.10186124504E+00  0.51100000000E-03 0. -1.
</event>
<event>
 8    1  0.2001339E+004  0.1043930E+01  0.7957747E-01            NaN
         13   -1    0    0    0    0  0.00000000000E+00  0.00000000000E+00  0.74505805969E-08  0.10566000000E+00  0.10566000000E+00 0.  1.
     999900   -1    0    0    0    0 -0.00000000000E+00 -0.00000000000E+00 -0.74505805969E-08  0.93827000000E+00  0.93827000000E+00 0.  1.
     999902    2    1    2    0    0  0.69538449946E-02 -0.12162627209E-01  0.21325223597E-02  0.10297584400E+01  0.10296609207E+01 0.  0.
     999903    2    3    3    0    0  0.43324770389E-01 -0.98724502270E-01  0.79760614312E-01  0.14136555222E+00  0.44709067093E-01 0.  0.
         14    1    1    2    0    0 -0.69538449946E-02  0.12162627209E-01 -0.21325223597E-02  0.14171559987E-01  0.00000000000E+00 0. -1.
     999901    1    3    3    0    0 -0.36370925394E-01  0.86561875060E-01 -0.77628091952E-01  0.88839288780E+00  0.88000000000E+00 0.  1.
        -11    1    4    4    0    0  0.30907054765E-01 -0.72368061806E-01  0.80010965591E-01  0.11222476616E+00  0.51100000000E-03 0.  1.
         11    1    4    4    0    0  0.12417715624E-01 -0.26356440463E-01 -0.25035127916E-03  0.29140786056E-01  0.51100000000E-03 0. -1.
</event>
<event>
 8    1  0.2001339E+004  0.1043930E+01  0.7957747E-01            NaN
         13   -1    0    0    0    0  0.00000000000E+00  0.00000000000E+00  0.74505805969E-08  0.10566000000E+00  0.10566000000E+00 0. -1.
     999900   -1    0    0    0    0 -0.00000000000E+00 -0.00000000000E+00 -0.74505805969E-08  0.93827000000E+00  0.93827000000E+00 0.  1.
     999902    2    1    2    0    0 -0.30200885429E-02  0.13577827130E-01  0.27420593612E-02  0.10297526514E+01  0.10296550519E+01 0.  0.
     999903    2    3    3    0    0 -0.71526535032E-01  0.11359767307E+00  0.20191469160E-02  0.14144098006E+00  0.44508396366E-01 0.  0.
         14    1    1    2    0    0  0.30200885429E-02 -0.13577827130E-01 -0.27420593612E-02  0.14177348621E-01  0.00000000000E+00 0.  1.
     999901    1    3    3    0    0  0.68506446489E-01 -0.10001984594E+00  0.72291244526E-03  0.88831167131E+00  0.88000000000E+00 0. -1.
        -11    1    4    4    0    0 -0.40092651667E-01  0.24613390386E-01  0.15960002882E-03  0.47048127456E-01  0.51100000000E-03 0.  1.
         11    1    4    4    0    0 -0.31433883365E-01  0.88984282682E-01  0.18595468872E-02  0.94392852608E-01  0.51100000000E-03 0. -1.
</event>
<event>
 8    1  0.2001339E+004  0.1043930E+01  0.7957747E-01            NaN
         13   -1    0    0    0    0  0.00000000000E+00  0.00000000000E+00  0.74505805969E-08  0.10566000000E+00  0.10566000000E+00 0. -1.
     999900   -1    0    0    0    0 -0.00000000000E+00 -0.00000000000E+00 -0.74505805969E-08  0.93827000000E+00  0.93827000000E+00 0. -1.
     999902    2    1    2    0    0 -0.48611659938E-02  0.43841871752E-02  0.12119020654E-01  0.10301560139E+01  0.10300639253E+01 0.  0.
     999903    2    3    3    0    0 -0.11691552842E+00  0.42786695994E-01  0.49856138585E-01  0.14141813189E+00  0.44872166556E-01 0.  0.
         14    1    1    2    0    0  0.48611659938E-02 -0.43841871752E-02 -0.12119020654E-01  0.13773986120E-01  0.00000000000E+00 0.  1.
     999901    1    3    3    0    0  0.11205436243E+00 -0.38402508819E-01 -0.37737117931E-01  0.88873788199E+00  0.88000000000E+00 0.  1.
        -11    1    4    4    0    0 -0.65418583214E-01  0.11200238692E-02  0.31849331824E-01  0.72770093733E-01  0.51100000000E-03 0. -1.
         11    1    4    4    0    0 -0.51496945206E-01  0.41666672125E-01  0.18006806762E-01  0.68648038153E-01  0.51100000000E-03 0.  1.
</event>
<event>
 8    1  0.2001339E+004  0.1043930E+01  0.7957747E-01            NaN
         13   -1    0    0    0    0  0.00000000000E+00  0.00000000000E+00  0.74505805969E-08  0.10566000000E+00  0.10566000000E+00 0.  1.
     999900   -1    0    0    0    0 -0.00000000000E+00 -0.00000000000E+00 -0.74505805969E-08  0.93827000000E+00  0.93827000000E+00 0.  1.
     999902    2    1    2    0    0  0.90077721558E-02  0.63905439185E-02 -0.45391928024E-02  0.10319891758E+01  0.10319200917E+01 0.  0.
     999903    2    3    3    0    0 -0.84821063553E-02  0.11903836673E+00  0.62855464298E-01  0.14208049082E+00  0.44653976289E-01 0.  0.
         14    1    1    2    0    0 -0.90077721558E-02 -0.63905439185E-02  0.45391928024E-02  0.11940824179E-01  0.00000000000E+00 0.  1.
     999901    1    3    3    0    0  0.17489878511E-01 -0.11264782281E+00 -0.67394657101E-01  0.88990868500E+00  0.88000000000E+00 0.  1.
        -11    1    4    4    0    0 -0.12619876925E-01  0.10748197647E+00  0.38614714760E-01  0.11490428137E+00  0.51100000000E-03 0.  1.
         11    1    4    4    0    0  0.41377705692E-02  0.11556390256E-01  0.24240749539E-01  0.27176209453E-01  0.51100000000E-03 0. -1.
</event>
<event>
 8    1  0.2001339E+004  0.1043930E+01  0.7957747E-01            NaN
         13   -1    0    0    0    0  0.00000000000E+00  0.00000000000E+00  0.74505805969E-08  0.10566000000E+00  0.10566000000E+00 0. -1.
     999900   -1    0    0    0    0 -0.00000000000E+00 -0.00000000000E+00 -0.74505805969E-08  0.93827000000E+00  0.93827000000E+00 0.  1.
     999902    2    1    2    0    0  0.72452559529E-03 -0.11403535671E-01 -0.62540334873E-02  0.10309039301E+01  0.10308216308E+01 0.  0.
     999903    2    3    3    0    0  0.87616600776E-02 -0.13460230405E+00  0.34095205847E-03  0.14226113012E+00  0.45205817661E-01 0.  0.
         14    1    1    2    0    0 -0.72452559529E-03  0.11403535671E-01  0.62540334873E-02  0.13026069937E-01  0.00000000000E+00 0. -1.
     999901    1    3    3    0    0 -0.80371344823E-02  0.12319876838E+00 -0.65949855458E-02  0.88864279995E+00  0.88000000000E+00 0.  1.
        -11    1    4    4    0    0  0.10396314526E-02 -0.82724866043E-01 -0.21441798020E-01  0.85466344948E-01  0.51100000000E-03 0.  1.
         11    1    4    4    0    0  0.77220286250E-02 -0.51877438010E-01  0.21782750078E-01  0.56794785170E-01  0.51100000000E-03 0. -1.
</event>
<event>
 8    1  0.2362544E+004  0.1043930E+01  0.7957747E-01            NaN
         13   -1    0    0    0    0  0.00000000000E+00  0.00000000000E+00  0.74505805969E-08  0.10566000000E+00  0.10566000000E+00 0.  1.
     999900   -1    0    0    0    0 -0.00000000000E+00 -0.00000000000E+00 -0.74505805969E-08  0.93827000000E+00  0.93827000000E+00 0. -1.
     999902    2    1    2    0    0 -0.13512406919E-01 -0.25914930156E-02  0.25354026498E-02  0.10299396732E+01  0.10298446491E+01 0.  0.
     999903    2    3    3    0    0  0.67922554430E-01 -0.45584615572E-01 -0.10296090524E+00  0.13886754792E+00  0.44629780180E-01 0.  0.
         14    1    1    2    0    0  0.13512406919E-01  0.25914930156E-02 -0.25354026498E-02  0.13990326779E-01  0.00000000000E+00 0. -1.
     999901    1    3    3    0    0 -0.81434961348E-01  0.42993122557E-01  0.10549630789E+00  0.89107212531E+00  0.88000000000E+00 0.  1.
        -11    1    4    4    0    0  0.43687655097E-01 -0.25650780749E-02 -0.50391112773E-01  0.66743660380E-01  0.51100000000E-03 0.  1.
         11    1    4    4    0    0  0.24234899333E-01 -0.43019537497E-01 -0.52569792468E-01  0.72123887536E-01  0.51100000000E-03 0. -1.
</event>
<event>
 7    1  0.2001339E+004  0.1043930E+01  0.7957747E-01            NaN
         13   -1    0    0    0    0  0.00000000000E+00  0.00000000000E+00  0.74505805969E-08  0.10566000000E+00  0.10566000000E+00 0. -1.
     999900   -1    0    0    0    0 -0.00000000000E+00 -0.00000000000E+00 -0.74505805969E-08  0.93827000000E+00  0.93827000000E+00 0. -1.
     999903    2    1    2    0    0  0.13145070549E-01  0.43424325580E-01 -0.19059381228E-01  0.66425322107E-01  0.44616123459E-01 0.  0.
         14    1    1    2    0    0 -0.74931528208E-01 -0.49128150418E-02 -0.52466805760E-01  0.91605869778E-01  0.00000000000E+00 0.  1.
     999901    1    1    2    0    0  0.61786457658E-01 -0.38511510538E-01  0.71526186988E-01  0.88589880811E+00  0.88000000000E+00 0.  1.
        -11    1    3    3    0    0 -0.11938719030E-01  0.40520091582E-02  0.53937598058E-02  0.13722447163E-01  0.51100000000E-03 0. -1.
         11    1    3    3    0    0  0.25083789579E-01  0.39372316421E-01 -0.24453141034E-01  0.52702874945E-01  0.51100000000E-03 0.  1.
</event>
<event>
 8    1  0.2001339E+004  0.1043930E+01  0.7957747E-01            NaN
         13   -1    0    0    0    0  0.00000000000E+00  0.00000000000E+00  0.74505805969E-08  0.10566000000E+00  0.10566000000E+00 0. -1.
     999900   -1    0    0    0    0 -0.00000000000E+00 -0.00000000000E+00 -0.74505805969E-08  0.93827000000E+00  0.93827000000E+00 0. -1.
     999902    2    1    2    0    0  0.11217834196E-01  0.18568880135E-02 -0.98139443211E-02  0.10289099687E+01  0.10288003316E+01 0.  0.
     999903    2    3    3    0    0 -0.98105423070E-01  0.60639535338E-01 -0.62313310507E-01  0.13864980579E+00  0.45155206771E-01 0.  0.
         14    1    1    2    0    0 -0.11217834196E-01 -0.18568880135E-02  0.98139443211E-02  0.15020031301E-01  0.00000000000E+00 0. -1.
     999901    1    3    3    0    0  0.10932325727E+00 -0.58782647325E-01  0.52499366186E-01  0.89026016291E+00  0.88000000000E+00 0.  1.
        -11    1    4    4    0    0 -0.54122843113E-01  0.18731020528E-01 -0.93134909389E-02  0.58027023973E-01  0.51100000000E-03 0.  1.
         11    1    4    4    0    0 -0.43982579956E-01  0.41908514810E-01 -0.52999819568E-01  0.80622781821E-01  0.51100000000E-03 0. -1.
</event>
<event>
 7    1  0.2001339E+004  0.1043930E+01  0.7957747E-01            NaN
         13   -1    0    0    0    0  0.00000000000E+00  0.00000000000E+00  0.74505805969E-08  0.10566000000E+00  0.10566000000E+00 0. -1.
     999900   -1    0    0    0    0 -0.00000000000E+00 -0.00000000000E+00 -0.74505805969E-08  0.93827000000E+00  0.93827000000E+00 0. -1.
     999903    2    1    2    0    0  0.21374251670E-01 -0.98080719293E-01  0.30737916147E-01  0.11508636276E+00  0.47152574413E-01 0.  0.
         14    1    1    2    0    0  0.16154795302E-01  0.26095989362E-01 -0.33051491151E-01  0.45104092268E-01  0.00000000000E+00 0.  1.
     999901    1    1    2    0    0 -0.37529046972E-01  0.71984729931E-01  0.23135750039E-02  0.88373954497E+00  0.88000000000E+00 0. -1.
        -11    1    3    3    0    0  0.42361846188E-02 -0.98511163994E-02 -0.11538191465E-01  0.15760099547E-01  0.51100000000E-03 0. -1.
         11    1    3    3    0    0  0.17138067051E-01 -0.88229602894E-01  0.42276107612E-01  0.99326263218E-01  0.51100000000E-03 0.  1.
</event>
<event>
 8    1  0.2001339E+004  0.1043930E+01  0.7957747E-01            NaN
         13   -1    0    0    0    0  0.00000000000E+00  0.00000000000E+00  0.74505805969E-08  0.10566000000E+00  0.10566000000E+00 0. -1.
     999900   -1    0    0    0    0 -0.00000000000E+00 -0.00000000000E+00 -0.74505805969E-08  0.93827000000E+00  0.93827000000E+00 0.  1.
     999902    2    1    2    0    0  0.13907224092E-02 -0.12327025997E-01  0.51310887076E-02  0.10305054795E+01  0.10304180344E+01 0.  0.
     999903    2    3    3    0    0  0.77687788390E-02 -0.87423350628E-01  0.10205534938E+00  0.14198173201E+00  0.45169920612E-01 0.  0.
         14    1    1    2    0    0 -0.13907224092E-02  0.12327025997E-01 -0.51310887076E-02  0.13424520479E-01  0.00000000000E+00 0.  1.
     999901    1    3    3    0    0 -0.63780564298E-02  0.75096324631E-01 -0.96924260676E-01  0.88852374751E+00  0.88000000000E+00 0.  1.
        -11    1    4    4    0    0  0.19473507295E-01 -0.55279373602E-01  0.39491327652E-01  0.70674271930E-01  0.51100000000E-03 0.  1.
         11    1    4    4    0    0 -0.11704728456E-01 -0.32143977026E-01  0.62564021732E-01  0.71307460084E-01  0.51100000000E-03 0. -1.
</event>
<event>
 8    1  0.2001339E+004  0.1043930E+01  0.7957747E-01            NaN
         13   -1    0    0    0    0  0.00000000000E+00  0.00000000000E+00  0.74505805969E-08  0.10566000000E+00  0.10566000000E+00 0. -1.
     999900   -1    0    0    0    0 -0.00000000000E+00 -0.00000000000E+00 -0.74505805969E-08  0.93827000000E+00  0.93827000000E+00 0. -1.
     999902    2    1    2    0    0 -0.21103604992E-02  0.40912876689E-02  0.10126165079E-01  0.10328065349E+01  0.10327466326E+01 0.  0.
     999903    2    3    3    0    0 -0.59570206641E-01 -0.12056823367E+00  0.10140720603E-01  0.14216540046E+00  0.44976197973E-01 0.  0.
         14    1    1    2    0    0  0.21103604992E-02 -0.40912876689E-02 -0.10126165079E-01  0.11123465082E-01  0.00000000000E+00 0.  1.
     999901    1    3    3    0    0  0.57459846142E-01  0.12465952134E+00 -0.14555524044E-04  0.89064113446E+00  0.88000000000E+00 0.  1.
        -11    1    4    4    0    0 -0.61457953139E-01 -0.84901468825E-01 -0.77279282519E-03  0.10481506448E+00  0.51100000000E-03 0.  1.
         11    1    4    4    0    0  0.18877464978E-02 -0.35666764843E-01  0.10913513428E-01  0.37350335976E-01  0.51100000000E-03 0. -1.
</event>
<event>
 8    1  0.2001339E+004  0.1043930E+01  0.7957747E-01            NaN
         13   -1    0    0    0    0  0.00000000000E+00  0.00000000000E+00  0.74505805969E-08  0.10566000000E+00  0.10566000000E+00 0.  1.
     999900   -1    0    0    0    0 -0.00000000000E+00 -0.00000000000E+00 -0.74505805969E-08  0.93827000000E+00  0.93827000000E+00 0. -1.
     999902    2    1    2    0    0  0.92167134571E-02 -0.75382210338E-02 -0.52596598575E-02  0.10309132183E+01  0.10308310371E+01 0.  0.
     999903    2    3    3    0    0 -0.75094648692E-01  0.27121748059E-01  0.10474527300E+00  0.13939159520E+00  0.45647005579E-01 0.  0.
         14    1    1    2    0    0 -0.92167134571E-02  0.75382210338E-02  0.52596598575E-02  0.13016781673E-01  0.00000000000E+00 0.  1.
     999901    1    3    3    0    0  0.84311362149E-01 -0.34659969093E-01 -0.11000493285E+00  0.89152162312E+00  0.88000000000E+00 0. -1.
        -11    1    4    4    0    0 -0.54408153202E-01  0.17268515865E-01  0.10121379877E+00  0.11620216417E+00  0.51100000000E-03 0. -1.
         11    1    4    4    0    0 -0.20686495490E-01  0.98532321948E-02  0.35314742214E-02  0.23189431031E-01  0.51100000000E-03 0.  1.
</event>
<event>
 8    1  0.2001339E+004  0.1043930E+01  0.7957747E-01            NaN
         13   -1    0    0    0    0  0.00000000000E+00  0.00000000000E+00  0.74505805969E-08  0.10566000000E+00  0.10566000000E+00 0. -1.
     999900   -1    0    0    0    0 -0.00000000000E+00 -0.00000000000E+00 -0.74505805969E-08  0.93827000000E+00  0.93827000000E+00 0.  1.
     999902    2    1    2    0    0  0.79107569019E-03  0.83279896694E-02 -0.10436871210E-01  0.10305542947E+01  0.10304674884E+01 0.  0.
     999903    2    3    3    0    0  0.23218060842E-01 -0.86357880739E-01  0.96303892783E-01  0.13877967380E+00  0.44593678688E-01 0.  0.
         14    1    1    2    0    0 -0.79107569019E-03 -0.83279896694E-02  0.10436871210E-01  0.13375705340E-01  0.00000000000E+00 0. -1.
     999901    1    3    3    0    0 -0.22426985152E-01  0.94685870408E-01 -0.10674076399E+00  0.89177462086E+00  0.88000000000E+00 0.  1.
        -11    1    4    4    0    0  0.14939824817E-01 -0.13977043876E-01  0.45705612607E-01  0.50078141598E-01  0.51100000000E-03 0.  1.
         11    1    4    4    0    0  0.82782360247E-02 -0.72380836863E-01  0.50598280176E-01  0.88701532199E-01  0.51100000000E-03 0. -1.
</event>
<event>
 8    1  0.2001339E+004  0.1043930E+01  0.7957747E-01            NaN
         13   -1    0    0    0    0  0.00000000000E+00  0.00000000000E+00  0.74505805969E-08  0.10566000000E+00  0.10566000000E+00 0. -1.
     999900   -1    0    0    0    0 -0.00000000000E+00 -0.00000000000E+00 -0.74505805969E-08  0.93827000000E+00  0.93827000000E+00 0.  1.
     999902    2    1    2    0    0  0.82928636219E-02  0.18318047212E-02  0.95160735683E-02  0.10311752851E+01  0.10310963999E+01 0.  0.
     999903    2    3    3    0    0 -0.11594984136E+00  0.65370175188E-01  0.89447701186E-03  0.14013785257E+00  0.43819996788E-01 0.  0.
         14    1    1    2    0    0 -0.82928636219E-02 -0.18318047212E-02 -0.95160735683E-02  0.12754714883E-01  0.00000000000E+00 0.  1.
     999901    1    3    3    0    0  0.12424270499E+00 -0.63538370467E-01  0.86215965564E-02  0.89103743254E+00  0.88000000000E+00 0. -1.
        -11    1    4    4    0    0 -0.89898596633E-01  0.63753688273E-01  0.13700612056E-01  0.11105970618E+00  0.51100000000E-03 0. -1.
         11    1    4    4    0    0 -0.26051244732E-01  0.16164869156E-02 -0.12806135044E-01  0.29078146395E-01  0.51100000000E-03 0.  1.
</event>
<event>
 8    1  0.2001339E+004  0.1043930E+01  0.7957747E-01            NaN
         13   -1    0    0    0    0  0.00000000000E+00  0.00000000000E+00  0.74505805969E-08  0.10566000000E+00  0.10566000000E+00 0.  1.
     999900   -1    0    0    0    0 -0.00000000000E+00 -0.00000000000E+00 -0.74505805969E-08  0.93827000000E+00  0.93827000000E+00 0. -1.
     999902    2    1    2    0    0  0.99565381631E-02 -0.94440075576E-03  0.89981174215E-02  0.10304767230E+01  0.10303889004E+01 0.  0.
     999903    2    3    3    0    0  0.39368469785E-01 -0.42565803326E-01 -0.12005890550E+00  0.13960461206E+00  0.41395445335E-01 0.  0.
         14    1    1    2    0    0 -0.99565381631E-02  0.94440075576E-03 -0.89981174215E-02  0.13453277003E-01  0.00000000000E+00 0. -1.
     999901    1    3    3    0    0 -0.29411931622E-01  0.41621402571E-01  0.12905702292E+00  0.89087211093E+00  0.88000000000E+00 0.  1.
        -11    1    4    4    0    0  0.23575244938E-01  0.75768290943E-03 -0.27795972597E-01  0.36458791407E-01  0.51100000000E-03 0. -1.
         11    1    4    4    0    0  0.15793224847E-01 -0.43323486236E-01 -0.92262932900E-01  0.10314582066E+00  0.51100000000E-03 0.  1.
</event>
<event>
 8    1  0.2001339E+004  0.1043930E+01  0.7957747E-01            NaN
         13   -1    0    0    0    0  0.00000000000E+00  0.00000000000E+00  0.74505805969E-08  0.10566000000E+00  0.10566000000E+00 0. -1.
     999900   -1    0    0    0    0 -0.00000000000E+00 -0.00000000000E+00 -0.74505805969E-08  0.93827000000E+00  0.93827000000E+00 0. -1.
     999902    2    1    2    0    0 -0.32500832481E-02  0.13660920275E-01 -0.64834359069E-02  0.10284633027E+01  0.10283469970E+01 0.  0.
     999903    2    3    3    0    0 -0.47292341111E-01  0.11848280792E+00 -0.38884945520E-01  0.14055722297E+00  0.44379642189E-01 0.  0.
         14    1    1    2    0    0  0.32500832481E-02 -0.13660920275E-01  0.64834359069E-02  0.15466697289E-01  0.00000000000E+00 0. -1.
     999901    1    3    3    0    0  0.44042257863E-01 -0.10482188765E+00  0.32401509613E-01  0.88790607974E+00  0.88000000000E+00 0.  1.
        -11    1    4    4    0    0 -0.27908652491E-01  0.45367710516E-01 -0.37063122969E-01  0.64892667125E-01  0.51100000000E-03 0.  1.
         11    1    4    4    0    0 -0.19383688619E-01  0.73115097408E-01 -0.18218225507E-02  0.75664555849E-01  0.51100000000E-03 0. -1.
</event>
<event>
 8    1  0.2001339E+004  0.1043930E+01  0.7957747E-01            NaN
         13   -1    0    0    0    0  0.00000000000E+00  0.00000000000E+00  0.74505805969E-08  0.10566000000E+00  0.10566000000E+00 0. -1.
     999900   -1    0    0    0    0 -0.00000000000E+00 -0.00000000000E+00 -0.74505805969E-08  0.93827000000E+00  0.93827000000E+00 0. -1.
     999902    2    1    2    0    0 -0.10885591921E-01  0.15628097073E-01  0.13633686502E-02  0.10248356997E+01  0.10246578059E+01 0.  0.
     999903    2    3    3    0    0 -0.90147424608E-01  0.60274081149E-01 -0.70863121767E-01  0.13720268549E+00  0.45204776922E-01 0.  0.
         14    1    1    2    0    0  0.10885591921E-01 -0.15628097073E-01 -0.13633686502E-02  0.19094300293E-01  0.00000000000E+00 0.  1.
     999901    1    3    3    0    0  0.79261832687E-01 -0.44645984077E-01  0.72226490417E-01  0.88763301422E+00  0.88000000000E+00 0.  1.
        -11    1    4    4    0    0 -0.89637930833E-02  0.28972637516E-01 -0.15387518873E-01  0.34011765157E-01  0.51100000000E-03 0.  1.
         11    1    4    4    0    0 -0.81183631525E-01  0.31301443634E-01 -0.55475602895E-01  0.10319092033E+00  0.51100000000E-03 0. -1.
</event>
<event>
 8    1  0.2001339E+004  0.1043930E+01  0.7957747E-01            NaN
         13   -1    0    0    0    0  0.00000000000E+00  0.00000000000E+00  0.74505805969E-08  0.10566000000E+00  0.10566000000E+00 0. -1.
     999900   -1    0    0    0    0 -0.00000000000E+00 -0.00000000000E+00 -0.74505805969E-08  0.93827000000E+00  0.93827000000E+00 0.  1.
     999902    2    1    2    0    0  0.84149834331E-02  0.10342386711E-01  0.58284782104E-02  0.10293784342E+01  0.10292755767E+01 0.  0.
     999903    2    3    3    0    0  0.11904546827E+00 -0.18607934637E-01 -0.54884747440E-01  0.13990481399E+00  0.45198923985E-01 0.  0.
         14    1    1    2    0    0 -0.84149834331E-02 -0.10342386711E-01 -0.58284782104E-02  0.14551565802E-01  0.00000000000E+00 0. -1.
     999901    1    3    3    0    0 -0.11063048483E+00  0.28950321347E-01  0.60713225651E-01  0.88947362021E+00  0.88000000000E+00 0. -1.
        -11    1    4    4    0    0  0.68624995681E-01  0.29403111408E-02 -0.10772643023E-01  0.69529464405E-01  0.51100000000E-03 0. -1.
         11    1    4    4    0    0  0.50420472585E-01 -0.21548245777E-01 -0.44112104417E-01  0.70375349583E-01  0.51100000000E-03 0.  1.
</event>
<event>
 8    1  0.2001339E+004  0.1043930E+01  0.7957747E-01            NaN
         13   -1    0    0    0    0  0.00000000000E+00  0.00000000000E+00  0.74505805969E-08  0.10566000000E+00  0.10566000000E+00 0. -1.
     999900   -1    0    0    0    0 -0.00000000000E+00 -0.00000000000E+00 -0.74505805969E-08  0.93827000000E+00  0.93827000000E+00 0.  1.
     999902    2    1    2    0    0  0.29708551550E-02  0.15463750392E-01 -0.48107417470E-02  0.10274649828E+01  0.10273330492E+01 0.  0.
     999903    2    3    3    0    0  0.10505404212E+00 -0.82224669119E-02  0.75289583632E-01  0.13763461911E+00  0.46591911809E-01 0.  0.
         14    1    1    2    0    0 -0.29708551550E-02 -0.15463750392E-01  0.48107417470E-02  0.16465017239E-01  0.00000000000E+00 0. -1.
     999901    1    3    3    0    0 -0.10208318696E+00  0.23686217304E-01 -0.80100325379E-01  0.88983036365E+00  0.88000000000E+00 0.  1.
        -11    1    4    4    0    0 -0.11076488781E-02  0.36053659408E-02  0.13941298975E-01  0.14451521986E-01  0.51100000000E-03 0. -1.
         11    1    4    4    0    0  0.10616169100E+00 -0.11827832853E-01  0.61348284657E-01  0.12318309712E+00  0.51100000000E-03 0.  1.
</event>
<event>
 8    1  0.2001339E+004  0.1043930E+01  0.7957747E-01            NaN
         13   -1    0    0    0    0  0.00000000000E+00  0.00000000000E+00  0.74505805969E-08  0.10566000000E+00  0.10566000000E+00 0.  1.
     999900   -1    0    0    0    0 -0.00000000000E+00 -0.00000000000E+00 -0.74505805969E-08  0.93827000000E+00  0.93827000000E+00 0. -1.
     999902    2    1    2    0    0 -0.16895843350E-01 -0.50396932850E-02 -0.16826798486E-01  0.10195576965E+01  0.10192663476E+01 0.  0.
     999903    2    3    3    0    0 -0.11718203030E+00 -0.37517822947E-01  0.21619779761E-01  0.13243296593E+00  0.43952933053E-01 0.  0.
         14    1    1    2    0    0  0.16895843350E-01  0.50396932850E-02  0.16826798486E-01  0.24372303506E-01  0.00000000000E+00 0.  1.
     999901    1    3    3    0    0  0.10028618695E+00  0.32478129662E-01 -0.38446578247E-01  0.88712473056E+00  0.88000000000E+00 0. -1.
        -11    1    4    4    0    0 -0.24106267470E-01 -0.28216701975E-01  0.60499827769E-02  0.37605289712E-01  0.51100000000E-03 0. -1.
         11    1    4    4    0    0 -0.93075762830E-01 -0.93011209723E-02  0.15569796984E-01  0.94827676218E-01  0.51100000000E-03 0.  1.
</event>
<event>
 8    1  0.2001339E+004  0.1043930E+01  0.7957747E-01            NaN
         13   -1    0    0    0    0  0.00000000000E+00  0.00000000000E+00  0.74505805969E-08  0.10566000000E+00  0.10566000000E+00 0. -1.
     999900   -1    0    0    0    0 -0.00000000000E+00 -0.00000000000E+00 -0.74505805969E-08  0.93827000000E+00  0.93827000000E+00 0. -1.
     999902    2    1    2    0    0  0.11196307850E-01 -0.68934441484E-02 -0.54193726179E-02  0.10297086611E+01  0.10296104507E+01 0.  0.
     999903    2    3    3    0    0  0.60111306574E-01  0.59007816442E-01  0.10146790518E+00  0.13944996641E+00  0.45335039102E-01 0.  0.
         14    1    1    2    0    0 -0.11196307850E-01  0.68934441484E-02  0.54193726179E-02  0.14221338941E-01  0.00000000000E+00 0. -1.
     999901    1    3    3    0    0 -0.48914998724E-01 -0.65901260591E-01 -0.10688727780E+00  0.89025869465E+00  0.88000000000E+00 0.  1.
        -11    1    4    4    0    0  0.64011080082E-01  0.38334663238E-01  0.79371268033E-01  0.10893587145E+00  0.51100000000E-03 0.  1.
         11    1    4    4    0    0 -0.38997735078E-02  0.20673153204E-01  0.22096637146E-01  0.30514094956E-01  0.51100000000E-03 0. -1.
</event>
<event>
 8    1  0.2001339E+004  0.1043930E+01  0.7957747E-01            NaN
         13   -1    0    0    0    0  0.00000000000E+00  0.00000000000E+00  0.74505805969E-08  0.10566000000E+00  0.10566000000E+00 0. -1.
     999900   -1    0    0    0    0 -0.00000000000E+00 -0.00000000000E+00 -0.74505805969E-08  0.93827000000E+00  0.93827000000E+00 0.  1.
     999902    2    1    2    0    0  0.11575457806E-01 -0.88241945341E-02  0.71114629925E-02  0.10277302920E+01  0.10276026093E+01 0.  0.
     999903    2    3    3    0    0  0.50693576776E-01  0.11952034592E+00  0.44495101828E-02  0.13755635717E+00  0.45243800043E-01 0.  0.
         14    1    1    2    0    0 -0.11575457806E-01  0.88241945341E-02 -0.71114629925E-02  0.16199707975E-01  0.00000000000E+00 0.  1.
     999901    1    3    3    0    0 -0.39118118970E-01 -0.12834454046E+00  0.26619528098E-02  0.89017393485E+00  0.88000000000E+00 0. -1.
        -11    1    4    4    0    0  0.13662762643E-01  0.64881019661E-01 -0.16455769530E-01  0.68317430186E-01  0.51100000000E-03 0.  1.
         11    1    4    4    0    0  0.37030814133E-01  0.54639326260E-01  0.20905279713E-01  0.69238926988E-01  0.51100000000E-03 0. -1.
</event>
<event>
 8    1  0.2001339E+004  0.1043930E+01  0.7957747E-01            NaN
         13   -1    0    0    0    0  0.00000000000E+00  0.00000000000E+00  0.74505805969E-08  0.10566000000E+00  0.10566000000E+00 0. -1.
     999900   -1    0    0    0    0 -0.00000000000E+00 -0.00000000000E+00 -0.74505805969E-08  0.93827000000E+00  0.93827000000E+00 0. -1.
     999902    2    1    2    0    0  0.14895340255E-01  0.10745060890E-01 -0.11254689154E-01  0.10223894447E+01  0.10221625023E+01 0.  0.
     999903    2    3    3    0    0  0.72655627580E-01  0.22761952809E-01 -0.10338593001E+00  0.13561505285E+00  0.43655988382E-01 0.  0.
         14    1    1    2    0    0 -0.14895340255E-01 -0.10745060890E-01  0.11254689154E-01  0.21540555304E-01  0.00000000000E+00 0. -1.
     999901    1    3    3    0    0 -0.57760287325E-01 -0.12016891919E-01  0.92131240858E-01  0.88677439184E+00  0.88000000000E+00 0.  1.
        -11    1    4    4    0    0  0.22405973778E-01  0.38859899757E-02 -0.46301429746E-02  0.23212667318E-01  0.51100000000E-03 0.  1.
         11    1    4    4    0    0  0.50249653802E-01  0.18875962834E-01 -0.98755787037E-01  0.11240238554E+00  0.51100000000E-03 0. -1.
</event>
<event>
 8    1  0.2001339E+004  0.1043930E+01  0.7957747E-01            NaN
         13   -1    0    0    0    0  0.00000000000E+00  0.00000000000E+00  0.74505805969E-08  0.10566000000E+00  0.10566000000E+00 0. -1.
     999900   -1    0    0    0    0 -0.00000000000E+00 -0.00000000000E+00 -0.74505805969E-08  0.93827000000E+00  0.93827000000E+00 0.  1.
     999902    2    1    2    0    0  0.11236492560E-01  0.24650151465E-02  0.74933840971E-02  0.10302009844E+01  0.10301095002E+01 0.  0.
     999903    2    3    3    0    0 -0.11906493182E+00 -0.47584123854E-01 -0.26886297860E-01  0.13853661925E+00  0.45042369266E-01 0.  0.
         14    1    1    2    0    0 -0.11236492560E-01 -0.24650151465E-02 -0.74933840971E-02  0.13729015622E-01  0.00000000000E+00 0. -1.
     999901    1    3    3    0    0  0.13030142438E+00  0.50049139001E-01  0.34379681957E-01  0.89166436513E+00  0.88000000000E+00 0. -1.
        -11    1    4    4    0    0 -0.25084416388E-01 -0.13330390239E-01 -0.25986381958E-01  0.38502992322E-01  0.51100000000E-03 0.  1.
         11    1    4    4    0    0 -0.93980515427E-01 -0.34253733615E-01 -0.89991590210E-03  0.10003362693E+00  0.51100000000E-03 0. -1.
</event>
<event>
 8    1  0.2001339E+004  0.1043930E+01  0.7957747E-01            NaN
         13   -1    0    0    0    0  0.00000000000E+00  0.00000000000E+00  0.74505805969E-08  0.10566000000E+00  0.10566000000E+00 0.  1.
     999900   -1    0    0    0    0 -0.00000000000E+00 -0.00000000000E+00 -0.74505805969E-08  0.93827000000E+00  0.93827000000E+00 0.  1.
     999902    2    1    2    0    0 -0.14730877196E-02  0.11575514627E-01  0.81083356129E-02  0.10297205794E+01  0.10296225348E+01 0.  0.
     999903    2    3    3    0    0  0.62439724221E-01 -0.64583828739E-01  0.96873947326E-01  0.13968438527E+00  0.45358303772E-01 0.  0.
         14    1    1    2    0    0  0.14730877196E-02 -0.11575514627E-01 -0.81083356129E-02  0.14209420563E-01  0.00000000000E+00 0. -1.
     999901    1    3    3    0    0 -0.63912811941E-01  0.76159343366E-01 -0.88765611714E-01  0.89003619417E+00  0.88000000000E+00 0.  1.
        -11    1    4    4    0    0  0.16069338187E-01 -0.42680988385E-01  0.64638620778E-01  0.79109435697E-01  0.51100000000E-03 0.  1.
         11    1    4    4    0    0  0.46370386034E-01 -0.21902840354E-01  0.32235326548E-01  0.60574949568E-01  0.51100000000E-03 0. -1.
</event>
<event>
 8    1  0.2001339E+004  0.1043930E+01  0.7957747E-01            NaN
         13   -1    0    0    0    0  0.00000000000E+00  0.00000000000E+00  0.74505805969E-08  0.10566000000E+00  0.10566000000E+00 0.  1.
     999900   -1    0    0    0    0 -0.00000000000E+00 -0.00000000000E+00 -0.74505805969E-08  0.93827000000E+00  0.93827000000E+00 0.  1.
     999902    2    1    2    0    0 -0.19181677418E-02  0.61693573136E-02 -0.11777076579E-01  0.10304972092E+01  0.10304096555E+01 0.  0.
     999903    2    3    3    0    0  0.85103633094E-01 -0.67588804299E-01 -0.76478214417E-01  0.14077854718E+00  0.46462966263E-01 0.  0.
         14    1    1    2    0    0  0.19181677418E-02 -0.61693573136E-02  0.11777076579E-01  0.13432790845E-01  0.00000000000E+00 0.  1.
     999901    1    3    3    0    0 -0.87021800836E-01  0.73758161613E-01  0.64701137838E-01  0.88971866197E+00  0.88000000000E+00 0. -1.
        -11    1    4    4    0    0  0.10386939665E-01 -0.26745004763E-01 -0.37257100485E-01  0.47026975800E-01  0.51100000000E-03 0.  1.
         11    1    4    4    0    0  0.74716693428E-01 -0.40843799537E-01 -0.39221113931E-01  0.93751571381E-01  0.51100000000E-03 0. -1.
</event>
<event>
 8    1  0.2001339E+004  0.1043930E+01  0.7957747E-01            NaN
         13   -1    0    0    0    0  0.00000000000E+00  0.00000000000E+00  0.74505805969E-08  0.10566000000E+00  0.10566000000E+00 0. -1.
     999900   -1    0    0    0    0 -0.00000000000E+00 -0.00000000000E+00 -0.74505805969E-08  0.93827000000E+00  0.93827000000E+00 0.  1.
     999902    2    1    2    0    0  0.92944634284E-02  0.55767145458E-02 -0.83473335873E-02  0.10302491823E+01  0.10301583436E+01 0.  0.
     999903    2    3    3    0    0 -0.12837411275E+00  0.12892448254E-01  0.27023135172E-01  0.13881369561E+00  0.43507059302E-01 0.  0.
         14    1    1    2    0    0 -0.92944634284E-02 -0.55767145458E-02  0.83473335873E-02  0.13680817723E-01  0.00000000000E+00 0. -1.
     999901    1    3    3    0    0  0.13766857618E+00 -0.73157337079E-02 -0.35370468759E-01  0.89143548667E+00  0.88000000000E+00 0.  1.
        -11    1    4    4    0    0 -0.56569846770E-01 -0.21531999723E-02  0.32439695898E-01  0.65248592510E-01  0.51100000000E-03 0.  1.
         11    1    4    4    0    0 -0.71804265978E-01  0.15045648226E-01 -0.54165607259E-02  0.73565103101E-01  0.51100000000E-03 0. -1.
</event>
<event>
 8    1  0.2001339E+004  0.1043930E+01  0.7957747E-01            NaN
         13   -1    0    0    0    0  0.00000000000E+00  0.00000000000E+00  0.74505805969E-08  0.10566000000E+00  0.10566000000E+00 0.  1.
     999900   -1    0    0    0    0 -0.00000000000E+00 -0.00000000000E+00 -0.74505805969E-08  0.93827000000E+00  0.93827000000E+00 0.  1.
     999902    2    1    2    0    0  0.13425069333E-01  0.81543454938E-03  0.33661908596E-02  0.10300653449E+01  0.10299720317E+01 0.  0.
     999903    2    3    3    0    0  0.98443274357E-02 -0.13166344244E+00  0.16839089510E-02  0.14014045783E+00  0.46950394181E-01 0.  0.
         14    1    1    2    0    0 -0.13425069333E-01 -0.81543454938E-03 -0.33661908596E-02  0.13864655098E-01  0.00000000000E+00 0. -1.
     999901    1    3    3    0    0  0.35807418972E-02  0.13247887699E+00  0.16822819086E-02  0.88992488707E+00  0.88000000000E+00 0. -1.
        -11    1    4    4    0    0  0.67134134603E-02 -0.47679163217E-01 -0.21829124362E-01  0.52869124419E-01  0.51100000000E-03 0. -1.
         11    1    4    4    0    0  0.31309139754E-02 -0.83984279220E-01  0.23513033313E-01  0.87271333409E-01  0.51100000000E-03 0.  1.
</event>
<event>
 8    1  0.2001339E+004  0.1043930E+01  0.7957747E-01            NaN
         13   -1    0    0    0    0  0.00000000000E+00  0.00000000000E+00  0.74505805969E-08  0.10566000000E+00  0.10566000000E+00 0. -1.
     999900   -1    0    0    0    0 -0.00000000000E+00 -0.00000000000E+00 -0.74505805969E-08  0.93827000000E+00  0.93827000000E+00 0. -1.
     999902    2    1    2    0    0  0.49972595729E-02 -0.17683198146E-02 -0.12937160009E-01  0.10299489533E+01  0.10298540560E+01 0.  0.
     999903    2    3    3    0    0  0.19006605383E-01  0.41642790036E-01  0.12287641492E+00  0.13836266281E+00  0.44161522921E-01 0.  0.
         14    1    1    2    0    0 -0.49972595729E-02  0.17683198146E-02  0.12937160009E-01  0.13981046717E-01  0.00000000000E+00 0. -1.
     999901    1    3    3    0    0 -0.14009345810E-01 -0.43411109851E-01 -0.13581357492E+00  0.89158629047E+00  0.88000000000E+00 0. -1.
        -11    1    4    4    0    0  0.12676632560E-01  0.11726950864E-01  0.72085703047E-02  0.18720122768E-01  0.51100000000E-03 0.  1.
         11    1    4    4    0    0  0.63299728234E-02  0.29915839172E-01  0.11566784461E+00  0.11964254004E+00  0.51100000000E-03 0. -1.
</event>
<event>
 7    1  0.2001339E+004  0.1043930E+01  0.7957747E-01            NaN
         13   -1    0    0    0    0  0.00000000000E+00  0.00000000000E+00  0.74505805969E-08  0.10566000000E+00  0.10566000000E+00 0. -1.
     999900   -1    0    0    0    0 -0.00000000000E+00 -0.00000000000E+00 -0.74505805969E-08  0.93827000000E+00  0.93827000000E+00 0.  1.
     999902    2    1    2    0    0  0.10774740032E-01  0.41265902229E-02 -0.81003915000E-02  0.10298324785E+01  0.10297359825E+01 0.  0.
         14    1    1    2    0    0 -0.10774740032E-01 -0.41265902229E-02  0.81003915000E-02  0.14097521487E-01  0.00000000000E+00 0. -1.
     999901    1    3    3    0    0  0.11801672445E+00 -0.39962335564E-01  0.40027262549E-01  0.88967809755E+00  0.88000000000E+00 0. -1.
        -11    1    3    3    0    0 -0.52164007726E-01  0.26785780168E-01 -0.56956704818E-01  0.81748939234E-01  0.51100000000E-03 0. -1.
         11    1    3    3    0    0 -0.55077976693E-01  0.17303145620E-01  0.88290507686E-02  0.58405441728E-01  0.51100000000E-03 0.  1.
</event>
<event>
 8    1  0.2001339E+004  0.1043930E+01  0.7957747E-01            NaN
         13   -1    0    0    0    0  0.00000000000E+00  0.00000000000E+00  0.74505805969E-08  0.10566000000E+00  0.10566000000E+00 0. -1.
     999900   -1    0    0    0    0 -0.00000000000E+00 -0.00000000000E+00 -0.74505805969E-08  0.93827000000E+00  0.93827000000E+00 0.  1.
     999902    2    1    2    0    0 -0.14276946575E-01  0.13057038358E-02 -0.34901121979E-02  0.10291747654E+01  0.10290689873E+01 0.  0.
     999903    2    3    3    0    0 -0.12362808437E+00 -0.27154016903E-01  0.42294328625E-01  0.14076954135E+00  0.44788499178E-01 0.  0.
         14    1    1    2    0    0  0.14276946575E-01 -0.13057038358E-02  0.34901121979E-02  0.14755234636E-01  0.00000000000E+00 0. -1.
     999901    1    3    3    0    0  0.10935113779E+00  0.28459720739E-01 -0.45784440823E-01  0.88840522402E+00  0.88000000000E+00 0.  1.
        -11    1    4    4    0    0 -0.40603120251E-01 -0.45399506869E-03 -0.60429045703E-02  0.41056026382E-01  0.51100000000E-03 0. -1.
         11    1    4    4    0    0 -0.83024964117E-01 -0.26700021834E-01  0.48337233195E-01  0.99713514964E-01  0.51100000000E-03 0.  1.
</event>
<event>
 8    1  0.2001339E+004  0.1043930E+01  0.7957747E-01            NaN
         13   -1    0    0    0    0  0.00000000000E+00  0.00000000000E+00  0.74505805969E-08  0.10566000000E+00  0.10566000000E+00 0. -1.
     999900   -1    0    0    0    0 -0.00000000000E+00 -0.00000000000E+00 -0.74505805969E-08  0.93827000000E+00  0.93827000000E+00 0.  1.
     999902    2    1    2    0    0 -0.35956351279E-02  0.82704085138E-02  0.10406454076E-01  0.10301596501E+01  0.10300676105E+01 0.  0.
     999903    2    3    3    0    0 -0.22042314517E-01 -0.21179528219E-01  0.12992616931E+00  0.14140066082E+00  0.46678703548E-01 0.  0.
         14    1    1    2    0    0  0.35956351279E-02 -0.82704085138E-02 -0.10406454076E-01  0.13770349864E-01  0.00000000000E+00 0.  1.
     999901    1    3    3    0    0  0.18446679389E-01  0.29449936733E-01 -0.11951971523E+00  0.88875898931E+00  0.88000000000E+00 0.  1.
        -11    1    4    4    0    0 -0.18704872366E-01  0.82371176790E-02  0.86207117061E-01  0.88598253430E-01  0.51100000000E-03 0.  1.
         11    1    4    4    0    0 -0.33374421515E-02 -0.29416645898E-01  0.43719052249E-01  0.52802407393E-01  0.51100000000E-03 0. -1.
</event>
<event>
 8    1  0.2001339E+004  0.1043930E+01  0.7957747E-01            NaN
         13   -1    0    0    0    0  0.00000000000E+00  0.00000000000E+00  0.74505805969E-08  0.10566000000E+00  0.10566000000E+00 0. -1.
     999900   -1    0    0    0    0 -0.00000000000E+00 -0.00000000000E+00 -0.74505805969E-08  0.93827000000E+00  0.93827000000E+00 0.  1.
     999902    2    1    2    0    0  0.57410534571E-02 -0.13645916566E-01  0.94697400394E-03  0.10290953280E+01  0.10289883996E+01 0.  0.
     999903    2    3    3    0    0 -0.58093426509E-01  0.11541534566E+00  0.11920773033E-01  0.13732625783E+00  0.44953843461E-01 0.  0.
         14    1    1    2    0    0 -0.57410534571E-02  0.13645916566E-01 -0.94697400394E-03  0.14834672005E-01  0.00000000000E+00 0. -1.
     999901    1    3    3    0    0  0.63834479966E-01 -0.12906126223E+00 -0.10973799029E-01  0.89176907017E+00  0.88000000000E+00 0. -1.
        -11    1    4    4    0    0 -0.24772952032E-01  0.68221861027E-01 -0.14140755365E-01  0.73946896877E-01  0.51100000000E-03 0. -1.
         11    1    4    4    0    0 -0.33320474476E-01  0.47193484634E-01  0.26061528398E-01  0.63379360952E-01  0.51100000000E-03 0.  1.
</event>
<event>
 8    1  0.2001339E+004  0.1043930E+01  0.7957747E-01            NaN
         13   -1    0    0    0    0  0.00000000000E+00  0.00000000000E+00  0.74505805969E-08  0.10566000000E+00  0.10566000000E+00 0. -1.
     999900   -1    0    0    0    0 -0.00000000000E+00 -0.00000000000E+00 -0.74505805969E-08  0.93827000000E+00  0.93827000000E+00 0. -1.
     999902    2    1    2    0    0 -0.10264635379E-01  0.33251954678E-02 -0.87666748541E-02  0.10300276890E+01  0.10299338648E+01 0.  0.
     999903    2    3    3    0    0 -0.76252433673E-01 -0.94143577736E-02 -0.11002083707E+00  0.14167579297E+00  0.45435470176E-01 0.  0.
         14    1    1    2    0    0  0.10264635379E-01 -0.33251954678E-02  0.87666748541E-02  0.13902311044E-01  0.00000000000E+00 0. -1.
     999901    1    3    3    0    0  0.65987798294E-01  0.12739553241E-01  0.10125416222E+00  0.88835189599E+00  0.88000000000E+00 0.  1.
        -11    1    4    4    0    0 -0.27494523937E-01 -0.13419704755E-01 -0.13461643262E-01  0.33429242925E-01  0.51100000000E-03 0. -1.
         11    1    4    4    0    0 -0.48757909736E-01  0.40053469811E-02 -0.96559193807E-01  0.10824655004E+00  0.51100000000E-03 0.  1.
</event>
<event>
 8    1  0.2001339E+004  0.1043930E+01  0.7957747E-01            NaN
         13   -1    0    0    0    0  0.00000000000E+00  0.00000000000E+00  0.74505805969E-08  0.10566000000E+00  0.10566000000E+00 0. -1.
     999900   -1    0    0    0    0 -0.00000000000E+00 -0.00000000000E+00 -0.74505805969E-08  0.93827000000E+00  0.93827000000E+00 0. -1.
     999902    2    1    2    0    0 -0.25157922007E-02  0.14445309112E-01 -0.32449512905E-02  0.10289124811E+01  0.10288028809E+01 0.  0.
     999903    2    3    3    0    0 -0.10404845507E+00  0.77677735496E-01 -0.20786427652E-01  0.14064736031E+00  0.49896821473E-01 0.  0.
         14    1    1    2    0    0  0.25157922007E-02 -0.14445309112E-01  0.32449512905E-02  0.15017518923E-01  0.00000000000E+00 0.  1.
     999901    1    3    3    0    0  0.10153266287E+00 -0.63232426384E-01  0.17541476361E-01  0.88826512077E+00  0.88000000000E+00 0. -1.
        -11    1    4    4    0    0 -0.47130162240E-01  0.63154869176E-01 -0.14995004267E-02  0.78818140779E-01  0.51100000000E-03 0.  1.
         11    1    4    4    0    0 -0.56918292833E-01  0.14522866321E-01 -0.19286927225E-01  0.61829219532E-01  0.51100000000E-03 0. -1.
</event>
<event>
 8    1  0.2001339E+004  0.1043930E+01  0.7957747E-01            NaN
         13   -1    0    0    0    0  0.00000000000E+00  0.00000000000E+00  0.74505805969E-08  0.10566000000E+00  0.10566000000E+00 0.  1.
     999900   -1    0    0    0    0 -0.00000000000E+00 -0.00000000000E+00 -0.74505805969E-08  0.93827000000E+00  0.93827000000E+00 0. -1.
     999902    2    1    2    0    0 -0.12730931962E-01 -0.97128786509E-04  0.11401055291E-02  0.10311477505E+01  0.10310685222E+01 0.  0.
     999903    2    3    3    0    0 -0.69406229023E-01  0.88614070783E-01  0.74592774940E-01  0.14183506031E+00  0.43398434206E-01 0.  0.
         14    1    1    2    0    0  0.12730931962E-01  0.97128786509E-04 -0.11401055291E-02  0.12782249538E-01  0.00000000000E+00 0. -1.
     999901    1    3    3    0    0  0.56675297061E-01 -0.88711199569E-01 -0.73452669410E-01  0.88931269015E+00  0.88000000000E+00 0.  1.
        -11    1    4    4    0    0 -0.44201263981E-02  0.37943625033E-01  0.24987016960E-01  0.45649406738E-01  0.51100000000E-03 0.  1.
         11    1    4    4    0    0 -0.64986102625E-01  0.50670445750E-01  0.49605757980E-01  0.96185653570E-01  0.51100000000E-03 0. -1.
</event>
<event>
 7    1  0.2001339E+004  0.1043930E+01  0.7957747E-01            NaN
         13   -1    0    0    0    0  0.00000000000E+00  0.00000000000E+00  0.74505805969E-08  0.10566000000E+00  0.10566000000E+00 0.  1.
     999900   -1    0    0    0    0 -0.00000000000E+00 -0.00000000000E+00 -0.74505805969E-08  0.93827000000E+00  0.93827000000E+00 0.  1.
     999902    2    1    2    0    0  0.59183162350E-02  0.90419956498E-02  0.90373916480E-02  0.10298424665E+01  0.10297461081E+01 0.  0.
         14    1    1    2    0    0 -0.59183162350E-02 -0.90419956498E-02 -0.90373916480E-02  0.14087533503E-01  0.00000000000E+00 0. -1.
     999901    1    3    3    0    0  0.12339738046E+00 -0.33245005919E-01  0.26138078775E-01  0.88961527813E+00  0.88000000000E+00 0. -1.
        -11    1    3    3    0    0 -0.72726850006E-01  0.20856059235E-02  0.11420119313E-01  0.73649336114E-01  0.51100000000E-03 0. -1.
         11    1    3    3    0    0 -0.44752214220E-01  0.40201395646E-01 -0.28520806439E-01  0.66577852252E-01  0.51100000000E-03 0.  1.
</event>
<event>
 8    1  0.2001339E+004  0.1043930E+01  0.7957747E-01            NaN
         13   -1    0    0    0    0  0.00000000000E+00  0.00000000000E+00  0.74505805969E-08  0.10566000000E+00  0.10566000000E+00 0. -1.
     999900   -1    0    0    0    0 -0.00000000000E+00 -0.00000000000E+00 -0.74505805969E-08  0.93827000000E+00  0.93827000000E+00 0.  1.
     999902    2    1    2    0    0 -0.45911875588E-02 -0.52801246462E-02 -0.10652231087E-01  0.10311852463E+01  0.10311064850E+01 0.  0.
     999903    2    3    3    0    0 -0.68189945217E-01 -0.81572400829E-01  0.80745876247E-01  0.14089376179E+00  0.45024775127E-01 0.  0.
         14    1    1    2    0    0  0.45911875588E-02  0.52801246462E-02  0.10652231087E-01  0.12744753690E-01  0.00000000000E+00 0.  1.
     999901    1    3    3    0    0  0.63598757658E-01  0.76292276183E-01 -0.91398107334E-01  0.89029148452E+00  0.88000000000E+00 0.  1.
        -11    1    4    4    0    0 -0.51180813525E-01 -0.83752785907E-01  0.66096974952E-01  0.11833459359E+00  0.51100000000E-03 0.  1.
         11    1    4    4    0    0 -0.17009131692E-01  0.21803850778E-02  0.14648901295E-01  0.22559168207E-01  0.51100000000E-03 0. -1.
</event>
<event>
 8    1  0.2001339E+004  0.1043930E+01  0.7957747E-01            NaN
         13   -1    0    0    0    0  0.00000000000E+00  0.00000000000E+00  0.74505805969E-08  0.10566000000E+00  0.10566000000E+00 0. -1.
     999900   -1    0    0    0    0 -0.00000000000E+00 -0.00000000000E+00 -0.74505805969E-08  0.93827000000E+00  0.93827000000E+00 0.  1.
     999902    2    1    2    0    0  0.13380432153E-01  0.36511568107E-02 -0.88572427099E-03  0.10300321074E+01  0.10299383433E+01 0.  0.
     999903    2    3    3    0    0  0.13011339957E+00  0.30551358451E-01  0.14850988567E-01  0.14177659764E+00  0.44912910439E-01 0.  0.
         14    1    1    2    0    0 -0.13380432153E-01 -0.36511568107E-02  0.88572427099E-03  0.13897892579E-01  0.00000000000E+00 0. -1.
     999901    1    3    3    0    0 -0.11673296742E+00 -0.26900201641E-01 -0.15736712838E-01  0.88825550978E+00  0.88000000000E+00 0.  1.
        -11    1    4    4    0    0  0.11371157068E+00  0.19231578756E-01 -0.24901242584E-02  0.11535439639E+00  0.51100000000E-03 0.  1.
         11    1    4    4    0    0  0.16401828895E-01  0.11319779695E-01  0.17341112825E-01  0.26422201242E-01  0.51100000000E-03 0. -1.
</event>
<event>
 8    1  0.2001339E+004  0.1043930E+01  0.7957747E-01            NaN
         13   -1    0    0    0    0  0.00000000000E+00  0.00000000000E+00  0.74505805969E-08  0.10566000000E+00  0.10566000000E+00 0. -1.
     999900   -1    0    0    0    0 -0.00000000000E+00 -0.00000000000E+00 -0.74505805969E-08  0.93827000000E+00  0.93827000000E+00 0. -1.
     999902    2    1    2    0    0 -0.21946456184E-02 -0.58722028796E-02  0.12331493970E-01  0.10300965268E+01  0.10300036357E+01 0.  0.
     999903    2    3    3    0    0  0.81756782012E-02 -0.69924870356E-01 -0.11105611934E+00  0.13912245823E+00  0.45445214608E-01 0.  0.
         14    1    1    2    0    0  0.21946456184E-02  0.58722028796E-02 -0.12331493970E-01  0.13833473157E-01  0.00000000000E+00 0.  1.
     999901    1    3    3    0    0 -0.10370323820E-01  0.64052667476E-01  0.12338761331E+00  0.89097406862E+00  0.88000000000E+00 0.  1.
        -11    1    4    4    0    0  0.27112072208E-01 -0.42980525199E-01 -0.65321741999E-01  0.82762196108E-01  0.51100000000E-03 0. -1.
         11    1    4    4    0    0 -0.18936394007E-01 -0.26944345157E-01 -0.45734377345E-01  0.56360262118E-01  0.51100000000E-03 0.  1.
</event>
<event>
 8    1  0.2001339E+004  0.1043930E+01  0.7957747E-01            NaN
         13   -1    0    0    0    0  0.00000000000E+00  0.00000000000E+00  0.74505805969E-08  0.10566000000E+00  0.10566000000E+00 0. -1.
     999900   -1    0    0    0    0 -0.00000000000E+00 -0.00000000000E+00 -0.74505805969E-08  0.93827000000E+00  0.93827000000E+00 0. -1.
     999902    2    1    2    0    0  0.75285342805E-02 -0.78365055545E-02 -0.50310389463E-02  0.10319549843E+01  0.10318855017E+01 0.  0.
     999903    2    3    3    0    0 -0.10672906198E+00 -0.80202972394E-01 -0.13689997197E-01  0.14158052299E+00  0.45100099952E-01 0.  0.
         14    1    1    2    0    0 -0.75285342805E-02  0.78365055545E-02  0.50310389463E-02  0.11975015683E-01  0.00000000000E+00 0. -1.
     999901    1    3    3    0    0  0.11425759626E+00  0.72366466839E-01  0.86589582507E-02  0.89037446133E+00  0.88000000000E+00 0. -1.
        -11    1    4    4    0    0 -0.55440913886E-01 -0.54961009589E-01  0.11861756650E-01  0.78964358412E-01  0.51100000000E-03 0. -1.
         11    1    4    4    0    0 -0.51288148091E-01 -0.25241962804E-01 -0.25551753847E-01  0.62616164578E-01  0.51100000000E-03 0.  1.
</event>
<event>
 8    1  0.2001339E+004  0.1043930E+01  0.7957747E-01            NaN
         13   -1    0    0    0    0  0.00000000000E+00  0.00000000000E+00  0.74505805969E-08  0.10566000000E+00  0.10566000000E+00 0.  1.
     999900   -1    0    0    0    0 -0.00000000000E+00 -0.00000000000E+00 -0.74505805969E-08  0.93827000000E+00  0.93827000000E+00 0.  1.
     999902    2    1    2    0    0  0.17041879534E-02 -0.81576050606E-03  0.24839374052E-01  0.10190188735E+01  0.10187143369E+01 0.  0.
     999903    2    3    3    0    0  0.70442505020E-03 -0.45520552724E-01  0.11696952418E+00  0.13308011569E+00  0.44224774399E-01 0.  0.
         14    1    1    2    0    0 -0.17041879534E-02  0.81576050606E-03 -0.24839374052E-01  0.24911126532E-01  0.00000000000E+00 0. -1.
     999901    1    3    3    0    0  0.99976290323E-03  0.44704792218E-01 -0.92130150125E-01  0.88593875778E+00  0.88000000000E+00 0.  1.
        -11    1    4    4    0    0  0.14967713751E-01 -0.46529944053E-01  0.84953821516E-01  0.98012657650E-01  0.51100000000E-03 0. -1.
         11    1    4    4    0    0 -0.14263288701E-01  0.10093913285E-02  0.32015702662E-01  0.35067458039E-01  0.51100000000E-03 0.  1.
</event>
<event>
 8    1  0.2001339E+004  0.1043930E+01  0.7957747E-01            NaN
         13   -1    0    0    0    0  0.00000000000E+00  0.00000000000E+00  0.74505805969E-08  0.10566000000E+00  0.10566000000E+00 0. -1.
     999900   -1    0    0    0    0 -0.00000000000E+00 -0.00000000000E+00 -0.74505805969E-08  0.93827000000E+00  0.93827000000E+00 0. -1.
     999902    2    1    2    0    0  0.51776754193E-02  0.11512070843E-01 -0.51839932617E-02  0.10302841258E+01  0.10301937536E+01 0.  0.
     999903    2    3    3    0    0 -0.46153996491E-01  0.12456989924E+00  0.14170209857E-01  0.14135690810E+00  0.46185814198E-01 0.  0.
         14    1    1    2    0    0 -0.51776754193E-02 -0.11512070843E-01  0.51839932617E-02  0.13645874248E-01  0.00000000000E+00 0.  1.
     999901    1    3    3    0    0  0.51331671910E-01 -0.11305782839E+00 -0.19354203118E-01  0.88892721765E+00  0.88000000000E+00 0. -1.
        -11    1    4    4    0    0 -0.11688882122E-01  0.51408022683E-01  0.27383123129E-01  0.59409690411E-01  0.51100000000E-03 0. -1.
         11    1    4    4    0    0 -0.34465114369E-01  0.73161876552E-01 -0.13212913272E-01  0.81947217690E-01  0.51100000000E-03 0.  1.
</event>
<event>
 8    1  0.2001339E+004  0.1043930E+01  0.7957747E-01            NaN
         13   -1    0    0    0    0  0.00000000000E+00  0.00000000000E+00  0.74505805969E-08  0.10566000000E+00  0.10566000000E+00 0.  1.
     999900   -1    0    0    0    0 -0.00000000000E+00 -0.00000000000E+00 -0.74505805969E-08  0.93827000000E+00  0.93827000000E+00 0.  1.
     999902    2    1    2    0    0 -0.96288061005E-02  0.69258741794E-02 -0.63556038155E-02  0.10304735763E+01  0.10303857123E+01 0.  0.
     999903    2    3    3    0    0  0.17344450829E-01  0.47121892701E-01 -0.12401534320E+00  0.14132393150E+00  0.45512037086E-01 0.  0.
         14    1    1    2    0    0  0.96288061005E-02 -0.69258741794E-02  0.63556038155E-02  0.13456423742E-01  0.00000000000E+00 0. -1.
     999901    1    3    3    0    0 -0.26973256930E-01 -0.40196018521E-01  0.11765973939E+00  0.88914964475E+00  0.88000000000E+00 0. -1.
        -11    1    4    4    0    0 -0.55513138324E-02  0.34885246005E-01 -0.39900945749E-01  0.53293002043E-01  0.51100000000E-03 0. -1.
         11    1    4    4    0    0  0.22895764662E-01  0.12236646696E-01 -0.84114397453E-01  0.88030929460E-01  0.51100000000E-03 0.  1.
</event>
<event>
 8    1  0.2001339E+004  0.1043930E+01  0.7957747E-01            NaN
         13   -1    0    0    0    0  0.00000000000E+00  0.00000000000E+00  0.74505805969E-08  0.10566000000E+00  0.10566000000E+00 0.  1.
     999900   -1    0    0    0    0 -0.00000000000E+00 -0.00000000000E+00 -0.74505805969E-08  0.93827000000E+00  0.93827000000E+00 0.  1.
     999902    2    1    2    0    0 -0.56164476089E-02  0.19460516571E-02 -0.11925102404E-01  0.10306055988E+01  0.10305194615E+01 0.  0.
     999903    2    3    3    0    0  0.11840905945E+00  0.51837881719E-01  0.26650577400E-01  0.13967372473E+00  0.45723350317E-01 0.  0.
         14    1    1    2    0    0  0.56164476089E-02 -0.19460516571E-02  0.11925102404E-01  0.13324401230E-01  0.00000000000E+00 0.  1.
     999901    1    3    3    0    0 -0.12402550706E+00 -0.49891830062E-01 -0.38575679804E-01  0.89093187404E+00  0.88000000000E+00 0. -1.
        -11    1    4    4    0    0  0.69091902417E-01  0.34067782800E-01  0.38208892180E-01  0.85991193544E-01  0.51100000000E-03 0. -1.
         11    1    4    4    0    0  0.49317157029E-01  0.17770098919E-01 -0.11558314779E-01  0.53682531187E-01  0.51100000000E-03 0.  1.
</event>
<event>
 8    1  0.2001339E+004  0.1043930E+01  0.7957747E-01            NaN
         13   -1    0    0    0    0  0.00000000000E+00  0.00000000000E+00  0.74505805969E-08  0.10566000000E+00  0.10566000000E+00 0. -1.
     999900   -1    0    0    0    0 -0.00000000000E+00 -0.00000000000E+00 -0.74505805969E-08  0.93827000000E+00  0.93827000000E+00 0. -1.
     999902    2    1    2    0    0  0.12457151552E-01 -0.48348937016E-02  0.24501762811E-02  0.10303447070E+01  0.10302551408E+01 0.  0.
     999903    2    3    3    0    0  0.61949355287E-01 -0.11949392495E+00  0.25843358422E-01  0.14121962433E+00  0.34037955313E-01 0.  0.
         14    1    1    2    0    0 -0.12457151552E-01  0.48348937016E-02 -0.24501762811E-02  0.13585292992E-01  0.00000000000E+00 0.  1.
     999901    1    3    3    0    0 -0.49492203736E-01  0.11465903124E+00 -0.23393182140E-01  0.88912508268E+00  0.88000000000E+00 0.  1.
        -11    1    4    4    0    0  0.66008602082E-01 -0.10876228953E+00  0.25325917887E-01  0.12972291398E+00  0.51100000000E-03 0. -1.
         11    1    4    4    0    0 -0.40592467952E-02 -0.10731635416E-01  0.51744053454E-03  0.11496710354E-01  0.51100000000E-03 0.  1.
</event>
<event>
 8    1  0.2001339E+004  0.1043930E+01  0.7957747E-01            NaN
         13   -1    0    0    0    0  0.00000000000E+00  0.00000000000E+00  0.74505805969E-08  0.10566000000E+00  0.10566000000E+00 0.  1.
     999900   -1    0    0    0    0 -0.00000000000E+00 -0.00000000000E+00 -0.74505805969E-08  0.93827000000E+00  0.93827000000E+00 0. -1.
     999902    2    1    2    0    0 -0.42212057225E-02  0.56973715793E-02  0.11706749946E-01  0.10302432687E+01  0.10301523509E+01 0.  0.
     999903    2    3    3    0    0 -0.77615139109E-01  0.10892994411E+00 -0.42717565696E-03  0.14109150116E+00  0.44908648128E-01 0.  0.
         14    1    1    2    0    0  0.42212057225E-02 -0.56973715793E-02 -0.11706749946E-01  0.13686731347E-01  0.00000000000E+00 0. -1.
     999901    1    3    3    0    0  0.73393933387E-01 -0.10323257253E+00  0.12133925603E-01  0.88915176750E+00  0.88000000000E+00 0. -1.
        -11    1    4    4    0    0 -0.73003964221E-01  0.76573148729E-01 -0.11862458522E-01  0.10646128377E+00  0.51100000000E-03 0. -1.
         11    1    4    4    0    0 -0.46111748885E-02  0.32356795383E-01  0.11435282865E-01  0.34630217390E-01  0.51100000000E-03 0.  1.
</event>
<event>
 8    1  0.2001339E+004  0.1043930E+01  0.7957747E-01            NaN
         13   -1    0    0    0    0  0.00000000000E+00  0.00000000000E+00  0.74505805969E-08  0.10566000000E+00  0.10566000000E+00 0.  1.
     999900   -1    0    0    0    0 -0.00000000000E+00 -0.00000000000E+00 -0.74505805969E-08  0.93827000000E+00  0.93827000000E+00 0. -1.
     999902    2    1    2    0    0  0.80688710403E-02  0.10788333540E-01  0.39664670552E-02  0.10298862227E+01  0.10297904661E+01 0.  0.
     999903    2    3    3    0    0 -0.89019634202E-01 -0.63379203217E-01 -0.71701722893E-01  0.13822895875E+00  0.44996547608E-01 0.  0.
         14    1    1    2    0    0 -0.80688710403E-02 -0.10788333540E-01 -0.39664670552E-02  0.14043777317E-01  0.00000000000E+00 0.  1.
     999901    1    3    3    0    0  0.97088505242E-01  0.74167536757E-01  0.75668189948E-01  0.89165726394E+00  0.88000000000E+00 0.  1.
        -11    1    4    4    0    0 -0.16522249139E-01  0.24969338273E-03 -0.27581302051E-01  0.32156436482E-01  0.51100000000E-03 0.  1.
         11    1    4    4    0    0 -0.72497385063E-01 -0.63628896600E-01 -0.44120420843E-01  0.10607252227E+00  0.51100000000E-03 0. -1.
</event>
<event>
 8    1  0.2001339E+004  0.1043930E+01  0.7957747E-01            NaN
         13   -1    0    0    0    0  0.00000000000E+00  0.00000000000E+00  0.74505805969E-08  0.10566000000E+00  0.10566000000E+00 0.  1.
     999900   -1    0    0    0    0 -0.00000000000E+00 -0.00000000000E+00 -0.74505805969E-08  0.93827000000E+00  0.93827000000E+00 0.  1.
     999902    2    1    2    0    0  0.12753168737E-01 -0.27973901463E-02  0.14781664543E-02  0.10307902252E+01  0.10307064736E+01 0.  0.
     999903    2    3    3    0    0 -0.76905545639E-01  0.77944435920E-02 -0.10905537186E+00  0.13929230876E+00  0.39167037781E-01 0.  0.
         14    1    1    2    0    0 -0.12753168737E-01  0.27973901463E-02 -0.14781664543E-02  0.13139774752E-01  0.00000000000E+00 0.  1.
     999901    1    3    3    0    0  0.89658714377E-01 -0.10591833738E-01  0.11053353831E+00  0.89149791649E+00  0.88000000000E+00 0. -1.
        -11    1    4    4    0    0 -0.29117234778E-01 -0.16013057674E-01 -0.40081378311E-01  0.52067354316E-01  0.51100000000E-03 0.  1.
         11    1    4    4    0    0 -0.47788310861E-01  0.23807501266E-01 -0.68973993547E-01  0.87224954447E-01  0.51100000000E-03 0. -1.
</event>
<event>
 8    1  0.2001339E+004  0.1043930E+01  0.7957747E-01            NaN
         13   -1    0    0    0    0  0.00000000000E+00  0.00000000000E+00  0.74505805969E-08  0.10566000000E+00  0.10566000000E+00 0.  1.
     999900   -1    0    0    0    0 -0.00000000000E+00 -0.00000000000E+00 -0.74505805969E-08  0.93827000000E+00  0.93827000000E+00 0. -1.
     999902    2    1    2    0    0 -0.15140558434E-01  0.41445021312E-02  0.18971232973E-02  0.10281182169E+01  0.10279966223E+01 0.  0.
     999903    2    3    3    0    0 -0.80462728000E-01 -0.81641750211E-01  0.65049173265E-01  0.13929064739E+00  0.45065103277E-01 0.  0.
         14    1    1    2    0    0  0.15140558434E-01 -0.41445021312E-02 -0.18971232973E-02  0.15811783088E-01  0.00000000000E+00 0.  1.
     999901    1    3    3    0    0  0.65322169566E-01  0.85786252342E-01 -0.63152049967E-01  0.88882756952E+00  0.88000000000E+00 0. -1.
        -11    1    4    4    0    0 -0.17538486310E-01 -0.50970349977E-02 -0.37581181397E-02  0.18653762108E-01  0.51100000000E-03 0. -1.
         11    1    4    4    0    0 -0.62924241689E-01 -0.76544715213E-01  0.68807291404E-01  0.12063688528E+00  0.51100000000E-03 0.  1.
</event>
<event>
 8    1  0.2001339E+004  0.1043930E+01  0.7957747E-01            NaN
         13   -1    0    0    0    0  0.00000000000E+00  0.00000000000E+00  0.74505805969E-08  0.10566000000E+00  0.10566000000E+00 0.  1.
     999900   -1    0    0    0    0 -0.00000000000E+00 -0.00000000000E+00 -0.74505805969E-08  0.93827000000E+00  0.93827000000E+00 0.  1.
     999902    2    1    2    0    0 -0.83516613440E-02 -0.44696992319E-02  0.94141627505E-02  0.10305750414E+01  0.10304885060E+01 0.  0.
     999903    2    3    3    0    0 -0.12060006717E+00  0.53189314302E-01  0.29732698853E-01  0.14134103995E+00  0.41470192155E-01 0.  0.
         14    1    1    2    0    0  0.83516613440E-02  0.44696992319E-02 -0.94141627505E-02  0.13354958582E-01  0.00000000000E+00 0. -1.
     999901    1    3    3    0    0  0.11224840582E+00 -0.57659013534E-01 -0.20318536103E-01  0.88923400146E+00  0.88000000000E+00 0. -1.
        -11    1    4    4    0    0 -0.70199790833E-01  0.83154707452E-02  0.14853615815E-01  0.72236062396E-01  0.51100000000E-03 0. -1.
         11    1    4    4    0    0 -0.50400276334E-01  0.44873843557E-01  0.14879083038E-01  0.69104977557E-01  0.51100000000E-03 0.  1.
</event>
<event>
 8    1  0.2001339E+004  0.1043930E+01  0.7957747E-01            NaN
         13   -1    0    0    0    0  0.00000000000E+00  0.00000000000E+00  0.74505805969E-08  0.10566000000E+00  0.10566000000E+00 0.  1.
     999900   -1    0    0    0    0 -0.00000000000E+00 -0.00000000000E+00 -0.74505805969E-08  0.93827000000E+00  0.93827000000E+00 0. -1.
     999902    2    1    2    0    0  0.91700285355E-02  0.60869957817E-02  0.15108393336E-01  0.10252376355E+01  0.10250672196E+01 0.  0.
     999903    2    3    3    0    0 -0.35248464532E-01 -0.60058164968E-01  0.10855769118E+00  0.13671022677E+00  0.45337361604E-01 0.  0.
         14    1    1    2    0    0 -0.91700285355E-02 -0.60869957817E-02 -0.15108393336E-01  0.18692364489E-01  0.00000000000E+00 0. -1.
     999901    1    3    3    0    0  0.44418493068E-01  0.66145160750E-01 -0.93449297847E-01  0.88852740874E+00  0.88000000000E+00 0. -1.
        -11    1    4    4    0    0 -0.14263987831E-01 -0.44168354593E-01  0.97827019734E-01  0.10828061603E+00  0.51100000000E-03 0.  1.
         11    1    4    4    0    0 -0.20984476701E-01 -0.15889810375E-01  0.10730671449E-01  0.28429610742E-01  0.51100000000E-03 0. -1.
</event>
<event>
 8    1  0.2001339E+004  0.1043930E+01  0.7957747E-01            NaN
         13   -1    0    0    0    0  0.00000000000E+00  0.00000000000E+00  0.74505805969E-08  0.10566000000E+00  0.10566000000E+00 0. -1.
     999900   -1    0    0    0    0 -0.00000000000E+00 -0.00000000000E+00 -0.74505805969E-08  0.93827000000E+00  0.93827000000E+00 0. -1.
     999902    2    1    2    0    0 -0.11851710493E-01  0.30290322492E-02  0.96846841445E-02  0.10283277186E+01  0.10282093491E+01 0.  0.
     999903    2    3    3    0    0  0.12024080223E+00  0.10738060268E-01 -0.44628289045E-01  0.13677976134E+00  0.46301862496E-01 0.  0.
         14    1    1    2    0    0  0.11851710493E-01 -0.30290322492E-02 -0.96846841445E-02  0.15602281402E-01  0.00000000000E+00 0.  1.
     999901    1    3    3    0    0 -0.13209251272E+00 -0.77090280192E-02  0.54312973190E-01  0.89154795726E+00  0.88000000000E+00 0.  1.
        -11    1    4    4    0    0  0.31142126822E-01 -0.75126337804E-02 -0.31421338239E-01  0.44875754557E-01  0.51100000000E-03 0.  1.
         11    1    4    4    0    0  0.89098675407E-01  0.18250694049E-01 -0.13206950806E-01  0.91904006785E-01  0.51100000000E-03 0. -1.
</event>
<event>
 8    1  0.2001339E+004  0.1043930E+01  0.7957747E-01            NaN
         13   -1    0    0    0    0  0.00000000000E+00  0.00000000000E+00  0.74505805969E-08  0.10566000000E+00  0.10566000000E+00 0.  1.
     999900   -1    0    0    0    0 -0.00000000000E+00 -0.00000000000E+00 -0.74505805969E-08  0.93827000000E+00  0.93827000000E+00 0.  1.
     999902    2    1    2    0    0 -0.63542914595E-02  0.62020078856E-02 -0.10747496324E-01  0.10299890316E+01  0.10298946814E+01 0.  0.
     999903    2    3    3    0    0 -0.10216584510E+00 -0.79284383910E-01  0.29116227495E-01  0.13977731891E+00  0.44340396273E-01 0.  0.
         14    1    1    2    0    0  0.63542914595E-02 -0.62020078856E-02  0.10747496324E-01  0.13940968367E-01  0.00000000000E+00 0. -1.
     999901    1    3    3    0    0  0.95811553638E-01  0.85486391796E-01 -0.39863723819E-01  0.89021171272E+00  0.88000000000E+00 0.  1.
        -11    1    4    4    0    0 -0.45815284439E-01 -0.48764149922E-01 -0.51401852040E-02  0.67109352782E-01  0.51100000000E-03 0.  1.
         11    1    4    4    0    0 -0.56350560658E-01 -0.30520233988E-01  0.34256412699E-01  0.72667966128E-01  0.51100000000E-03 0. -1.
</event>
<event>
 8    1  0.2001339E+004  0.1043930E+01  0.7957747E-01            NaN
         13   -1    0    0    0    0  0.00000000000E+00  0.00000000000E+00  0.74505805969E-08  0.10566000000E+00  0.10566000000E+00 0. -1.
     999900   -1    0    0    0    0 -0.00000000000E+00 -0.00000000000E+00 -0.74505805969E-08  0.93827000000E+00  0.93827000000E+00 0. -1.
     999902    2    1    2    0    0 -0.14810748867E-02  0.11722748892E-01 -0.68434069343E-02  0.10302753802E+01  0.10301848913E+01 0.  0.
     999903    2    3    3    0    0  0.61523312488E-01  0.43147600583E-01  0.10909829471E+00  0.13988245998E+00  0.44920276992E-01 0.  0.
         14    1    1    2    0    0  0.14810748867E-02 -0.11722748892E-01  0.68434069343E-02  0.13654619836E-01  0.00000000000E+00 0. -1.
     999901    1    3    3    0    0 -0.63004387374E-01 -0.31424851691E-01 -0.11594170165E+00  0.89039292018E+00  0.88000000000E+00 0.  1.
        -11    1    4    4    0    0  0.18122180256E-01  0.38544406892E-01  0.41871209370E-01  0.59728921093E-01  0.51100000000E-03 0. -1.
         11    1    4    4    0    0  0.43401132232E-01  0.46031936908E-02  0.67227085344E-01  0.80153538887E-01  0.51100000000E-03 0.  1.
</event>
<event>
 8    1  0.2001339E+004  0.1043930E+01  0.7957747E-01            NaN
         13   -1    0    0    0    0  0.00000000000E+00  0.00000000000E+00  0.74505805969E-08  0.10566000000E+00  0.10566000000E+00 0. -1.
     999900   -1    0    0    0    0 -0.00000000000E+00 -0.00000000000E+00 -0.74505805969E-08  0.93827000000E+00  0.93827000000E+00 0. -1.
     999902    2    1    2    0    0 -0.72941314897E-03 -0.14305498833E-01  0.44600160590E-02  0.10289276307E+01  0.10288182532E+01 0.  0.
     999903    2    3    3    0    0  0.50780015023E-01  0.51823032658E-01 -0.10833168717E+00  0.13777771507E+00  0.44527605874E-01 0.  0.
         14    1    1    2    0    0  0.72941314897E-03  0.14305498833E-01 -0.44600160590E-02  0.15002369268E-01  0.00000000000E+00 0. -1.
     999901    1    3    3    0    0 -0.51509428172E-01 -0.66128531491E-01  0.11279170323E+00  0.89114991566E+00  0.88000000000E+00 0.  1.
        -11    1    4    4    0    0  0.34165317161E-01  0.47518031249E-02 -0.53172817311E-01  0.63383421740E-01  0.51100000000E-03 0.  1.
         11    1    4    4    0    0  0.16614697861E-01  0.47071229533E-01 -0.55158869861E-01  0.74394293330E-01  0.51100000000E-03 0. -1.
</event>
<event>
 8    1  0.2001339E+004  0.1043930E+01  0.7957747E-01            NaN
         13   -1    0    0    0    0  0.00000000000E+00  0.00000000000E+00  0.74505805969E-08  0.10566000000E+00  0.10566000000E+00 0. -1.
     999900   -1    0    0    0    0 -0.00000000000E+00 -0.00000000000E+00 -0.74505805969E-08  0.93827000000E+00  0.93827000000E+00 0.  1.
     999902    2    1    2    0    0 -0.59068935178E-02  0.10895702668E-01 -0.64303526756E-02  0.10299672938E+01  0.10298726471E+01 0.  0.
     999903    2    3    3    0    0 -0.18238149378E-02  0.78961288848E-01 -0.10826328591E+00  0.14147444534E+00  0.45341682482E-01 0.  0.
         14    1    1    2    0    0  0.59068935178E-02 -0.10895702668E-01  0.64303526756E-02  0.13962706156E-01  0.00000000000E+00 0. -1.
     999901    1    3    3    0    0 -0.40830785800E-02 -0.68065586180E-01  0.10183293324E+00  0.88849284850E+00  0.88000000000E+00 0. -1.
        -11    1    4    4    0    0  0.79848957045E-03  0.24512792473E-01 -0.71837857783E-01  0.75910826054E-01  0.51100000000E-03 0.  1.
         11    1    4    4    0    0 -0.26223045082E-02  0.54448496375E-01 -0.36425428129E-01  0.65563619285E-01  0.51100000000E-03 0. -1.
</event>
<event>
 8    1  0.2001339E+004  0.1043930E+01  0.7957747E-01            NaN
         13   -1    0    0    0    0  0.00000000000E+00  0.00000000000E+00  0.74505805969E-08  0.10566000000E+00  0.10566000000E+00 0. -1.
     999900   -1    0    0    0    0 -0.00000000000E+00 -0.00000000000E+00 -0.74505805969E-08  0.93827000000E+00  0.93827000000E+00 0. -1.
     999902    2    1    2    0    0  0.67276781095E-02  0.89211511423E-02 -0.90245368447E-02  0.10295671710E+01  0.10294669829E+01 0.  0.
     999903    2    3    3    0    0  0.24102763525E-01  0.88914239988E-01  0.94480926700E-01  0.13972776483E+00  0.45940368665E-01 0.  0.
         14    1    1    2    0    0 -0.67276781095E-02 -0.89211511423E-02  0.90245368447E-02  0.14362828959E-01  0.00000000000E+00 0. -1.
     999901    1    3    3    0    0 -0.17375085416E-01 -0.79993088845E-01 -0.10350546354E+00  0.88983940621E+00  0.88000000000E+00 0. -1.
        -11    1    4    4    0    0  0.54809154371E-02  0.77046066546E-01  0.87152007123E-01  0.11645544329E+00  0.51100000000E-03 0. -1.
         11    1    4    4    0    0  0.18621848088E-01  0.11868173442E-01  0.73289195773E-02  0.23272321548E-01  0.51100000000E-03 0.  1.
</event>
<event>
 8    1  0.2001339E+004  0.1043930E+01  0.7957747E-01            NaN
         13   -1    0    0    0    0  0.00000000000E+00  0.00000000000E+00  0.74505805969E-08  0.10566000000E+00  0.10566000000E+00 0.  1.
     999900   -1    0    0    0    0 -0.00000000000E+00 -0.00000000000E+00 -0.74505805969E-08  0.93827000000E+00  0.93827000000E+00 0. -1.
     999902    2    1    2    0    0 -0.11003733018E-01 -0.73750984507E-02 -0.16905868383E-03  0.10306822531E+01  0.10305971104E+01 0.  0.
     999903    2    3    3    0    0 -0.10238626081E+00 -0.28268859209E-01 -0.82548753490E-01  0.14187758965E+00  0.45087458788E-01 0.  0.
         14    1    1    2    0    0  0.11003733018E-01  0.73750984507E-02  0.16905868383E-03  0.13247746915E-01  0.00000000000E+00 0.  1.
     999901    1    3    3    0    0  0.91382527788E-01  0.20893760758E-01  0.82379694807E-01  0.88880466343E+00  0.88000000000E+00 0.  1.
        -11    1    4    4    0    0 -0.86896475633E-01 -0.19529869852E-01 -0.43829014217E-01  0.99265587704E-01  0.51100000000E-03 0. -1.
         11    1    4    4    0    0 -0.15489785172E-01 -0.87389893566E-02 -0.38719739273E-01  0.42612001948E-01  0.51100000000E-03 0.  1.
</event>
<event>
 8    1  0.2001339E+004  0.1043930E+01  0.7957747E-01            NaN
         13   -1    0    0    0    0  0.00000000000E+00  0.00000000000E+00  0.74505805969E-08  0.10566000000E+00  0.10566000000E+00 0. -1.
     999900   -1    0    0    0    0 -0.00000000000E+00 -0.00000000000E+00 -0.74505805969E-08  0.93827000000E+00  0.93827000000E+00 0.  1.
     999902    2    1    2    0    0  0.35933166110E-02 -0.77256720566E-02 -0.10488820164E-01  0.10304165518E+01  0.10303279366E+01 0.  0.
     999903    2    3    3    0    0 -0.20519961477E-01  0.11729158258E+00 -0.59320211634E-01  0.13991373380E+00  0.43342602980E-01 0.  0.
         14    1    1    2    0    0 -0.35933166110E-02  0.77256720566E-02  0.10488820164E-01  0.13513448169E-01  0.00000000000E+00 0. -1.
     999901    1    3    3    0    0  0.24113278088E-01 -0.12501725464E+00  0.48831391470E-01  0.89050281804E+00  0.88000000000E+00 0.  1.
        -11    1    4    4    0    0 -0.23099283222E-01  0.85549044407E-01 -0.22889668443E-01  0.91522750870E-01  0.51100000000E-03 0.  1.
         11    1    4    4    0    0  0.25793217454E-02  0.31742538173E-01 -0.36430543190E-01  0.48390982925E-01  0.51100000000E-03 0. -1.
</event>
<event>
 8    1  0.2001339E+004  0.1043930E+01  0.7957747E-01            NaN
         13   -1    0    0    0    0  0.00000000000E+00  0.00000000000E+00  0.74505805969E-08  0.10566000000E+00  0.10566000000E+00 0.  1.
     999900   -1    0    0    0    0 -0.00000000000E+00 -0.00000000000E+00 -0.74505805969E-08  0.93827000000E+00  0.93827000000E+00 0.  1.
     999902    2    1    2    0    0  0.93731714295E-04 -0.21551798816E-02  0.14441389215E-01  0.10293283799E+01  0.10292248085E+01 0.  0.
     999903    2    3    3    0    0 -0.79891149783E-01 -0.78357411027E-01  0.71784156564E-01  0.14056938321E+00  0.45654207755E-01 0.  0.
         14    1    1    2    0    0 -0.93731714295E-04  0.21551798816E-02 -0.14441389215E-01  0.14601620061E-01  0.00000000000E+00 0. -1.
     999901    1    3    3    0    0  0.79984881497E-01  0.76202231145E-01 -0.57342767349E-01  0.88875899673E+00  0.88000000000E+00 0. -1.
        -11    1    4    4    0    0 -0.24320768314E-01 -0.34931997139E-01  0.40099654928E-02  0.42756112308E-01  0.51100000000E-03 0.  1.
         11    1    4    4    0    0 -0.55570381469E-01 -0.43425413888E-01  0.67774191072E-01  0.97813270901E-01  0.51100000000E-03 0. -1.
</event>
<event>
 8    1  0.2001339E+004  0.1043930E+01  0.7957747E-01            NaN
         13   -1    0    0    0    0  0.00000000000E+00  0.00000000000E+00  0.74505805969E-08  0.10566000000E+00  0.10566000000E+00 0. -1.
     999900   -1    0    0    0    0 -0.00000000000E+00 -0.00000000000E+00 -0.74505805969E-08  0.93827000000E+00  0.93827000000E+00 0.  1.
     999902    2    1    2    0    0 -0.11585945784E-01  0.28026101739E-02 -0.67070135350E-02  0.10302525443E+01  0.10301617505E+01 0.  0.
     999903    2    3    3    0    0  0.10667970710E+00 -0.47785634164E-01  0.59780865937E-01  0.13841927894E+00  0.43841967458E-01 0.  0.
         14    1    1    2    0    0  0.11585945784E-01 -0.28026101739E-02  0.67070135350E-02  0.13677455687E-01  0.00000000000E+00 0. -1.
     999901    1    3    3    0    0 -0.11826565288E+00  0.50588244338E-01 -0.66487879472E-01  0.89183326538E+00  0.88000000000E+00 0.  1.
        -11    1    4    4    0    0  0.80184237330E-01 -0.51821843131E-01  0.57648509980E-01  0.11152859349E+00  0.51100000000E-03 0.  1.
         11    1    4    4    0    0  0.26495469765E-01  0.40362089662E-02  0.21323559567E-02  0.26890685447E-01  0.51100000000E-03 0. -1.
</event>
<event>
 8    1  0.2001339E+004  0.1043930E+01  0.7957747E-01            NaN
         13   -1    0    0    0    0  0.00000000000E+00  0.00000000000E+00  0.74505805969E-08  0.10566000000E+00  0.10566000000E+00 0. -1.
     999900   -1    0    0    0    0 -0.00000000000E+00 -0.00000000000E+00 -0.74505805969E-08  0.93827000000E+00  0.93827000000E+00 0. -1.
     999902    2    1    2    0    0  0.74092639094E-02  0.46851415728E-03 -0.12903852160E-01  0.10290428882E+01  0.10289351970E+01 0.  0.
     999903    2    3    3    0    0 -0.21665950945E-01  0.95479289448E-01 -0.89850540743E-01  0.14011476488E+00  0.44422061214E-01 0.  0.
         14    1    1    2    0    0 -0.74092639094E-02 -0.46851415728E-03  0.12903852160E-01  0.14887111800E-01  0.00000000000E+00 0. -1.
     999901    1    3    3    0    0  0.29075214854E-01 -0.95010775290E-01  0.76946688583E-01  0.88892812332E+00  0.88000000000E+00 0.  1.
        -11    1    4    4    0    0  0.10833756155E-01  0.31561648669E-01 -0.15425659420E-01  0.36765745316E-01  0.51100000000E-03 0.  1.
         11    1    4    4    0    0 -0.32499707100E-01  0.63917640779E-01 -0.74424881324E-01  0.10334901957E+00  0.51100000000E-03 0. -1.
</event>
<event>
 8    1  0.2001339E+004  0.1043930E+01  0.7957747E-01            NaN
         13   -1    0    0    0    0  0.00000000000E+00  0.00000000000E+00  0.74505805969E-08  0.10566000000E+00  0.10566000000E+00 0. -1.
     999900   -1    0    0    0    0 -0.00000000000E+00 -0.00000000000E+00 -0.74505805969E-08  0.93827000000E+00  0.93827000000E+00 0.  1.
     999902    2    1    2    0    0 -0.55344558647E-02 -0.12479818787E-01  0.15889119516E-02  0.10301858842E+01  0.10300941973E+01 0.  0.
     999903    2    3    3    0    0 -0.10960439684E+00  0.38152359003E-01  0.63971863644E-01  0.14041860971E+00  0.46435550086E-01 0.  0.
         14    1    1    2    0    0  0.55344558647E-02  0.12479818787E-01 -0.15889119516E-02  0.13744115827E-01  0.00000000000E+00 0.  1.
     999901    1    3    3    0    0  0.10406994097E+00 -0.50632177789E-01 -0.62382951692E-01  0.88976727446E+00  0.88000000000E+00 0.  1.
        -11    1    4    4    0    0 -0.74772060555E-01  0.47603514914E-01  0.41268216294E-01  0.97776696962E-01  0.51100000000E-03 0. -1.
         11    1    4    4    0    0 -0.34832336282E-01 -0.94511559109E-02  0.22703647350E-01  0.42641912749E-01  0.51100000000E-03 0.  1.
</event>
<event>
 8    1  0.2001339E+004  0.1043930E+01  0.7957747E-01            NaN
         13   -1    0    0    0    0  0.00000000000E+00  0.00000000000E+00  0.74505805969E-08  0.10566000000E+00  0.10566000000E+00 0. -1.
     999900   -1    0    0    0    0 -0.00000000000E+00 -0.00000000000E+00 -0.74505805969E-08  0.93827000000E+00  0.93827000000E+00 0.  1.
     999902    2    1    2    0    0  0.41432969860E-02  0.13417242071E-01 -0.35099277936E-02  0.10294555782E+01  0.10293538160E+01 0.  0.
     999903    2    3    3    0    0  0.71084364299E-01  0.79961648879E-02 -0.10594093227E+00  0.14097226078E+00  0.59437123747E-01 0.  0.
         14    1    1    2    0    0 -0.41432969860E-02 -0.13417242071E-01  0.35099277936E-02  0.14474421847E-01  0.00000000000E+00 0.  1.
     999901    1    3    3    0    0 -0.66941067313E-01  0.54210771829E-02  0.10243100447E+00  0.88848331737E+00  0.88000000000E+00 0. -1.
        -11    1    4    4    0    0  0.79734804802E-01  0.32991146712E-02 -0.79035858920E-01  0.11231852639E+00  0.51100000000E-03 0. -1.
         11    1    4    4    0    0 -0.86504405036E-02  0.46970502167E-02 -0.26905073347E-01  0.28653734390E-01  0.51100000000E-03 0.  1.
</event>
<event>
 8    1  0.2001339E+004  0.1043930E+01  0.7957747E-01            NaN
         13   -1    0    0    0    0  0.00000000000E+00  0.00000000000E+00  0.74505805969E-08  0.10566000000E+00  0.10566000000E+00 0. -1.
     999900   -1    0    0    0    0 -0.00000000000E+00 -0.00000000000E+00 -0.74505805969E-08  0.93827000000E+00  0.93827000000E+00 0.  1.
     999902    2    1    2    0    0  0.33256726528E-02  0.49787832246E-02  0.10685801277E-01  0.10316811335E+01  0.10316084173E+01 0.  0.
     999903    2    3    3    0    0  0.10657088400E+00 -0.69500507609E-01  0.44175526158E-01  0.14188997820E+00  0.44649915187E-01 0.  0.
         14    1    1    2    0    0 -0.33256726528E-02 -0.49787832246E-02 -0.10685801277E-01  0.12248866475E-01  0.00000000000E+00 0.  1.
     999901    1    3    3    0    0 -0.10324521135E+00  0.74479290833E-01 -0.33489724881E-01  0.88979115533E+00  0.88000000000E+00 0.  1.
        -11    1    4    4    0    0  0.19056133258E-01 -0.27404389923E-01 -0.37524808827E-02  0.33592842029E-01  0.51100000000E-03 0. -1.
         11    1    4    4    0    0  0.87514750744E-01 -0.42096117685E-01  0.47928007041E-01  0.10829713617E+00  0.51100000000E-03 0.  1.
</event>
<event>
 8    1  0.2001339E+004  0.1043930E+01  0.7957747E-01            NaN
         13   -1    0    0    0    0  0.00000000000E+00  0.00000000000E+00  0.74505805969E-08  0.10566000000E+00  0.10566000000E+00 0. -1.
     999900   -1    0    0    0    0 -0.00000000000E+00 -0.00000000000E+00 -0.74505805969E-08  0.93827000000E+00  0.93827000000E+00 0.  1.
     999902    2    1    2    0    0 -0.80647431023E-02 -0.74977872869E-02 -0.71982556449E-02  0.10307743252E+01  0.10306903695E+01 0.  0.
     999903    2    3    3    0    0 -0.10423986623E+00  0.80487885720E-01 -0.20527082332E-01  0.14107280749E+00  0.46216084265E-01 0.  0.
         14    1    1    2    0    0  0.80647431023E-02  0.74977872869E-02  0.71982556449E-02  0.13155674815E-01  0.00000000000E+00 0.  1.
     999901    1    3    3    0    0  0.96175123131E-01 -0.87985673007E-01  0.13328826687E-01  0.88970151769E+00  0.88000000000E+00 0. -1.
        -11    1    4    4    0    0 -0.45747343551E-01  0.22175507709E-01  0.12109278100E-01  0.52263451103E-01  0.51100000000E-03 0.  1.
         11    1    4    4    0    0 -0.58492522682E-01  0.58312378011E-01 -0.32636360432E-01  0.88809356389E-01  0.51100000000E-03 0. -1.
</event>
<event>
 8    1  0.2001339E+004  0.1043930E+01  0.7957747E-01            NaN
         13   -1    0    0    0    0  0.00000000000E+00  0.00000000000E+00  0.74505805969E-08  0.10566000000E+00  0.10566000000E+00 0.  1.
     999900   -1    0    0    0    0 -0.00000000000E+00 -0.00000000000E+00 -0.74505805969E-08  0.93827000000E+00  0.93827000000E+00 0.  1.
     999902    2    1    2    0    0  0.12317327266E-01  0.42575119578E-02 -0.39964667087E-02  0.10302986132E+01  0.10302084341E+01 0.  0.
     999903    2    3    3    0    0  0.54438409979E-01 -0.21351176651E-01 -0.12042993532E+00  0.14126163810E+00  0.45078463279E-01 0.  0.
         14    1    1    2    0    0 -0.12317327266E-01 -0.42575119578E-02  0.39964667087E-02  0.13631386767E-01  0.00000000000E+00 0. -1.
     999901    1    3    3    0    0 -0.42121082713E-01  0.25608688609E-01  0.11643346861E+00  0.88903697513E+00  0.88000000000E+00 0. -1.
        -11    1    4    4    0    0  0.28840175047E-01 -0.21079433182E-01 -0.28116836697E-01  0.45463345971E-01  0.51100000000E-03 0.  1.
         11    1    4    4    0    0  0.25598234932E-01 -0.27174346934E-03 -0.92313098624E-01  0.95798292129E-01  0.51100000000E-03 0. -1.
</event>
<event>
 8    1  0.2001339E+004  0.1043930E+01  0.7957747E-01            NaN
         13   -1    0    0    0    0  0.00000000000E+00  0.00000000000E+00  0.74505805969E-08  0.10566000000E+00  0.10566000000E+00 0.  1.
     999900   -1    0    0    0    0 -0.00000000000E+00 -0.00000000000E+00 -0.74505805969E-08  0.93827000000E+00  0.93827000000E+00 0.  1.
     999902    2    1    2    0    0  0.87207673465E-02 -0.10165786395E-01  0.16757532113E-02  0.10304317355E+01  0.10303433206E+01 0.  0.
     999903    2    3    3    0    0  0.10948021145E+00 -0.49608689826E-01  0.58894002800E-01  0.14195993723E+00  0.47298852068E-01 0.  0.
         14    1    1    2    0    0 -0.87207673465E-02  0.10165786395E-01 -0.16757532113E-02  0.13498264517E-01  0.00000000000E+00 0.  1.
     999901    1    3    3    0    0 -0.10075944410E+00  0.39442903431E-01 -0.57218249589E-01  0.88847179825E+00  0.88000000000E+00 0.  1.
        -11    1    4    4    0    0  0.40974004125E-01 -0.27471824113E-01  0.62346840203E-03  0.49337814787E-01  0.51100000000E-03 0.  1.
         11    1    4    4    0    0  0.68506207324E-01 -0.22136865713E-01  0.58270534398E-01  0.92622122442E-01  0.51100000000E-03 0. -1.
</event>
<event>
 8    1  0.2001339E+004  0.1043930E+01  0.7957747E-01            NaN
         13   -1    0    0    0    0  0.00000000000E+00  0.00000000000E+00  0.74505805969E-08  0.10566000000E+00  0.10566000000E+00 0. -1.
     999900   -1    0    0    0    0 -0.00000000000E+00 -0.00000000000E+00 -0.74505805969E-08  0.93827000000E+00  0.93827000000E+00 0.  1.
     999902    2    1    2    0    0 -0.29797883352E-02  0.64006455878E-02  0.11523243405E-01  0.10304158392E+01  0.10303272146E+01 0.  0.
     999903    2    3    3    0    0  0.62616806405E-01  0.11728132831E+00  0.17297912016E-01  0.14101672420E+00  0.43711832835E-01 0.  0.
         14    1    1    2    0    0  0.29797883352E-02 -0.64006455878E-02 -0.11523243405E-01  0.13514160760E-01  0.00000000000E+00 0.  1.
     999901    1    3    3    0    0 -0.65596594741E-01 -0.11088068272E+00 -0.57746686107E-02  0.88939911504E+00  0.88000000000E+00 0.  1.
        -11    1    4    4    0    0  0.41815653049E-01  0.99053747053E-01 -0.15725995561E-02  0.10753105521E+00  0.51100000000E-03 0. -1.
         11    1    4    4    0    0  0.20801153356E-01  0.18227581253E-01  0.18870511572E-01  0.33485668984E-01  0.51100000000E-03 0.  1.
</event>
<event>
 8    1  0.2001339E+004  0.1043930E+01  0.7957747E-01            NaN
         13   -1    0    0    0    0  0.00000000000E+00  0.00000000000E+00  0.74505805969E-08  0.10566000000E+00  0.10566000000E+00 0.  1.
     999900   -1    0    0    0    0 -0.00000000000E+00 -0.00000000000E+00 -0.74505805969E-08  0.93827000000E+00  0.93827000000E+00 0. -1.
     999902    2    1    2    0    0 -0.64885096355E-02  0.32505616236E-02  0.12505294298E-01  0.10294714629E+01  0.10293699256E+01 0.  0.
     999903    2    3    3    0    0 -0.11608104891E+00  0.44387201011E-01  0.48546536115E-01  0.14098864439E+00  0.45563122688E-01 0.  0.
         14    1    1    2    0    0  0.64885096355E-02 -0.32505616236E-02 -0.12505294298E-01  0.14458537050E-01  0.00000000000E+00 0. -1.
     999901    1    3    3    0    0  0.10959253927E+00 -0.41136639387E-01 -0.36041241817E-01  0.88848281856E+00  0.88000000000E+00 0.  1.
        -11    1    4    4    0    0 -0.78237626453E-01  0.27546364152E-01  0.54338902447E-01  0.99161009531E-01  0.51100000000E-03 0. -1.
         11    1    4    4    0    0 -0.37843422455E-01  0.16840836859E-01 -0.57923663325E-02  0.41827634859E-01  0.51100000000E-03 0.  1.
</event>
<event>
 8    1  0.2001339E+004  0.1043930E+01  0.7957747E-01            NaN
         13   -1    0    0    0    0  0.00000000000E+00  0.00000000000E+00  0.74505805969E-08  0.10566000000E+00  0.10566000000E+00 0. -1.
     999900   -1    0    0    0    0 -0.00000000000E+00 -0.00000000000E+00 -0.74505805969E-08  0.93827000000E+00  0.93827000000E+00 0. -1.
     999902    2    1    2    0    0 -0.51513313903E-02 -0.10852710710E-01 -0.67386452316E-02  0.10301558618E+01  0.10300637711E+01 0.  0.
     999903    2    3    3    0    0 -0.11434098343E+00  0.41393932736E-01  0.52424356613E-01  0.13990176732E+00  0.45131731360E-01 0.  0.
         14    1    1    2    0    0  0.51513313903E-02  0.10852710710E-01  0.67386452316E-02  0.13774138246E-01  0.00000000000E+00 0. -1.
     999901    1    3    3    0    0  0.10918965204E+00 -0.52246643447E-01 -0.59163001844E-01  0.89025409443E+00  0.88000000000E+00 0. -1.
        -11    1    4    4    0    0 -0.74428033755E-01  0.10310812848E-01  0.14144292909E-01  0.76460232887E-01  0.51100000000E-03 0. -1.
         11    1    4    4    0    0 -0.39912949672E-01  0.31083119889E-01  0.38280063704E-01  0.63441534437E-01  0.51100000000E-03 0.  1.
</event>
<event>
 8    1  0.2001339E+004  0.1043930E+01  0.7957747E-01            NaN
         13   -1    0    0    0    0  0.00000000000E+00  0.00000000000E+00  0.74505805969E-08  0.10566000000E+00  0.10566000000E+00 0.  1.
     999900   -1    0    0    0    0 -0.00000000000E+00 -0.00000000000E+00 -0.74505805969E-08  0.93827000000E+00  0.93827000000E+00 0.  1.
     999902    2    1    2    0    0  0.57062764805E-02  0.11400192422E-01 -0.55221515227E-02  0.10300368313E+01  0.10299431313E+01 0.  0.
     999903    2    3    3    0    0 -0.10949018928E+00 -0.50600961249E-01  0.51410162252E-01  0.13854613752E+00  0.44760123004E-01 0.  0.
         14    1    1    2    0    0 -0.57062764805E-02 -0.11400192422E-01  0.55221515227E-02  0.13893168680E-01  0.00000000000E+00 0.  1.
     999901    1    3    3    0    0  0.11519646576E+00  0.62001153670E-01 -0.56932313775E-01  0.89149069380E+00  0.88000000000E+00 0. -1.
        -11    1    4    4    0    0 -0.56285301074E-01 -0.40752972199E-01  0.47741173934E-01  0.84310857365E-01  0.51100000000E-03 0. -1.
         11    1    4    4    0    0 -0.53204888205E-01 -0.98479890497E-02  0.36689883183E-02  0.54235280155E-01  0.51100000000E-03 0.  1.
</event>
<event>
 8    1  0.2001339E+004  0.1043930E+01  0.7957747E-01            NaN
         13   -1    0    0    0    0  0.00000000000E+00  0.00000000000E+00  0.74505805969E-08  0.10566000000E+00  0.10566000000E+00 0.  1.
     999900   -1    0    0    0    0 -0.00000000000E+00 -0.00000000000E+00 -0.74505805969E-08  0.93827000000E+00  0.93827000000E+00 0.  1.
     999902    2    1    2    0    0  0.95502954290E-02 -0.97651573005E-02 -0.75457807077E-03  0.10302502402E+01  0.10301594156E+01 0.  0.
     999903    2    3    3    0    0  0.79177910869E-01  0.48287463773E-01  0.95143589194E-01  0.14041060852E+00  0.45409422943E-01 0.  0.
         14    1    1    2    0    0 -0.95502954290E-02  0.97651573005E-02  0.75457807077E-03  0.13679759791E-01  0.00000000000E+00 0.  1.
     999901    1    3    3    0    0 -0.69627615440E-01 -0.58052621073E-01 -0.95898167265E-01  0.88983963169E+00  0.88000000000E+00 0.  1.
        -11    1    4    4    0    0  0.32746143496E-01  0.19390959625E-02  0.53324073537E-01  0.62608209897E-01  0.51100000000E-03 0.  1.
         11    1    4    4    0    0  0.46431767373E-01  0.46348367810E-01  0.41819515658E-01  0.77802398619E-01  0.51100000000E-03 0. -1.
</event>
<event>
 8    1  0.2001339E+004  0.1043930E+01  0.7957747E-01            NaN
         13   -1    0    0    0    0  0.00000000000E+00  0.00000000000E+00  0.74505805969E-08  0.10566000000E+00  0.10566000000E+00 0. -1.
     999900   -1    0    0    0    0 -0.00000000000E+00 -0.00000000000E+00 -0.74505805969E-08  0.93827000000E+00  0.93827000000E+00 0. -1.
     999902    2    1    2    0    0  0.11852422737E-01  0.78236158389E-02 -0.43521071083E-02  0.10290763901E+01  0.10289691866E+01 0.  0.
     999903    2    3    3    0    0 -0.17940548825E-01 -0.12628192522E+00  0.25437038958E-01  0.13792022508E+00  0.45890713741E-01 0.  0.
         14    1    1    2    0    0 -0.11852422737E-01 -0.78236158389E-02  0.43521071083E-02  0.14853609858E-01  0.00000000000E+00 0. -1.
     999901    1    3    3    0    0  0.29792971562E-01  0.13410554106E+00 -0.29789146067E-01  0.89115616506E+00  0.88000000000E+00 0. -1.
        -11    1    4    4    0    0  0.10709456774E-02 -0.44769195056E-01  0.30308261601E-01  0.54076608556E-01  0.51100000000E-03 0.  1.
         11    1    4    4    0    0 -0.19011494503E-01 -0.81512730161E-01 -0.48712226429E-02  0.83843616529E-01  0.51100000000E-03 0. -1.
</event>
<event>
 8    1  0.2001339E+004  0.1043930E+01  0.7957747E-01            NaN
         13   -1    0    0    0    0  0.00000000000E+00  0.00000000000E+00  0.74505805969E-08  0.10566000000E+00  0.10566000000E+00 0. -1.
     999900   -1    0    0    0    0 -0.00000000000E+00 -0.00000000000E+00 -0.74505805969E-08  0.93827000000E+00  0.93827000000E+00 0. -1.
     999902    2    1    2    0    0  0.90602324500E-02  0.91324831118E-02  0.35330191370E-02  0.10305893747E+01  0.10305030262E+01 0.  0.
     999903    2    3    3    0    0 -0.33961975553E-01 -0.12634401810E+00  0.15494405630E-01  0.13910304975E+00  0.44647006068E-01 0.  0.
         14    1    1    2    0    0 -0.90602324500E-02 -0.91324831118E-02 -0.35330191370E-02  0.13340625325E-01  0.00000000000E+00 0.  1.
     999901    1    3    3    0    0  0.43022208003E-01  0.13547650121E+00 -0.11961386493E-01  0.89148632493E+00  0.88000000000E+00 0. -1.
        -11    1    4    4    0    0  0.62691016411E-02 -0.30913044800E-01  0.16354342549E-01  0.35533696900E-01  0.51100000000E-03 0. -1.
         11    1    4    4    0    0 -0.40231077195E-01 -0.95430973300E-01 -0.85993691909E-03  0.10356935285E+00  0.51100000000E-03 0.  1.
</event>
<event>
 8    1  0.2001339E+004  0.1043930E+01  0.7957747E-01            NaN
         13   -1    0    0    0    0  0.00000000000E+00  0.00000000000E+00  0.74505805969E-08  0.10566000000E+00  0.10566000000E+00 0.  1.
     999900   -1    0    0    0    0 -0.00000000000E+00 -0.00000000000E+00 -0.74505805969E-08  0.93827000000E+00  0.93827000000E+00 0. -1.
     999902    2    1    2    0    0  0.86645977180E-02 -0.79439845309E-02 -0.63448516070E-02  0.10305718832E+01  0.10304853066E+01 0.  0.
     999903    2    3    3    0    0 -0.13061243233E+00  0.74044448132E-02  0.16310750973E-01  0.13919825682E+00  0.44673043590E-01 0.  0.
         14    1    1    2    0    0 -0.86645977180E-02  0.79439845309E-02  0.63448516070E-02  0.13358116849E-01  0.00000000000E+00 0.  1.
     999901    1    3    3    0    0  0.13927703005E+00 -0.15348429344E-01 -0.22655602580E-01  0.89137362633E+00  0.88000000000E+00 0. -1.
        -11    1    4    4    0    0 -0.38868769067E-01 -0.40057130405E-02  0.24918153699E-01  0.46346547342E-01  0.51100000000E-03 0.  1.
         11    1    4    4    0    0 -0.91743663263E-01  0.11410157854E-01 -0.86074027264E-02  0.92851709482E-01  0.51100000000E-03 0. -1.
</event>
<event>
 8    1  0.2001339E+004  0.1043930E+01  0.7957747E-01            NaN
         13   -1    0    0    0    0  0.00000000000E+00  0.00000000000E+00  0.74505805969E-08  0.10566000000E+00  0.10566000000E+00 0. -1.
     999900   -1    0    0    0    0 -0.00000000000E+00 -0.00000000000E+00 -0.74505805969E-08  0.93827000000E+00  0.93827000000E+00 0. -1.
     999902    2    1    2    0    0 -0.10931604815E-01 -0.74426355891E-02 -0.72022740606E-03  0.10306856980E+01  0.10306005999E+01 0.  0.
     999903    2    3    3    0    0 -0.65666380403E-02  0.45769514028E-01 -0.12450246448E+00  0.14042021622E+00  0.45596099760E-01 0.  0.
         14    1    1    2    0    0  0.10931604815E-01  0.74426355891E-02  0.72022740606E-03  0.13244302015E-01  0.00000000000E+00 0.  1.
     999901    1    3    3    0    0 -0.43649667747E-02 -0.53212149617E-01  0.12378223707E+00  0.89026548176E+00  0.88000000000E+00 0.  1.
        -11    1    4    4    0    0 -0.20513405877E-01  0.38592958570E-01 -0.11240903048E+00  0.12060790823E+00  0.51100000000E-03 0.  1.
         11    1    4    4    0    0  0.13946767837E-01  0.71765554582E-02 -0.12093433998E-01  0.19812307998E-01  0.51100000000E-03 0. -1.
</event>
<event>
 8    1  0.2001339E+004  0.1043930E+01  0.7957747E-01            NaN
         13   -1    0    0    0    0  0.00000000000E+00  0.00000000000E+00  0.74505805969E-08  0.10566000000E+00  0.10566000000E+00 0. -1.
     999900   -1    0    0    0    0 -0.00000000000E+00 -0.00000000000E+00 -0.74505805969E-08  0.93827000000E+00  0.93827000000E+00 0. -1.
     999902    2    1    2    0    0  0.19076019079E-03 -0.64681541228E-02 -0.13223677102E-01  0.10292079402E+01  0.10291026408E+01 0.  0.
     999903    2    3    3    0    0 -0.73349774687E-03  0.12462806240E+00 -0.42217076167E-01  0.13902386410E+00  0.44862694002E-01 0.  0.
         14    1    1    2    0    0 -0.19076019079E-03  0.64681541228E-02  0.13223677102E-01  0.14722059751E-01  0.00000000000E+00 0. -1.
     999901    1    3    3    0    0  0.92425793766E-03 -0.13109621652E+00  0.28993399064E-01  0.89018407615E+00  0.88000000000E+00 0. -1.
        -11    1    4    4    0    0 -0.16777466284E-01  0.75914338245E-01 -0.40594875386E-01  0.87707896763E-01  0.51100000000E-03 0.  1.
         11    1    4    4    0    0  0.16043968537E-01  0.48713724154E-01 -0.16222007810E-02  0.51315967337E-01  0.51100000000E-03 0. -1.
</event>
<event>
 7    1  0.2001339E+004  0.1043930E+01  0.7957747E-01            NaN
         13   -1    0    0    0    0  0.00000000000E+00  0.00000000000E+00  0.74505805969E-08  0.10566000000E+00  0.10566000000E+00 0. -1.
     999900   -1    0    0    0    0 -0.00000000000E+00 -0.00000000000E+00 -0.74505805969E-08  0.93827000000E+00  0.93827000000E+00 0. -1.
     999903    2    1    2    0    0 -0.10077749071E+00  0.33632050790E-01 -0.19992389006E-01  0.11823361412E+00  0.47877702701E-01 0.  0.
         14    1    1    2    0    0  0.65966777947E-02 -0.36327450816E-01 -0.15293695820E-01  0.39963695682E-01  0.00000000000E+00 0.  1.
     999901    1    1    2    0    0  0.94180812914E-01  0.26954000267E-02  0.35286084826E-01  0.88573269020E+00  0.88000000000E+00 0.  1.
        -11    1    3    3    0    0 -0.63554789598E-01  0.11473950867E-01 -0.33630668635E-01  0.72815834976E-01  0.51100000000E-03 0.  1.
         11    1    3    3    0    0 -0.37222701110E-01  0.22158099923E-01  0.13638279630E-01  0.45417779144E-01  0.51100000000E-03 0. -1.
</event>
<event>
 8    1  0.2001339E+004  0.1043930E+01  0.7957747E-01            NaN
         13   -1    0    0    0    0  0.00000000000E+00  0.00000000000E+00  0.74505805969E-08  0.10566000000E+00  0.10566000000E+00 0.  1.
     999900   -1    0    0    0    0 -0.00000000000E+00 -0.00000000000E+00 -0.74505805969E-08  0.93827000000E+00  0.93827000000E+00 0. -1.
     999902    2    1    2    0    0  0.56495008143E-02  0.14468928172E-01  0.12763617184E-02  0.10283448840E+01  0.10282267768E+01 0.  0.
     999903    2    3    3    0    0 -0.81605344619E-01  0.10143829202E+00  0.22799608685E-01  0.13950275601E+00  0.44632246425E-01 0.  0.
         14    1    1    2    0    0 -0.56495008143E-02 -0.14468928172E-01 -0.12763617184E-02  0.15585116013E-01  0.00000000000E+00 0. -1.
     999901    1    3    3    0    0  0.87254845433E-01 -0.86969363848E-01 -0.21523246966E-01  0.88884212797E+00  0.88000000000E+00 0. -1.
        -11    1    4    4    0    0 -0.61963026499E-01  0.98845581624E-01  0.12974211875E-01  0.11738167214E+00  0.51100000000E-03 0. -1.
         11    1    4    4    0    0 -0.19642318120E-01  0.25927103966E-02  0.98253968093E-02  0.22121083874E-01  0.51100000000E-03 0.  1.
</event>
<event>
 8    1  0.2056658E+004  0.1043930E+01  0.7957747E-01            NaN
         13   -1    0    0    0    0  0.00000000000E+00  0.00000000000E+00  0.74505805969E-08  0.10566000000E+00  0.10566000000E+00 0.  1.
     999900   -1    0    0    0    0 -0.00000000000E+00 -0.00000000000E+00 -0.74505805969E-08  0.93827000000E+00  0.93827000000E+00 0. -1.
     999902    2    1    2    0    0  0.76919446799E-02 -0.11102840775E-01  0.29262550152E-02  0.10301096507E+01  0.10300169370E+01 0.  0.
     999903    2    3    3    0    0 -0.22628858852E-01  0.19185768945E-01 -0.12854285446E+00  0.13931176243E+00  0.44769886472E-01 0.  0.
         14    1    1    2    0    0 -0.76919446799E-02  0.11102840775E-01 -0.29262550152E-02  0.13820349296E-01  0.00000000000E+00 0.  1.
     999901    1    3    3    0    0  0.30320803531E-01 -0.30288609720E-01  0.13146910948E+00  0.89079788827E+00  0.88000000000E+00 0.  1.
        -11    1    4    4    0    0 -0.21835935996E-01  0.26393325585E-01 -0.51057152233E-01  0.61485849197E-01  0.51100000000E-03 0. -1.
         11    1    4    4    0    0 -0.79292285511E-03 -0.72075566406E-02 -0.77485702231E-01  0.77825913233E-01  0.51100000000E-03 0.  1.
</event>
<event>
 8    1  0.2001339E+004  0.1043930E+01  0.7957747E-01            NaN
         13   -1    0    0    0    0  0.00000000000E+00  0.00000000000E+00  0.74505805969E-08  0.10566000000E+00  0.10566000000E+00 0. -1.
     999900   -1    0    0    0    0 -0.00000000000E+00 -0.00000000000E+00 -0.74505805969E-08  0.93827000000E+00  0.93827000000E+00 0.  1.
     999902    2    1    2    0    0  0.10567772808E-01 -0.46789184483E-02 -0.74280913152E-02  0.10301914906E+01  0.10300998790E+01 0.  0.
     999903    2    3    3    0    0 -0.69329294394E-01  0.91816402790E-01  0.61950515624E-01  0.13861520140E+00  0.46254781261E-01 0.  0.
         14    1    1    2    0    0 -0.10567772808E-01  0.46789184483E-02  0.74280913152E-02  0.13738509400E-01  0.00000000000E+00 0. -1.
     999901    1    3    3    0    0  0.79897067202E-01 -0.96495321239E-01 -0.69378606939E-01  0.89157628920E+00  0.88000000000E+00 0.  1.
        -11    1    4    4    0    0 -0.27287892822E-01  0.20081693197E-01  0.40382403754E-01  0.52715302810E-01  0.51100000000E-03 0. -1.
         11    1    4    4    0    0 -0.42041401572E-01  0.71734709593E-01  0.21568111870E-01  0.85899898587E-01  0.51100000000E-03 0.  1.
</event>
<event>
 8    1  0.2001339E+004  0.1043930E+01  0.7957747E-01            NaN
         13   -1    0    0    0    0  0.00000000000E+00  0.00000000000E+00  0.74505805969E-08  0.10566000000E+00  0.10566000000E+00 0.  1.
     999900   -1    0    0    0    0 -0.00000000000E+00 -0.00000000000E+00 -0.74505805969E-08  0.93827000000E+00  0.93827000000E+00 0.  1.
     999902    2    1    2    0    0  0.44976734734E-02  0.48340498000E-02  0.14151331286E-01  0.10283140696E+01  0.10281954914E+01 0.  0.
     999903    2    3    3    0    0 -0.24338964041E-01 -0.93920744233E-01  0.88898036721E-01  0.13917339967E+00  0.45308750527E-01 0.  0.
         14    1    1    2    0    0 -0.44976734734E-02 -0.48340498000E-02 -0.14151331286E-01  0.15615930370E-01  0.00000000000E+00 0. -1.
     999901    1    3    3    0    0  0.28836637514E-01  0.98754794033E-01 -0.74746705435E-01  0.88914066996E+00  0.88000000000E+00 0. -1.
        -11    1    4    4    0    0 -0.42725072658E-02 -0.36945180879E-01  0.63608659632E-01  0.73685299821E-01  0.51100000000E-03 0. -1.
         11    1    4    4    0    0 -0.20066456775E-01 -0.56975563354E-01  0.25289377090E-01  0.65488099847E-01  0.51100000000E-03 0.  1.
</event>
<event>
 8    1  0.2001339E+004  0.1043930E+01  0.7957747E-01            NaN
         13   -1    0    0    0    0  0.00000000000E+00  0.00000000000E+00  0.74505805969E-08  0.10566000000E+00  0.10566000000E+00 0.  1.
     999900   -1    0    0    0    0 -0.00000000000E+00 -0.00000000000E+00 -0.74505805969E-08  0.93827000000E+00  0.93827000000E+00 0.  1.
     999902    2    1    2    0    0  0.37609131497E-02 -0.11642506719E-01 -0.61378914597E-02  0.10302418247E+01  0.10301508876E+01 0.  0.
     999903    2    3    3    0    0 -0.40211008030E-01 -0.21612625475E-01 -0.12552548818E+00  0.14103637527E+00  0.45283332669E-01 0.  0.
         14    1    1    2    0    0 -0.37609131497E-02  0.11642506719E-01  0.61378914597E-02  0.13688175262E-01  0.00000000000E+00 0.  1.
     999901    1    3    3    0    0  0.43971921180E-01  0.99701187561E-02  0.11938759672E+00  0.88920544947E+00  0.88000000000E+00 0. -1.
        -11    1    4    4    0    0 -0.24612338261E-01  0.10350537778E-01 -0.71776486662E-01  0.76583457649E-01  0.51100000000E-03 0. -1.
         11    1    4    4    0    0 -0.15598669769E-01 -0.31963163253E-01 -0.53749001522E-01  0.64452917617E-01  0.51100000000E-03 0.  1.
</event>
<event>
 8    1  0.2001339E+004  0.1043930E+01  0.7957747E-01            NaN
         13   -1    0    0    0    0  0.00000000000E+00  0.00000000000E+00  0.74505805969E-08  0.10566000000E+00  0.10566000000E+00 0. -1.
     999900   -1    0    0    0    0 -0.00000000000E+00 -0.00000000000E+00 -0.74505805969E-08  0.93827000000E+00  0.93827000000E+00 0. -1.
     999902    2    1    2    0    0  0.57731726113E-03  0.82165684357E-02 -0.11538821521E-01  0.10297529166E+01  0.10296553207E+01 0.  0.
     999903    2    3    3    0    0  0.45578177425E-02  0.36614009171E-01  0.12558736135E+00  0.13867163575E+00  0.45785127067E-01 0.  0.
         14    1    1    2    0    0 -0.57731726113E-03 -0.82165684357E-02  0.11538821521E-01  0.14177083416E-01  0.00000000000E+00 0. -1.
     999901    1    3    3    0    0 -0.39805004814E-02 -0.28397440735E-01 -0.13712618287E+00  0.89108128083E+00  0.88000000000E+00 0. -1.
        -11    1    4    4    0    0 -0.20344410062E-01  0.18801113234E-01  0.50932096433E-01  0.57980310863E-01  0.51100000000E-03 0.  1.
         11    1    4    4    0    0  0.24902227805E-01  0.17812895937E-01  0.74655264917E-01  0.80691324888E-01  0.51100000000E-03 0. -1.
</event>
<event>
 8    1  0.2001339E+004  0.1043930E+01  0.7957747E-01            NaN
         13   -1    0    0    0    0  0.00000000000E+00  0.00000000000E+00  0.74505805969E-08  0.10566000000E+00  0.10566000000E+00 0. -1.
     999900   -1    0    0    0    0 -0.00000000000E+00 -0.00000000000E+00 -0.74505805969E-08  0.93827000000E+00  0.93827000000E+00 0.  1.
     999902    2    1    2    0    0 -0.54153997273E-02 -0.10164085987E-01  0.69796849192E-02  0.10304633300E+01  0.10303753313E+01 0.  0.
     999903    2    3    3    0    0 -0.63841952413E-01  0.80750649315E-01 -0.82585962691E-01  0.13933979406E+00  0.44706540037E-01 0.  0.
         14    1    1    2    0    0  0.54153997273E-02  0.10164085987E-01 -0.69796849192E-02  0.13466669957E-01  0.00000000000E+00 0.  1.
     999901    1    3    3    0    0  0.58426552685E-01 -0.90914735302E-01  0.89565647610E-01  0.89112353598E+00  0.88000000000E+00 0. -1.
        -11    1    4    4    0    0 -0.11119686484E-01  0.27932075096E-01 -0.29708959049E-02  0.30214824013E-01  0.51100000000E-03 0.  1.
         11    1    4    4    0    0 -0.52722265928E-01  0.52818574220E-01 -0.79615066786E-01  0.10912497005E+00  0.51100000000E-03 0. -1.
</event>
<event>
 8    1  0.2001339E+004  0.1043930E+01  0.7957747E-01            NaN
         13   -1    0    0    0    0  0.00000000000E+00  0.00000000000E+00  0.74505805969E-08  0.10566000000E+00  0.10566000000E+00 0.  1.
     999900   -1    0    0    0    0 -0.00000000000E+00 -0.00000000000E+00 -0.74505805969E-08  0.93827000000E+00  0.93827000000E+00 0.  1.
     999902    2    1    2    0    0 -0.10254750453E-01 -0.10411560227E-01  0.17975860833E-02  0.10292061483E+01  0.10291008230E+01 0.  0.
     999903    2    3    3    0    0  0.45485669582E-01  0.58506184570E-01  0.10802935021E+00  0.13839649541E+00  0.44624316969E-01 0.  0.
         14    1    1    2    0    0  0.10254750453E-01  0.10411560227E-01 -0.17975860833E-02  0.14723851702E-01  0.00000000000E+00 0.  1.
     999901    1    3    3    0    0 -0.55740420035E-01 -0.68917744797E-01 -0.10623176412E+00  0.89080965289E+00  0.88000000000E+00 0.  1.
        -11    1    4    4    0    0  0.42785096267E-01  0.36769290590E-01  0.10045742620E+00  0.11521501982E+00  0.51100000000E-03 0.  1.
         11    1    4    4    0    0  0.27005733146E-02  0.21736893980E-01  0.75719240064E-02  0.23181475585E-01  0.51100000000E-03 0. -1.
</event>
<event>
 8    1  0.2001339E+004  0.1043930E+01  0.7957747E-01            NaN
         13   -1    0    0    0    0  0.00000000000E+00  0.00000000000E+00  0.74505805969E-08  0.10566000000E+00  0.10566000000E+00 0. -1.
     999900   -1    0    0    0    0 -0.00000000000E+00 -0.00000000000E+00 -0.74505805969E-08  0.93827000000E+00  0.93827000000E+00 0. -1.
     999902    2    1    2    0    0  0.70333030934E-02  0.10765274209E-01  0.52807137332E-02  0.10300287620E+01  0.10299349523E+01 0.  0.
     999903    2    3    3    0    0  0.63599078733E-02  0.57627219270E-01 -0.11895065653E+00  0.14006812873E+00  0.45918157298E-01 0.  0.
         14    1    1    2    0    0 -0.70333030934E-02 -0.10765274209E-01 -0.52807137332E-02  0.13901238029E-01  0.00000000000E+00 0. -1.
     999901    1    3    3    0    0  0.67339522005E-03 -0.46861945062E-01  0.12423137026E+00  0.88996063324E+00  0.88000000000E+00 0.  1.
        -11    1    4    4    0    0  0.23161770146E-01  0.15184555076E-01 -0.53851592674E-01  0.60558182466E-01  0.51100000000E-03 0. -1.
         11    1    4    4    0    0 -0.16801862273E-01  0.42442664195E-01 -0.65099063854E-01  0.79509946267E-01  0.51100000000E-03 0.  1.
</event>
<event>
 8    1  0.2001339E+004  0.1043930E+01  0.7957747E-01            NaN
         13   -1    0    0    0    0  0.00000000000E+00  0.00000000000E+00  0.74505805969E-08  0.10566000000E+00  0.10566000000E+00 0. -1.
     999900   -1    0    0    0    0 -0.00000000000E+00 -0.00000000000E+00 -0.74505805969E-08  0.93827000000E+00  0.93827000000E+00 0. -1.
     999902    2    1    2    0    0 -0.11141624905E-01 -0.52312850500E-02 -0.46424323900E-02  0.10307749885E+01  0.10306910413E+01 0.  0.
     999903    2    3    3    0    0 -0.10824656799E+00  0.20745915579E-01  0.75576294667E-01  0.14142734608E+00  0.46283964919E-01 0.  0.
         14    1    1    2    0    0  0.11141624905E-01  0.52312850500E-02  0.46424323900E-02  0.13155011490E-01  0.00000000000E+00 0. -1.
     999901    1    3    3    0    0  0.97104943086E-01 -0.25977200629E-01 -0.80218727057E-01  0.88934764243E+00  0.88000000000E+00 0. -1.
        -11    1    4    4    0    0 -0.91186819378E-01 -0.18139832029E-02  0.59329237211E-01  0.10880508293E+00  0.51100000000E-03 0.  1.
         11    1    4    4    0    0 -0.17059748614E-01  0.22559898782E-01  0.16247057456E-01  0.32622263146E-01  0.51100000000E-03 0. -1.
</event>
<event>
 8    1  0.2001339E+004  0.1043930E+01  0.7957747E-01            NaN
         13   -1    0    0    0    0  0.00000000000E+00  0.00000000000E+00  0.74505805969E-08  0.10566000000E+00  0.10566000000E+00 0.  1.
     999900   -1    0    0    0    0 -0.00000000000E+00 -0.00000000000E+00 -0.74505805969E-08  0.93827000000E+00  0.93827000000E+00 0.  1.
     999902    2    1    2    0    0  0.33074970558E-02  0.89476353041E-03 -0.13209482955E-01  0.10302833675E+01  0.10301929852E+01 0.  0.
     999903    2    3    3    0    0  0.77312380459E-01  0.43003803590E-01 -0.10131705756E+00  0.14179429119E+00  0.44876982598E-01 0.  0.
         14    1    1    2    0    0 -0.33074970558E-02 -0.89476353041E-03  0.13209482955E-01  0.13646632497E-01  0.00000000000E+00 0.  1.
     999901    1    3    3    0    0 -0.74004883404E-01 -0.42109040060E-01  0.88107574602E-01  0.88848907631E+00  0.88000000000E+00 0. -1.
        -11    1    4    4    0    0  0.39994787560E-01  0.34798717899E-01 -0.30080527747E-01  0.60955992896E-01  0.51100000000E-03 0.  1.
         11    1    4    4    0    0  0.37317592899E-01  0.82050856914E-02 -0.71236529810E-01  0.80838298296E-01  0.51100000000E-03 0. -1.
</event>
<event>
 8    1  0.2001339E+004  0.1043930E+01  0.7957747E-01            NaN
         13   -1    0    0    0    0  0.00000000000E+00  0.00000000000E+00  0.74505805969E-08  0.10566000000E+00  0.10566000000E+00 0. -1.
     999900   -1    0    0    0    0 -0.00000000000E+00 -0.00000000000E+00 -0.74505805969E-08  0.93827000000E+00  0.93827000000E+00 0.  1.
     999902    2    1    2    0    0  0.22804737262E-02  0.66672110667E-02  0.11041596446E-01  0.10308315606E+01  0.10307483384E+01 0.  0.
     999903    2    3    3    0    0 -0.44582400868E-02 -0.88781769392E-01 -0.97371643840E-01  0.13903037823E+00  0.44114969844E-01 0.  0.
         14    1    1    2    0    0 -0.22804737262E-02 -0.66672110667E-02 -0.11041596446E-01  0.13098439445E-01  0.00000000000E+00 0.  1.
     999901    1    3    3    0    0  0.67387138130E-02  0.95448980459E-01  0.10841324029E+00  0.89180118233E+00  0.88000000000E+00 0. -1.
        -11    1    4    4    0    0 -0.43443507234E-02 -0.45152110781E-01 -0.80199281950E-01  0.92139961132E-01  0.51100000000E-03 0.  1.
         11    1    4    4    0    0 -0.11388936342E-03 -0.43629658611E-01 -0.17172361891E-01  0.46890417093E-01  0.51100000000E-03 0. -1.
</event>
<event>
 8    1  0.2001339E+004  0.1043930E+01  0.7957747E-01            NaN
         13   -1    0    0    0    0  0.00000000000E+00  0.00000000000E+00  0.74505805969E-08  0.10566000000E+00  0.10566000000E+00 0.  1.
     999900   -1    0    0    0    0 -0.00000000000E+00 -0.00000000000E+00 -0.74505805969E-08  0.93827000000E+00  0.93827000000E+00 0.  1.
     999902    2    1    2    0    0  0.90546052520E-02  0.92526868897E-02 -0.66307474501E-02  0.10293847292E+01  0.10292819613E+01 0.  0.
     999903    2    3    3    0    0 -0.12591394993E+00 -0.26302446998E-01  0.19817557318E-01  0.13799245233E+00  0.45858912092E-01 0.  0.
         14    1    1    2    0    0 -0.90546052520E-02 -0.92526868897E-02  0.66307474501E-02  0.14545270802E-01  0.00000000000E+00 0.  1.
     999901    1    3    3    0    0  0.13496855518E+00  0.35555133888E-01 -0.26448304768E-01  0.89139227687E+00  0.88000000000E+00 0. -1.
        -11    1    4    4    0    0 -0.16563235328E-01 -0.19182467484E-01 -0.44949032478E-02  0.25744379960E-01  0.51100000000E-03 0. -1.
         11    1    4    4    0    0 -0.10935071460E+00 -0.71199795146E-02  0.24312460566E-01  0.11224807237E+00  0.51100000000E-03 0.  1.
</event>
<event>
 8    1  0.2001339E+004  0.1043930E+01  0.7957747E-01            NaN
         13   -1    0    0    0    0  0.00000000000E+00  0.00000000000E+00  0.74505805969E-08  0.10566000000E+00  0.10566000000E+00 0.  1.
     999900   -1    0    0    0    0 -0.00000000000E+00 -0.00000000000E+00 -0.74505805969E-08  0.93827000000E+00  0.93827000000E+00 0.  1.
     999902    2    1    2    0    0  0.73292555941E-02 -0.10329447720E-01 -0.46405107599E-02  0.10304411224E+01  0.10303528313E+01 0.  0.
     999903    2    3    3    0    0  0.12534415987E+00  0.44324413481E-01 -0.13793983958E-01  0.14083539615E+00  0.44368037712E-01 0.  0.
         14    1    1    2    0    0 -0.73292555941E-02  0.10329447720E-01  0.46405107599E-02  0.13488877562E-01  0.00000000000E+00 0.  1.
     999901    1    3    3    0    0 -0.11801490428E+00 -0.54653861201E-01  0.91534731985E-02  0.88960572629E+00  0.88000000000E+00 0. -1.
        -11    1    4    4    0    0  0.12099709049E+00  0.42746926936E-01 -0.23138678391E-01  0.13039653074E+00  0.51100000000E-03 0. -1.
         11    1    4    4    0    0  0.43470693775E-02  0.15774865450E-02  0.93446944321E-02  0.10438865408E-01  0.51100000000E-03 0.  1.
</event>
<event>
 8    1  0.2001339E+004  0.1043930E+01  0.7957747E-01            NaN
         13   -1    0    0    0    0  0.00000000000E+00  0.00000000000E+00  0.74505805969E-08  0.10566000000E+00  0.10566000000E+00 0. -1.
     999900   -1    0    0    0    0 -0.00000000000E+00 -0.00000000000E+00 -0.74505805969E-08  0.93827000000E+00  0.93827000000E+00 0. -1.
     999902    2    1    2    0    0 -0.11562213458E-01  0.91188498401E-02  0.37221454450E-02  0.10287414329E+01  0.10286293031E+01 0.  0.
     999903    2    3    3    0    0 -0.84889347897E-01 -0.86221301014E-01 -0.55995559945E-01  0.13855447654E+00  0.37703131197E-01 0.  0.
         14    1    1    2    0    0  0.11562213458E-01 -0.91188498401E-02 -0.37221454450E-02  0.15188567054E-01  0.00000000000E+00 0.  1.
     999901    1    3    3    0    0  0.73327134439E-01  0.95340150855E-01  0.59717705390E-01  0.89018695640E+00  0.88000000000E+00 0.  1.
        -11    1    4    4    0    0 -0.68490236679E-01 -0.64523619129E-01 -0.25096622140E-01  0.97387429937E-01  0.51100000000E-03 0.  1.
         11    1    4    4    0    0 -0.16399111217E-01 -0.21697681885E-01 -0.30898937805E-01  0.41167046607E-01  0.51100000000E-03 0. -1.
</event>
<event>
 8    1  0.2001339E+004  0.1043930E+01  0.7957747E-01            NaN
         13   -1    0    0    0    0  0.00000000000E+00  0.00000000000E+00  0.74505805969E-08  0.10566000000E+00  0.10566000000E+00 0.  1.
     999900   -1    0    0    0    0 -0.00000000000E+00 -0.00000000000E+00 -0.74505805969E-08  0.93827000000E+00  0.93827000000E+00 0.  1.
     999902    2    1    2    0    0 -0.86489140180E-02 -0.91244510864E-02 -0.59974974992E-02  0.10300005600E+01  0.10299063668E+01 0.  0.
     999903    2    3    3    0    0 -0.14490174393E-01 -0.76722691972E-01  0.10740946220E+00  0.14013271536E+00  0.44766602804E-01 0.  0.
         14    1    1    2    0    0  0.86489140180E-02  0.91244510864E-02  0.59974974992E-02  0.13929439959E-01  0.00000000000E+00 0.  1.
     999901    1    3    3    0    0  0.58412603751E-02  0.67598240886E-01 -0.11340695970E+00  0.88986784468E+00  0.88000000000E+00 0.  1.
        -11    1    4    4    0    0 -0.13842136901E-01 -0.11643521972E-02  0.22707471239E-01  0.26624252873E-01  0.51100000000E-03 0.  1.
         11    1    4    4    0    0 -0.64803749232E-03 -0.75558339775E-01  0.84701990959E-01  0.11350846248E+00  0.51100000000E-03 0. -1.
</event>
<event>
 8    1  0.2001339E+004  0.1043930E+01  0.7957747E-01            NaN
         13   -1    0    0    0    0  0.00000000000E+00  0.00000000000E+00  0.74505805969E-08  0.10566000000E+00  0.10566000000E+00 0. -1.
     999900   -1    0    0    0    0 -0.00000000000E+00 -0.00000000000E+00 -0.74505805969E-08  0.93827000000E+00  0.93827000000E+00 0.  1.
     999902    2    1    2    0    0 -0.77422885520E-02  0.46708280664E-02  0.80935236424E-02  0.10317947294E+01  0.10317233635E+01 0.  0.
     999903    2    3    3    0    0 -0.13267984087E-01  0.46373098985E-01  0.12680500726E+00  0.14282789706E+00  0.44651927199E-01 0.  0.
         14    1    1    2    0    0  0.77422885520E-02 -0.46708280664E-02 -0.80935236424E-02  0.12135270570E-01  0.00000000000E+00 0. -1.
     999901    1    3    3    0    0  0.55256955346E-02 -0.41702270919E-01 -0.11871148361E+00  0.88896683237E+00  0.88000000000E+00 0.  1.
        -11    1    4    4    0    0  0.61991258661E-02  0.42451963961E-01  0.64785072009E-01  0.77704344035E-01  0.51100000000E-03 0.  1.
         11    1    4    4    0    0 -0.19467109953E-01  0.39211350241E-02  0.62019935247E-01  0.65123553026E-01  0.51100000000E-03 0. -1.
</event>
<event>
 7    1  0.2001339E+004  0.1043930E+01  0.7957747E-01            NaN
         13   -1    0    0    0    0  0.00000000000E+00  0.00000000000E+00  0.74505805969E-08  0.10566000000E+00  0.10566000000E+00 0.  1.
     999900   -1    0    0    0    0 -0.00000000000E+00 -0.00000000000E+00 -0.74505805969E-08  0.93827000000E+00  0.93827000000E+00 0.  1.
     999903    2    1    2    0    0  0.13737976182E-01  0.17961323791E-01  0.10542781987E+00  0.11695686731E+00  0.45304993826E-01 0.  0.
         14    1    1    2    0    0 -0.34198448581E-01 -0.12146048830E-01  0.13494985147E-01  0.38719181443E-01  0.00000000000E+00 0. -1.
     999901    1    1    2    0    0  0.20460472399E-01 -0.58152749613E-02 -0.11892280502E+00  0.88825395125E+00  0.88000000000E+00 0.  1.
        -11    1    3    3    0    0  0.55540560232E-02  0.31316083708E-01  0.87726484812E-01  0.93315282219E-01  0.51100000000E-03 0. -1.
         11    1    3    3    0    0  0.81839201584E-02 -0.13354759917E-01  0.17701335061E-01  0.23641585090E-01  0.51100000000E-03 0.  1.
</event>
<event>
 8    1  0.2001339E+004  0.1043930E+01  0.7957747E-01            NaN
         13   -1    0    0    0    0  0.00000000000E+00  0.00000000000E+00  0.74505805969E-08  0.10566000000E+00  0.10566000000E+00 0. -1.
     999900   -1    0    0    0    0 -0.00000000000E+00 -0.00000000000E+00 -0.74505805969E-08  0.93827000000E+00  0.93827000000E+00 0.  1.
     999902    2    1    2    0    0  0.12027348447E-01 -0.37123154569E-02 -0.51570813255E-02  0.10303272839E+01  0.10302374863E+01 0.  0.
     999903    2    3    3    0    0  0.11269206403E+00  0.66896208727E-01 -0.32783070905E-01  0.14134913799E+00  0.41596214218E-01 0.  0.
         14    1    1    2    0    0 -0.12027348447E-01  0.37123154569E-02  0.51570813255E-02  0.13602716072E-01  0.00000000000E+00 0.  1.
     999901    1    3    3    0    0 -0.10066471558E+00 -0.70608524183E-01  0.27625989580E-01  0.88897814593E+00  0.88000000000E+00 0.  1.
        -11    1    4    4    0    0  0.73594085401E-01  0.28694166210E-01 -0.28910219964E-02  0.79044694380E-01  0.51100000000E-03 0. -1.
         11    1    4    4    0    0  0.39097978624E-01  0.38202042517E-01 -0.29892048909E-01  0.62304443613E-01  0.51100000000E-03 0.  1.
</event>
<event>
 8    1  0.2001339E+004  0.1043930E+01  0.7957747E-01            NaN
         13   -1    0    0    0    0  0.00000000000E+00  0.00000000000E+00  0.74505805969E-08  0.10566000000E+00  0.10566000000E+00 0.  1.
     999900   -1    0    0    0    0 -0.00000000000E+00 -0.00000000000E+00 -0.74505805969E-08  0.93827000000E+00  0.93827000000E+00 0.  1.
     999902    2    1    2    0    0  0.14132899352E-01  0.29325151697E-02 -0.19107845239E-03  0.10294948000E+01  0.10293935924E+01 0.  0.
     999903    2    3    3    0    0 -0.45694190838E-01  0.37339637791E-01  0.11716879045E+00  0.13902499719E+00  0.46013223777E-01 0.  0.
         14    1    1    2    0    0 -0.14132899352E-01 -0.29325151697E-02  0.19107845239E-03  0.14435200043E-01  0.00000000000E+00 0. -1.
     999901    1    3    3    0    0  0.59827090190E-01 -0.34407122622E-01 -0.11735986890E+00  0.89046980276E+00  0.88000000000E+00 0.  1.
        -11    1    4    4    0    0 -0.17098739718E-01  0.21808229574E-03  0.71763979824E-01  0.73774957682E-01  0.51100000000E-03 0. -1.
         11    1    4    4    0    0 -0.28595451121E-01  0.37121555496E-01  0.45404810625E-01  0.65250039510E-01  0.51100000000E-03 0.  1.
</event>
<event>
 8    1  0.2001339E+004  0.1043930E+01  0.7957747E-01            NaN
         13   -1    0    0    0    0  0.00000000000E+00  0.00000000000E+00  0.74505805969E-08  0.10566000000E+00  0.10566000000E+00 0.  1.
     999900   -1    0    0    0    0 -0.00000000000E+00 -0.00000000000E+00 -0.74505805969E-08  0.93827000000E+00  0.93827000000E+00 0.  1.
     999902    2    1    2    0    0 -0.25194468709E-02 -0.10902452016E-01 -0.66794383053E-02  0.10308982707E+01  0.10308158995E+01 0.  0.
     999903    2    3    3    0    0  0.92318668825E-02 -0.10545845094E+00  0.82192448782E-01  0.14130446304E+00  0.44773210708E-01 0.  0.
         14    1    1    2    0    0  0.25194468709E-02  0.10902452016E-01  0.66794383053E-02  0.13031729301E-01  0.00000000000E+00 0.  1.
     999901    1    3    3    0    0 -0.11751313753E-01  0.94555998927E-01 -0.88871887087E-01  0.88959380766E+00  0.88000000000E+00 0. -1.
        -11    1    4    4    0    0 -0.13670258257E-01 -0.74764919534E-01  0.61508840532E-01  0.97776621635E-01  0.51100000000E-03 0. -1.
         11    1    4    4    0    0  0.22902125139E-01 -0.30693531410E-01  0.20683608250E-01  0.43527841407E-01  0.51100000000E-03 0.  1.
</event>
<event>
 8    1  0.2231122E+004  0.1043930E+01  0.7957747E-01            NaN
         13   -1    0    0    0    0  0.00000000000E+00  0.00000000000E+00  0.74505805969E-08  0.10566000000E+00  0.10566000000E+00 0. -1.
     999900   -1    0    0    0    0 -0.00000000000E+00 -0.00000000000E+00 -0.74505805969E-08  0.93827000000E+00  0.93827000000E+00 0.  1.
     999902    2    1    2    0    0 -0.84260014910E-02 -0.12559908498E-01 -0.16372912373E-01  0.10216405168E+01  0.10213973392E+01 0.  0.
     999903    2    3    3    0    0  0.70646662890E-01  0.20847531404E-01 -0.10159284748E+00  0.13336635830E+00  0.45165344270E-01 0.  0.
         14    1    1    2    0    0  0.84260014910E-02  0.12559908498E-01  0.16372912373E-01  0.22289483219E-01  0.00000000000E+00 0. -1.
     999901    1    3    3    0    0 -0.79072664381E-01 -0.33407439902E-01  0.85219935106E-01  0.88827415849E+00  0.88000000000E+00 0. -1.
        -11    1    4    4    0    0  0.24692126285E-01  0.10510439479E-01 -0.70702702799E-02  0.27756445762E-01  0.51100000000E-03 0. -1.
         11    1    4    4    0    0  0.45954536605E-01  0.10337091925E-01 -0.94522577199E-01  0.10560991253E+00  0.51100000000E-03 0.  1.
</event>
<event>
 8    1  0.2001339E+004  0.1043930E+01  0.7957747E-01            NaN
         13   -1    0    0    0    0  0.00000000000E+00  0.00000000000E+00  0.74505805969E-08  0.10566000000E+00  0.10566000000E+00 0.  1.
     999900   -1    0    0    0    0 -0.00000000000E+00 -0.00000000000E+00 -0.74505805969E-08  0.93827000000E+00  0.93827000000E+00 0. -1.
     999902    2    1    2    0    0 -0.21385031640E-02  0.67144193411E-02 -0.12046882702E-01  0.10299734959E+01  0.10298789338E+01 0.  0.
     999903    2    3    3    0    0 -0.60720714735E-01 -0.54868439845E-01 -0.10562286067E+00  0.14093987019E+00  0.44836451959E-01 0.  0.
         14    1    1    2    0    0  0.21385031640E-02 -0.67144193411E-02  0.12046882702E-01  0.13956504064E-01  0.00000000000E+00 0.  1.
     999901    1    3    3    0    0  0.58582211571E-01  0.61582859186E-01  0.93575977964E-01  0.88903362575E+00  0.88000000000E+00 0.  1.
        -11    1    4    4    0    0 -0.18547730609E-01 -0.45064999530E-01 -0.67457752452E-01  0.83220682406E-01  0.51100000000E-03 0. -1.
         11    1    4    4    0    0 -0.42172984126E-01 -0.98034403150E-02 -0.38165108215E-01  0.57719187781E-01  0.51100000000E-03 0.  1.
</event>
<event>
 8    1  0.2001339E+004  0.1043930E+01  0.7957747E-01            NaN
         13   -1    0    0    0    0  0.00000000000E+00  0.00000000000E+00  0.74505805969E-08  0.10566000000E+00  0.10566000000E+00 0. -1.
     999900   -1    0    0    0    0 -0.00000000000E+00 -0.00000000000E+00 -0.74505805969E-08  0.93827000000E+00  0.93827000000E+00 0.  1.
     999902    2    1    2    0    0 -0.99904451357E-02  0.54772772461E-02 -0.97352022496E-02  0.10289438823E+01  0.10288347434E+01 0.  0.
     999903    2    3    3    0    0  0.39763905767E-01  0.12183530236E+00  0.29786953011E-01  0.13901316244E+00  0.44859644004E-01 0.  0.
         14    1    1    2    0    0  0.99904451357E-02 -0.54772772461E-02  0.97352022496E-02  0.14986117672E-01  0.00000000000E+00 0. -1.
     999901    1    3    3    0    0 -0.49754350903E-01 -0.11635802511E+00 -0.39522155261E-01  0.88993071989E+00  0.88000000000E+00 0.  1.
        -11    1    4    4    0    0  0.33142459716E-01  0.63343310564E-01 -0.31434442762E-02  0.71560743374E-01  0.51100000000E-03 0. -1.
         11    1    4    4    0    0  0.66214460510E-02  0.58491991792E-01  0.32930397287E-01  0.67452419068E-01  0.51100000000E-03 0.  1.
</event>
<event>
 8    1  0.2001339E+004  0.1043930E+01  0.7957747E-01            NaN
         13   -1    0    0    0    0  0.00000000000E+00  0.00000000000E+00  0.74505805969E-08  0.10566000000E+00  0.10566000000E+00 0.  1.
     999900   -1    0    0    0    0 -0.00000000000E+00 -0.00000000000E+00 -0.74505805969E-08  0.93827000000E+00  0.93827000000E+00 0.  1.
     999902    2    1    2    0    0 -0.94942727938E-02  0.41958157562E-02 -0.47557098078E-02  0.10325123443E+01  0.10324492134E+01 0.  0.
     999903    2    3    3    0    0 -0.10694358413E+00 -0.81029719975E-01 -0.20683809886E-01  0.14289812196E+00  0.44601654261E-01 0.  0.
         14    1    1    2    0    0  0.94942727938E-02 -0.41958157562E-02  0.47557098078E-02  0.11417655693E-01  0.00000000000E+00 0.  1.
     999901    1    3    3    0    0  0.97449311341E-01  0.85225535732E-01  0.15928100078E-01  0.88961422234E+00  0.88000000000E+00 0. -1.
        -11    1    4    4    0    0 -0.67413162337E-01 -0.72645032932E-01 -0.25125118043E-01  0.10224171332E+00  0.51100000000E-03 0. -1.
         11    1    4    4    0    0 -0.39530421798E-01 -0.83846870435E-02  0.44413081576E-02  0.40656408640E-01  0.51100000000E-03 0.  1.
</event>
<event>
 8    1  0.2001339E+004  0.1043930E+01  0.7957747E-01            NaN
         13   -1    0    0    0    0  0.00000000000E+00  0.00000000000E+00  0.74505805969E-08  0.10566000000E+00  0.10566000000E+00 0. -1.
     999900   -1    0    0    0    0 -0.00000000000E+00 -0.00000000000E+00 -0.74505805969E-08  0.93827000000E+00  0.93827000000E+00 0. -1.
     999902    2    1    2    0    0  0.12025381457E-01 -0.57853597598E-02 -0.25761173598E-02  0.10303389527E+01  0.10302493100E+01 0.  0.
     999903    2    3    3    0    0  0.11723648191E+00  0.41809374384E-01 -0.50007013547E-01  0.14152832926E+00  0.45134799259E-01 0.  0.
         14    1    1    2    0    0 -0.12025381457E-01  0.57853597598E-02  0.25761173598E-02  0.13591047325E-01  0.00000000000E+00 0.  1.
     999901    1    3    3    0    0 -0.10521110045E+00 -0.47594734144E-01  0.47430896187E-01  0.88881062341E+00  0.88000000000E+00 0. -1.
        -11    1    4    4    0    0  0.62416374247E-01  0.75804220617E-02 -0.43740032995E-01  0.76594504895E-01  0.51100000000E-03 0. -1.
         11    1    4    4    0    0  0.54820107659E-01  0.34228952323E-01 -0.62669805518E-02  0.64933824368E-01  0.51100000000E-03 0.  1.
</event>
<event>
 8    1  0.2001339E+004  0.1043930E+01  0.7957747E-01            NaN
         13   -1    0    0    0    0  0.00000000000E+00  0.00000000000E+00  0.74505805969E-08  0.10566000000E+00  0.10566000000E+00 0. -1.
     999900   -1    0    0    0    0 -0.00000000000E+00 -0.00000000000E+00 -0.74505805969E-08  0.93827000000E+00  0.93827000000E+00 0.  1.
     999902    2    1    2    0    0  0.74776978704E-02 -0.30256614198E-02  0.10583264817E-01  0.10306230061E+01  0.10305370952E+01 0.  0.
     999903    2    3    3    0    0 -0.10365199343E+00  0.58189659721E-01  0.54768997879E-01  0.14042667785E+00  0.50894365909E-01 0.  0.
         14    1    1    2    0    0 -0.74776978704E-02  0.30256614198E-02 -0.10583264817E-01  0.13306993900E-01  0.00000000000E+00 0.  1.
     999901    1    3    3    0    0  0.11112969130E+00 -0.61215321141E-01 -0.44185733062E-01  0.89019632825E+00  0.88000000000E+00 0. -1.
        -11    1    4    4    0    0 -0.87832031761E-01  0.48615460422E-01  0.64697778491E-01  0.11943195744E+00  0.51100000000E-03 0.  1.
         11    1    4    4    0    0 -0.15819961670E-01  0.95741992988E-02 -0.99287806117E-02  0.20994720405E-01  0.51100000000E-03 0. -1.
</event>
<event>
 8    1  0.2001339E+004  0.1043930E+01  0.7957747E-01            NaN
         13   -1    0    0    0    0  0.00000000000E+00  0.00000000000E+00  0.74505805969E-08  0.10566000000E+00  0.10566000000E+00 0.  1.
     999900   -1    0    0    0    0 -0.00000000000E+00 -0.00000000000E+00 -0.74505805969E-08  0.93827000000E+00  0.93827000000E+00 0. -1.
     999902    2    1    2    0    0  0.12132511570E-01  0.25275663342E-02 -0.54398910658E-02  0.10303956421E+01  0.10303067507E+01 0.  0.
     999903    2    3    3    0    0 -0.36747714307E-02  0.90005131262E-01  0.97517095431E-01  0.13994500585E+00  0.44278585813E-01 0.  0.
         14    1    1    2    0    0 -0.12132511570E-01 -0.25275663342E-02  0.54398910658E-02  0.13534357885E-01  0.00000000000E+00 0.  1.
     999901    1    3    3    0    0  0.15807283000E-01 -0.87477564927E-01 -0.10295698650E+00  0.89045063627E+00  0.88000000000E+00 0. -1.
        -11    1    4    4    0    0 -0.12154194304E-01  0.83995807711E-01  0.68334429112E-01  0.10896272516E+00  0.51100000000E-03 0.  1.
         11    1    4    4    0    0  0.84794228732E-02  0.60093235510E-02  0.29182666319E-01  0.30982280682E-01  0.51100000000E-03 0. -1.
</event>
<event>
 8    1  0.2001339E+004  0.1043930E+01  0.7957747E-01            NaN
         13   -1    0    0    0    0  0.00000000000E+00  0.00000000000E+00  0.74505805969E-08  0.10566000000E+00  0.10566000000E+00 0.  1.
     999900   -1    0    0    0    0 -0.00000000000E+00 -0.00000000000E+00 -0.74505805969E-08  0.93827000000E+00  0.93827000000E+00 0.  1.
     999902    2    1    2    0    0  0.60531696674E-02 -0.64656290803E-02 -0.96303701963E-02  0.10308460689E+01  0.10307630322E+01 0.  0.
     999903    2    3    3    0    0  0.11736740841E+00  0.21593505265E-01  0.59410914807E-01  0.14070851000E+00  0.45031544066E-01 0.  0.
         14    1    1    2    0    0 -0.60531696674E-02  0.64656290803E-02  0.96303701963E-02  0.13083931081E-01  0.00000000000E+00 0.  1.
     999901    1    3    3    0    0 -0.11131423874E+00 -0.28059134345E-01 -0.69041285003E-01  0.89013755892E+00  0.88000000000E+00 0.  1.
        -11    1    4    4    0    0  0.42256607109E-01  0.25452590046E-01  0.89510547575E-02  0.50138185913E-01  0.51100000000E-03 0.  1.
         11    1    4    4    0    0  0.75110801302E-01 -0.38590847815E-02  0.50459860049E-01  0.90570324084E-01  0.51100000000E-03 0. -1.
</event>
<event>
 8    1  0.2001339E+004  0.1043930E+01  0.7957747E-01            NaN
         13   -1    0    0    0    0  0.00000000000E+00  0.00000000000E+00  0.74505805969E-08  0.10566000000E+00  0.10566000000E+00 0. -1.
     999900   -1    0    0    0    0 -0.00000000000E+00 -0.00000000000E+00 -0.74505805969E-08  0.93827000000E+00  0.93827000000E+00 0.  1.
     999902    2    1    2    0    0 -0.29782481672E-02 -0.28846604459E-02  0.14604357139E-01  0.10287484824E+01  0.10286364575E+01 0.  0.
     999903    2    3    3    0    0  0.93494374281E-01 -0.77405277934E-01 -0.43464347174E-01  0.13844950809E+00  0.50461289517E-01 0.  0.
         14    1    1    2    0    0  0.29782481672E-02  0.28846604459E-02 -0.14604357139E-01  0.15181517562E-01  0.00000000000E+00 0.  1.
     999901    1    3    3    0    0 -0.96472622448E-01  0.74520617488E-01  0.58068704313E-01  0.89029897435E+00  0.88000000000E+00 0.  1.
        -11    1    4    4    0    0  0.51221642096E-01 -0.67496986085E-01 -0.43013162756E-01  0.95025749357E-01  0.51100000000E-03 0. -1.
         11    1    4    4    0    0  0.42272732185E-01 -0.99082918485E-02 -0.45118441794E-03  0.43423758728E-01  0.51100000000E-03 0.  1.
</event>
<event>
 8    1  0.2001339E+004  0.1043930E+01  0.7957747E-01            NaN
         13   -1    0    0    0    0  0.00000000000E+00  0.00000000000E+00  0.74505805969E-08  0.10566000000E+00  0.10566000000E+00 0. -1.
     999900   -1    0    0    0    0 -0.00000000000E+00 -0.00000000000E+00 -0.74505805969E-08  0.93827000000E+00  0.93827000000E+00 0. -1.
     999902    2    1    2    0    0 -0.64021518963E-02 -0.11472026580E-01 -0.10591576237E-02  0.10307498347E+01  0.10306655641E+01 0.  0.
     999903    2    3    3    0    0 -0.44524107869E-01  0.11468792552E+00  0.48454622218E-01  0.13955892841E+00  0.44644458159E-01 0.  0.
         14    1    1    2    0    0  0.64021518963E-02  0.11472026580E-01  0.10591576237E-02  0.13180165311E-01  0.00000000000E+00 0.  1.
     999901    1    3    3    0    0  0.38121955972E-01 -0.12615995210E+00 -0.49513779841E-01  0.89119090628E+00  0.88000000000E+00 0.  1.
        -11    1    4    4    0    0 -0.20937445552E-01  0.62473425001E-01  0.22093247956E-02  0.65927594334E-01  0.51100000000E-03 0.  1.
         11    1    4    4    0    0 -0.23586662316E-01  0.52214500514E-01  0.46245297422E-01  0.73631334076E-01  0.51100000000E-03 0. -1.
</event>
<event>
 8    1  0.2001339E+004  0.1043930E+01  0.7957747E-01            NaN
         13   -1    0    0    0    0  0.00000000000E+00  0.00000000000E+00  0.74505805969E-08  0.10566000000E+00  0.10566000000E+00 0. -1.
     999900   -1    0    0    0    0 -0.00000000000E+00 -0.00000000000E+00 -0.74505805969E-08  0.93827000000E+00  0.93827000000E+00 0.  1.
     999902    2    1    2    0    0  0.90555821116E-02  0.32375171551E-02 -0.10241176354E-01  0.10298812713E+01  0.10297854467E+01 0.  0.
     999903    2    3    3    0    0 -0.33621208092E-02  0.92893519204E-01  0.93197404357E-01  0.13921189493E+00  0.45317609638E-01 0.  0.
         14    1    1    2    0    0 -0.90555821116E-02 -0.32375171551E-02  0.10241176354E-01  0.14048728691E-01  0.00000000000E+00 0. -1.
     999901    1    3    3    0    0  0.12417702921E-01 -0.89656002049E-01 -0.10343858071E+00  0.89066937638E+00  0.88000000000E+00 0.  1.
        -11    1    4    4    0    0 -0.23241056732E-01  0.35134608571E-01  0.42300553302E-01  0.59700798723E-01  0.51100000000E-03 0.  1.
         11    1    4    4    0    0  0.19878935923E-01  0.57758910633E-01  0.50896851055E-01  0.79511096202E-01  0.51100000000E-03 0. -1.
</event>
<event>
 7    1  0.2001339E+004  0.1043930E+01  0.7957747E-01            NaN
         13   -1    0    0    0    0  0.00000000000E+00  0.00000000000E+00  0.74505805969E-08  0.10566000000E+00  0.10566000000E+00 0. -1.
     999900   -1    0    0    0    0 -0.00000000000E+00 -0.00000000000E+00 -0.74505805969E-08  0.93827000000E+00  0.93827000000E+00 0. -1.
     999903    2    1    2    0    0  0.41618309963E-01 -0.37415073369E-01  0.18184668401E-01  0.74111018088E-01  0.45053184103E-01 0.  0.
         14    1    1    2    0    0 -0.18290349367E-01  0.23599687312E-01  0.78616899996E-01  0.84095773296E-01  0.00000000000E+00 0. -1.
     999901    1    1    2    0    0 -0.23327960596E-01  0.13815386057E-01 -0.96801568397E-01  0.88572320862E+00  0.88000000000E+00 0. -1.
        -11    1    3    3    0    0  0.37108563864E-01 -0.14786335170E-01 -0.63232097928E-02  0.40446573686E-01  0.51100000000E-03 0.  1.
         11    1    3    3    0    0  0.45097460987E-02 -0.22628738199E-01  0.24507878194E-01  0.33664444402E-01  0.51100000000E-03 0. -1.
</event>
<event>
 8    1  0.2001339E+004  0.1043930E+01  0.7957747E-01            NaN
         13   -1    0    0    0    0  0.00000000000E+00  0.00000000000E+00  0.74505805969E-08  0.10566000000E+00  0.10566000000E+00 0. -1.
     999900   -1    0    0    0    0 -0.00000000000E+00 -0.00000000000E+00 -0.74505805969E-08  0.93827000000E+00  0.93827000000E+00 0.  1.
     999902    2    1    2    0    0  0.40175121676E-02  0.70722000765E-02 -0.11356325062E-01  0.10299613731E+01  0.10298666455E+01 0.  0.
     999903    2    3    3    0    0 -0.72792662901E-01 -0.75814287440E-01 -0.81531896918E-01  0.13996441600E+00  0.43543192097E-01 0.  0.
         14    1    1    2    0    0 -0.40175121676E-02 -0.70722000765E-02  0.11356325062E-01  0.13968626878E-01  0.00000000000E+00 0. -1.
     999901    1    3    3    0    0  0.76810175069E-01  0.82886487516E-01  0.70175571856E-01  0.88999695713E+00  0.88000000000E+00 0. -1.
        -11    1    4    4    0    0 -0.50319065865E-01 -0.26171239919E-01 -0.26815237237E-01  0.62739622707E-01  0.51100000000E-03 0.  1.
         11    1    4    4    0    0 -0.22473597037E-01 -0.49643047521E-01 -0.54716659680E-01  0.77224793289E-01  0.51100000000E-03 0. -1.
</event>
<event>
 8    1  0.2001339E+004  0.1043930E+01  0.7957747E-01            NaN
         13   -1    0    0    0    0  0.00000000000E+00  0.00000000000E+00  0.74505805969E-08  0.10566000000E+00  0.10566000000E+00 0.  1.
     999900   -1    0    0    0    0 -0.00000000000E+00 -0.00000000000E+00 -0.74505805969E-08  0.93827000000E+00  0.93827000000E+00 0. -1.
     999902    2    1    2    0    0 -0.30015347070E-02 -0.83402493425E-02 -0.40663854469E-02  0.10341778484E+01  0.10341318667E+01 0.  0.
     999903    2    3    3    0    0  0.53490492021E-01 -0.30743464264E-01  0.12131533019E+00  0.14321554410E+00  0.44574537578E-01 0.  0.
         14    1    1    2    0    0  0.30015347070E-02  0.83402493425E-02  0.40663854469E-02  0.97521515726E-02  0.00000000000E+00 0.  1.
     999901    1    3    3    0    0 -0.56492026728E-01  0.22403214922E-01 -0.12538171564E+00  0.89096230433E+00  0.88000000000E+00 0. -1.
        -11    1    4    4    0    0  0.57444262011E-04 -0.19243288618E-01  0.18111379720E-01  0.26430865537E-01  0.51100000000E-03 0.  1.
         11    1    4    4    0    0  0.53433047759E-01 -0.11500175646E-01  0.10320395047E+00  0.11678467856E+00  0.51100000000E-03 0. -1.
</event>
<event>
 8    1  0.2001339E+004  0.1043930E+01  0.7957747E-01            NaN
         13   -1    0    0    0    0  0.00000000000E+00  0.00000000000E+00  0.74505805969E-08  0.10566000000E+00  0.10566000000E+00 0.  1.
     999900   -1    0    0    0    0 -0.00000000000E+00 -0.00000000000E+00 -0.74505805969E-08  0.93827000000E+00  0.93827000000E+00 0.  1.
     999902    2    1    2    0    0 -0.47988929418E-02  0.52493209498E-02  0.11388197834E-01  0.10305033178E+01  0.10304158444E+01 0.  0.
     999903    2    3    3    0    0 -0.56357927296E-01  0.43586728743E-01 -0.11066587070E+00  0.13975908603E+00  0.47006896288E-01 0.  0.
         14    1    1    2    0    0  0.47988929418E-02 -0.52493209498E-02 -0.11388197834E-01  0.13426682159E-01  0.00000000000E+00 0. -1.
     999901    1    3    3    0    0  0.51559034354E-01 -0.38337407793E-01  0.12205406853E+00  0.89074423181E+00  0.88000000000E+00 0. -1.
        -11    1    4    4    0    0 -0.18940378862E-01  0.34097652708E-01 -0.26489927375E-01  0.47152574108E-01  0.51100000000E-03 0.  1.
         11    1    4    4    0    0 -0.37417548434E-01  0.94890760343E-02 -0.84175943324E-01  0.92606511922E-01  0.51100000000E-03 0. -1.
</event>
<event>
 8    1  0.2001339E+004  0.1043930E+01  0.7957747E-01            NaN
         13   -1    0    0    0    0  0.00000000000E+00  0.00000000000E+00  0.74505805969E-08  0.10566000000E+00  0.10566000000E+00 0. -1.
     999900   -1    0    0    0    0 -0.00000000000E+00 -0.00000000000E+00 -0.74505805969E-08  0.93827000000E+00  0.93827000000E+00 0.  1.
     999902    2    1    2    0    0 -0.10801910454E-01 -0.73324362217E-02  0.40027173422E-02  0.10302746847E+01  0.10301841866E+01 0.  0.
     999903    2    3    3    0    0  0.13020022879E+00  0.81144803977E-02 -0.14822312605E-01  0.13871728762E+00  0.44775445980E-01 0.  0.
         14    1    1    2    0    0  0.10801910454E-01  0.73324362217E-02 -0.40027173422E-02  0.13655315322E-01  0.00000000000E+00 0.  1.
     999901    1    3    3    0    0 -0.14100213925E+00 -0.15446916619E-01  0.18825029948E-01  0.89155739706E+00  0.88000000000E+00 0.  1.
        -11    1    4    4    0    0  0.70093613419E-01 -0.16896334496E-01 -0.73922010442E-03  0.72106922892E-01  0.51100000000E-03 0. -1.
         11    1    4    4    0    0  0.60106615373E-01  0.25010814893E-01 -0.14083092501E-01  0.66610364724E-01  0.51100000000E-03 0.  1.
</event>
<event>
 8    1  0.2001339E+004  0.1043930E+01  0.7957747E-01            NaN
         13   -1    0    0    0    0  0.00000000000E+00  0.00000000000E+00  0.74505805969E-08  0.10566000000E+00  0.10566000000E+00 0. -1.
     999900   -1    0    0    0    0 -0.00000000000E+00 -0.00000000000E+00 -0.74505805969E-08  0.93827000000E+00  0.93827000000E+00 0. -1.
     999902    2    1    2    0    0  0.12539013743E-01  0.57066074892E-02 -0.31465630485E-02  0.10297987193E+01  0.10297017574E+01 0.  0.
     999903    2    3    3    0    0 -0.36088994523E-01  0.45709794309E-01 -0.11878140699E+00  0.14000303756E+00  0.45826052176E-01 0.  0.
         14    1    1    2    0    0 -0.12539013743E-01 -0.57066074892E-02  0.31465630485E-02  0.14131280681E-01  0.00000000000E+00 0.  1.
     999901    1    3    3    0    0  0.48628008266E-01 -0.40003186820E-01  0.11563484394E+00  0.88979568176E+00  0.88000000000E+00 0.  1.
        -11    1    4    4    0    0 -0.84569921832E-04  0.29827096883E-01 -0.27391965078E-01  0.40499922622E-01  0.51100000000E-03 0. -1.
         11    1    4    4    0    0 -0.36004424602E-01  0.15882697426E-01 -0.91389441912E-01  0.99503114938E-01  0.51100000000E-03 0.  1.
</event>
<event>
 8    1  0.2001339E+004  0.1043930E+01  0.7957747E-01            NaN
         13   -1    0    0    0    0  0.00000000000E+00  0.00000000000E+00  0.74505805969E-08  0.10566000000E+00  0.10566000000E+00 0.  1.
     999900   -1    0    0    0    0 -0.00000000000E+00 -0.00000000000E+00 -0.74505805969E-08  0.93827000000E+00  0.93827000000E+00 0. -1.
     999902    2    1    2    0    0  0.36746038254E-02  0.68536799669E-02  0.12459884682E-01  0.10292424417E+01  0.10291376387E+01 0.  0.
     999903    2    3    3    0    0 -0.61726415708E-01 -0.13682976354E-01  0.11729856644E+00  0.14037226176E+00  0.44136650798E-01 0.  0.
         14    1    1    2    0    0 -0.36746038254E-02 -0.68536799669E-02 -0.12459884682E-01  0.14687558294E-01  0.00000000000E+00 0. -1.
     999901    1    3    3    0    0  0.65401019533E-01  0.20536656321E-01 -0.10483868176E+00  0.88887017995E+00  0.88000000000E+00 0. -1.
        -11    1    4    4    0    0 -0.65150003933E-01 -0.47177231044E-02  0.88391104692E-01  0.10990918266E+00  0.51100000000E-03 0.  1.
         11    1    4    4    0    0  0.34235882255E-02 -0.89652532500E-02  0.28907461750E-01  0.30463079096E-01  0.51100000000E-03 0. -1.
</event>
<event>
 8    1  0.2001339E+004  0.1043930E+01  0.7957747E-01            NaN
         13   -1    0    0    0    0  0.00000000000E+00  0.00000000000E+00  0.74505805969E-08  0.10566000000E+00  0.10566000000E+00 0.  1.
     999900   -1    0    0    0    0 -0.00000000000E+00 -0.00000000000E+00 -0.74505805969E-08  0.93827000000E+00  0.93827000000E+00 0. -1.
     999902    2    1    2    0    0  0.11396950814E-01 -0.12681149906E-01 -0.18669663717E-02  0.10267781017E+01  0.10266348341E+01 0.  0.
     999903    2    3    3    0    0  0.10574744666E+00  0.61829084338E-01 -0.44759307173E-01  0.13756859662E+00  0.43776306984E-01 0.  0.
         14    1    1    2    0    0 -0.11396950814E-01  0.12681149906E-01  0.18669663717E-02  0.17151898269E-01  0.00000000000E+00 0.  1.
     999901    1    3    3    0    0 -0.94350495846E-01 -0.74510234244E-01  0.42892340802E-01  0.88920950511E+00  0.88000000000E+00 0.  1.
        -11    1    4    4    0    0  0.94646214113E-01  0.52382770733E-01 -0.21773522823E-01  0.11034585598E+00  0.51100000000E-03 0.  1.
         11    1    4    4    0    0  0.11101232547E-01  0.94463136053E-02 -0.22985784350E-01  0.27222740641E-01  0.51100000000E-03 0. -1.
</event>
<event>
 8    1  0.2001339E+004  0.1043930E+01  0.7957747E-01            NaN
         13   -1    0    0    0    0  0.00000000000E+00  0.00000000000E+00  0.74505805969E-08  0.10566000000E+00  0.10566000000E+00 0. -1.
     999900   -1    0    0    0    0 -0.00000000000E+00 -0.00000000000E+00 -0.74505805969E-08  0.93827000000E+00  0.93827000000E+00 0.  1.
     999902    2    1    2    0    0 -0.56198528978E-02 -0.85606206358E-02 -0.86536906619E-02  0.10305227880E+01  0.10304355696E+01 0.  0.
     999903    2    3    3    0    0 -0.73298814365E-01  0.79768588624E-02  0.10976855297E+00  0.13986137204E+00  0.45560088919E-01 0.  0.
         14    1    1    2    0    0  0.56198528978E-02  0.85606206358E-02  0.86536906619E-02  0.13407212027E-01  0.00000000000E+00 0. -1.
     999901    1    3    3    0    0  0.67678961467E-01 -0.16537479498E-01 -0.11842224363E+00  0.89066141594E+00  0.88000000000E+00 0. -1.
        -11    1    4    4    0    0 -0.74650766052E-01  0.11778878534E-01  0.80906248138E-01  0.11071386977E+00  0.51100000000E-03 0.  1.
         11    1    4    4    0    0  0.13519516872E-02 -0.38020196712E-02  0.28862304831E-01  0.29147502261E-01  0.51100000000E-03 0. -1.
</event>
<event>
 8    1  0.2001339E+004  0.1043930E+01  0.7957747E-01            NaN
         13   -1    0    0    0    0  0.00000000000E+00  0.00000000000E+00  0.74505805969E-08  0.10566000000E+00  0.10566000000E+00 0.  1.
     999900   -1    0    0    0    0 -0.00000000000E+00 -0.00000000000E+00 -0.74505805969E-08  0.93827000000E+00  0.93827000000E+00 0.  1.
     999902    2    1    2    0    0  0.17841271828E-01 -0.21176504955E-01  0.65099475129E-02  0.10154847059E+01  0.10150862294E+01 0.  0.
     999903    2    3    3    0    0 -0.22628261940E-01 -0.43503020800E-01  0.10926719929E+00  0.12830078509E+00  0.46013254119E-01 0.  0.
         14    1    1    2    0    0 -0.17841271828E-01  0.21176504955E-01 -0.65099475129E-02  0.28445294148E-01  0.00000000000E+00 0. -1.
     999901    1    3    3    0    0  0.40469533768E-01  0.22326515844E-01 -0.10275725178E+00  0.88718392077E+00  0.88000000000E+00 0.  1.
        -11    1    4    4    0    0  0.43910204806E-02 -0.27741337173E-01  0.22265313561E-01  0.35845057650E-01  0.51100000000E-03 0.  1.
         11    1    4    4    0    0 -0.27019282421E-01 -0.15761683627E-01  0.87001885733E-01  0.92455727435E-01  0.51100000000E-03 0. -1.
</event>
<event>
 8    1  0.2001339E+004  0.1043930E+01  0.7957747E-01            NaN
         13   -1    0    0    0    0  0.00000000000E+00  0.00000000000E+00  0.74505805969E-08  0.10566000000E+00  0.10566000000E+00 0.  1.
     999900   -1    0    0    0    0 -0.00000000000E+00 -0.00000000000E+00 -0.74505805969E-08  0.93827000000E+00  0.93827000000E+00 0. -1.
     999902    2    1    2    0    0  0.12045990378E-01 -0.35121313474E-02 -0.71581733374E-02  0.10294842257E+01  0.10293828688E+01 0.  0.
     999903    2    3    3    0    0  0.10690625809E+00 -0.46041905036E-01 -0.65658739203E-01  0.14143604665E+00  0.46306373415E-01 0.  0.
         14    1    1    2    0    0 -0.12045990378E-01  0.35121313474E-02  0.71581733374E-02  0.14445774341E-01  0.00000000000E+00 0.  1.
     999901    1    3    3    0    0 -0.94860267713E-01  0.42529773689E-01  0.58500565865E-01  0.88804817901E+00  0.88000000000E+00 0.  1.
        -11    1    4    4    0    0  0.55682267808E-01 -0.61799044081E-02 -0.48982347403E-01  0.74419336498E-01  0.51100000000E-03 0. -1.
         11    1    4    4    0    0  0.51223990284E-01 -0.39862000628E-01 -0.16676391800E-01  0.67016710148E-01  0.51100000000E-03 0.  1.
</event>
<event>
 8    1  0.2001339E+004  0.1043930E+01  0.7957747E-01            NaN
         13   -1    0    0    0    0  0.00000000000E+00  0.00000000000E+00  0.74505805969E-08  0.10566000000E+00  0.10566000000E+00 0. -1.
     999900   -1    0    0    0    0 -0.00000000000E+00 -0.00000000000E+00 -0.74505805969E-08  0.93827000000E+00  0.93827000000E+00 0. -1.
     999902    2    1    2    0    0  0.88111251604E-02  0.82503597675E-04 -0.99094644283E-02  0.10306695242E+01  0.10305842168E+01 0.  0.
     999903    2    3    3    0    0 -0.11896218265E-01  0.33548661809E-01 -0.13002541431E+00  0.14163824283E+00  0.43448253682E-01 0.  0.
         14    1    1    2    0    0 -0.88111251604E-02 -0.82503597675E-04  0.99094644283E-02  0.13260475809E-01  0.00000000000E+00 0. -1.
     999901    1    3    3    0    0  0.20707343425E-01 -0.33466158211E-01  0.12011594988E+00  0.88903128136E+00  0.88000000000E+00 0.  1.
        -11    1    4    4    0    0  0.25299751596E-02  0.34575269419E-01 -0.53471167433E-01  0.63728148392E-01  0.51100000000E-03 0.  1.
         11    1    4    4    0    0 -0.14426193424E-01 -0.10266076109E-02 -0.76554246877E-01  0.77910094441E-01  0.51100000000E-03 0. -1.
</event>
<event>
 8    1  0.2001339E+004  0.1043930E+01  0.7957747E-01            NaN
         13   -1    0    0    0    0  0.00000000000E+00  0.00000000000E+00  0.74505805969E-08  0.10566000000E+00  0.10566000000E+00 0.  1.
     999900   -1    0    0    0    0 -0.00000000000E+00 -0.00000000000E+00 -0.74505805969E-08  0.93827000000E+00  0.93827000000E+00 0. -1.
     999902    2    1    2    0    0  0.10254978010E-02  0.12028919628E-01  0.53373100445E-02  0.10307302488E+01  0.10306457259E+01 0.  0.
     999903    2    3    3    0    0 -0.19153629934E-01 -0.12463495486E+00  0.43656030449E-01  0.13912914062E+00  0.39374296959E-01 0.  0.
         14    1    1    2    0    0 -0.10254978010E-02 -0.12028919628E-01 -0.53373100445E-02  0.13199751198E-01  0.00000000000E+00 0. -1.
     999901    1    3    3    0    0  0.20179127735E-01  0.13666387449E+00 -0.38318720404E-01  0.89160110819E+00  0.88000000000E+00 0. -1.
        -11    1    4    4    0    0 -0.16932261937E-01 -0.88009034548E-01  0.11541794302E-01  0.90364626891E-01  0.51100000000E-03 0. -1.
         11    1    4    4    0    0 -0.22213679971E-02 -0.36625920313E-01  0.32114236146E-01  0.48764513725E-01  0.51100000000E-03 0.  1.
</event>
<event>
 8    1  0.2001339E+004  0.1043930E+01  0.7957747E-01            NaN
         13   -1    0    0    0    0  0.00000000000E+00  0.00000000000E+00  0.74505805969E-08  0.10566000000E+00  0.10566000000E+00 0. -1.
     999900   -1    0    0    0    0 -0.00000000000E+00 -0.00000000000E+00 -0.74505805969E-08  0.93827000000E+00  0.93827000000E+00 0. -1.
     999902    2    1    2    0    0 -0.79847531880E-02 -0.34779941296E-02  0.85716781856E-02  0.10317100821E+01  0.10316377112E+01 0.  0.
     999903    2    3    3    0    0 -0.61344201277E-01  0.61913347106E-01 -0.10132258882E+00  0.14086777948E+00  0.44509445175E-01 0.  0.
         14    1    1    2    0    0  0.79847531880E-02  0.34779941296E-02 -0.85716781856E-02  0.12219917903E-01  0.00000000000E+00 0.  1.
     999901    1    3    3    0    0  0.53359448089E-01 -0.65391341235E-01  0.10989426701E+00  0.89084230262E+00  0.88000000000E+00 0.  1.
        -11    1    4    4    0    0 -0.30515893841E-01  0.21254709849E-02 -0.31895313714E-01  0.44196261853E-01  0.51100000000E-03 0. -1.
         11    1    4    4    0    0 -0.30828307436E-01  0.59787876121E-01 -0.69427275109E-01  0.96671517628E-01  0.51100000000E-03 0.  1.
</event>
<event>
 7    1  0.3119713E+004  0.1043930E+01  0.7957747E-01            NaN
         13   -1    0    0    0    0  0.00000000000E+00  0.00000000000E+00  0.74505805969E-08  0.10566000000E+00  0.10566000000E+00 0. -1.
     999900   -1    0    0    0    0 -0.00000000000E+00 -0.00000000000E+00 -0.74505805969E-08  0.93827000000E+00  0.93827000000E+00 0. -1.
     999903    2    1    2    0    0 -0.91209537538E-01 -0.15793466285E-01 -0.52054907142E-01  0.11499837684E+00  0.44116890236E-01 0.  0.
         14    1    1    2    0    0  0.94559518336E-02  0.36833611473E-01  0.22942324488E-01  0.44412613211E-01  0.00000000000E+00 0. -1.
     999901    1    1    2    0    0  0.81753585705E-01 -0.21040145188E-01  0.29112582654E-01  0.88451900994E+00  0.88000000000E+00 0.  1.
        -11    1    3    3    0    0 -0.71150036855E-01 -0.32336115292E-02 -0.17897207552E-01  0.73439465869E-01  0.51100000000E-03 0. -1.
         11    1    3    3    0    0 -0.20059500683E-01 -0.12559854756E-01 -0.34157699590E-01  0.41558910975E-01  0.51100000000E-03 0.  1.
</event>
<event>
 8    1  0.2001339E+004  0.1043930E+01  0.7957747E-01            NaN
         13   -1    0    0    0    0  0.00000000000E+00  0.00000000000E+00  0.74505805969E-08  0.10566000000E+00  0.10566000000E+00 0. -1.
     999900   -1    0    0    0    0 -0.00000000000E+00 -0.00000000000E+00 -0.74505805969E-08  0.93827000000E+00  0.93827000000E+00 0.  1.
     999902    2    1    2    0    0 -0.28895334824E-02 -0.31470349029E-02  0.12755296150E-01  0.10304782041E+01  0.10303904009E+01 0.  0.
     999903    2    3    3    0    0  0.83690430412E-01 -0.82061445709E-01  0.63895839431E-01  0.14124317920E+00  0.46138794522E-01 0.  0.
         14    1    1    2    0    0  0.28895334824E-02  0.31470349029E-02 -0.12755296150E-01  0.13451795877E-01  0.00000000000E+00 0.  1.
     999901    1    3    3    0    0 -0.86579963895E-01  0.78914410806E-01 -0.51140543280E-01  0.88923502492E+00  0.88000000000E+00 0.  1.
        -11    1    4    4    0    0  0.19422503002E-01  0.66807843921E-03  0.19272534549E-01  0.27374653616E-01  0.51100000000E-03 0. -1.
         11    1    4    4    0    0  0.64267927410E-01 -0.82729524148E-01  0.44623304882E-01  0.11386852559E+00  0.51100000000E-03 0.  1.
</event>
<event>
 8    1  0.2001339E+004  0.1043930E+01  0.7957747E-01            NaN
         13   -1    0    0    0    0  0.00000000000E+00  0.00000000000E+00  0.74505805969E-08  0.10566000000E+00  0.10566000000E+00 0. -1.
     999900   -1    0    0    0    0 -0.00000000000E+00 -0.00000000000E+00 -0.74505805969E-08  0.93827000000E+00  0.93827000000E+00 0.  1.
     999902    2    1    2    0    0  0.30361653010E-02 -0.64592843439E-02 -0.13052530705E-01  0.10290535350E+01  0.10289459989E+01 0.  0.
     999903    2    3    3    0    0  0.11675752732E+00  0.63536171026E-03 -0.62544811850E-01  0.14032839857E+00  0.46340933159E-01 0.  0.
         14    1    1    2    0    0 -0.30361653010E-02  0.64592843439E-02  0.13052530705E-01  0.14876465030E-01  0.00000000000E+00 0.  1.
     999901    1    3    3    0    0 -0.11372136201E+00 -0.70946460542E-02  0.49492281145E-01  0.88872513640E+00  0.88000000000E+00 0.  1.
        -11    1    4    4    0    0  0.10769356296E+00 -0.12418642334E-01 -0.47223149305E-01  0.11824725422E+00  0.51100000000E-03 0. -1.
         11    1    4    4    0    0  0.90639643587E-02  0.13054004045E-01 -0.15321662545E-01  0.22081144346E-01  0.51100000000E-03 0.  1.
</event>
<event>
 8    1  0.2001339E+004  0.1043930E+01  0.7957747E-01            NaN
         13   -1    0    0    0    0  0.00000000000E+00  0.00000000000E+00  0.74505805969E-08  0.10566000000E+00  0.10566000000E+00 0.  1.
     999900   -1    0    0    0    0 -0.00000000000E+00 -0.00000000000E+00 -0.74505805969E-08  0.93827000000E+00  0.93827000000E+00 0.  1.
     999902    2    1    2    0    0 -0.20295905121E-01 -0.26830700084E-02  0.11178686206E-01  0.10206043563E+01  0.10203377707E+01 0.  0.
     999903    2    3    3    0    0  0.64934386829E-02  0.10520130235E+00 -0.62878768746E-01  0.13052502647E+00  0.44424815282E-01 0.  0.
         14    1    1    2    0    0  0.20295905121E-01  0.26830700084E-02 -0.11178686206E-01  0.23325643713E-01  0.00000000000E+00 0. -1.
     999901    1    3    3    0    0 -0.26789343804E-01 -0.10788437236E+00  0.74057454953E-01  0.89007932982E+00  0.88000000000E+00 0. -1.
        -11    1    4    4    0    0  0.44963861040E-02  0.40152950013E-01 -0.49820558745E-01  0.64146910116E-01  0.51100000000E-03 0.  1.
         11    1    4    4    0    0  0.19970525789E-02  0.65048352337E-01 -0.13058210001E-01  0.66378116350E-01  0.51100000000E-03 0. -1.
</event>
<event>
 8    1  0.2001339E+004  0.1043930E+01  0.7957747E-01            NaN
         13   -1    0    0    0    0  0.00000000000E+00  0.00000000000E+00  0.74505805969E-08  0.10566000000E+00  0.10566000000E+00 0.  1.
     999900   -1    0    0    0    0 -0.00000000000E+00 -0.00000000000E+00 -0.74505805969E-08  0.93827000000E+00  0.93827000000E+00 0. -1.
     999902    2    1    2    0    0 -0.13794704677E-01 -0.25657098808E-02  0.49461148966E-02  0.10290524734E+01  0.10289449219E+01 0.  0.
     999903    2    3    3    0    0 -0.12366563311E+00  0.23142934609E-01  0.43199921863E-01  0.14102324583E+00  0.46824548920E-01 0.  0.
         14    1    1    2    0    0  0.13794704677E-01  0.25657098808E-02 -0.49461148966E-02  0.14877526572E-01  0.00000000000E+00 0. -1.
     999901    1    3    3    0    0  0.10987092843E+00 -0.25708644489E-01 -0.38253806967E-01  0.88802922760E+00  0.88000000000E+00 0.  1.
        -11    1    4    4    0    0 -0.32178755401E-01  0.82242064336E-02  0.34543700678E-01  0.47923253731E-01  0.51100000000E-03 0. -1.
         11    1    4    4    0    0 -0.91486877708E-01  0.14918728175E-01  0.86562211852E-02  0.93099992102E-01  0.51100000000E-03 0.  1.
</event>
<event>
 7    1  0.2001339E+004  0.1043930E+01  0.7957747E-01            NaN
         13   -1    0    0    0    0  0.00000000000E+00  0.00000000000E+00  0.74505805969E-08  0.10566000000E+00  0.10566000000E+00 0. -1.
     999900   -1    0    0    0    0 -0.00000000000E+00 -0.00000000000E+00 -0.74505805969E-08  0.93827000000E+00  0.93827000000E+00 0.  1.
     999903    2    1    2    0    0  0.83850330943E-01 -0.67734602700E-01 -0.46826490118E-01  0.12580367342E+00  0.44888636272E-01 0.  0.
         14    1    1    2    0    0 -0.18209543195E-01  0.21530941813E-01 -0.15679703153E-01  0.32264872690E-01  0.00000000000E+00 0.  1.
     999901    1    1    2    0    0 -0.65640787748E-01  0.46203660887E-01  0.62506193271E-01  0.88586145389E+00  0.88000000000E+00 0.  1.
        -11    1    3    3    0    0  0.74338953875E-01 -0.44135767002E-01 -0.50449809349E-01  0.10009840347E+00  0.51100000000E-03 0.  1.
         11    1    3    3    0    0  0.95113770678E-02 -0.23598835698E-01  0.36233192311E-02  0.25705269951E-01  0.51100000000E-03 0. -1.
</event>
<event>
 8    1  0.2001339E+004  0.1043930E+01  0.7957747E-01            NaN
         13   -1    0    0    0    0  0.00000000000E+00  0.00000000000E+00  0.74505805969E-08  0.10566000000E+00  0.10566000000E+00 0. -1.
     999900   -1    0    0    0    0 -0.00000000000E+00 -0.00000000000E+00 -0.74505805969E-08  0.93827000000E+00  0.93827000000E+00 0. -1.
     999902    2    1    2    0    0 -0.11585240395E-01 -0.12669080542E-02 -0.91888738456E-02  0.10290888999E+01  0.10289818781E+01 0.  0.
     999903    2    3    3    0    0 -0.11022315443E+00  0.13140254938E-01 -0.74716488704E-01  0.14103998637E+00  0.44586029172E-01 0.  0.
         14    1    1    2    0    0  0.11585240395E-01  0.12669080542E-02  0.91888738456E-02  0.14841100147E-01  0.00000000000E+00 0. -1.
     999901    1    3    3    0    0  0.98637914040E-01 -0.14407162993E-01  0.65527614858E-01  0.88804891348E+00  0.88000000000E+00 0.  1.
        -11    1    4    4    0    0 -0.10734570707E+00  0.21304292796E-01 -0.74452374453E-01  0.13236461348E+00  0.51100000000E-03 0.  1.
         11    1    4    4    0    0 -0.28774473629E-02 -0.81640378579E-02 -0.26411425095E-03  0.86753728916E-02  0.51100000000E-03 0. -1.
</event>
<event>
 8    1  0.2001339E+004  0.1043930E+01  0.7957747E-01            NaN
         13   -1    0    0    0    0  0.00000000000E+00  0.00000000000E+00  0.74505805969E-08  0.10566000000E+00  0.10566000000E+00 0.  1.
     999900   -1    0    0    0    0 -0.00000000000E+00 -0.00000000000E+00 -0.74505805969E-08  0.93827000000E+00  0.93827000000E+00 0. -1.
     999902    2    1    2    0    0 -0.91536436639E-02 -0.10620894419E-01  0.45850264862E-03  0.10299013573E+01  0.10298058084E+01 0.  0.
     999903    2    3    3    0    0 -0.39636759703E-01 -0.59826435631E-01  0.11265912556E+00  0.14089101687E+00  0.44809875524E-01 0.  0.
         14    1    1    2    0    0  0.91536436639E-02  0.10620894419E-01 -0.45850264862E-03  0.14028642674E-01  0.00000000000E+00 0.  1.
     999901    1    3    3    0    0  0.30483116039E-01  0.49205541212E-01 -0.11220062291E+00  0.88901034045E+00  0.88000000000E+00 0. -1.
        -11    1    4    4    0    0 -0.39105908335E-01 -0.30898429590E-01  0.44395744891E-01  0.66747496607E-01  0.51100000000E-03 0. -1.
         11    1    4    4    0    0 -0.53085136780E-03 -0.28928006041E-01  0.68263380666E-01  0.74143520267E-01  0.51100000000E-03 0.  1.
</event>
<event>
 8    1  0.2001339E+004  0.1043930E+01  0.7957747E-01            NaN
         13   -1    0    0    0    0  0.00000000000E+00  0.00000000000E+00  0.74505805969E-08  0.10566000000E+00  0.10566000000E+00 0. -1.
     999900   -1    0    0    0    0 -0.00000000000E+00 -0.00000000000E+00 -0.74505805969E-08  0.93827000000E+00  0.93827000000E+00 0.  1.
     999902    2    1    2    0    0  0.55647130116E-03 -0.77598285101E-02 -0.10254585918E-01  0.10310582817E+01  0.10309779334E+01 0.  0.
     999903    2    3    3    0    0 -0.98074757614E-01 -0.49515150008E-01 -0.77588324796E-01  0.14201078099E+00  0.45570885556E-01 0.  0.
         14    1    1    2    0    0 -0.55647130116E-03  0.77598285101E-02  0.10254585918E-01  0.12871718268E-01  0.00000000000E+00 0. -1.
     999901    1    3    3    0    0  0.98631228915E-01  0.41755321498E-01  0.67333738878E-01  0.88904750075E+00  0.88000000000E+00 0. -1.
        -11    1    4    4    0    0 -0.60413422454E-01 -0.42572329663E-01 -0.27278621081E-01  0.78781781871E-01  0.51100000000E-03 0.  1.
         11    1    4    4    0    0 -0.37661335160E-01 -0.69428203450E-02 -0.50309703715E-01  0.63228999116E-01  0.51100000000E-03 0. -1.
</event>
<event>
 8    1  0.2001339E+004  0.1043930E+01  0.7957747E-01            NaN
         13   -1    0    0    0    0  0.00000000000E+00  0.00000000000E+00  0.74505805969E-08  0.10566000000E+00  0.10566000000E+00 0.  1.
     999900   -1    0    0    0    0 -0.00000000000E+00 -0.00000000000E+00 -0.74505805969E-08  0.93827000000E+00  0.93827000000E+00 0.  1.
     999902    2    1    2    0    0 -0.54128423821E-02 -0.13659049445E-04  0.12805478462E-01  0.10300275064E+01  0.10299336797E+01 0.  0.
     999903    2    3    3    0    0 -0.39316122536E-01  0.99899524591E-01  0.85169832205E-01  0.14077575558E+00  0.32221740126E-01 0.  0.
         14    1    1    2    0    0  0.54128423821E-02  0.13659049445E-04 -0.12805478462E-01  0.13902493584E-01  0.00000000000E+00 0. -1.
     999901    1    3    3    0    0  0.33903280154E-01 -0.99913183641E-01 -0.72364353743E-01  0.88925175084E+00  0.88000000000E+00 0.  1.
        -11    1    4    4    0    0 -0.42556216504E-01  0.79706478995E-01  0.60566837368E-01  0.10877847796E+00  0.51100000000E-03 0.  1.
         11    1    4    4    0    0  0.32400939684E-02  0.20193045597E-01  0.24602994837E-01  0.31997277624E-01  0.51100000000E-03 0. -1.
</event>
<event>
 8    1  0.2001339E+004  0.1043930E+01  0.7957747E-01            NaN
         13   -1    0    0    0    0  0.00000000000E+00  0.00000000000E+00  0.74505805969E-08  0.10566000000E+00  0.10566000000E+00 0.  1.
     999900   -1    0    0    0    0 -0.00000000000E+00 -0.00000000000E+00 -0.74505805969E-08  0.93827000000E+00  0.93827000000E+00 0. -1.
     999902    2    1    2    0    0 -0.11151933380E-01 -0.34836932172E-02  0.77990097342E-02  0.10298827124E+01  0.10297869076E+01 0.  0.
     999903    2    3    3    0    0 -0.96916326020E-01  0.71781137915E-01 -0.56176819545E-01  0.14021241807E+00  0.44253600053E-01 0.  0.
         14    1    1    2    0    0  0.11151933380E-01  0.34836932172E-02 -0.77990097342E-02  0.14047287616E-01  0.00000000000E+00 0. -1.
     999901    1    3    3    0    0  0.85764392640E-01 -0.75264831132E-01  0.63975829279E-01  0.88967029431E+00  0.88000000000E+00 0.  1.
        -11    1    4    4    0    0 -0.26058784723E-01  0.37589608550E-01 -0.37990205343E-01  0.59460539479E-01  0.51100000000E-03 0. -1.
         11    1    4    4    0    0 -0.70857541297E-01  0.34191529365E-01 -0.18186614201E-01  0.80751878592E-01  0.51100000000E-03 0.  1.
</event>
<event>
 8    1  0.2001339E+004  0.1043930E+01  0.7957747E-01            NaN
         13   -1    0    0    0    0  0.00000000000E+00  0.00000000000E+00  0.74505805969E-08  0.10566000000E+00  0.10566000000E+00 0.  1.
     999900   -1    0    0    0    0 -0.00000000000E+00 -0.00000000000E+00 -0.74505805969E-08  0.93827000000E+00  0.93827000000E+00 0.  1.
     999902    2    1    2    0    0  0.63927139680E-02 -0.12726508925E-01 -0.24415192854E-02  0.10294803689E+01  0.10293789575E+01 0.  0.
     999903    2    3    3    0    0  0.10190866498E+00 -0.86044692792E-01 -0.14666306141E-01  0.14119646253E+00  0.43957653934E-01 0.  0.
         14    1    1    2    0    0 -0.63927139680E-02  0.12726508925E-01  0.24415192854E-02  0.14449631058E-01  0.00000000000E+00 0.  1.
     999901    1    3    3    0    0 -0.95515951007E-01  0.73318183867E-01  0.12224786856E-01  0.88828390642E+00  0.88000000000E+00 0. -1.
        -11    1    4    4    0    0  0.31715784867E-01 -0.44905975863E-01 -0.22612879004E-01  0.59447801438E-01  0.51100000000E-03 0.  1.
         11    1    4    4    0    0  0.70192880109E-01 -0.41138716929E-01  0.79465728629E-02  0.81748661089E-01  0.51100000000E-03 0. -1.
</event>
<event>
 8    1  0.2001339E+004  0.1043930E+01  0.7957747E-01            NaN
         13   -1    0    0    0    0  0.00000000000E+00  0.00000000000E+00  0.74505805969E-08  0.10566000000E+00  0.10566000000E+00 0.  1.
     999900   -1    0    0    0    0 -0.00000000000E+00 -0.00000000000E+00 -0.74505805969E-08  0.93827000000E+00  0.93827000000E+00 0. -1.
     999902    2    1    2    0    0 -0.70751469668E-02  0.15809354936E-02  0.11412172561E-01  0.10304098393E+01  0.10303211355E+01 0.  0.
     999903    2    3    3    0    0  0.91332969249E-02  0.12084633079E+00 -0.52492693006E-01  0.13992077146E+00  0.46206998273E-01 0.  0.
         14    1    1    2    0    0  0.70751469668E-02 -0.15809354936E-02 -0.11412172561E-01  0.13520160657E-01  0.00000000000E+00 0. -1.
     999901    1    3    3    0    0 -0.16208443892E-01 -0.11926539530E+00  0.63904865567E-01  0.89048906788E+00  0.88000000000E+00 0.  1.
        -11    1    4    4    0    0 -0.40762791244E-02  0.51891239201E-01 -0.45901605545E-01  0.69401262740E-01  0.51100000000E-03 0. -1.
         11    1    4    4    0    0  0.13209576049E-01  0.68955091591E-01 -0.65910874609E-02  0.70519508724E-01  0.51100000000E-03 0.  1.
</event>
<event>
 8    1  0.2001339E+004  0.1043930E+01  0.7957747E-01            NaN
         13   -1    0    0    0    0  0.00000000000E+00  0.00000000000E+00  0.74505805969E-08  0.10566000000E+00  0.10566000000E+00 0. -1.
     999900   -1    0    0    0    0 -0.00000000000E+00 -0.00000000000E+00 -0.74505805969E-08  0.93827000000E+00  0.93827000000E+00 0.  1.
     999902    2    1    2    0    0  0.13851025131E-01 -0.15928702299E-02  0.31431821026E-02  0.10296377739E+01  0.10295385752E+01 0.  0.
     999903    2    3    3    0    0 -0.89925198568E-01  0.94644812127E-01  0.36815953527E-02  0.13832891274E+00  0.45575784762E-01 0.  0.
         14    1    1    2    0    0 -0.13851025131E-01  0.15928702299E-02 -0.31431821026E-02  0.14292226086E-01  0.00000000000E+00 0. -1.
     999901    1    3    3    0    0  0.10377622370E+00 -0.96237682357E-01 -0.53841325004E-03  0.89130886117E+00  0.88000000000E+00 0.  1.
        -11    1    4    4    0    0 -0.63030533079E-01  0.36644916621E-01  0.11877017345E-01  0.73871663555E-01  0.51100000000E-03 0.  1.
         11    1    4    4    0    0 -0.26894665489E-01  0.57999895506E-01 -0.81954219925E-02  0.64457249190E-01  0.51100000000E-03 0. -1.
</event>
<event>
 8    1  0.2001339E+004  0.1043930E+01  0.7957747E-01            NaN
         13   -1    0    0    0    0  0.00000000000E+00  0.00000000000E+00  0.74505805969E-08  0.10566000000E+00  0.10566000000E+00 0. -1.
     999900   -1    0    0    0    0 -0.00000000000E+00 -0.00000000000E+00 -0.74505805969E-08  0.93827000000E+00  0.93827000000E+00 0. -1.
     999902    2    1    2    0    0 -0.98882867399E-02 -0.69478774640E-02  0.73870505671E-02  0.10297659705E+01  0.10296685555E+01 0.  0.
     999903    2    3    3    0    0  0.13336926553E-01  0.99801097084E-01 -0.84028989934E-01  0.13831117828E+00  0.43942898146E-01 0.  0.
         14    1    1    2    0    0  0.98882867399E-02  0.69478774640E-02 -0.73870505671E-02  0.14164029511E-01  0.00000000000E+00 0.  1.
     999901    1    3    3    0    0 -0.23225213293E-01 -0.10674897455E+00  0.91416040501E-01  0.89145479221E+00  0.88000000000E+00 0.  1.
        -11    1    4    4    0    0  0.28824584622E-01  0.50752292870E-01 -0.42534455188E-01  0.72222523560E-01  0.51100000000E-03 0.  1.
         11    1    4    4    0    0 -0.15487658069E-01  0.49048804215E-01 -0.41494534746E-01  0.66088654716E-01  0.51100000000E-03 0. -1.
</event>
<event>
 8    1  0.2001339E+004  0.1043930E+01  0.7957747E-01            NaN
         13   -1    0    0    0    0  0.00000000000E+00  0.00000000000E+00  0.74505805969E-08  0.10566000000E+00  0.10566000000E+00 0.  1.
     999900   -1    0    0    0    0 -0.00000000000E+00 -0.00000000000E+00 -0.74505805969E-08  0.93827000000E+00  0.93827000000E+00 0. -1.
     999902    2    1    2    0    0  0.10710049997E-01 -0.45726176453E-02 -0.62998576903E-02  0.10306898259E+01  0.10306047812E+01 0.  0.
     999903    2    3    3    0    0 -0.11182292928E+00  0.34388035703E-01 -0.61718785160E-01  0.13962107377E+00  0.44698224651E-01 0.  0.
         14    1    1    2    0    0 -0.10710049997E-01  0.45726176453E-02  0.62998576903E-02  0.13240174092E-01  0.00000000000E+00 0.  1.
     999901    1    3    3    0    0  0.12253297927E+00 -0.38960653349E-01  0.55418927470E-01  0.89106875214E+00  0.88000000000E+00 0.  1.
        -11    1    4    4    0    0 -0.89078580254E-02  0.19101045506E-01 -0.12640137910E-01  0.24581173312E-01  0.51100000000E-03 0.  1.
         11    1    4    4    0    0 -0.10291507125E+00  0.15286990197E-01 -0.49078647251E-01  0.11503990046E+00  0.51100000000E-03 0. -1.
</event>
<event>
 8    1  0.2001339E+004  0.1043930E+01  0.7957747E-01            NaN
         13   -1    0    0    0    0  0.00000000000E+00  0.00000000000E+00  0.74505805969E-08  0.10566000000E+00  0.10566000000E+00 0.  1.
     999900   -1    0    0    0    0 -0.00000000000E+00 -0.00000000000E+00 -0.74505805969E-08  0.93827000000E+00  0.93827000000E+00 0.  1.
     999902    2    1    2    0    0  0.10612538082E-01 -0.49840583274E-02 -0.80402705065E-02  0.10297133636E+01  0.10296152186E+01 0.  0.
     999903    2    3    3    0    0  0.13137080205E+00  0.20692511418E-01  0.13674138685E-01  0.14083015406E+00  0.44268302039E-01 0.  0.
         14    1    1    2    0    0 -0.10612538082E-01  0.49840583274E-02  0.80402705065E-02  0.14216636443E-01  0.00000000000E+00 0.  1.
     999901    1    3    3    0    0 -0.12075826397E+00 -0.25676569746E-01 -0.21714409191E-01  0.88888320949E+00  0.88000000000E+00 0.  1.
        -11    1    4    4    0    0  0.61885046262E-01  0.31732411419E-01  0.25332752405E-02  0.69594421399E-01  0.51100000000E-03 0. -1.
         11    1    4    4    0    0  0.69485755786E-01 -0.11039900000E-01  0.11140863444E-01  0.71235732666E-01  0.51100000000E-03 0.  1.
</event>
<event>
 8    1  0.2001339E+004  0.1043930E+01  0.7957747E-01            NaN
         13   -1    0    0    0    0  0.00000000000E+00  0.00000000000E+00  0.74505805969E-08  0.10566000000E+00  0.10566000000E+00 0. -1.
     999900   -1    0    0    0    0 -0.00000000000E+00 -0.00000000000E+00 -0.74505805969E-08  0.93827000000E+00  0.93827000000E+00 0. -1.
     999902    2    1    2    0    0 -0.16971840534E-01  0.69924969068E-02  0.45836428866E-02  0.10250104819E+01  0.10248358599E+01 0.  0.
     999903    2    3    3    0    0 -0.89832374827E-01  0.62029808138E-01  0.71334731378E-01  0.13777124080E+00  0.44437801765E-01 0.  0.
         14    1    1    2    0    0  0.16971840534E-01 -0.69924969068E-02 -0.45836428866E-02  0.18919518129E-01  0.00000000000E+00 0. -1.
     999901    1    3    3    0    0  0.72860534292E-01 -0.55037311231E-01 -0.66751088491E-01  0.88723924107E+00  0.88000000000E+00 0. -1.
        -11    1    4    4    0    0 -0.23241853897E-01  0.34621766843E-01  0.93081150321E-02  0.42728826784E-01  0.51100000000E-03 0.  1.
         11    1    4    4    0    0 -0.66590520930E-01  0.27408041294E-01  0.62026616346E-01  0.95042414014E-01  0.51100000000E-03 0. -1.
</event>
<event>
 8    1  0.2001339E+004  0.1043930E+01  0.7957747E-01            NaN
         13   -1    0    0    0    0  0.00000000000E+00  0.00000000000E+00  0.74505805969E-08  0.10566000000E+00  0.10566000000E+00 0.  1.
     999900   -1    0    0    0    0 -0.00000000000E+00 -0.00000000000E+00 -0.74505805969E-08  0.93827000000E+00  0.93827000000E+00 0.  1.
     999902    2    1    2    0    0  0.97691769458E-02  0.24763685613E-02 -0.87337525609E-02  0.10305940466E+01  0.10305077589E+01 0.  0.
     999903    2    3    3    0    0 -0.12764737703E+00 -0.32005681983E-01 -0.61576787874E-02  0.13925855573E+00  0.45131051342E-01 0.  0.
         14    1    1    2    0    0 -0.97691769458E-02 -0.24763685613E-02  0.87337525609E-02  0.13335953406E-01  0.00000000000E+00 0. -1.
     999901    1    3    3    0    0  0.13741655397E+00  0.34482050544E-01 -0.25760737735E-02  0.89133549086E+00  0.88000000000E+00 0. -1.
        -11    1    4    4    0    0  0.84640600052E-04 -0.78149873715E-02 -0.49197596345E-02  0.92491268512E-02  0.51100000000E-03 0.  1.
         11    1    4    4    0    0 -0.12773201763E+00 -0.24190694612E-01 -0.12379191529E-02  0.13000942888E+00  0.51100000000E-03 0. -1.
</event>
<event>
 8    1  0.2001339E+004  0.1043930E+01  0.7957747E-01            NaN
         13   -1    0    0    0    0  0.00000000000E+00  0.00000000000E+00  0.74505805969E-08  0.10566000000E+00  0.10566000000E+00 0. -1.
     999900   -1    0    0    0    0 -0.00000000000E+00 -0.00000000000E+00 -0.74505805969E-08  0.93827000000E+00  0.93827000000E+00 0. -1.
     999902    2    1    2    0    0 -0.12203895918E-01 -0.54288773756E-02  0.64799606182E-03  0.10305573531E+01  0.10304705869E+01 0.  0.
     999903    2    3    3    0    0  0.10193730738E+00 -0.78984782263E-01  0.29517374821E-01  0.13967457383E+00  0.44809604927E-01 0.  0.
         14    1    1    2    0    0  0.12203895918E-01  0.54288773756E-02 -0.64799606182E-03  0.13372646859E-01  0.00000000000E+00 0. -1.
     999901    1    3    3    0    0 -0.11414120330E+00  0.73555904887E-01 -0.28869378759E-01  0.89088277931E+00  0.88000000000E+00 0.  1.
        -11    1    4    4    0    0  0.30948788736E-01 -0.52040887814E-01  0.11457144145E-01  0.61624741798E-01  0.51100000000E-03 0. -1.
         11    1    4    4    0    0  0.70988518647E-01 -0.26943894449E-01  0.18060230676E-01  0.78049832036E-01  0.51100000000E-03 0.  1.
</event>
<event>
 8    1  0.2001339E+004  0.1043930E+01  0.7957747E-01            NaN
         13   -1    0    0    0    0  0.00000000000E+00  0.00000000000E+00  0.74505805969E-08  0.10566000000E+00  0.10566000000E+00 0.  1.
     999900   -1    0    0    0    0 -0.00000000000E+00 -0.00000000000E+00 -0.74505805969E-08  0.93827000000E+00  0.93827000000E+00 0.  1.
     999902    2    1    2    0    0  0.20010439315E-02 -0.10390602857E-01  0.89004819067E-02  0.10301029474E+01  0.10300101431E+01 0.  0.
     999903    2    3    3    0    0 -0.13084433547E+00 -0.16745704626E-01  0.14138855349E-01  0.14009411450E+00  0.45008831791E-01 0.  0.
         14    1    1    2    0    0 -0.20010439315E-02  0.10390602857E-01 -0.89004819067E-02  0.13827052568E-01  0.00000000000E+00 0. -1.
     999901    1    3    3    0    0  0.13284537940E+00  0.63551017684E-02 -0.52383734422E-02  0.89000883293E+00  0.88000000000E+00 0.  1.
        -11    1    4    4    0    0 -0.39958413451E-01 -0.24025757709E-01  0.14776680728E-01  0.48913426105E-01  0.51100000000E-03 0.  1.
         11    1    4    4    0    0 -0.90885922015E-01  0.72800530828E-02 -0.63782537889E-03  0.91180688392E-01  0.51100000000E-03 0. -1.
</event>
<event>
 8    1  0.2001339E+004  0.1043930E+01  0.7957747E-01            NaN
         13   -1    0    0    0    0  0.00000000000E+00  0.00000000000E+00  0.74505805969E-08  0.10566000000E+00  0.10566000000E+00 0.  1.
     999900   -1    0    0    0    0 -0.00000000000E+00 -0.00000000000E+00 -0.74505805969E-08  0.93827000000E+00  0.93827000000E+00 0.  1.
     999902    2    1    2    0    0 -0.11917760542E-02 -0.97675746260E-02 -0.76521685280E-02  0.10314647873E+01  0.10313894637E+01 0.  0.
     999903    2    3    3    0    0 -0.81401340060E-01 -0.83457458748E-01  0.63022273643E-01  0.14193758145E+00  0.50824644315E-01 0.  0.
         14    1    1    2    0    0  0.11917760542E-02  0.97675746260E-02  0.76521685280E-02  0.12465212690E-01  0.00000000000E+00 0.  1.
     999901    1    3    3    0    0  0.80209564006E-01  0.73689884122E-01 -0.70674442171E-01  0.88952720585E+00  0.88000000000E+00 0.  1.
        -11    1    4    4    0    0 -0.30573737443E-01 -0.67064516357E-01  0.34314024961E-01  0.81302621148E-01  0.51100000000E-03 0. -1.
         11    1    4    4    0    0 -0.50827602617E-01 -0.16392942391E-01  0.28708248682E-01  0.60634960307E-01  0.51100000000E-03 0.  1.
</event>
<event>
 8    1  0.2001339E+004  0.1043930E+01  0.7957747E-01            NaN
         13   -1    0    0    0    0  0.00000000000E+00  0.00000000000E+00  0.74505805969E-08  0.10566000000E+00  0.10566000000E+00 0.  1.
     999900   -1    0    0    0    0 -0.00000000000E+00 -0.00000000000E+00 -0.74505805969E-08  0.93827000000E+00  0.93827000000E+00 0.  1.
     999902    2    1    2    0    0 -0.20322562653E-02 -0.74176047457E-04  0.16821000283E-01  0.10269865169E+01  0.10268467385E+01 0.  0.
     999903    2    3    3    0    0 -0.69283765234E-01  0.26695506540E-01  0.10891681002E+00  0.13922471356E+00  0.44808025713E-01 0.  0.
         14    1    1    2    0    0  0.20322562653E-02  0.74176047457E-04 -0.16821000283E-01  0.16943483058E-01  0.00000000000E+00 0. -1.
     999901    1    3    3    0    0  0.67251508969E-01 -0.26769682587E-01 -0.92095809734E-01  0.88776180338E+00  0.88000000000E+00 0.  1.
        -11    1    4    4    0    0 -0.36620922023E-01 -0.61808960618E-02  0.67617901600E-01  0.77147502512E-01  0.51100000000E-03 0.  1.
         11    1    4    4    0    0 -0.32662843211E-01  0.32876402602E-01  0.41298908418E-01  0.62077211053E-01  0.51100000000E-03 0. -1.
</event>
<event>
 8    1  0.2001339E+004  0.1043930E+01  0.7957747E-01            NaN
         13   -1    0    0    0    0  0.00000000000E+00  0.00000000000E+00  0.74505805969E-08  0.10566000000E+00  0.10566000000E+00 0.  1.
     999900   -1    0    0    0    0 -0.00000000000E+00 -0.00000000000E+00 -0.74505805969E-08  0.93827000000E+00  0.93827000000E+00 0. -1.
     999902    2    1    2    0    0  0.62990301967E-02 -0.30816748161E-02  0.12108301607E-01  0.10299376639E+01  0.10298426123E+01 0.  0.
     999903    2    3    3    0    0  0.58306249641E-01  0.73492218622E-01  0.95619471677E-01  0.14115060981E+00  0.44493666303E-01 0.  0.
         14    1    1    2    0    0 -0.62990301967E-02  0.30816748161E-02 -0.12108301607E-01  0.13992336077E-01  0.00000000000E+00 0. -1.
     999901    1    3    3    0    0 -0.52007219444E-01 -0.76573893438E-01 -0.83511170071E-01  0.88878705411E+00  0.88000000000E+00 0. -1.
        -11    1    4    4    0    0  0.81861124098E-02  0.45193880281E-01  0.36825390828E-01  0.58871638179E-01  0.51100000000E-03 0. -1.
         11    1    4    4    0    0  0.50120137231E-01  0.28298338341E-01  0.58794080850E-01  0.82278971632E-01  0.51100000000E-03 0.  1.
</event>
<event>
 8    1  0.2001339E+004  0.1043930E+01  0.7957747E-01            NaN
         13   -1    0    0    0    0  0.00000000000E+00  0.00000000000E+00  0.74505805969E-08  0.10566000000E+00  0.10566000000E+00 0.  1.
     999900   -1    0    0    0    0 -0.00000000000E+00 -0.00000000000E+00 -0.74505805969E-08  0.93827000000E+00  0.93827000000E+00 0.  1.
     999902    2    1    2    0    0  0.65688171993E-03  0.23508523583E-02  0.12915220879E-01  0.10307861448E+01  0.10307023408E+01 0.  0.
     999903    2    3    3    0    0 -0.10329421664E-01 -0.16616828931E-01  0.13353694557E+00  0.14228737027E+00  0.45063998381E-01 0.  0.
         14    1    1    2    0    0 -0.65688171993E-03 -0.23508523583E-02 -0.12915220879E-01  0.13143855247E-01  0.00000000000E+00 0. -1.
     999901    1    3    3    0    0  0.10986303384E-01  0.18967681289E-01 -0.12062172469E+00  0.88849877449E+00  0.88000000000E+00 0.  1.
        -11    1    4    4    0    0  0.16643732773E-01  0.77028609196E-03  0.54157265086E-01  0.56664606801E-01  0.51100000000E-03 0.  1.
         11    1    4    4    0    0 -0.26973154437E-01 -0.17387115023E-01  0.79379680483E-01  0.85622763467E-01  0.51100000000E-03 0. -1.
</event>
<event>
 8    1  0.2001339E+004  0.1043930E+01  0.7957747E-01            NaN
         13   -1    0    0    0    0  0.00000000000E+00  0.00000000000E+00  0.74505805969E-08  0.10566000000E+00  0.10566000000E+00 0. -1.
     999900   -1    0    0    0    0 -0.00000000000E+00 -0.00000000000E+00 -0.74505805969E-08  0.93827000000E+00  0.93827000000E+00 0. -1.
     999902    2    1    2    0    0 -0.98460784750E-02  0.26437934111E-02  0.95189398973E-02  0.10299820567E+01  0.10298876114E+01 0.  0.
     999903    2    3    3    0    0  0.57231628040E-01  0.11473336969E+00 -0.31084608853E-01  0.13941362028E+00  0.45063280418E-01 0.  0.
         14    1    1    2    0    0  0.98460784750E-02 -0.26437934111E-02 -0.95189398973E-02  0.13947943279E-01  0.00000000000E+00 0.  1.
     999901    1    3    3    0    0 -0.67077706515E-01 -0.11208957628E+00  0.40603548750E-01  0.89056843645E+00  0.88000000000E+00 0. -1.
        -11    1    4    4    0    0  0.18577677877E-01  0.70526409214E-01  0.74546941579E-04  0.72934019429E-01  0.51100000000E-03 0.  1.
         11    1    4    4    0    0  0.38653950163E-01  0.44206960478E-01 -0.31159155794E-01  0.66479600846E-01  0.51100000000E-03 0. -1.
</event>
<event>
 8    1  0.2001339E+004  0.1043930E+01  0.7957747E-01            NaN
         13   -1    0    0    0    0  0.00000000000E+00  0.00000000000E+00  0.74505805969E-08  0.10566000000E+00  0.10566000000E+00 0.  1.
     999900   -1    0    0    0    0 -0.00000000000E+00 -0.00000000000E+00 -0.74505805969E-08  0.93827000000E+00  0.93827000000E+00 0. -1.
     999902    2    1    2    0    0  0.47152634782E-02  0.85394553038E-02  0.10161732953E-01  0.10298439493E+01  0.10297476114E+01 0.  0.
     999903    2    3    3    0    0  0.35933031812E-01  0.12837665101E+00 -0.93661304404E-02  0.14095878241E+00  0.44831982345E-01 0.  0.
         14    1    1    2    0    0 -0.47152634782E-02 -0.85394553038E-02 -0.10161732953E-01  0.14086050659E-01  0.00000000000E+00 0. -1.
     999901    1    3    3    0    0 -0.31217768334E-01 -0.11983719570E+00  0.19527863393E-01  0.88888516693E+00  0.88000000000E+00 0.  1.
        -11    1    4    4    0    0  0.14605500107E-01  0.83731975430E-02 -0.89492870538E-02  0.19073068191E-01  0.51100000000E-03 0. -1.
         11    1    4    4    0    0  0.21327531705E-01  0.12000345347E+00 -0.41684338662E-03  0.12188571422E+00  0.51100000000E-03 0.  1.
</event>
<event>
 8    1  0.2001339E+004  0.1043930E+01  0.7957747E-01            NaN
         13   -1    0    0    0    0  0.00000000000E+00  0.00000000000E+00  0.74505805969E-08  0.10566000000E+00  0.10566000000E+00 0. -1.
     999900   -1    0    0    0    0 -0.00000000000E+00 -0.00000000000E+00 -0.74505805969E-08  0.93827000000E+00  0.93827000000E+00 0.  1.
     999902    2    1    2    0    0  0.39499281902E-03 -0.34228504190E-02  0.14057375603E-01  0.10294565162E+01  0.10293547673E+01 0.  0.
     999903    2    3    3    0    0 -0.11917757830E+00 -0.57092440964E-01  0.10227634587E-02  0.13965433267E+00  0.45160210405E-01 0.  0.
         14    1    1    2    0    0 -0.39499281902E-03  0.34228504190E-02 -0.14057375603E-01  0.14473483795E-01  0.00000000000E+00 0.  1.
     999901    1    3    3    0    0  0.11957257112E+00  0.53669590545E-01  0.13034612145E-01  0.88980218354E+00  0.88000000000E+00 0.  1.
        -11    1    4    4    0    0 -0.71752089134E-01 -0.29628428062E-01 -0.21264256976E-01  0.80489973228E-01  0.51100000000E-03 0.  1.
         11    1    4    4    0    0 -0.47425489163E-01 -0.27464012903E-01  0.22287020435E-01  0.59164359440E-01  0.51100000000E-03 0. -1.
</event>
<event>
 8    1  0.2001339E+004  0.1043930E+01  0.7957747E-01            NaN
         13   -1    0    0    0    0  0.00000000000E+00  0.00000000000E+00  0.74505805969E-08  0.10566000000E+00  0.10566000000E+00 0.  1.
     999900   -1    0    0    0    0 -0.00000000000E+00 -0.00000000000E+00 -0.74505805969E-08  0.93827000000E+00  0.93827000000E+00 0. -1.
     999902    2    1    2    0    0  0.82573901032E-02 -0.14258667592E-01 -0.24787314573E-02  0.10272675211E+01  0.10271323779E+01 0.  0.
     999903    2    3    3    0    0 -0.93792556308E-01  0.79336696959E-01  0.40098585966E-01  0.13542274102E+00  0.40497741745E-01 0.  0.
         14    1    1    2    0    0 -0.82573901032E-02  0.14258667592E-01  0.24787314573E-02  0.16662478880E-01  0.00000000000E+00 0.  1.
     999901    1    3    3    0    0  0.10204994641E+00 -0.93595364550E-01 -0.42577317424E-01  0.89184478010E+00  0.88000000000E+00 0. -1.
        -11    1    4    4    0    0 -0.78462273434E-01  0.53315140028E-01  0.14777702986E-01  0.96007677481E-01  0.51100000000E-03 0. -1.
         11    1    4    4    0    0 -0.15330282873E-01  0.26021556931E-01  0.25320882980E-01  0.39415063542E-01  0.51100000000E-03 0.  1.
</event>
<event>
 8    1  0.2001339E+004  0.1043930E+01  0.7957747E-01            NaN
         13   -1    0    0    0    0  0.00000000000E+00  0.00000000000E+00  0.74505805969E-08  0.10566000000E+00  0.10566000000E+00 0. -1.
     999900   -1    0    0    0    0 -0.00000000000E+00 -0.00000000000E+00 -0.74505805969E-08  0.93827000000E+00  0.93827000000E+00 0.  1.
     999902    2    1    2    0    0  0.69611663104E-02  0.33490857001E-02 -0.82119600551E-02  0.10326556708E+01  0.10325941235E+01 0.  0.
     999903    2    3    3    0    0  0.14810158692E-01  0.54283613270E-01 -0.12440581519E+00  0.14352297835E+00  0.44226541713E-01 0.  0.
         14    1    1    2    0    0 -0.69611663104E-02 -0.33490857001E-02  0.82119600551E-02  0.11274329221E-01  0.00000000000E+00 0. -1.
     999901    1    3    3    0    0 -0.78489923812E-02 -0.50934527569E-01  0.11619385513E+00  0.88913269243E+00  0.88000000000E+00 0. -1.
        -11    1    4    4    0    0  0.15429750216E-01  0.22204890147E-01 -0.98903790235E-01  0.10253465357E+00  0.51100000000E-03 0.  1.
         11    1    4    4    0    0 -0.61959152394E-03  0.32078723123E-01 -0.25502024950E-01  0.40988324781E-01  0.51100000000E-03 0. -1.
</event>
<event>
 8    1  0.2001339E+004  0.1043930E+01  0.7957747E-01            NaN
         13   -1    0    0    0    0  0.00000000000E+00  0.00000000000E+00  0.74505805969E-08  0.10566000000E+00  0.10566000000E+00 0. -1.
     999900   -1    0    0    0    0 -0.00000000000E+00 -0.00000000000E+00 -0.74505805969E-08  0.93827000000E+00  0.93827000000E+00 0. -1.
     999902    2    1    2    0    0  0.24255928608E-02  0.10937842548E-01 -0.77019820012E-02  0.10303343968E+01  0.10302446936E+01 0.  0.
     999903    2    3    3    0    0 -0.75570451265E-01 -0.52054890437E-01 -0.95811376975E-01  0.14026994248E+00  0.45554715274E-01 0.  0.
         14    1    1    2    0    0 -0.24255928608E-02 -0.10937842548E-01  0.77019820012E-02  0.13595603226E-01  0.00000000000E+00 0. -1.
     999901    1    3    3    0    0  0.77996044126E-01  0.62992732985E-01  0.88109394974E-01  0.89006445429E+00  0.88000000000E+00 0. -1.
        -11    1    4    4    0    0 -0.52844479137E-01 -0.34939861439E-01 -0.33264932621E-01  0.71555221723E-01  0.51100000000E-03 0. -1.
         11    1    4    4    0    0 -0.22725972128E-01 -0.17115028998E-01 -0.62546444355E-01  0.68714720760E-01  0.51100000000E-03 0.  1.
</event>
<event>
 8    1  0.2001339E+004  0.1043930E+01  0.7957747E-01            NaN
         13   -1    0    0    0    0  0.00000000000E+00  0.00000000000E+00  0.74505805969E-08  0.10566000000E+00  0.10566000000E+00 0.  1.
     999900   -1    0    0    0    0 -0.00000000000E+00 -0.00000000000E+00 -0.74505805969E-08  0.93827000000E+00  0.93827000000E+00 0.  1.
     999902    2    1    2    0    0  0.80131666764E-02 -0.11641408803E-01 -0.91768043634E-03  0.10297675364E+01  0.10296701431E+01 0.  0.
     999903    2    3    3    0    0  0.19315057727E-01  0.90511015310E-01  0.93522356915E-01  0.13876710361E+00  0.44097193273E-01 0.  0.
         14    1    1    2    0    0 -0.80131666764E-02  0.11641408803E-01  0.91768043634E-03  0.14162463645E-01  0.00000000000E+00 0.  1.
     999901    1    3    3    0    0 -0.11301891050E-01 -0.10215242411E+00 -0.94440037352E-01  0.89100043274E+00  0.88000000000E+00 0.  1.
        -11    1    4    4    0    0  0.15845711067E-01  0.17278977634E-01  0.45312081190E-01  0.51020539492E-01  0.51100000000E-03 0. -1.
         11    1    4    4    0    0  0.34693466599E-02  0.73232037676E-01  0.48210275725E-01  0.87746564120E-01  0.51100000000E-03 0.  1.
</event>
<event>
 8    1  0.2001339E+004  0.1043930E+01  0.7957747E-01            NaN
         13   -1    0    0    0    0  0.00000000000E+00  0.00000000000E+00  0.74505805969E-08  0.10566000000E+00  0.10566000000E+00 0. -1.
     999900   -1    0    0    0    0 -0.00000000000E+00 -0.00000000000E+00 -0.74505805969E-08  0.93827000000E+00  0.93827000000E+00 0.  1.
     999902    2    1    2    0    0  0.11847152258E-03  0.12834813533E-01  0.34905040101E-02  0.10306284929E+01  0.10305426533E+01 0.  0.
     999903    2    3    3    0    0  0.68105967919E-01  0.42480577544E-01  0.10738441243E+00  0.14141810426E+00  0.44996064757E-01 0.  0.
         14    1    1    2    0    0 -0.11847152258E-03 -0.12834813533E-01 -0.34905040101E-02  0.13301507139E-01  0.00000000000E+00 0.  1.
     999901    1    3    3    0    0 -0.67987496397E-01 -0.29645764011E-01 -0.10389390842E+00  0.88921038860E+00  0.88000000000E+00 0.  1.
        -11    1    4    4    0    0  0.37176619660E-02  0.23106379044E-01  0.39180873438E-01  0.45641294103E-01  0.51100000000E-03 0.  1.
         11    1    4    4    0    0  0.64388305953E-01  0.19374198500E-01  0.68203538997E-01  0.95776810156E-01  0.51100000000E-03 0. -1.
</event>
<event>
 8    1  0.2001339E+004  0.1043930E+01  0.7957747E-01            NaN
         13   -1    0    0    0    0  0.00000000000E+00  0.00000000000E+00  0.74505805969E-08  0.10566000000E+00  0.10566000000E+00 0.  1.
     999900   -1    0    0    0    0 -0.00000000000E+00 -0.00000000000E+00 -0.74505805969E-08  0.93827000000E+00  0.93827000000E+00 0.  1.
     999902    2    1    2    0    0  0.32547514872E-02 -0.13036740242E-02 -0.13263470544E-01  0.10302109394E+01  0.10301195887E+01 0.  0.
     999903    2    3    3    0    0 -0.33718589539E-01  0.57816076768E-01 -0.11638852869E+00  0.14144946942E+00  0.44519891908E-01 0.  0.
         14    1    1    2    0    0 -0.32547514872E-02  0.13036740242E-02  0.13263470544E-01  0.13719060612E-01  0.00000000000E+00 0.  1.
     999901    1    3    3    0    0  0.36973341027E-01 -0.59119750793E-01  0.10312505815E+00  0.88876146997E+00  0.88000000000E+00 0. -1.
        -11    1    4    4    0    0 -0.27525788807E-01  0.56846054316E-01 -0.68600198554E-01  0.93249082051E-01  0.51100000000E-03 0. -1.
         11    1    4    4    0    0 -0.61928007328E-02  0.97002245270E-03 -0.47788330136E-01  0.48200387370E-01  0.51100000000E-03 0.  1.
</event>
<event>
 8    1  0.2001339E+004  0.1043930E+01  0.7957747E-01            NaN
         13   -1    0    0    0    0  0.00000000000E+00  0.00000000000E+00  0.74505805969E-08  0.10566000000E+00  0.10566000000E+00 0. -1.
     999900   -1    0    0    0    0 -0.00000000000E+00 -0.00000000000E+00 -0.74505805969E-08  0.93827000000E+00  0.93827000000E+00 0. -1.
     999902    2    1    2    0    0 -0.11808293527E-03  0.93753448966E-02  0.11467702754E-01  0.10291171933E+01  0.10290105822E+01 0.  0.
     999903    2    3    3    0    0 -0.61169226435E-01 -0.30476965630E-01  0.11368499642E+00  0.14020559821E+00  0.45418186482E-01 0.  0.
         14    1    1    2    0    0  0.11808293527E-03 -0.93753448966E-02 -0.11467702754E-01  0.14812806688E-01  0.00000000000E+00 0.  1.
     999901    1    3    3    0    0  0.61051143500E-01  0.39852310527E-01 -0.10221729366E+00  0.88891159510E+00  0.88000000000E+00 0. -1.
        -11    1    4    4    0    0 -0.14537357414E-01 -0.23504793074E-01  0.16516476245E-01  0.32200390784E-01  0.51100000000E-03 0.  1.
         11    1    4    4    0    0 -0.46631869020E-01 -0.69721725558E-02  0.97168520173E-01  0.10800520743E+00  0.51100000000E-03 0. -1.
</event>
<event>
 8    1  0.2001339E+004  0.1043930E+01  0.7957747E-01            NaN
         13   -1    0    0    0    0  0.00000000000E+00  0.00000000000E+00  0.74505805969E-08  0.10566000000E+00  0.10566000000E+00 0. -1.
     999900   -1    0    0    0    0 -0.00000000000E+00 -0.00000000000E+00 -0.74505805969E-08  0.93827000000E+00  0.93827000000E+00 0. -1.
     999902    2    1    2    0    0 -0.89709051049E-02 -0.25839065604E-02 -0.10279333758E-01  0.10300440930E+01  0.10299504916E+01 0.  0.
     999903    2    3    3    0    0  0.98587632181E-02 -0.13029702433E+00  0.23152053618E-01  0.13999754670E+00  0.44595804008E-01 0.  0.
         14    1    1    2    0    0  0.89709051049E-02  0.25839065604E-02  0.10279333758E-01  0.13885907029E-01  0.00000000000E+00 0. -1.
     999901    1    3    3    0    0 -0.18829668323E-01  0.12771311777E+00 -0.33431387376E-01  0.89004654627E+00  0.88000000000E+00 0.  1.
        -11    1    4    4    0    0  0.16335880196E-01 -0.20452984152E-01  0.13719596844E-01  0.29557976945E-01  0.51100000000E-03 0.  1.
         11    1    4    4    0    0 -0.64771169783E-02 -0.10984404018E+00  0.94324567742E-02  0.11043956976E+00  0.51100000000E-03 0. -1.
</event>
<event>
 8    1  0.2001339E+004  0.1043930E+01  0.7957747E-01            NaN
         13   -1    0    0    0    0  0.00000000000E+00  0.00000000000E+00  0.74505805969E-08  0.10566000000E+00  0.10566000000E+00 0. -1.
     999900   -1    0    0    0    0 -0.00000000000E+00 -0.00000000000E+00 -0.74505805969E-08  0.93827000000E+00  0.93827000000E+00 0.  1.
     999902    2    1    2    0    0 -0.24971113960E-02 -0.10371986722E-01  0.10237937766E-01  0.10291438902E+01  0.10290376658E+01 0.  0.
     999903    2    3    3    0    0  0.12971742909E+00  0.16506875390E-01  0.13126976503E-01  0.13885657449E+00  0.44830150808E-01 0.  0.
         14    1    1    2    0    0  0.24971113960E-02  0.10371986722E-01 -0.10237937766E-01  0.14786109819E-01  0.00000000000E+00 0.  1.
     999901    1    3    3    0    0 -0.13221454048E+00 -0.26878862113E-01 -0.28890387372E-02  0.89028731570E+00  0.88000000000E+00 0. -1.
        -11    1    4    4    0    0  0.87372661370E-01  0.11890672623E-01  0.29847210399E-01  0.93093969407E-01  0.51100000000E-03 0.  1.
         11    1    4    4    0    0  0.42344767717E-01  0.46162027670E-02 -0.16720233896E-01  0.45762605078E-01  0.51100000000E-03 0. -1.
</event>
<event>
 8    1  0.2001339E+004  0.1043930E+01  0.7957747E-01            NaN
         13   -1    0    0    0    0  0.00000000000E+00  0.00000000000E+00  0.74505805969E-08  0.10566000000E+00  0.10566000000E+00 0. -1.
     999900   -1    0    0    0    0 -0.00000000000E+00 -0.00000000000E+00 -0.74505805969E-08  0.93827000000E+00  0.93827000000E+00 0. -1.
     999902    2    1    2    0    0  0.51350789683E-02 -0.28174590389E-02 -0.12940673588E-01  0.10297254886E+01  0.10296275121E+01 0.  0.
     999903    2    3    3    0    0 -0.40878875993E-03 -0.10191815643E+00 -0.86819587916E-01  0.14106932523E+00  0.44445876717E-01 0.  0.
         14    1    1    2    0    0 -0.51350789683E-02  0.28174590389E-02  0.12940673588E-01  0.14204511408E-01  0.00000000000E+00 0. -1.
     999901    1    3    3    0    0  0.55438677282E-02  0.99100697393E-01  0.73878914328E-01  0.88865616336E+00  0.88000000000E+00 0.  1.
        -11    1    4    4    0    0 -0.17362355845E-01 -0.86483861166E-01 -0.70512044154E-01  0.11292970882E+00  0.51100000000E-03 0.  1.
         11    1    4    4    0    0  0.16953567085E-01 -0.15434295266E-01 -0.16307543762E-01  0.28139616412E-01  0.51100000000E-03 0. -1.
</event>
<event>
 8    1  0.2001339E+004  0.1043930E+01  0.7957747E-01            NaN
         13   -1    0    0    0    0  0.00000000000E+00  0.00000000000E+00  0.74505805969E-08  0.10566000000E+00  0.10566000000E+00 0. -1.
     999900   -1    0    0    0    0 -0.00000000000E+00 -0.00000000000E+00 -0.74505805969E-08  0.93827000000E+00  0.93827000000E+00 0.  1.
     999902    2    1    2    0    0  0.12458507992E-01  0.14011198287E-01  0.19656704723E-01  0.10167654249E+01  0.10164024868E+01 0.  0.
     999903    2    3    3    0    0 -0.75226370299E-01  0.76798032803E-01  0.55564122414E-01  0.12945478759E+00  0.45980710083E-01 0.  0.
         14    1    1    2    0    0 -0.12458507992E-01 -0.14011198287E-01 -0.19656704723E-01  0.27164575082E-01  0.00000000000E+00 0. -1.
     999901    1    3    3    0    0  0.87684878291E-01 -0.62786834516E-01 -0.35907417691E-01  0.88731063733E+00  0.88000000000E+00 0.  1.
        -11    1    4    4    0    0 -0.15830943192E-01  0.36961117984E-02 -0.55370219552E-02  0.17181377649E-01  0.51100000000E-03 0. -1.
         11    1    4    4    0    0 -0.59395427107E-01  0.73101921004E-01  0.61101144369E-01  0.11227340994E+00  0.51100000000E-03 0.  1.
</event>
<event>
 8    1  0.2001339E+004  0.1043930E+01  0.7957747E-01            NaN
         13   -1    0    0    0    0  0.00000000000E+00  0.00000000000E+00  0.74505805969E-08  0.10566000000E+00  0.10566000000E+00 0. -1.
     999900   -1    0    0    0    0 -0.00000000000E+00 -0.00000000000E+00 -0.74505805969E-08  0.93827000000E+00  0.93827000000E+00 0.  1.
     999902    2    1    2    0    0 -0.11059672352E-02 -0.11894716165E-02  0.14432630808E-01  0.10294062664E+01  0.10293038047E+01 0.  0.
     999903    2    3    3    0    0 -0.61509958990E-01  0.65352308908E-01 -0.94795914063E-01  0.13811095853E+00  0.45099581031E-01 0.  0.
         14    1    1    2    0    0  0.11059672352E-02  0.11894716165E-02 -0.14432630808E-01  0.14523733621E-01  0.00000000000E+00 0.  1.
     999901    1    3    3    0    0  0.60403991754E-01 -0.66541780524E-01  0.10922854487E+00  0.89129530785E+00  0.88000000000E+00 0. -1.
        -11    1    4    4    0    0 -0.27349551743E-02 -0.49511172771E-02 -0.16937360737E-01  0.17864177894E-01  0.51100000000E-03 0.  1.
         11    1    4    4    0    0 -0.58775003815E-01  0.70303426185E-01 -0.77858553326E-01  0.12024678064E+00  0.51100000000E-03 0. -1.
</event>
<event>
 8    1  0.2001339E+004  0.1043930E+01  0.7957747E-01            NaN
         13   -1    0    0    0    0  0.00000000000E+00  0.00000000000E+00  0.74505805969E-08  0.10566000000E+00  0.10566000000E+00 0.  1.
     999900   -1    0    0    0    0 -0.00000000000E+00 -0.00000000000E+00 -0.74505805969E-08  0.93827000000E+00  0.93827000000E+00 0. -1.
     999902    2    1    2    0    0 -0.54960264019E-02  0.81315475892E-02 -0.10485489197E-01  0.10295677628E+01  0.10294675830E+01 0.  0.
     999903    2    3    3    0    0 -0.32454454486E-01 -0.98603873261E-01 -0.83171377945E-01  0.13973494409E+00  0.42806086631E-01 0.  0.
         14    1    1    2    0    0  0.54960264019E-02 -0.81315475892E-02  0.10485489197E-01  0.14362237155E-01  0.00000000000E+00 0.  1.
     999901    1    3    3    0    0  0.26958428084E-01  0.10673542085E+00  0.72685888748E-01  0.88983281875E+00  0.88000000000E+00 0. -1.
        -11    1    4    4    0    0 -0.26067856809E-01 -0.75119445800E-01 -0.37354070057E-01  0.87852444284E-01  0.51100000000E-03 0.  1.
         11    1    4    4    0    0 -0.63865976774E-02 -0.23484427461E-01 -0.45817307888E-01  0.51882499806E-01  0.51100000000E-03 0. -1.
</event>
<event>
 8    1  0.2001339E+004  0.1043930E+01  0.7957747E-01            NaN
         13   -1    0    0    0    0  0.00000000000E+00  0.00000000000E+00  0.74505805969E-08  0.10566000000E+00  0.10566000000E+00 0. -1.
     999900   -1    0    0    0    0 -0.00000000000E+00 -0.00000000000E+00 -0.74505805969E-08  0.93827000000E+00  0.93827000000E+00 0. -1.
     999902    2    1    2    0    0 -0.83057340354E-02 -0.11120657781E-01 -0.10918303518E-02  0.10300071289E+01  0.10299130250E+01 0.  0.
     999903    2    3    3    0    0  0.60137436055E-01  0.11542200573E+00  0.11422008604E-01  0.13823691777E+00  0.45168933263E-01 0.  0.
         14    1    1    2    0    0  0.83057340354E-02  0.11120657781E-01  0.10918303518E-02  0.13922871143E-01  0.00000000000E+00 0.  1.
     999901    1    3    3    0    0 -0.68443170090E-01 -0.12654266351E+00 -0.12513838956E-01  0.89177021109E+00  0.88000000000E+00 0.  1.
        -11    1    4    4    0    0  0.39782495637E-01  0.10911790652E+00  0.12964857205E-01  0.11686621893E+00  0.51100000000E-03 0.  1.
         11    1    4    4    0    0  0.20354940417E-01  0.63040992059E-02 -0.15428486008E-02  0.21370698842E-01  0.51100000000E-03 0. -1.
</event>
<event>
 8    1  0.2001339E+004  0.1043930E+01  0.7957747E-01            NaN
         13   -1    0    0    0    0  0.00000000000E+00  0.00000000000E+00  0.74505805969E-08  0.10566000000E+00  0.10566000000E+00 0.  1.
     999900   -1    0    0    0    0 -0.00000000000E+00 -0.00000000000E+00 -0.74505805969E-08  0.93827000000E+00  0.93827000000E+00 0.  1.
     999902    2    1    2    0    0 -0.95414350235E-02  0.31141357422E-02 -0.95180009238E-02  0.10300978214E+01  0.10300049478E+01 0.  0.
     999903    2    3    3    0    0  0.19146272083E-01 -0.10132797879E+00  0.81113279708E-01  0.13883738310E+00  0.45414929044E-01 0.  0.
         14    1    1    2    0    0  0.95414350235E-02 -0.31141357422E-02  0.95180009238E-02  0.13832178618E-01  0.00000000000E+00 0.  1.
     999901    1    3    3    0    0 -0.28687707106E-01  0.10444211453E+00 -0.90631280631E-01  0.89126043829E+00  0.88000000000E+00 0.  1.
        -11    1    4    4    0    0  0.18007581518E-01 -0.10183769201E-01  0.21953552241E-01  0.30169549620E-01  0.51100000000E-03 0.  1.
         11    1    4    4    0    0  0.11386905645E-02 -0.91144209586E-01  0.59159727467E-01  0.10866783348E+00  0.51100000000E-03 0. -1.
</event>
<event>
 8    1  0.2001339E+004  0.1043930E+01  0.7957747E-01            NaN
         13   -1    0    0    0    0  0.00000000000E+00  0.00000000000E+00  0.74505805969E-08  0.10566000000E+00  0.10566000000E+00 0. -1.
     999900   -1    0    0    0    0 -0.00000000000E+00 -0.00000000000E+00 -0.74505805969E-08  0.93827000000E+00  0.93827000000E+00 0.  1.
     999902    2    1    2    0    0  0.12649486133E-01 -0.28199264790E-02 -0.45132080990E-02  0.10302066428E+01  0.10301152345E+01 0.  0.
     999903    2    3    3    0    0  0.83889552956E-01 -0.10194719618E+00 -0.23008477241E-01  0.14158780570E+00  0.45684010265E-01 0.  0.
         14    1    1    2    0    0 -0.12649486133E-01  0.28199264790E-02  0.45132080990E-02  0.13723357174E-01  0.00000000000E+00 0. -1.
     999901    1    3    3    0    0 -0.71240066823E-01  0.99127269697E-01  0.18495269142E-01  0.88861883713E+00  0.88000000000E+00 0. -1.
        -11    1    4    4    0    0  0.42324864927E-01 -0.84379937750E-01 -0.12224229246E-01  0.95189605459E-01  0.51100000000E-03 0.  1.
         11    1    4    4    0    0  0.41564688029E-01 -0.17567258427E-01 -0.10784247995E-01  0.46398200238E-01  0.51100000000E-03 0. -1.
</event>
<event>
 8    1  0.2001339E+004  0.1043930E+01  0.7957747E-01            NaN
         13   -1    0    0    0    0  0.00000000000E+00  0.00000000000E+00  0.74505805969E-08  0.10566000000E+00  0.10566000000E+00 0.  1.
     999900   -1    0    0    0    0 -0.00000000000E+00 -0.00000000000E+00 -0.74505805969E-08  0.93827000000E+00  0.93827000000E+00 0.  1.
     999902    2    1    2    0    0  0.11342681839E-01  0.62471578180E-02 -0.33454981906E-02  0.10305555553E+01  0.10304687656E+01 0.  0.
     999903    2    3    3    0    0 -0.17150308164E-01 -0.20278923348E-01 -0.13040907802E+00  0.14057766977E+00  0.45278977542E-01 0.  0.
         14    1    1    2    0    0 -0.11342681839E-01 -0.62471578180E-02  0.33454981906E-02  0.13374444670E-01  0.00000000000E+00 0.  1.
     999901    1    3    3    0    0  0.28492990003E-01  0.26526081166E-01  0.12706357983E+00  0.88997788556E+00  0.88000000000E+00 0. -1.
        -11    1    4    4    0    0  0.13219112526E-01 -0.14725302650E-01 -0.69856152467E-01  0.72606629398E-01  0.51100000000E-03 0.  1.
         11    1    4    4    0    0 -0.30369420690E-01 -0.55536206980E-02 -0.60552925550E-01  0.67971040375E-01  0.51100000000E-03 0. -1.
</event>
<event>
 8    1  0.2001339E+004  0.1043930E+01  0.7957747E-01            NaN
         13   -1    0    0    0    0  0.00000000000E+00  0.00000000000E+00  0.74505805969E-08  0.10566000000E+00  0.10566000000E+00 0. -1.
     999900   -1    0    0    0    0 -0.00000000000E+00 -0.00000000000E+00 -0.74505805969E-08  0.93827000000E+00  0.93827000000E+00 0. -1.
     999902    2    1    2    0    0  0.60198077176E-02 -0.11256681409E-01  0.35250963020E-02  0.10306869918E+01  0.10306019105E+01 0.  0.
     999903    2    3    3    0    0 -0.86497889852E-01 -0.94499701797E-01  0.36359621200E-01  0.14132371913E+00  0.47310600791E-01 0.  0.
         14    1    1    2    0    0 -0.60198077176E-02  0.11256681409E-01 -0.35250963020E-02  0.13243008164E-01  0.00000000000E+00 0.  1.
     999901    1    3    3    0    0  0.92517697570E-01  0.83243020388E-01 -0.32834524898E-01  0.88936327270E+00  0.88000000000E+00 0. -1.
        -11    1    4    4    0    0  0.44039154064E-02 -0.14547451939E-01  0.11746124129E-02  0.15253316496E-01  0.51100000000E-03 0. -1.
         11    1    4    4    0    0 -0.90901805258E-01 -0.79952249858E-01  0.35185008787E-01  0.12607040264E+00  0.51100000000E-03 0.  1.
</event>
<event>
 8    1  0.2001339E+004  0.1043930E+01  0.7957747E-01            NaN
         13   -1    0    0    0    0  0.00000000000E+00  0.00000000000E+00  0.74505805969E-08  0.10566000000E+00  0.10566000000E+00 0.  1.
     999900   -1    0    0    0    0 -0.00000000000E+00 -0.00000000000E+00 -0.74505805969E-08  0.93827000000E+00  0.93827000000E+00 0. -1.
     999902    2    1    2    0    0 -0.58761152678E-02  0.13514308424E-02 -0.13462518667E-01  0.10291789151E+01  0.10290731970E+01 0.  0.
     999903    2    3    3    0    0  0.12085795521E+00  0.38023206419E-01 -0.32140703913E-01  0.13914789413E+00  0.47714798826E-01 0.  0.
         14    1    1    2    0    0  0.58761152678E-02 -0.13514308424E-02  0.13462518667E-01  0.14751084869E-01  0.00000000000E+00 0.  1.
     999901    1    3    3    0    0 -0.12673407048E+00 -0.36671775577E-01  0.18678185247E-01  0.89003102100E+00  0.88000000000E+00 0. -1.
        -11    1    4    4    0    0  0.93932087695E-01  0.95884195543E-02 -0.12220474240E-01  0.95209117210E-01  0.51100000000E-03 0.  1.
         11    1    4    4    0    0  0.26925867520E-01  0.28434786865E-01 -0.19920229673E-01  0.43938776917E-01  0.51100000000E-03 0. -1.
</event>
<event>
 8    1  0.2001339E+004  0.1043930E+01  0.7957747E-01            NaN
         13   -1    0    0    0    0  0.00000000000E+00  0.00000000000E+00  0.74505805969E-08  0.10566000000E+00  0.10566000000E+00 0.  1.
     999900   -1    0    0    0    0 -0.00000000000E+00 -0.00000000000E+00 -0.74505805969E-08  0.93827000000E+00  0.93827000000E+00 0.  1.
     999902    2    1    2    0    0 -0.89586813655E-02 -0.10498666578E-01 -0.63411220856E-02  0.10287415241E+01  0.10286293956E+01 0.  0.
     999903    2    3    3    0    0  0.10783206468E+00  0.68631673899E-01  0.21005056613E-01  0.13708603980E+00  0.44869912739E-01 0.  0.
         14    1    1    2    0    0  0.89586813655E-02  0.10498666578E-01  0.63411220856E-02  0.15188475928E-01  0.00000000000E+00 0. -1.
     999901    1    3    3    0    0 -0.11679074604E+00 -0.79130340477E-01 -0.27346178698E-01  0.89165548427E+00  0.88000000000E+00 0.  1.
        -11    1    4    4    0    0  0.37503655643E-01  0.42720129572E-01  0.24834358623E-01  0.62036603279E-01  0.51100000000E-03 0. -1.
         11    1    4    4    0    0  0.70328409036E-01  0.25911544328E-01 -0.38293020104E-02  0.75049436519E-01  0.51100000000E-03 0.  1.
</event>
<event>
 8    1  0.2001339E+004  0.1043930E+01  0.7957747E-01            NaN
         13   -1    0    0    0    0  0.00000000000E+00  0.00000000000E+00  0.74505805969E-08  0.10566000000E+00  0.10566000000E+00 0.  1.
     999900   -1    0    0    0    0 -0.00000000000E+00 -0.00000000000E+00 -0.74505805969E-08  0.93827000000E+00  0.93827000000E+00 0. -1.
     999902    2    1    2    0    0 -0.10986065348E-01  0.28081343159E-02 -0.46029471700E-02  0.10316920928E+01  0.10316195074E+01 0.  0.
     999903    2    3    3    0    0  0.12154430589E+00  0.56126596059E-01  0.16022745353E-01  0.13993395470E+00  0.37437551066E-01 0.  0.
         14    1    1    2    0    0  0.10986065348E-01 -0.28081343159E-02  0.46029471700E-02  0.12237907208E-01  0.00000000000E+00 0.  1.
     999901    1    3    3    0    0 -0.13253037124E+00 -0.53318461743E-01 -0.20625692523E-01  0.89175813809E+00  0.88000000000E+00 0.  1.
        -11    1    4    4    0    0  0.40301469278E-01  0.11995599401E-01  0.21666417765E-01  0.47305365560E-01  0.51100000000E-03 0. -1.
         11    1    4    4    0    0  0.81242836612E-01  0.44130996658E-01 -0.56436724125E-02  0.92628589140E-01  0.51100000000E-03 0.  1.
</event>
<event>
 8    1  0.2001339E+004  0.1043930E+01  0.7957747E-01            NaN
         13   -1    0    0    0    0  0.00000000000E+00  0.00000000000E+00  0.74505805969E-08  0.10566000000E+00  0.10566000000E+00 0. -1.
     999900   -1    0    0    0    0 -0.00000000000E+00 -0.00000000000E+00 -0.74505805969E-08  0.93827000000E+00  0.93827000000E+00 0. -1.
     999902    2    1    2    0    0 -0.26626006499E-02  0.14830647386E-02  0.14035903631E-01  0.10295670089E+01  0.10294668184E+01 0.  0.
     999903    2    3    3    0    0  0.52455454553E-02 -0.12260201553E+00 -0.45646547799E-01  0.13882482343E+00  0.46151428093E-01 0.  0.
         14    1    1    2    0    0  0.26626006499E-02 -0.14830647386E-02 -0.14035903631E-01  0.14362991122E-01  0.00000000000E+00 0.  1.
     999901    1    3    3    0    0 -0.79081461053E-02  0.12408508027E+00  0.59682451430E-01  0.89074218544E+00  0.88000000000E+00 0. -1.
        -11    1    4    4    0    0  0.19347841493E-01 -0.42654636865E-01 -0.25453169502E-02  0.46909452948E-01  0.51100000000E-03 0.  1.
         11    1    4    4    0    0 -0.14102296038E-01 -0.79947378670E-01 -0.43101230849E-01  0.91915370486E-01  0.51100000000E-03 0. -1.
</event>
<event>
 8    1  0.2001339E+004  0.1043930E+01  0.7957747E-01            NaN
         13   -1    0    0    0    0  0.00000000000E+00  0.00000000000E+00  0.74505805969E-08  0.10566000000E+00  0.10566000000E+00 0. -1.
     999900   -1    0    0    0    0 -0.00000000000E+00 -0.00000000000E+00 -0.74505805969E-08  0.93827000000E+00  0.93827000000E+00 0. -1.
     999902    2    1    2    0    0 -0.77961198317E-02 -0.92036742075E-02  0.24977618141E-02  0.10316122925E+01  0.10315387517E+01 0.  0.
     999903    2    3    3    0    0  0.12120246762E+00  0.47904791395E-01  0.26262983758E-01  0.14005926652E+00  0.44067523483E-01 0.  0.
         14    1    1    2    0    0  0.77961198317E-02  0.92036742075E-02 -0.24977618141E-02  0.12317707475E-01  0.00000000000E+00 0. -1.
     999901    1    3    3    0    0 -0.12899858745E+00 -0.57108465603E-01 -0.23765221944E-01  0.89155302601E+00  0.88000000000E+00 0.  1.
        -11    1    4    4    0    0  0.73644411816E-01  0.63095219261E-02  0.83551007907E-02  0.74386680857E-01  0.51100000000E-03 0.  1.
         11    1    4    4    0    0  0.47558055804E-01  0.41595269469E-01  0.17907882968E-01  0.65672585662E-01  0.51100000000E-03 0. -1.
</event>
<event>
 8    1  0.2001339E+004  0.1043930E+01  0.7957747E-01            NaN
         13   -1    0    0    0    0  0.00000000000E+00  0.00000000000E+00  0.74505805969E-08  0.10566000000E+00  0.10566000000E+00 0. -1.
     999900   -1    0    0    0    0 -0.00000000000E+00 -0.00000000000E+00 -0.74505805969E-08  0.93827000000E+00  0.93827000000E+00 0.  1.
     999902    2    1    2    0    0 -0.16478273776E-03 -0.13594770525E-02 -0.12594261657E-01  0.10312615053E+01  0.10311836895E+01 0.  0.
     999903    2    3    3    0    0 -0.12012629671E+00  0.44065750033E-01  0.36935922920E-01  0.14058341796E+00  0.45025742825E-01 0.  0.
         14    1    1    2    0    0  0.16478273776E-03  0.13594770525E-02  0.12594261657E-01  0.12668494697E-01  0.00000000000E+00 0. -1.
     999901    1    3    3    0    0  0.11996151397E+00 -0.45425227086E-01 -0.49530184577E-01  0.89067808734E+00  0.88000000000E+00 0.  1.
        -11    1    4    4    0    0 -0.57011840270E-01  0.32776922319E-01 -0.15856747603E-02  0.65783372163E-01  0.51100000000E-03 0.  1.
         11    1    4    4    0    0 -0.63114456436E-01  0.11288827715E-01  0.38521597680E-01  0.74800045797E-01  0.51100000000E-03 0. -1.
</event>
<event>
 8    1  0.2001339E+004  0.1043930E+01  0.7957747E-01            NaN
         13   -1    0    0    0    0  0.00000000000E+00  0.00000000000E+00  0.74505805969E-08  0.10566000000E+00  0.10566000000E+00 0.  1.
     999900   -1    0    0    0    0 -0.00000000000E+00 -0.00000000000E+00 -0.74505805969E-08  0.93827000000E+00  0.93827000000E+00 0. -1.
     999902    2    1    2    0    0  0.82355513643E-02 -0.12053285258E-01 -0.43534341743E-02  0.10286965375E+01  0.10285837388E+01 0.  0.
     999903    2    3    3    0    0 -0.61135197691E-01  0.51771392732E-01  0.10191549853E+00  0.13730494203E+00  0.45255814695E-01 0.  0.
         14    1    1    2    0    0 -0.82355513643E-02  0.12053285258E-01  0.43534341743E-02  0.15233462538E-01  0.00000000000E+00 0.  1.
     999901    1    3    3    0    0  0.69370749055E-01 -0.63824677990E-01 -0.10626893270E+00  0.89139159543E+00  0.88000000000E+00 0. -1.
        -11    1    4    4    0    0 -0.54826571492E-01  0.24202034247E-01  0.86075158091E-01  0.10488510554E+00  0.51100000000E-03 0. -1.
         11    1    4    4    0    0 -0.63086261986E-02  0.27569358484E-01  0.15840340439E-01  0.32419836489E-01  0.51100000000E-03 0.  1.
</event>
<event>
 8    1  0.2001339E+004  0.1043930E+01  0.7957747E-01            NaN
         13   -1    0    0    0    0  0.00000000000E+00  0.00000000000E+00  0.74505805969E-08  0.10566000000E+00  0.10566000000E+00 0. -1.
     999900   -1    0    0    0    0 -0.00000000000E+00 -0.00000000000E+00 -0.74505805969E-08  0.93827000000E+00  0.93827000000E+00 0.  1.
     999902    2    1    2    0    0 -0.11590994595E-01 -0.14397059195E-02  0.75476442715E-02  0.10300234964E+01  0.10299296152E+01 0.  0.
     999903    2    3    3    0    0 -0.30390227175E-01 -0.33517313984E-01 -0.12507494832E+00  0.13930966122E+00  0.41430215617E-01 0.  0.
         14    1    1    2    0    0  0.11590994595E-01  0.14397059195E-02 -0.75476442715E-02  0.13906503618E-01  0.00000000000E+00 0.  1.
     999901    1    3    3    0    0  0.18799232581E-01  0.32077608065E-01  0.13262259260E+00  0.89071383516E+00  0.88000000000E+00 0. -1.
        -11    1    4    4    0    0 -0.28977228538E-02 -0.33197701037E-01 -0.59420597565E-01  0.68128941632E-01  0.51100000000E-03 0.  1.
         11    1    4    4    0    0 -0.27492504322E-01 -0.31961294707E-03 -0.65654350759E-01  0.71180719586E-01  0.51100000000E-03 0. -1.
</event>
<event>
 8    1  0.2001339E+004  0.1043930E+01  0.7957747E-01            NaN
         13   -1    0    0    0    0  0.00000000000E+00  0.00000000000E+00  0.74505805969E-08  0.10566000000E+00  0.10566000000E+00 0. -1.
     999900   -1    0    0    0    0 -0.00000000000E+00 -0.00000000000E+00 -0.74505805969E-08  0.93827000000E+00  0.93827000000E+00 0. -1.
     999902    2    1    2    0    0  0.70908689133E-02 -0.25195304091E-02 -0.11456553913E-01  0.10302230279E+01  0.10301318392E+01 0.  0.
     999903    2    3    3    0    0  0.86820212858E-01  0.89922501274E-01  0.43687561055E-01  0.14008642555E+00  0.45736178631E-01 0.  0.
         14    1    1    2    0    0 -0.70908689133E-02  0.25195304091E-02  0.11456553913E-01  0.13706972058E-01  0.00000000000E+00 0. -1.
     999901    1    3    3    0    0 -0.79729343944E-01 -0.92442031683E-01 -0.55144114968E-01  0.89013660239E+00  0.88000000000E+00 0.  1.
        -11    1    4    4    0    0  0.15820664479E-02  0.25019695407E-01  0.14828749653E-01  0.29131444004E-01  0.51100000000E-03 0.  1.
         11    1    4    4    0    0  0.85238146410E-01  0.64902805867E-01  0.28858811402E-01  0.11095498154E+00  0.51100000000E-03 0. -1.
</event>
<event>
 8    1  0.2001339E+004  0.1043930E+01  0.7957747E-01            NaN
         13   -1    0    0    0    0  0.00000000000E+00  0.00000000000E+00  0.74505805969E-08  0.10566000000E+00  0.10566000000E+00 0. -1.
     999900   -1    0    0    0    0 -0.00000000000E+00 -0.00000000000E+00 -0.74505805969E-08  0.93827000000E+00  0.93827000000E+00 0.  1.
     999902    2    1    2    0    0 -0.13577280054E-01 -0.88548778358E-03 -0.43130554274E-03  0.10303170412E+01  0.10302271074E+01 0.  0.
     999903    2    3    3    0    0  0.10377479206E+00  0.24409327655E-01 -0.76645254317E-01  0.13890248979E+00  0.45325312091E-01 0.  0.
         14    1    1    2    0    0  0.13577280054E-01  0.88548778358E-03  0.43130554274E-03  0.13612958780E-01  0.00000000000E+00 0. -1.
     999901    1    3    3    0    0 -0.11735207211E+00 -0.25294815438E-01  0.76213948774E-01  0.89141455143E+00  0.88000000000E+00 0. -1.
        -11    1    4    4    0    0  0.73693137908E-01 -0.55015108967E-03 -0.34350811361E-01  0.81309412758E-01  0.51100000000E-03 0. -1.
         11    1    4    4    0    0  0.30081654152E-01  0.24959478744E-01 -0.42294442956E-01  0.57593077029E-01  0.51100000000E-03 0.  1.
</event>
<event>
 8    1  0.2001339E+004  0.1043930E+01  0.7957747E-01            NaN
         13   -1    0    0    0    0  0.00000000000E+00  0.00000000000E+00  0.74505805969E-08  0.10566000000E+00  0.10566000000E+00 0. -1.
     999900   -1    0    0    0    0 -0.00000000000E+00 -0.00000000000E+00 -0.74505805969E-08  0.93827000000E+00  0.93827000000E+00 0. -1.
     999902    2    1    2    0    0 -0.51222401733E-02  0.55471679437E-02  0.11392617732E-01  0.10302625147E+01  0.10301718541E+01 0.  0.
     999903    2    3    3    0    0 -0.72722967635E-01  0.11193652024E+00  0.96728086461E-02  0.14127910066E+00  0.45252695732E-01 0.  0.
         14    1    1    2    0    0  0.51222401733E-02 -0.55471679437E-02 -0.11392617732E-01  0.13667485335E-01  0.00000000000E+00 0.  1.
     999901    1    3    3    0    0  0.67600727462E-01 -0.10638935230E+00  0.17198090858E-02  0.88898341401E+00  0.88000000000E+00 0. -1.
        -11    1    4    4    0    0 -0.28876151079E-01  0.79501192114E-01 -0.52039260444E-02  0.84744401679E-01  0.51100000000E-03 0. -1.
         11    1    4    4    0    0 -0.43846816556E-01  0.32435328125E-01  0.14876734691E-01  0.56534698980E-01  0.51100000000E-03 0.  1.
</event>
<event>
 8    1  0.2001339E+004  0.1043930E+01  0.7957747E-01            NaN
         13   -1    0    0    0    0  0.00000000000E+00  0.00000000000E+00  0.74505805969E-08  0.10566000000E+00  0.10566000000E+00 0.  1.
     999900   -1    0    0    0    0 -0.00000000000E+00 -0.00000000000E+00 -0.74505805969E-08  0.93827000000E+00  0.93827000000E+00 0.  1.
     999902    2    1    2    0    0  0.17744493524E-02  0.84597568513E-02 -0.10151022895E-01  0.10305973550E+01  0.10305111104E+01 0.  0.
     999903    2    3    3    0    0  0.33760614796E-01  0.12952402407E+00 -0.10673050249E-01  0.14173294236E+00  0.45365857495E-01 0.  0.
         14    1    1    2    0    0 -0.17744493524E-02 -0.84597568513E-02  0.10151022895E-01  0.13332644985E-01  0.00000000000E+00 0.  1.
     999901    1    3    3    0    0 -0.31986165444E-01 -0.12106426721E+00  0.52202735472E-03  0.88886441266E+00  0.88000000000E+00 0. -1.
        -11    1    4    4    0    0  0.13884376719E-01  0.33640978698E-01  0.16715519960E-01  0.40051979891E-01  0.51100000000E-03 0. -1.
         11    1    4    4    0    0  0.19876238077E-01  0.95883045367E-01 -0.27388570210E-01  0.10168096247E+00  0.51100000000E-03 0.  1.
</event>
<event>
 8    1  0.2001339E+004  0.1043930E+01  0.7957747E-01            NaN
         13   -1    0    0    0    0  0.00000000000E+00  0.00000000000E+00  0.74505805969E-08  0.10566000000E+00  0.10566000000E+00 0. -1.
     999900   -1    0    0    0    0 -0.00000000000E+00 -0.00000000000E+00 -0.74505805969E-08  0.93827000000E+00  0.93827000000E+00 0. -1.
     999902    2    1    2    0    0 -0.10697492399E-01 -0.73735499768E-03 -0.86575491137E-02  0.10301483748E+01  0.10300561834E+01 0.  0.
     999903    2    3    3    0    0 -0.93742431946E-01  0.26534793889E-02  0.93977140269E-01  0.14029342079E+00  0.45341554052E-01 0.  0.
         14    1    1    2    0    0  0.10697492399E-01  0.73735499768E-03  0.86575491137E-02  0.13781625183E-01  0.00000000000E+00 0. -1.
     999901    1    3    3    0    0  0.83044939547E-01 -0.33908343866E-02 -0.10263468938E+00  0.88985495403E+00  0.88000000000E+00 0. -1.
        -11    1    4    4    0    0 -0.94419985844E-01 -0.67191074801E-02  0.83688941977E-01  0.12635022858E+00  0.51100000000E-03 0.  1.
         11    1    4    4    0    0  0.67755389804E-03  0.93725868690E-02  0.10288198292E-01  0.13943192210E-01  0.51100000000E-03 0. -1.
</event>
<event>
 8    1  0.2001339E+004  0.1043930E+01  0.7957747E-01            NaN
         13   -1    0    0    0    0  0.00000000000E+00  0.00000000000E+00  0.74505805969E-08  0.10566000000E+00  0.10566000000E+00 0. -1.
     999900   -1    0    0    0    0 -0.00000000000E+00 -0.00000000000E+00 -0.74505805969E-08  0.93827000000E+00  0.93827000000E+00 0.  1.
     999902    2    1    2    0    0 -0.95038612907E-02 -0.78215456297E-02 -0.59349872554E-02  0.10302652999E+01  0.10301746765E+01 0.  0.
     999903    2    3    3    0    0 -0.98577114430E-01 -0.85512652026E-01  0.30967783210E-01  0.14159676387E+00  0.45395801520E-01 0.  0.
         14    1    1    2    0    0  0.95038612907E-02  0.78215456297E-02  0.59349872554E-02  0.13664700113E-01  0.00000000000E+00 0. -1.
     999901    1    3    3    0    0  0.89073253139E-01  0.77691106397E-01 -0.36902770465E-01  0.88866853602E+00  0.88000000000E+00 0. -1.
        -11    1    4    4    0    0 -0.18020366012E-01  0.22213505545E-02 -0.12520170434E-02  0.18207049656E-01  0.51100000000E-03 0. -1.
         11    1    4    4    0    0 -0.80556748417E-01 -0.87734002581E-01  0.32219800253E-01  0.12338971421E+00  0.51100000000E-03 0.  1.
</event>
<event>
 8    1  0.2001339E+004  0.1043930E+01  0.7957747E-01            NaN
         13   -1    0    0    0    0  0.00000000000E+00  0.00000000000E+00  0.74505805969E-08  0.10566000000E+00  0.10566000000E+00 0. -1.
     999900   -1    0    0    0    0 -0.00000000000E+00 -0.00000000000E+00 -0.74505805969E-08  0.93827000000E+00  0.93827000000E+00 0.  1.
     999902    2    1    2    0    0  0.39952869671E-02  0.26555878311E-02 -0.20331785271E-01  0.10230399077E+01  0.10228266015E+01 0.  0.
     999903    2    3    3    0    0 -0.11703222563E+00 -0.23838362398E-01  0.35830556730E-01  0.13258845091E+00  0.45067273751E-01 0.  0.
         14    1    1    2    0    0 -0.39952869671E-02 -0.26555878311E-02  0.20331785271E-01  0.20890092317E-01  0.00000000000E+00 0. -1.
     999901    1    3    3    0    0  0.12102751259E+00  0.26493950229E-01 -0.56162342001E-01  0.89045145677E+00  0.88000000000E+00 0. -1.
        -11    1    4    4    0    0 -0.10933799217E+00 -0.30693582336E-01  0.41384128498E-01  0.12087100455E+00  0.51100000000E-03 0. -1.
         11    1    4    4    0    0 -0.76942334541E-02  0.68552199386E-02 -0.55535717686E-02  0.11717446362E-01  0.51100000000E-03 0.  1.
</event>
<event>
 8    1  0.2001339E+004  0.1043930E+01  0.7957747E-01            NaN
         13   -1    0    0    0    0  0.00000000000E+00  0.00000000000E+00  0.74505805969E-08  0.10566000000E+00  0.10566000000E+00 0. -1.
     999900   -1    0    0    0    0 -0.00000000000E+00 -0.00000000000E+00 -0.74505805969E-08  0.93827000000E+00  0.93827000000E+00 0.  1.
     999902    2    1    2    0    0 -0.89911920687E-02 -0.72002310025E-02  0.64638299537E-02  0.10307214437E+01  0.10306368073E+01 0.  0.
     999903    2    3    3    0    0  0.13070873530E+00 -0.54168948724E-02 -0.18125535644E-01  0.13936074967E+00  0.44483337035E-01 0.  0.
         14    1    1    2    0    0  0.89911920687E-02  0.72002310025E-02 -0.64638299537E-02  0.13208556279E-01  0.00000000000E+00 0.  1.
     999901    1    3    3    0    0 -0.13969992737E+00 -0.17833361302E-02  0.24589365597E-01  0.89136069405E+00  0.88000000000E+00 0. -1.
        -11    1    4    4    0    0  0.33455241560E-01 -0.17158692012E-01  0.69547101997E-02  0.38240070794E-01  0.51100000000E-03 0. -1.
         11    1    4    4    0    0  0.97253493738E-01  0.11741797140E-01 -0.25080245843E-01  0.10112067888E+00  0.51100000000E-03 0.  1.
</event>
<event>
 8    1  0.2001339E+004  0.1043930E+01  0.7957747E-01            NaN
         13   -1    0    0    0    0  0.00000000000E+00  0.00000000000E+00  0.74505805969E-08  0.10566000000E+00  0.10566000000E+00 0.  1.
     999900   -1    0    0    0    0 -0.00000000000E+00 -0.00000000000E+00 -0.74505805969E-08  0.93827000000E+00  0.93827000000E+00 0.  1.
     999902    2    1    2    0    0  0.20034500676E-02  0.12447724921E-01 -0.50022002140E-02  0.10303660155E+01  0.10302767319E+01 0.  0.
     999903    2    3    3    0    0 -0.92794393722E-02 -0.43731778005E-01  0.12407188230E+00  0.13910648042E+00  0.44251604661E-01 0.  0.
         14    1    1    2    0    0 -0.20034500676E-02 -0.12447724921E-01  0.50022002140E-02  0.13563984476E-01  0.00000000000E+00 0. -1.
     999901    1    3    3    0    0  0.11282889440E-01  0.56179502926E-01 -0.12907408251E+00  0.89125953511E+00  0.88000000000E+00 0.  1.
        -11    1    4    4    0    0  0.12713384673E-01 -0.19113466213E-01  0.84533425269E-01  0.87596323263E-01  0.51100000000E-03 0. -1.
         11    1    4    4    0    0 -0.21992824045E-01 -0.24618311792E-01  0.39538457027E-01  0.51510157154E-01  0.51100000000E-03 0.  1.
</event>
<event>
 8    1  0.2001339E+004  0.1043930E+01  0.7957747E-01            NaN
         13   -1    0    0    0    0  0.00000000000E+00  0.00000000000E+00  0.74505805969E-08  0.10566000000E+00  0.10566000000E+00 0. -1.
     999900   -1    0    0    0    0 -0.00000000000E+00 -0.00000000000E+00 -0.74505805969E-08  0.93827000000E+00  0.93827000000E+00 0.  1.
     999902    2    1    2    0    0  0.29431495861E-02  0.14466856712E-01  0.54710771490E-03  0.10291566659E+01  0.10290506264E+01 0.  0.
     999903    2    3    3    0    0  0.28979832700E-01 -0.92352337018E-01 -0.87275804827E-01  0.13797704712E+00  0.45296959816E-01 0.  0.
         14    1    1    2    0    0 -0.29431495861E-02 -0.14466856712E-01 -0.54710771490E-03  0.14773334067E-01  0.00000000000E+00 0. -1.
     999901    1    3    3    0    0 -0.26036683114E-01  0.10681919373E+00  0.87822912541E-01  0.89117961881E+00  0.88000000000E+00 0. -1.
        -11    1    4    4    0    0 -0.11636201354E-01 -0.13066885378E-01 -0.10792881392E-01  0.20564340135E-01  0.51100000000E-03 0. -1.
         11    1    4    4    0    0  0.40616034054E-01 -0.79285451640E-01 -0.76482923435E-01  0.11741270699E+00  0.51100000000E-03 0.  1.
</event>
<event>
 8    1  0.2001339E+004  0.1043930E+01  0.7957747E-01            NaN
         13   -1    0    0    0    0  0.00000000000E+00  0.00000000000E+00  0.74505805969E-08  0.10566000000E+00  0.10566000000E+00 0.  1.
     999900   -1    0    0    0    0 -0.00000000000E+00 -0.00000000000E+00 -0.74505805969E-08  0.93827000000E+00  0.93827000000E+00 0. -1.
     999902    2    1    2    0    0 -0.50077697742E-02  0.11428970540E-01  0.65513313378E-02  0.10298367723E+01  0.10297403354E+01 0.  0.
     999903    2    3    3    0    0  0.49187390082E-01  0.81280425860E-01 -0.92639155020E-01  0.13986200085E+00  0.44197955484E-01 0.  0.
         14    1    1    2    0    0  0.50077697742E-02 -0.11428970540E-01 -0.65513313378E-02  0.14093227736E-01  0.00000000000E+00 0. -1.
     999901    1    3    3    0    0 -0.54195159856E-01 -0.69851455320E-01  0.99190486358E-01  0.88997477141E+00  0.88000000000E+00 0.  1.
        -11    1    4    4    0    0  0.33616665651E-01  0.17871796588E-01 -0.45500581698E-01  0.59329970324E-01  0.51100000000E-03 0. -1.
         11    1    4    4    0    0  0.15570724431E-01  0.63408629272E-01 -0.47138573322E-01  0.80532030530E-01  0.51100000000E-03 0.  1.
</event>
<event>
 8    1  0.2001339E+004  0.1043930E+01  0.7957747E-01            NaN
         13   -1    0    0    0    0  0.00000000000E+00  0.00000000000E+00  0.74505805969E-08  0.10566000000E+00  0.10566000000E+00 0. -1.
     999900   -1    0    0    0    0 -0.00000000000E+00 -0.00000000000E+00 -0.74505805969E-08  0.93827000000E+00  0.93827000000E+00 0. -1.
     999902    2    1    2    0    0  0.27751323392E-02 -0.10100029909E-01 -0.92551110596E-02  0.10299525523E+01  0.10298577042E+01 0.  0.
     999903    2    3    3    0    0  0.83734338477E-01  0.82857568821E-01 -0.60806090254E-01  0.13986659483E+00  0.44592236833E-01 0.  0.
         14    1    1    2    0    0 -0.27751323392E-02  0.10100029909E-01  0.92551110596E-02  0.13977447706E-01  0.00000000000E+00 0.  1.
     999901    1    3    3    0    0 -0.80959206138E-01 -0.92957598730E-01  0.51550979194E-01  0.89008595746E+00  0.88000000000E+00 0.  1.
        -11    1    4    4    0    0  0.13867560318E-01  0.20662285523E-01 -0.34787480528E-01  0.42774632607E-01  0.51100000000E-03 0. -1.
         11    1    4    4    0    0  0.69866778159E-01  0.62195283298E-01 -0.26018609726E-01  0.97091962221E-01  0.51100000000E-03 0.  1.
</event>
<event>
 8    1  0.2001339E+004  0.1043930E+01  0.7957747E-01            NaN
         13   -1    0    0    0    0  0.00000000000E+00  0.00000000000E+00  0.74505805969E-08  0.10566000000E+00  0.10566000000E+00 0. -1.
     999900   -1    0    0    0    0 -0.00000000000E+00 -0.00000000000E+00 -0.74505805969E-08  0.93827000000E+00  0.93827000000E+00 0.  1.
     999902    2    1    2    0    0 -0.90703498345E-02  0.10873563634E-01  0.52771879451E-02  0.10288186022E+01  0.10287076173E+01 0.  0.
     999903    2    3    3    0    0 -0.75672882477E-01 -0.10593086797E+00 -0.14320073907E-01  0.13838992715E+00  0.44709881343E-01 0.  0.
         14    1    1    2    0    0  0.90703498345E-02 -0.10873563634E-01 -0.52771879451E-02  0.15111397845E-01  0.00000000000E+00 0. -1.
     999901    1    3    3    0    0  0.66602532642E-01  0.11680443160E+00  0.19597261853E-01  0.89042867500E+00  0.88000000000E+00 0. -1.
        -11    1    4    4    0    0 -0.42237817879E-01 -0.35785852941E-01 -0.23497914728E-01  0.60142112097E-01  0.51100000000E-03 0. -1.
         11    1    4    4    0    0 -0.33435064598E-01 -0.70145015027E-01  0.91778408210E-02  0.78247815055E-01  0.51100000000E-03 0.  1.
</event>
<event>
 8    1  0.2603329E+004  0.1043930E+01  0.7957747E-01            NaN
         13   -1    0    0    0    0  0.00000000000E+00  0.00000000000E+00  0.74505805969E-08  0.10566000000E+00  0.10566000000E+00 0.  1.
     999900   -1    0    0    0    0 -0.00000000000E+00 -0.00000000000E+00 -0.74505805969E-08  0.93827000000E+00  0.93827000000E+00 0.  1.
     999902    2    1    2    0    0 -0.21276471363E-02 -0.15890325421E-01  0.18837034280E-02  0.10277875819E+01  0.10276608078E+01 0.  0.
     999903    2    3    3    0    0  0.12917149292E+00 -0.28939542877E-02  0.17619460827E-01  0.13781231036E+00  0.44588540385E-01 0.  0.
         14    1    1    2    0    0  0.21276471363E-02  0.15890325421E-01 -0.18837034280E-02  0.16142418125E-01  0.00000000000E+00 0. -1.
     999901    1    3    3    0    0 -0.13129914005E+00 -0.12996371134E-01 -0.15735757399E-01  0.88997527151E+00  0.88000000000E+00 0. -1.
        -11    1    4    4    0    0  0.65774378108E-01  0.20271877149E-01  0.39462750806E-02  0.68942381934E-01  0.51100000000E-03 0.  1.
         11    1    4    4    0    0  0.63397114810E-01 -0.23165831437E-01  0.13673185746E-01  0.68869928429E-01  0.51100000000E-03 0. -1.
</event>
<event>
 8    1  0.2001339E+004  0.1043930E+01  0.7957747E-01            NaN
         13   -1    0    0    0    0  0.00000000000E+00  0.00000000000E+00  0.74505805969E-08  0.10566000000E+00  0.10566000000E+00 0.  1.
     999900   -1    0    0    0    0 -0.00000000000E+00 -0.00000000000E+00 -0.74505805969E-08  0.93827000000E+00  0.93827000000E+00 0. -1.
     999902    2    1    2    0    0  0.78520694785E-02 -0.13034795302E-01 -0.64943127970E-03  0.10286990235E+01  0.10285862620E+01 0.  0.
     999903    2    3    3    0    0 -0.47304537393E-01  0.10746420436E+00 -0.54789654343E-01  0.13713106539E+00  0.44908221915E-01 0.  0.
         14    1    1    2    0    0 -0.78520694785E-02  0.13034795302E-01  0.64943127970E-03  0.15230976483E-01  0.00000000000E+00 0.  1.
     999901    1    3    3    0    0  0.55156606871E-01 -0.12049899966E+00  0.54140223064E-01  0.89156795812E+00  0.88000000000E+00 0. -1.
        -11    1    4    4    0    0 -0.26431522502E-01  0.48733657829E-01 -0.49928262761E-01  0.74610236097E-01  0.51100000000E-03 0. -1.
         11    1    4    4    0    0 -0.20873014891E-01  0.58730546532E-01 -0.48613915826E-02  0.62520829295E-01  0.51100000000E-03 0.  1.
</event>
<event>
 8    1  0.2001339E+004  0.1043930E+01  0.7957747E-01            NaN
         13   -1    0    0    0    0  0.00000000000E+00  0.00000000000E+00  0.74505805969E-08  0.10566000000E+00  0.10566000000E+00 0. -1.
     999900   -1    0    0    0    0 -0.00000000000E+00 -0.00000000000E+00 -0.74505805969E-08  0.93827000000E+00  0.93827000000E+00 0.  1.
     999902    2    1    2    0    0  0.91572877432E-03 -0.72318257629E-02  0.11337045082E-01  0.10304516301E+01  0.10303634774E+01 0.  0.
     999903    2    3    3    0    0  0.11943551084E+00  0.35594074916E-01 -0.44837426582E-01  0.13970106585E+00  0.44432123052E-01 0.  0.
         14    1    1    2    0    0 -0.91572877432E-03  0.72318257629E-02 -0.11337045082E-01  0.13478369866E-01  0.00000000000E+00 0.  1.
     999901    1    3    3    0    0 -0.11851978206E+00 -0.42825900679E-01  0.56174471664E-01  0.89075056429E+00  0.88000000000E+00 0.  1.
        -11    1    4    4    0    0  0.63046129706E-02  0.11152935590E-01 -0.15845324151E-01  0.20383118884E-01  0.51100000000E-03 0.  1.
         11    1    4    4    0    0  0.11313089787E+00  0.24441139326E-01 -0.28992102430E-01  0.11931794696E+00  0.51100000000E-03 0. -1.
</event>
<event>
 8    1  0.2001339E+004  0.1043930E+01  0.7957747E-01            NaN
         13   -1    0    0    0    0  0.00000000000E+00  0.00000000000E+00  0.74505805969E-08  0.10566000000E+00  0.10566000000E+00 0.  1.
     999900   -1    0    0    0    0 -0.00000000000E+00 -0.00000000000E+00 -0.74505805969E-08  0.93827000000E+00  0.93827000000E+00 0. -1.
     999902    2    1    2    0    0  0.60974854215E-02  0.94948845966E-02  0.59126301990E-02  0.10311906375E+01  0.10311119432E+01 0.  0.
     999903    2    3    3    0    0 -0.20889998238E-01  0.70332252074E-01 -0.11131125595E+00  0.14092609867E+00  0.45683168411E-01 0.  0.
         14    1    1    2    0    0 -0.60974854215E-02 -0.94948845966E-02 -0.59126301990E-02  0.12739362537E-01  0.00000000000E+00 0. -1.
     999901    1    3    3    0    0  0.26987483660E-01 -0.60837367477E-01  0.11722388615E+00  0.89026453880E+00  0.88000000000E+00 0.  1.
        -11    1    4    4    0    0  0.25169968201E-02  0.43157906466E-01 -0.88283120114E-01  0.98301121975E-01  0.51100000000E-03 0. -1.
         11    1    4    4    0    0 -0.23406995058E-01  0.27174345608E-01 -0.23028135836E-01  0.42624976692E-01  0.51100000000E-03 0.  1.
</event>
<event>
 8    1  0.2001339E+004  0.1043930E+01  0.7957747E-01            NaN
         13   -1    0    0    0    0  0.00000000000E+00  0.00000000000E+00  0.74505805969E-08  0.10566000000E+00  0.10566000000E+00 0.  1.
     999900   -1    0    0    0    0 -0.00000000000E+00 -0.00000000000E+00 -0.74505805969E-08  0.93827000000E+00  0.93827000000E+00 0.  1.
     999902    2    1    2    0    0 -0.22336101698E-02  0.13145261740E-01  0.12169594834E-02  0.10305409033E+01  0.10304539220E+01 0.  0.
     999903    2    3    3    0    0 -0.93538868526E-01  0.45451867479E-01  0.85235788154E-01  0.14124931412E+00  0.43253173004E-01 0.  0.
         14    1    1    2    0    0  0.22336101698E-02 -0.13145261740E-01 -0.12169594834E-02  0.13389096720E-01  0.00000000000E+00 0. -1.
     999901    1    3    3    0    0  0.91305258356E-01 -0.32306605740E-01 -0.84018828671E-01  0.88929158916E+00  0.88000000000E+00 0.  1.
        -11    1    4    4    0    0 -0.41583189138E-01 -0.21620197094E-02  0.38283197753E-01  0.56565893428E-01  0.51100000000E-03 0.  1.
         11    1    4    4    0    0 -0.51955679388E-01  0.47613887189E-01  0.46952590401E-01  0.84683420693E-01  0.51100000000E-03 0. -1.
</event>
<event>
 8    1  0.2001339E+004  0.1043930E+01  0.7957747E-01            NaN
         13   -1    0    0    0    0  0.00000000000E+00  0.00000000000E+00  0.74505805969E-08  0.10566000000E+00  0.10566000000E+00 0. -1.
     999900   -1    0    0    0    0 -0.00000000000E+00 -0.00000000000E+00 -0.74505805969E-08  0.93827000000E+00  0.93827000000E+00 0.  1.
     999902    2    1    2    0    0 -0.12953729531E-01 -0.33763600995E-02 -0.29342849687E-02  0.10302256596E+01  0.10301345062E+01 0.  0.
     999903    2    3    3    0    0 -0.36862739201E-01 -0.75434664935E-01 -0.10384356849E+00  0.14121119208E+00  0.45911478271E-01 0.  0.
         14    1    1    2    0    0  0.12953729531E-01  0.33763600995E-02  0.29342849687E-02  0.13704340354E-01  0.00000000000E+00 0.  1.
     999901    1    3    3    0    0  0.23909009670E-01  0.72058304835E-01  0.10090928352E+00  0.88901446756E+00  0.88000000000E+00 0. -1.
        -11    1    4    4    0    0 -0.44231115523E-01 -0.42160346720E-01 -0.73428820896E-01  0.95529782137E-01  0.51100000000E-03 0.  1.
         11    1    4    4    0    0  0.73683763222E-02 -0.33274318214E-01 -0.30414747594E-01  0.45681409944E-01  0.51100000000E-03 0. -1.
</event>
<event>
 8    1  0.2001339E+004  0.1043930E+01  0.7957747E-01            NaN
         13   -1    0    0    0    0  0.00000000000E+00  0.00000000000E+00  0.74505805969E-08  0.10566000000E+00  0.10566000000E+00 0. -1.
     999900   -1    0    0    0    0 -0.00000000000E+00 -0.00000000000E+00 -0.74505805969E-08  0.93827000000E+00  0.93827000000E+00 0.  1.
     999902    2    1    2    0    0 -0.19508923821E-03 -0.14538058201E-01 -0.57369290571E-02  0.10282997233E+01  0.10281809254E+01 0.  0.
     999903    2    3    3    0    0 -0.12269054053E+00 -0.48070190022E-01  0.26219864721E-03  0.13916220353E+00  0.44747494207E-01 0.  0.
         14    1    1    2    0    0  0.19508923821E-03  0.14538058201E-01  0.57369290571E-02  0.15630276743E-01  0.00000000000E+00 0.  1.
     999901    1    3    3    0    0  0.12249545130E+00  0.33532131822E-01 -0.59991277043E-02  0.88913751973E+00  0.88000000000E+00 0. -1.
        -11    1    4    4    0    0 -0.10995706347E+00 -0.32159916442E-01 -0.12291118816E-01  0.11522217129E+00  0.51100000000E-03 0.  1.
         11    1    4    4    0    0 -0.12733477060E-01 -0.15910273581E-01  0.12553317463E-01  0.23940032243E-01  0.51100000000E-03 0. -1.
</event>
<event>
 8    1  0.2001339E+004  0.1043930E+01  0.7957747E-01            NaN
         13   -1    0    0    0    0  0.00000000000E+00  0.00000000000E+00  0.74505805969E-08  0.10566000000E+00  0.10566000000E+00 0.  1.
     999900   -1    0    0    0    0 -0.00000000000E+00 -0.00000000000E+00 -0.74505805969E-08  0.93827000000E+00  0.93827000000E+00 0. -1.
     999902    2    1    2    0    0 -0.29612808687E-02 -0.10564786380E-01  0.47509624957E-02  0.10319735984E+01  0.10319043329E+01 0.  0.
     999903    2    3    3    0    0  0.12432558879E+00 -0.36170995973E-02 -0.49464074291E-01  0.14113720050E+00  0.44755773727E-01 0.  0.
         14    1    1    2    0    0  0.29612808687E-02  0.10564786380E-01 -0.47509624957E-02  0.11956401644E-01  0.00000000000E+00 0. -1.
     999901    1    3    3    0    0 -0.12728686965E+00 -0.69476867827E-02  0.54215036787E-01  0.89083639786E+00  0.88000000000E+00 0. -1.
        -11    1    4    4    0    0  0.55787626206E-01  0.13210992827E-01 -0.46177331909E-02  0.57518467904E-01  0.51100000000E-03 0.  1.
         11    1    4    4    0    0  0.68537962580E-01 -0.16828092425E-01 -0.44846341100E-01  0.83618732592E-01  0.51100000000E-03 0. -1.
</event>
<event>
 8    1  0.2001339E+004  0.1043930E+01  0.7957747E-01            NaN
         13   -1    0    0    0    0  0.00000000000E+00  0.00000000000E+00  0.74505805969E-08  0.10566000000E+00  0.10566000000E+00 0.  1.
     999900   -1    0    0    0    0 -0.00000000000E+00 -0.00000000000E+00 -0.74505805969E-08  0.93827000000E+00  0.93827000000E+00 0.  1.
     999902    2    1    2    0    0  0.12884256886E-01 -0.22379795935E-02 -0.42138111831E-02  0.10301906830E+01  0.10300990605E+01 0.  0.
     999903    2    3    3    0    0  0.11568011974E+00 -0.67165057486E-01 -0.15481293150E-01  0.14175977905E+00  0.44307216900E-01 0.  0.
         14    1    1    2    0    0 -0.12884256886E-01  0.22379795935E-02  0.42138111831E-02  0.13739317045E-01  0.00000000000E+00 0.  1.
     999901    1    3    3    0    0 -0.10279586285E+00  0.64927077893E-01  0.11267481967E-01  0.88843090390E+00  0.88000000000E+00 0.  1.
        -11    1    4    4    0    0  0.74155583945E-01 -0.61600027147E-01  0.18383969794E-02  0.96422273356E-01  0.51100000000E-03 0.  1.
         11    1    4    4    0    0  0.41524535792E-01 -0.55650303393E-02 -0.17319690130E-01  0.45337505695E-01  0.51100000000E-03 0. -1.
</event>
<event>
 8    1  0.2001339E+004  0.1043930E+01  0.7957747E-01            NaN
         13   -1    0    0    0    0  0.00000000000E+00  0.00000000000E+00  0.74505805969E-08  0.10566000000E+00  0.10566000000E+00 0.  1.
     999900   -1    0    0    0    0 -0.00000000000E+00 -0.00000000000E+00 -0.74505805969E-08  0.93827000000E+00  0.93827000000E+00 0.  1.
     999902    2    1    2    0    0 -0.12383386664E-01  0.12765391299E-02 -0.50934063456E-02  0.10304793269E+01  0.10303915385E+01 0.  0.
     999903    2    3    3    0    0 -0.53143745924E-02  0.82147082084E-01 -0.10365866376E+00  0.14126330954E+00  0.49333744810E-01 0.  0.
         14    1    1    2    0    0  0.12383386664E-01 -0.12765391299E-02  0.50934063456E-02  0.13450673055E-01  0.00000000000E+00 0. -1.
     999901    1    3    3    0    0 -0.70690120720E-02 -0.80870542954E-01  0.98565257411E-01  0.88921601741E+00  0.88000000000E+00 0.  1.
        -11    1    4    4    0    0  0.10942224443E-01  0.31891185561E-01 -0.72444270455E-01  0.79907530527E-01  0.51100000000E-03 0. -1.
         11    1    4    4    0    0 -0.16256599035E-01  0.50255896523E-01 -0.31214393301E-01  0.61355779008E-01  0.51100000000E-03 0.  1.
</event>
<event>
 8    1  0.2001339E+004  0.1043930E+01  0.7957747E-01            NaN
         13   -1    0    0    0    0  0.00000000000E+00  0.00000000000E+00  0.74505805969E-08  0.10566000000E+00  0.10566000000E+00 0.  1.
     999900   -1    0    0    0    0 -0.00000000000E+00 -0.00000000000E+00 -0.74505805969E-08  0.93827000000E+00  0.93827000000E+00 0. -1.
     999902    2    1    2    0    0 -0.55355214087E-02 -0.79123648403E-02 -0.96586899465E-02  0.10302721156E+01  0.10301815832E+01 0.  0.
     999903    2    3    3    0    0 -0.10080995679E+00  0.51582953936E-02 -0.88385018037E-01  0.14153936898E+00  0.45080219148E-01 0.  0.
         14    1    1    2    0    0  0.55355214087E-02  0.79123648403E-02  0.96586899465E-02  0.13657884394E-01  0.00000000000E+00 0.  1.
     999901    1    3    3    0    0  0.95274435378E-01 -0.13070660234E-01  0.78726328091E-01  0.88873274663E+00  0.88000000000E+00 0. -1.
        -11    1    4    4    0    0 -0.38891067657E-01 -0.18577837165E-01 -0.44888909024E-01  0.62232840619E-01  0.51100000000E-03 0.  1.
         11    1    4    4    0    0 -0.61918889130E-01  0.23736132559E-01 -0.43496109013E-01  0.79306528358E-01  0.51100000000E-03 0. -1.
</event>
<event>
 8    1  0.2001339E+004  0.1043930E+01  0.7957747E-01            NaN
         13   -1    0    0    0    0  0.00000000000E+00  0.00000000000E+00  0.74505805969E-08  0.10566000000E+00  0.10566000000E+00 0.  1.
     999900   -1    0    0    0    0 -0.00000000000E+00 -0.00000000000E+00 -0.74505805969E-08  0.93827000000E+00  0.93827000000E+00 0.  1.
     999902    2    1    2    0    0  0.54724082712E-03 -0.64199480824E-02 -0.12863043713E-01  0.10295434403E+01  0.10294429185E+01 0.  0.
     999903    2    3    3    0    0 -0.21752240875E-01 -0.37675962497E-01 -0.12661398407E+00  0.14139171806E+00  0.45473935834E-01 0.  0.
         14    1    1    2    0    0 -0.54724082712E-03  0.64199480824E-02  0.12863043713E-01  0.14386559682E-01  0.00000000000E+00 0.  1.
     999901    1    3    3    0    0  0.22299481702E-01  0.31256014415E-01  0.11375094036E+00  0.88815172226E+00  0.88000000000E+00 0. -1.
        -11    1    4    4    0    0 -0.14240483115E-01 -0.30780321393E-01 -0.33340824994E-01  0.47561447378E-01  0.51100000000E-03 0.  1.
         11    1    4    4    0    0 -0.75117577599E-02 -0.68956411041E-02 -0.93273159076E-01  0.93830270680E-01  0.51100000000E-03 0. -1.
</event>
<event>
 8    1  0.2001339E+004  0.1043930E+01  0.7957747E-01            NaN
         13   -1    0    0    0    0  0.00000000000E+00  0.00000000000E+00  0.74505805969E-08  0.10566000000E+00  0.10566000000E+00 0. -1.
     999900   -1    0    0    0    0 -0.00000000000E+00 -0.00000000000E+00 -0.74505805969E-08  0.93827000000E+00  0.93827000000E+00 0. -1.
     999902    2    1    2    0    0  0.52549941268E-02 -0.10708536373E-01  0.53349332350E-02  0.10308628952E+01  0.10307800733E+01 0.  0.
     999903    2    3    3    0    0 -0.63292800254E-01  0.40830877788E-01  0.10961247398E+00  0.14056580053E+00  0.45505062146E-01 0.  0.
         14    1    1    2    0    0 -0.52549941268E-02  0.10708536373E-01 -0.53349332350E-02  0.13067104773E-01  0.00000000000E+00 0.  1.
     999901    1    3    3    0    0  0.68547794381E-01 -0.51539414162E-01 -0.10427754075E+00  0.89029709470E+00  0.88000000000E+00 0.  1.
        -11    1    4    4    0    0 -0.96456910224E-03  0.18985357532E-01  0.41705183014E-01  0.45836204090E-01  0.51100000000E-03 0.  1.
         11    1    4    4    0    0 -0.62328231152E-01  0.21845520257E-01  0.67907290966E-01  0.94729596437E-01  0.51100000000E-03 0. -1.
</event>
<event>
 8    1  0.2001339E+004  0.1043930E+01  0.7957747E-01            NaN
         13   -1    0    0    0    0  0.00000000000E+00  0.00000000000E+00  0.74505805969E-08  0.10566000000E+00  0.10566000000E+00 0.  1.
     999900   -1    0    0    0    0 -0.00000000000E+00 -0.00000000000E+00 -0.74505805969E-08  0.93827000000E+00  0.93827000000E+00 0.  1.
     999902    2    1    2    0    0  0.17550959317E-01 -0.81535400805E-02  0.11534514288E-01  0.10214008764E+01  0.10211523828E+01 0.  0.
     999903    2    3    3    0    0 -0.95388405221E-01  0.75550548338E-01  0.83801046410E-02  0.13023780226E+00  0.45659892440E-01 0.  0.
         14    1    1    2    0    0 -0.17550959317E-01  0.81535400805E-02 -0.11534514288E-01  0.22529123566E-01  0.00000000000E+00 0. -1.
     999901    1    3    3    0    0  0.11293936454E+00 -0.83704088418E-01  0.31544096465E-02  0.89116307418E+00  0.88000000000E+00 0.  1.
        -11    1    4    4    0    0 -0.16707343192E-01  0.36063165784E-01  0.13696276558E-01  0.42042078391E-01  0.51100000000E-03 0. -1.
         11    1    4    4    0    0 -0.78681062029E-01  0.39487382554E-01 -0.53161719174E-02  0.88195723864E-01  0.51100000000E-03 0.  1.
</event>
<event>
 8    1  0.2001339E+004  0.1043930E+01  0.7957747E-01            NaN
         13   -1    0    0    0    0  0.00000000000E+00  0.00000000000E+00  0.74505805969E-08  0.10566000000E+00  0.10566000000E+00 0. -1.
     999900   -1    0    0    0    0 -0.00000000000E+00 -0.00000000000E+00 -0.74505805969E-08  0.93827000000E+00  0.93827000000E+00 0.  1.
     999902    2    1    2    0    0 -0.29280659015E-02  0.11505667272E-01 -0.73214960584E-02  0.10299815860E+01  0.10298871342E+01 0.  0.
     999903    2    3    3    0    0 -0.95142825422E-03  0.11379522822E+00 -0.71553675105E-01  0.14172889997E+00  0.44909837281E-01 0.  0.
         14    1    1    2    0    0  0.29280659015E-02 -0.11505667272E-01  0.73214960584E-02  0.13948414026E-01  0.00000000000E+00 0.  1.
     999901    1    3    3    0    0 -0.19766376473E-02 -0.10228956094E+00  0.64232179046E-01  0.88825268601E+00  0.88000000000E+00 0. -1.
        -11    1    4    4    0    0 -0.13382835117E-01  0.45939468945E-01 -0.50569852707E-01  0.69621162059E-01  0.51100000000E-03 0.  1.
         11    1    4    4    0    0  0.12431406863E-01  0.67855759270E-01 -0.20983822398E-01  0.72107737907E-01  0.51100000000E-03 0. -1.
</event>
<event>
 8    1  0.2001339E+004  0.1043930E+01  0.7957747E-01            NaN
         13   -1    0    0    0    0  0.00000000000E+00  0.00000000000E+00  0.74505805969E-08  0.10566000000E+00  0.10566000000E+00 0. -1.
     999900   -1    0    0    0    0 -0.00000000000E+00 -0.00000000000E+00 -0.74505805969E-08  0.93827000000E+00  0.93827000000E+00 0. -1.
     999902    2    1    2    0    0 -0.42286443052E-02 -0.13284913310E-01  0.26420631537E-02  0.10297401849E+01  0.10296424125E+01 0.  0.
     999903    2    3    3    0    0  0.13076682334E+00 -0.14742703869E-01  0.73321957998E-02  0.13943242982E+00  0.45500900944E-01 0.  0.
         14    1    1    2    0    0  0.42286443052E-02  0.13284913310E-01 -0.26420631537E-02  0.14189815080E-01  0.00000000000E+00 0.  1.
     999901    1    3    3    0    0 -0.13499546765E+00  0.14577905597E-02 -0.46901326461E-02  0.89030775510E+00  0.88000000000E+00 0. -1.
        -11    1    4    4    0    0  0.86152070467E-01 -0.26072925502E-01 -0.92876382745E-02  0.90490320122E-01  0.51100000000E-03 0.  1.
         11    1    4    4    0    0  0.44614752876E-01  0.11330221633E-01  0.16619834074E-01  0.48942109702E-01  0.51100000000E-03 0. -1.
</event>
<event>
 8    1  0.2001339E+004  0.1043930E+01  0.7957747E-01            NaN
         13   -1    0    0    0    0  0.00000000000E+00  0.00000000000E+00  0.74505805969E-08  0.10566000000E+00  0.10566000000E+00 0.  1.
     999900   -1    0    0    0    0 -0.00000000000E+00 -0.00000000000E+00 -0.74505805969E-08  0.93827000000E+00  0.93827000000E+00 0.  1.
     999902    2    1    2    0    0 -0.96505558725E-02  0.93209219479E-02 -0.16907653219E-02  0.10304070010E+01  0.10303182597E+01 0.  0.
     999903    2    3    3    0    0 -0.33197209256E-01  0.12964874956E+00 -0.16954083892E-01  0.14177535635E+00  0.43611440477E-01 0.  0.
         14    1    1    2    0    0  0.96505558725E-02 -0.93209219479E-02  0.16907653219E-02  0.13522999001E-01  0.00000000000E+00 0. -1.
     999901    1    3    3    0    0  0.23546653383E-01 -0.12032782762E+00  0.15263318570E-01  0.88863164465E+00  0.88000000000E+00 0. -1.
        -11    1    4    4    0    0 -0.21168928463E-01  0.85323325553E-01  0.10065737918E-01  0.88486008027E-01  0.51100000000E-03 0. -1.
         11    1    4    4    0    0 -0.12028280793E-01  0.44325424011E-01 -0.27019821811E-01  0.53289348319E-01  0.51100000000E-03 0.  1.
</event>
<event>
 8    1  0.2001339E+004  0.1043930E+01  0.7957747E-01            NaN
         13   -1    0    0    0    0  0.00000000000E+00  0.00000000000E+00  0.74505805969E-08  0.10566000000E+00  0.10566000000E+00 0. -1.
     999900   -1    0    0    0    0 -0.00000000000E+00 -0.00000000000E+00 -0.74505805969E-08  0.93827000000E+00  0.93827000000E+00 0. -1.
     999902    2    1    2    0    0  0.10718203272E-01 -0.90234221181E-02 -0.73084337540E-02  0.10281276194E+01  0.10280061705E+01 0.  0.
     999903    2    3    3    0    0 -0.70264409080E-01 -0.40887003274E-01 -0.10315782710E+00  0.13865554144E+00  0.44440833240E-01 0.  0.
         14    1    1    2    0    0 -0.10718203272E-01  0.90234221181E-02  0.73084337540E-02  0.15802380581E-01  0.00000000000E+00 0.  1.
     999901    1    3    3    0    0  0.80982612352E-01  0.31863581156E-01  0.95849393344E-01  0.88947207798E+00  0.88000000000E+00 0.  1.
        -11    1    4    4    0    0 -0.19717237607E-01 -0.84445150505E-02 -0.27196123454E-02  0.21627221402E-01  0.51100000000E-03 0. -1.
         11    1    4    4    0    0 -0.50547171473E-01 -0.32442488223E-01 -0.10043821475E+00  0.11702832003E+00  0.51100000000E-03 0.  1.
</event>
<event>
 8    1  0.2001339E+004  0.1043930E+01  0.7957747E-01            NaN
         13   -1    0    0    0    0  0.00000000000E+00  0.00000000000E+00  0.74505805969E-08  0.10566000000E+00  0.10566000000E+00 0. -1.
     999900   -1    0    0    0    0 -0.00000000000E+00 -0.00000000000E+00 -0.74505805969E-08  0.93827000000E+00  0.93827000000E+00 0.  1.
     999902    2    1    2    0    0  0.11841084573E-01  0.76826809394E-03 -0.18607353629E-01  0.10218611276E+01  0.10216227919E+01 0.  0.
     999903    2    3    3    0    0 -0.61499237546E-01 -0.10669942478E+00  0.12360090845E-01  0.13175602680E+00  0.45165864176E-01 0.  0.
         14    1    1    2    0    0 -0.11841084573E-01 -0.76826809394E-03  0.18607353629E-01  0.22068872395E-01  0.00000000000E+00 0. -1.
     999901    1    3    3    0    0  0.73340322118E-01  0.10746769287E+00 -0.30967444474E-01  0.89010510080E+00  0.88000000000E+00 0.  1.
        -11    1    4    4    0    0 -0.37954383796E-01 -0.84881954524E-01  0.26487690009E-01  0.96681644050E-01  0.51100000000E-03 0.  1.
         11    1    4    4    0    0 -0.23544853750E-01 -0.21817470251E-01 -0.14127599164E-01  0.35074382751E-01  0.51100000000E-03 0. -1.
</event>
<event>
 8    1  0.2001339E+004  0.1043930E+01  0.7957747E-01            NaN
         13   -1    0    0    0    0  0.00000000000E+00  0.00000000000E+00  0.74505805969E-08  0.10566000000E+00  0.10566000000E+00 0. -1.
     999900   -1    0    0    0    0 -0.00000000000E+00 -0.00000000000E+00 -0.74505805969E-08  0.93827000000E+00  0.93827000000E+00 0. -1.
     999902    2    1    2    0    0 -0.76559455829E-03 -0.33768982393E-02  0.12878234150E-01  0.10305943901E+01  0.10305081069E+01 0.  0.
     999903    2    3    3    0    0 -0.90652108692E-02  0.31944952457E-02 -0.13037094063E+00  0.13894850022E+00  0.47092682073E-01 0.  0.
         14    1    1    2    0    0  0.76559455829E-03  0.33768982393E-02 -0.12878234150E-01  0.13335609907E-01  0.00000000000E+00 0.  1.
     999901    1    3    3    0    0  0.82996163109E-02 -0.65713934850E-02  0.14324917478E+00  0.89164588987E+00  0.88000000000E+00 0.  1.
        -11    1    4    4    0    0 -0.11583234819E-01  0.24179582178E-01 -0.77442772287E-01  0.81954058006E-01  0.51100000000E-03 0.  1.
         11    1    4    4    0    0  0.25180239501E-02 -0.20985086933E-01 -0.52928168347E-01  0.56994442218E-01  0.51100000000E-03 0. -1.
</event>
<event>
 7    1  0.2001339E+004  0.1043930E+01  0.7957747E-01            NaN
         13   -1    0    0    0    0  0.00000000000E+00  0.00000000000E+00  0.74505805969E-08  0.10566000000E+00  0.10566000000E+00 0. -1.
     999900   -1    0    0    0    0 -0.00000000000E+00 -0.00000000000E+00 -0.74505805969E-08  0.93827000000E+00  0.93827000000E+00 0. -1.
     999903    2    1    2    0    0  0.17517814991E-01  0.10602178369E+00 -0.52401129743E-01  0.12793295239E+00  0.45535364825E-01 0.  0.
         14    1    1    2    0    0 -0.32759301327E-02 -0.24379723963E-01  0.19672057868E-01  0.31497500211E-01  0.00000000000E+00 0. -1.
     999901    1    1    2    0    0 -0.14241884858E-01 -0.81642059730E-01  0.32729071875E-01  0.88449954740E+00  0.88000000000E+00 0. -1.
        -11    1    3    3    0    0  0.21451346021E-01  0.23317480103E-01 -0.37779011669E-02  0.31912360970E-01  0.51100000000E-03 0. -1.
         11    1    3    3    0    0 -0.39335310300E-02  0.82704303590E-01 -0.48623228576E-01  0.96020591421E-01  0.51100000000E-03 0.  1.
</event>
<event>
 8    1  0.2001339E+004  0.1043930E+01  0.7957747E-01            NaN
         13   -1    0    0    0    0  0.00000000000E+00  0.00000000000E+00  0.74505805969E-08  0.10566000000E+00  0.10566000000E+00 0.  1.
     999900   -1    0    0    0    0 -0.00000000000E+00 -0.00000000000E+00 -0.74505805969E-08  0.93827000000E+00  0.93827000000E+00 0. -1.
     999902    2    1    2    0    0  0.99152298353E-02  0.62096745866E-02  0.84462494778E-02  0.10295004826E+01  0.10293993553E+01 0.  0.
     999903    2    3    3    0    0 -0.89625926868E-01 -0.54728911056E-01 -0.76624787661E-01  0.13772751015E+00  0.45491191400E-01 0.  0.
         14    1    1    2    0    0 -0.99152298353E-02 -0.62096745866E-02 -0.84462494778E-02  0.14429517365E-01  0.00000000000E+00 0. -1.
     999901    1    3    3    0    0  0.99541156703E-01  0.60938585643E-01  0.85071037139E-01  0.89177297249E+00  0.88000000000E+00 0. -1.
        -11    1    4    4    0    0 -0.20351354121E-01 -0.16002204385E-01 -0.45745574256E-01  0.52565833435E-01  0.51100000000E-03 0. -1.
         11    1    4    4    0    0 -0.69274572747E-01 -0.38726706672E-01 -0.30879213405E-01  0.85161676712E-01  0.51100000000E-03 0.  1.
</event>
<event>
 8    1  0.2183106E+004  0.1043930E+01  0.7957747E-01            NaN
         13   -1    0    0    0    0  0.00000000000E+00  0.00000000000E+00  0.74505805969E-08  0.10566000000E+00  0.10566000000E+00 0. -1.
     999900   -1    0    0    0    0 -0.00000000000E+00 -0.00000000000E+00 -0.74505805969E-08  0.93827000000E+00  0.93827000000E+00 0.  1.
     999902    2    1    2    0    0 -0.63691083429E-02  0.13403852346E-01  0.11693359151E-03  0.10290894315E+01  0.10289824176E+01 0.  0.
     999903    2    3    3    0    0 -0.49981742324E-01  0.83846378778E-01  0.83856097431E-01  0.14124008681E+00  0.58211057764E-01 0.  0.
         14    1    1    2    0    0  0.63691083429E-02 -0.13403852346E-01 -0.11693359151E-03  0.14840568462E-01  0.00000000000E+00 0.  1.
     999901    1    3    3    0    0  0.43612633982E-01 -0.70442526431E-01 -0.83739163839E-01  0.88784934473E+00  0.88000000000E+00 0.  1.
        -11    1    4    4    0    0 -0.43112268137E-01  0.82886322086E-01  0.48618177825E-01  0.10532235465E+00  0.51100000000E-03 0.  1.
         11    1    4    4    0    0 -0.68694741870E-02  0.96005669200E-03  0.35237919606E-01  0.35917732161E-01  0.51100000000E-03 0. -1.
</event>
<event>
 8    1  0.2001339E+004  0.1043930E+01  0.7957747E-01            NaN
         13   -1    0    0    0    0  0.00000000000E+00  0.00000000000E+00  0.74505805969E-08  0.10566000000E+00  0.10566000000E+00 0. -1.
     999900   -1    0    0    0    0 -0.00000000000E+00 -0.00000000000E+00 -0.74505805969E-08  0.93827000000E+00  0.93827000000E+00 0. -1.
     999902    2    1    2    0    0 -0.11783556275E-01 -0.37946307162E-02 -0.64455908500E-02  0.10299730282E+01  0.10298784597E+01 0.  0.
     999903    2    3    3    0    0  0.10406275393E+00  0.48306400047E-01 -0.63591022330E-01  0.13901821153E+00  0.46039982340E-01 0.  0.
         14    1    1    2    0    0  0.11783556275E-01  0.37946307162E-02  0.64455908500E-02  0.13956971812E-01  0.00000000000E+00 0. -1.
     999901    1    3    3    0    0 -0.11584631021E+00 -0.52101030764E-01  0.57145431479E-01  0.89095481666E+00  0.88000000000E+00 0.  1.
        -11    1    4    4    0    0  0.74092725607E-01  0.52705231347E-01 -0.58961507738E-01  0.10837109354E+00  0.51100000000E-03 0. -1.
         11    1    4    4    0    0  0.29970028323E-01 -0.43988313000E-02 -0.46295145915E-02  0.30647117986E-01  0.51100000000E-03 0.  1.
</event>
<event>
 8    1  0.2001339E+004  0.1043930E+01  0.7957747E-01            NaN
         13   -1    0    0    0    0  0.00000000000E+00  0.00000000000E+00  0.74505805969E-08  0.10566000000E+00  0.10566000000E+00 0.  1.
     999900   -1    0    0    0    0 -0.00000000000E+00 -0.00000000000E+00 -0.74505805969E-08  0.93827000000E+00  0.93827000000E+00 0. -1.
     999902    2    1    2    0    0  0.65093282804E-02  0.92740610019E-03  0.11389926456E-01  0.10307785035E+01  0.10306946014E+01 0.  0.
     999903    2    3    3    0    0 -0.11829788253E+00 -0.60527984608E-01 -0.13012174255E-01  0.13951587805E+00  0.40464028705E-01 0.  0.
         14    1    1    2    0    0 -0.65093282804E-02 -0.92740610019E-03 -0.11389926456E-01  0.13151496547E-01  0.00000000000E+00 0. -1.
     999901    1    3    3    0    0  0.12480721081E+00  0.61455390709E-01  0.24402100711E-01  0.89126262540E+00  0.88000000000E+00 0.  1.
        -11    1    4    4    0    0 -0.38626480478E-02  0.53657110262E-02 -0.23466597909E-02  0.70341195563E-02  0.51100000000E-03 0.  1.
         11    1    4    4    0    0 -0.11443523448E+00 -0.65893695635E-01 -0.10665514464E-01  0.13248175850E+00  0.51100000000E-03 0. -1.
</event>
<event>
 8    1  0.2001339E+004  0.1043930E+01  0.7957747E-01            NaN
         13   -1    0    0    0    0  0.00000000000E+00  0.00000000000E+00  0.74505805969E-08  0.10566000000E+00  0.10566000000E+00 0.  1.
     999900   -1    0    0    0    0 -0.00000000000E+00 -0.00000000000E+00 -0.74505805969E-08  0.93827000000E+00  0.93827000000E+00 0. -1.
     999902    2    1    2    0    0 -0.75080041620E-02 -0.26254960144E-02  0.11609939839E-01  0.10298568320E+01  0.10297606714E+01 0.  0.
     999903    2    3    3    0    0 -0.45799475764E-01  0.12148409254E+00 -0.22133647671E-01  0.13968378335E+00  0.46536912780E-01 0.  0.
         14    1    1    2    0    0  0.75080041620E-02  0.26254960144E-02 -0.11609939839E-01  0.14073168047E-01  0.00000000000E+00 0. -1.
     999901    1    3    3    0    0  0.38291471602E-01 -0.12410958855E+00  0.33743587510E-01  0.89017304861E+00  0.88000000000E+00 0.  1.
        -11    1    4    4    0    0 -0.44033939259E-01  0.62878643932E-01 -0.25667436416E-01  0.80943128693E-01  0.51100000000E-03 0. -1.
         11    1    4    4    0    0 -0.17655365052E-02  0.58605448604E-01  0.35337887444E-02  0.58740654654E-01  0.51100000000E-03 0.  1.
</event>
<event>
 8    1  0.2001339E+004  0.1043930E+01  0.7957747E-01            NaN
         13   -1    0    0    0    0  0.00000000000E+00  0.00000000000E+00  0.74505805969E-08  0.10566000000E+00  0.10566000000E+00 0.  1.
     999900   -1    0    0    0    0 -0.00000000000E+00 -0.00000000000E+00 -0.74505805969E-08  0.93827000000E+00  0.93827000000E+00 0.  1.
     999902    2    1    2    0    0  0.14752688015E-02  0.12420574064E-01 -0.57339924763E-02  0.10301704307E+01  0.10300785361E+01 0.  0.
     999903    2    3    3    0    0 -0.72345486414E-01  0.15325701059E-01 -0.11167165495E+00  0.14074323749E+00  0.43236025030E-01 0.  0.
         14    1    1    2    0    0 -0.14752688015E-02 -0.12420574064E-01  0.57339924763E-02  0.13759569319E-01  0.00000000000E+00 0.  1.
     999901    1    3    3    0    0  0.73820755215E-01 -0.29051269945E-02  0.10593766248E+00  0.88942719319E+00  0.88000000000E+00 0. -1.
        -11    1    4    4    0    0 -0.32246545397E-01 -0.11772556539E-01 -0.64983837934E-01  0.73495531097E-01  0.51100000000E-03 0. -1.
         11    1    4    4    0    0 -0.40098941017E-01  0.27098257598E-01 -0.46687817020E-01  0.67247706390E-01  0.51100000000E-03 0.  1.
</event>
<event>
 8    1  0.2001339E+004  0.1043930E+01  0.7957747E-01            NaN
         13   -1    0    0    0    0  0.00000000000E+00  0.00000000000E+00  0.74505805969E-08  0.10566000000E+00  0.10566000000E+00 0. -1.
     999900   -1    0    0    0    0 -0.00000000000E+00 -0.00000000000E+00 -0.74505805969E-08  0.93827000000E+00  0.93827000000E+00 0.  1.
     999902    2    1    2    0    0 -0.12243681092E-02 -0.10432744316E-02 -0.15434362988E-01  0.10284120407E+01  0.10282949569E+01 0.  0.
     999903    2    3    3    0    0 -0.11506467416E+00 -0.60080532529E-01  0.19352288965E-01  0.13843725217E+00  0.44054648705E-01 0.  0.
         14    1    1    2    0    0  0.12243681092E-02  0.10432744316E-02  0.15434362988E-01  0.15517959262E-01  0.00000000000E+00 0. -1.
     999901    1    3    3    0    0  0.11384030605E+00  0.59037258098E-01 -0.34786651953E-01  0.88997478856E+00  0.88000000000E+00 0.  1.
        -11    1    4    4    0    0 -0.83851453956E-01 -0.29415378605E-01  0.29286692836E-01  0.93564428750E-01  0.51100000000E-03 0. -1.
         11    1    4    4    0    0 -0.31213220205E-01 -0.30665153924E-01 -0.99344038719E-02  0.44872823424E-01  0.51100000000E-03 0.  1.
</event>
<event>
 8    1  0.2001339E+004  0.1043930E+01  0.7957747E-01            NaN
         13   -1    0    0    0    0  0.00000000000E+00  0.00000000000E+00  0.74505805969E-08  0.10566000000E+00  0.10566000000E+00 0. -1.
     999900   -1    0    0    0    0 -0.00000000000E+00 -0.00000000000E+00 -0.74505805969E-08  0.93827000000E+00  0.93827000000E+00 0.  1.
     999902    2    1    2    0    0  0.66156996065E-03  0.13233428782E-01  0.29839421430E-02  0.10303482025E+01  0.10302586827E+01 0.  0.
     999903    2    3    3    0    0  0.11129816381E+00  0.33361429478E-01  0.66032321864E-01  0.14095476287E+00  0.44807492677E-01 0.  0.
         14    1    1    2    0    0 -0.66156996065E-03 -0.13233428782E-01 -0.29839421430E-02  0.13581797483E-01  0.00000000000E+00 0.  1.
     999901    1    3    3    0    0 -0.11063659385E+00 -0.20128000696E-01 -0.63048379721E-01  0.88939343965E+00  0.88000000000E+00 0.  1.
        -11    1    4    4    0    0  0.71305590331E-01  0.41073382581E-01  0.54207699317E-01  0.98540579231E-01  0.51100000000E-03 0.  1.
         11    1    4    4    0    0  0.39992573477E-01 -0.77119531027E-02  0.11824622547E-01  0.42414183634E-01  0.51100000000E-03 0. -1.
</event>
<event>
 8    1  0.2001339E+004  0.1043930E+01  0.7957747E-01            NaN
         13   -1    0    0    0    0  0.00000000000E+00  0.00000000000E+00  0.74505805969E-08  0.10566000000E+00  0.10566000000E+00 0. -1.
     999900   -1    0    0    0    0 -0.00000000000E+00 -0.00000000000E+00 -0.74505805969E-08  0.93827000000E+00  0.93827000000E+00 0. -1.
     999902    2    1    2    0    0  0.63065369656E-02 -0.11679131175E-01  0.46301690300E-03  0.10306488518E+01  0.10305632765E+01 0.  0.
     999903    2    3    3    0    0  0.12103499744E+00  0.41126631380E-01  0.38644151527E-01  0.14081242454E+00  0.44653085470E-01 0.  0.
         14    1    1    2    0    0 -0.63065369656E-02  0.11679131175E-01 -0.46301690300E-03  0.13281148224E-01  0.00000000000E+00 0. -1.
     999901    1    3    3    0    0 -0.11472846048E+00 -0.52805762554E-01 -0.38181134624E-01  0.88983642724E+00  0.88000000000E+00 0. -1.
        -11    1    4    4    0    0  0.62607844215E-03  0.30338379186E-02 -0.60738488413E-02  0.68373172721E-02  0.51100000000E-03 0.  1.
         11    1    4    4    0    0  0.12040891900E+00  0.38092793461E-01  0.44718000368E-01  0.13397510726E+00  0.51100000000E-03 0. -1.
</event>
<event>
 8    1  0.2001339E+004  0.1043930E+01  0.7957747E-01            NaN
         13   -1    0    0    0    0  0.00000000000E+00  0.00000000000E+00  0.74505805969E-08  0.10566000000E+00  0.10566000000E+00 0.  1.
     999900   -1    0    0    0    0 -0.00000000000E+00 -0.00000000000E+00 -0.74505805969E-08  0.93827000000E+00  0.93827000000E+00 0. -1.
     999902    2    1    2    0    0  0.48132454299E-02  0.61294459827E-02 -0.11557734283E-01  0.10299901771E+01  0.10298958425E+01 0.  0.
     999903    2    3    3    0    0  0.13383638160E-01  0.79252933972E-01 -0.10730328662E+00  0.14174037730E+00  0.46002064332E-01 0.  0.
         14    1    1    2    0    0 -0.48132454299E-02 -0.61294459827E-02  0.11557734283E-01  0.13939822860E-01  0.00000000000E+00 0.  1.
     999901    1    3    3    0    0 -0.85703927301E-02 -0.73123487990E-01  0.95745552340E-01  0.88824979984E+00  0.88000000000E+00 0.  1.
        -11    1    4    4    0    0 -0.79816775189E-02  0.66712901786E-01 -0.70664180960E-01  0.97509004879E-01  0.51100000000E-03 0. -1.
         11    1    4    4    0    0  0.21365315679E-01  0.12540032187E-01 -0.36639105662E-01  0.44231372419E-01  0.51100000000E-03 0.  1.
</event>
<event>
 8    1  0.2001339E+004  0.1043930E+01  0.7957747E-01            NaN
         13   -1    0    0    0    0  0.00000000000E+00  0.00000000000E+00  0.74505805969E-08  0.10566000000E+00  0.10566000000E+00 0. -1.
     999900   -1    0    0    0    0 -0.00000000000E+00 -0.00000000000E+00 -0.74505805969E-08  0.93827000000E+00  0.93827000000E+00 0.  1.
     999902    2    1    2    0    0  0.86965941019E-02 -0.10138956751E-01 -0.61749430225E-02  0.10292140524E+01  0.10291088409E+01 0.  0.
     999903    2    3    3    0    0 -0.87132428248E-01  0.89353749849E-01  0.35542777564E-01  0.13746163809E+00  0.45346005820E-01 0.  0.
         14    1    1    2    0    0 -0.86965941019E-02  0.10138956751E-01  0.61749430225E-02  0.14715947618E-01  0.00000000000E+00 0. -1.
     999901    1    3    3    0    0  0.95829022350E-01 -0.99492706600E-01 -0.41717720587E-01  0.89175241430E+00  0.88000000000E+00 0.  1.
        -11    1    4    4    0    0 -0.58925165610E-01  0.29765918686E-01  0.10066221994E-01  0.66781546879E-01  0.51100000000E-03 0.  1.
         11    1    4    4    0    0 -0.28207262638E-01  0.59587831163E-01  0.25476555571E-01  0.70680091207E-01  0.51100000000E-03 0. -1.
</event>
<event>
 8    1  0.2001339E+004  0.1043930E+01  0.7957747E-01            NaN
         13   -1    0    0    0    0  0.00000000000E+00  0.00000000000E+00  0.74505805969E-08  0.10566000000E+00  0.10566000000E+00 0.  1.
     999900   -1    0    0    0    0 -0.00000000000E+00 -0.00000000000E+00 -0.74505805969E-08  0.93827000000E+00  0.93827000000E+00 0.  1.
     999902    2    1    2    0    0 -0.52781914186E-02 -0.90320548666E-02 -0.73522509504E-02  0.10311435652E+01  0.10310642847E+01 0.  0.
     999903    2    3    3    0    0 -0.13146870534E+00  0.16429427116E-01 -0.22354723395E-01  0.14165078447E+00  0.44847123929E-01 0.  0.
         14    1    1    2    0    0  0.52781914186E-02  0.90320548666E-02  0.73522509504E-02  0.12786434757E-01  0.00000000000E+00 0.  1.
     999901    1    3    3    0    0  0.12619051392E+00 -0.25461481982E-01  0.15002472444E-01  0.88949278077E+00  0.88000000000E+00 0. -1.
        -11    1    4    4    0    0 -0.37201681281E-01  0.88608631227E-02 -0.27236960989E-01  0.46953095215E-01  0.51100000000E-03 0. -1.
         11    1    4    4    0    0 -0.94267024056E-01  0.75685639931E-02  0.48822375942E-02  0.94697689254E-01  0.51100000000E-03 0.  1.
</event>
<event>
 8    1  0.2001339E+004  0.1043930E+01  0.7957747E-01            NaN
         13   -1    0    0    0    0  0.00000000000E+00  0.00000000000E+00  0.74505805969E-08  0.10566000000E+00  0.10566000000E+00 0.  1.
     999900   -1    0    0    0    0 -0.00000000000E+00 -0.00000000000E+00 -0.74505805969E-08  0.93827000000E+00  0.93827000000E+00 0. -1.
     999902    2    1    2    0    0  0.69096543987E-02 -0.75676643029E-02 -0.93430304862E-02  0.10300625891E+01  0.10299692385E+01 0.  0.
     999903    2    3    3    0    0 -0.45292600678E-01  0.64581816234E-01  0.10386234982E+00  0.13835294962E+00  0.46172722399E-01 0.  0.
         14    1    1    2    0    0 -0.69096543987E-02  0.75676643029E-02  0.93430304862E-02  0.13867410918E-01  0.00000000000E+00 0.  1.
     999901    1    3    3    0    0  0.52202255076E-01 -0.72149480537E-01 -0.11320538031E+00  0.89170963946E+00  0.88000000000E+00 0. -1.
        -11    1    4    4    0    0 -0.40599764723E-02  0.28086590311E-01  0.65081091909E-01  0.71001053579E-01  0.51100000000E-03 0.  1.
         11    1    4    4    0    0 -0.41232624205E-01  0.36495225923E-01  0.38781257914E-01  0.67351896042E-01  0.51100000000E-03 0. -1.
</event>
<event>
 8    1  0.2001339E+004  0.1043930E+01  0.7957747E-01            NaN
         13   -1    0    0    0    0  0.00000000000E+00  0.00000000000E+00  0.74505805969E-08  0.10566000000E+00  0.10566000000E+00 0.  1.
     999900   -1    0    0    0    0 -0.00000000000E+00 -0.00000000000E+00 -0.74505805969E-08  0.93827000000E+00  0.93827000000E+00 0. -1.
     999902    2    1    2    0    0 -0.30534912711E-03 -0.62283370154E-02  0.12297532398E-01  0.10301417904E+01  0.10300495103E+01 0.  0.
     999903    2    3    3    0    0 -0.38349960810E-01 -0.17849928518E-01  0.12769876376E+00  0.14171627410E+00  0.44577894024E-01 0.  0.
         14    1    1    2    0    0  0.30534912711E-03  0.62283370154E-02 -0.12297532398E-01  0.13788209570E-01  0.00000000000E+00 0. -1.
     999901    1    3    3    0    0  0.38044611683E-01  0.11621591503E-01 -0.11540123137E+00  0.88842551633E+00  0.88000000000E+00 0. -1.
        -11    1    4    4    0    0 -0.42188937156E-01  0.22055302230E-03  0.77790510307E-01  0.88496212782E-01  0.51100000000E-03 0.  1.
         11    1    4    4    0    0  0.38389763461E-02 -0.18070481541E-01  0.49908253456E-01  0.53220061317E-01  0.51100000000E-03 0. -1.
</event>
<event>
 8    1  0.2001339E+004  0.1043930E+01  0.7957747E-01            NaN
         13   -1    0    0    0    0  0.00000000000E+00  0.00000000000E+00  0.74505805969E-08  0.10566000000E+00  0.10566000000E+00 0. -1.
     999900   -1    0    0    0    0 -0.00000000000E+00 -0.00000000000E+00 -0.74505805969E-08  0.93827000000E+00  0.93827000000E+00 0.  1.
     999902    2    1    2    0    0 -0.35113232762E-02 -0.12712651205E-01 -0.73530504670E-02  0.10288300582E+01  0.10287192427E+01 0.  0.
     999903    2    3    3    0    0 -0.80429186098E-01  0.90666904740E-01 -0.49085408795E-01  0.13846761516E+00  0.45547354478E-01 0.  0.
         14    1    1    2    0    0  0.35113232762E-02  0.12712651205E-01  0.73530504670E-02  0.15099941820E-01  0.00000000000E+00 0. -1.
     999901    1    3    3    0    0  0.76917862822E-01 -0.10337955594E+00  0.41732358328E-01  0.89036244302E+00  0.88000000000E+00 0. -1.
        -11    1    4    4    0    0 -0.42290418698E-01  0.30344312427E-01 -0.41738963424E-01  0.66720753885E-01  0.51100000000E-03 0. -1.
         11    1    4    4    0    0 -0.38138767400E-01  0.60322592313E-01 -0.73464453715E-02  0.71746861275E-01  0.51100000000E-03 0.  1.
</event>
<event>
 8    1  0.2001339E+004  0.1043930E+01  0.7957747E-01            NaN
         13   -1    0    0    0    0  0.00000000000E+00  0.00000000000E+00  0.74505805969E-08  0.10566000000E+00  0.10566000000E+00 0. -1.
     999900   -1    0    0    0    0 -0.00000000000E+00 -0.00000000000E+00 -0.74505805969E-08  0.93827000000E+00  0.93827000000E+00 0. -1.
     999902    2    1    2    0    0 -0.11519168883E-01 -0.82419833106E-02  0.22936427762E-02  0.10295813994E+01  0.10294814111E+01 0.  0.
     999903    2    3    3    0    0  0.32500073433E-01  0.60093663489E-01  0.11242543671E+00  0.13899930534E+00  0.44875660448E-01 0.  0.
         14    1    1    2    0    0  0.11519168883E-01  0.82419833106E-02 -0.22936427762E-02  0.14348600553E-01  0.00000000000E+00 0.  1.
     999901    1    3    3    0    0 -0.44019242316E-01 -0.68335646800E-01 -0.11013179393E+00  0.89058209411E+00  0.88000000000E+00 0. -1.
        -11    1    4    4    0    0  0.57468811199E-02 -0.47787063081E-02  0.13477914606E-02  0.76118551883E-02  0.51100000000E-03 0. -1.
         11    1    4    4    0    0  0.26753192313E-01  0.64872369798E-01  0.11107764525E+00  0.13138745015E+00  0.51100000000E-03 0.  1.
</event>
<event>
 8    1  0.2001339E+004  0.1043930E+01  0.7957747E-01            NaN
         13   -1    0    0    0    0  0.00000000000E+00  0.00000000000E+00  0.74505805969E-08  0.10566000000E+00  0.10566000000E+00 0. -1.
     999900   -1    0    0    0    0 -0.00000000000E+00 -0.00000000000E+00 -0.74505805969E-08  0.93827000000E+00  0.93827000000E+00 0. -1.
     999902    2    1    2    0    0 -0.26750272490E-02 -0.14016150064E-02  0.13200756432E-01  0.10303882030E+01  0.10302992132E+01 0.  0.
     999903    2    3    3    0    0 -0.13215583487E+00  0.17098346371E-01  0.60751393998E-02  0.14069257948E+00  0.44721096383E-01 0.  0.
         14    1    1    2    0    0  0.26750272490E-02  0.14016150064E-02 -0.13200756432E-01  0.13541796992E-01  0.00000000000E+00 0.  1.
     999901    1    3    3    0    0  0.12948080762E+00 -0.18499961377E-01  0.71256170319E-02  0.88969562353E+00  0.88000000000E+00 0. -1.
        -11    1    4    4    0    0 -0.35242207534E-01  0.25124267877E-01  0.51556251106E-03  0.43287052959E-01  0.51100000000E-03 0.  1.
         11    1    4    4    0    0 -0.96913627338E-01 -0.80259215064E-02  0.55595768888E-02  0.97405526517E-01  0.51100000000E-03 0. -1.
</event>
<event>
 8    1  0.2001339E+004  0.1043930E+01  0.7957747E-01            NaN
         13   -1    0    0    0    0  0.00000000000E+00  0.00000000000E+00  0.74505805969E-08  0.10566000000E+00  0.10566000000E+00 0. -1.
     999900   -1    0    0    0    0 -0.00000000000E+00 -0.00000000000E+00 -0.74505805969E-08  0.93827000000E+00  0.93827000000E+00 0. -1.
     999902    2    1    2    0    0  0.12976849830E-03  0.93564418520E-02 -0.10427417704E-01  0.10299196151E+01  0.10298243165E+01 0.  0.
     999903    2    3    3    0    0 -0.94733598831E-01  0.88651442743E-01 -0.30965271402E-01  0.14103910626E+00  0.45821920674E-01 0.  0.
         14    1    1    2    0    0 -0.12976849830E-03 -0.93564418520E-02  0.10427417704E-01  0.14010384862E-01  0.00000000000E+00 0. -1.
     999901    1    3    3    0    0  0.94863367329E-01 -0.79295000891E-01  0.20537853698E-01  0.88888050888E+00  0.88000000000E+00 0.  1.
        -11    1    4    4    0    0 -0.21396129087E-01  0.40547108596E-01  0.52500506734E-02  0.46148526612E-01  0.51100000000E-03 0.  1.
         11    1    4    4    0    0 -0.73337469744E-01  0.48104334147E-01 -0.36215322075E-01  0.94890579649E-01  0.51100000000E-03 0. -1.
</event>
<event>
 8    1  0.2001339E+004  0.1043930E+01  0.7957747E-01            NaN
         13   -1    0    0    0    0  0.00000000000E+00  0.00000000000E+00  0.74505805969E-08  0.10566000000E+00  0.10566000000E+00 0. -1.
     999900   -1    0    0    0    0 -0.00000000000E+00 -0.00000000000E+00 -0.74505805969E-08  0.93827000000E+00  0.93827000000E+00 0. -1.
     999902    2    1    2    0    0  0.75108677039E-02  0.11612348942E-01 -0.33605590118E-02  0.10296978836E+01  0.10295995232E+01 0.  0.
     999903    2    3    3    0    0 -0.50179320929E-01 -0.11885153450E+00 -0.15230786704E-01  0.13813191008E+00  0.46955257608E-01 0.  0.
         14    1    1    2    0    0 -0.75108677039E-02 -0.11612348942E-01  0.33605590118E-02  0.14232116444E-01  0.00000000000E+00 0. -1.
     999901    1    3    3    0    0  0.57690188632E-01  0.13046388345E+00  0.11870227692E-01  0.89156597347E+00  0.88000000000E+00 0. -1.
        -11    1    4    4    0    0 -0.40454784651E-01 -0.39026908011E-01 -0.12936493223E-01  0.57682780169E-01  0.51100000000E-03 0. -1.
         11    1    4    4    0    0 -0.97245362773E-02 -0.79824626493E-01 -0.22942934812E-02  0.80449129915E-01  0.51100000000E-03 0.  1.
</event>
<event>
 8    1  0.2001339E+004  0.1043930E+01  0.7957747E-01            NaN
         13   -1    0    0    0    0  0.00000000000E+00  0.00000000000E+00  0.74505805969E-08  0.10566000000E+00  0.10566000000E+00 0.  1.
     999900   -1    0    0    0    0 -0.00000000000E+00 -0.00000000000E+00 -0.74505805969E-08  0.93827000000E+00  0.93827000000E+00 0. -1.
     999902    2    1    2    0    0 -0.10685263583E-01  0.11993081498E-01 -0.14755659201E-03  0.10278666680E+01  0.10277411428E+01 0.  0.
     999903    2    3    3    0    0  0.17272270048E-01  0.16757222684E-01 -0.12839813196E+00  0.13811809071E+00  0.44848532491E-01 0.  0.
         14    1    1    2    0    0  0.10685263583E-01 -0.11993081498E-01  0.14755659201E-03  0.16063331989E-01  0.00000000000E+00 0. -1.
     999901    1    3    3    0    0 -0.27957533631E-01 -0.47641411861E-02  0.12825057536E+00  0.88974857730E+00  0.88000000000E+00 0.  1.
        -11    1    4    4    0    0 -0.90069585907E-02  0.21213813468E-01 -0.74536358808E-01  0.78019748079E-01  0.51100000000E-03 0. -1.
         11    1    4    4    0    0  0.26279228639E-01 -0.44565907837E-02 -0.53861773148E-01  0.60098342631E-01  0.51100000000E-03 0.  1.
</event>
<event>
 8    1  0.3349707E+004  0.1043930E+01  0.7957747E-01            NaN
         13   -1    0    0    0    0  0.00000000000E+00  0.00000000000E+00  0.74505805969E-08  0.10566000000E+00  0.10566000000E+00 0.  1.
     999900   -1    0    0    0    0 -0.00000000000E+00 -0.00000000000E+00 -0.74505805969E-08  0.93827000000E+00  0.93827000000E+00 0.  1.
     999902    2    1    2    0    0 -0.13456033644E-01 -0.18970943518E-02  0.60013087958E-02  0.10290747142E+01  0.10289674863E+01 0.  0.
     999903    2    3    3    0    0 -0.29398259517E-02 -0.77963892122E-02 -0.13077208828E+00  0.13842755936E+00  0.44625372337E-01 0.  0.
         14    1    1    2    0    0  0.13456033644E-01  0.18970943518E-02 -0.60013087958E-02  0.14855285782E-01  0.00000000000E+00 0. -1.
     999901    1    3    3    0    0 -0.10516207692E-01  0.58992948604E-02  0.13677339708E+00  0.89064715486E+00  0.88000000000E+00 0. -1.
        -11    1    4    4    0    0  0.11706452168E-01  0.13789650719E-01 -0.38552024793E-01  0.42587735628E-01  0.51100000000E-03 0. -1.
         11    1    4    4    0    0 -0.14646278119E-01 -0.21586039931E-01 -0.92220063488E-01  0.95839823734E-01  0.51100000000E-03 0.  1.
</event>
<event>
 8    1  0.2001339E+004  0.1043930E+01  0.7957747E-01            NaN
         13   -1    0    0    0    0  0.00000000000E+00  0.00000000000E+00  0.74505805969E-08  0.10566000000E+00  0.10566000000E+00 0.  1.
     999900   -1    0    0    0    0 -0.00000000000E+00 -0.00000000000E+00 -0.74505805969E-08  0.93827000000E+00  0.93827000000E+00 0. -1.
     999902    2    1    2    0    0 -0.33441006491E-02  0.58654553200E-02 -0.12207811600E-01  0.10299794717E+01  0.10298849911E+01 0.  0.
     999903    2    3    3    0    0 -0.96753364466E-01  0.89791846368E-01  0.16745794544E-01  0.14059359315E+00  0.45413077316E-01 0.  0.
         14    1    1    2    0    0  0.33441006491E-02 -0.58654553200E-02  0.12207811600E-01  0.13950528281E-01  0.00000000000E+00 0.  1.
     999901    1    3    3    0    0  0.93409263817E-01 -0.83926391049E-01 -0.28953606144E-01  0.88938587856E+00  0.88000000000E+00 0.  1.
        -11    1    4    4    0    0 -0.20188050255E-01  0.32112861402E-01  0.23282307969E-01  0.44509776745E-01  0.51100000000E-03 0.  1.
         11    1    4    4    0    0 -0.76565314211E-01  0.57678984966E-01 -0.65365134253E-02  0.96083816409E-01  0.51100000000E-03 0. -1.
</event>
<event>
 8    1  0.2001339E+004  0.1043930E+01  0.7957747E-01            NaN
         13   -1    0    0    0    0  0.00000000000E+00  0.00000000000E+00  0.74505805969E-08  0.10566000000E+00  0.10566000000E+00 0. -1.
     999900   -1    0    0    0    0 -0.00000000000E+00 -0.00000000000E+00 -0.74505805969E-08  0.93827000000E+00  0.93827000000E+00 0. -1.
     999902    2    1    2    0    0 -0.29151466978E-02 -0.13567792430E-01  0.93200988884E-02  0.10272133223E+01  0.10270772912E+01 0.  0.
     999903    2    3    3    0    0 -0.77205665369E-01  0.54289545768E-02  0.10591402197E+00  0.13861310644E+00  0.44784203861E-01 0.  0.
         14    1    1    2    0    0  0.29151466978E-02  0.13567792430E-01 -0.93200988884E-02  0.16716677750E-01  0.00000000000E+00 0. -1.
     999901    1    3    3    0    0  0.74290518671E-01 -0.18996747007E-01 -0.96593923077E-01  0.88860021581E+00  0.88000000000E+00 0. -1.
        -11    1    4    4    0    0 -0.71306236895E-01 -0.86477149805E-02  0.97726922778E-01  0.12128551006E+00  0.51100000000E-03 0. -1.
         11    1    4    4    0    0 -0.58994284742E-02  0.14076669557E-01  0.81870991870E-02  0.17327596378E-01  0.51100000000E-03 0.  1.
</event>
<event>
 8    1  0.2001339E+004  0.1043930E+01  0.7957747E-01            NaN
         13   -1    0    0    0    0  0.00000000000E+00  0.00000000000E+00  0.74505805969E-08  0.10566000000E+00  0.10566000000E+00 0.  1.
     999900   -1    0    0    0    0 -0.00000000000E+00 -0.00000000000E+00 -0.74505805969E-08  0.93827000000E+00  0.93827000000E+00 0. -1.
     999902    2    1    2    0    0  0.80257269604E-02 -0.87497212606E-02  0.71818764927E-02  0.10300537878E+01  0.10299603179E+01 0.  0.
     999903    2    3    3    0    0 -0.81104794592E-01  0.53037588224E-01 -0.87891040465E-01  0.13831347748E+00  0.44886630404E-01 0.  0.
         14    1    1    2    0    0 -0.80257269604E-02  0.87497212606E-02 -0.71818764927E-02  0.13876212211E-01  0.00000000000E+00 0.  1.
     999901    1    3    3    0    0  0.89130521552E-01 -0.61787309484E-01  0.95072916957E-01  0.89174031031E+00  0.88000000000E+00 0.  1.
        -11    1    4    4    0    0  0.15887645849E-02  0.16155120996E-01 -0.12709074342E-01  0.20622652567E-01  0.51100000000E-03 0. -1.
         11    1    4    4    0    0 -0.82693559177E-01  0.36882467228E-01 -0.75181966123E-01  0.11769082492E+00  0.51100000000E-03 0.  1.
</event>
<event>
 8    1  0.2001339E+004  0.1043930E+01  0.7957747E-01            NaN
         13   -1    0    0    0    0  0.00000000000E+00  0.00000000000E+00  0.74505805969E-08  0.10566000000E+00  0.10566000000E+00 0.  1.
     999900   -1    0    0    0    0 -0.00000000000E+00 -0.00000000000E+00 -0.74505805969E-08  0.93827000000E+00  0.93827000000E+00 0. -1.
     999902    2    1    2    0    0  0.12194403971E-01  0.20950309135E-02 -0.25002655156E-02  0.10313068478E+01  0.10312295915E+01 0.  0.
     999903    2    3    3    0    0  0.82603252101E-01  0.86948097413E-01  0.61509293140E-01  0.14211920039E+00  0.45068892536E-01 0.  0.
         14    1    1    2    0    0 -0.12194403971E-01 -0.20950309135E-02  0.25002655156E-02  0.12623152158E-01  0.00000000000E+00 0. -1.
     999901    1    3    3    0    0 -0.70408848129E-01 -0.84853066500E-01 -0.64009558656E-01  0.88918764746E+00  0.88000000000E+00 0. -1.
        -11    1    4    4    0    0  0.42913080612E-01  0.15798282721E-01  0.14098536932E-01  0.47855491735E-01  0.51100000000E-03 0. -1.
         11    1    4    4    0    0  0.39690171489E-01  0.71149814692E-01  0.47410756208E-01  0.94263708651E-01  0.51100000000E-03 0.  1.
</event>
<event>
 8    1  0.2023379E+004  0.1043930E+01  0.7957747E-01            NaN
         13   -1    0    0    0    0  0.00000000000E+00  0.00000000000E+00  0.74505805969E-08  0.10566000000E+00  0.10566000000E+00 0.  1.
     999900   -1    0    0    0    0 -0.00000000000E+00 -0.00000000000E+00 -0.74505805969E-08  0.93827000000E+00  0.93827000000E+00 0. -1.
     999902    2    1    2    0    0  0.64253265055E-02 -0.10174674685E-01  0.10762091412E-01  0.10277859163E+01  0.10276591158E+01 0.  0.
     999903    2    3    3    0    0  0.99933018972E-01  0.78444611376E-01 -0.27431200066E-01  0.13758605455E+00  0.45136308396E-01 0.  0.
         14    1    1    2    0    0 -0.64253265055E-02  0.10174674685E-01 -0.10762091412E-01  0.16144083660E-01  0.00000000000E+00 0. -1.
     999901    1    3    3    0    0 -0.93507692466E-01 -0.88619286061E-01  0.38193291478E-01  0.89019986179E+00  0.88000000000E+00 0.  1.
        -11    1    4    4    0    0  0.53632145988E-01  0.64759477964E-01 -0.46948091920E-02  0.84216978239E-01  0.51100000000E-03 0.  1.
         11    1    4    4    0    0  0.46300872984E-01  0.13685133412E-01 -0.22736390874E-01  0.53369076314E-01  0.51100000000E-03 0. -1.
</event>
<event>
 8    1  0.2001339E+004  0.1043930E+01  0.7957747E-01            NaN
         13   -1    0    0    0    0  0.00000000000E+00  0.00000000000E+00  0.74505805969E-08  0.10566000000E+00  0.10566000000E+00 0. -1.
     999900   -1    0    0    0    0 -0.00000000000E+00 -0.00000000000E+00 -0.74505805969E-08  0.93827000000E+00  0.93827000000E+00 0. -1.
     999902    2    1    2    0    0 -0.10131918100E-01  0.50904079610E-02 -0.71007459090E-02  0.10305513375E+01  0.10304644927E+01 0.  0.
     999903    2    3    3    0    0  0.91163412469E-01  0.89089857555E-01  0.34766883914E-01  0.13978225971E+00  0.45635221283E-01 0.  0.
         14    1    1    2    0    0  0.10131918100E-01 -0.50904079610E-02  0.71007459090E-02  0.13378662492E-01  0.00000000000E+00 0. -1.
     999901    1    3    3    0    0 -0.10129533057E+00 -0.83999449594E-01 -0.41867629823E-01  0.89076907779E+00  0.88000000000E+00 0.  1.
        -11    1    4    4    0    0  0.30279172261E-01  0.24851157416E-01 -0.10235419135E-01  0.40489915085E-01  0.51100000000E-03 0. -1.
         11    1    4    4    0    0  0.60884240208E-01  0.64238700139E-01  0.45002303049E-01  0.99292344629E-01  0.51100000000E-03 0.  1.
</event>
<event>
 8    1  0.2001339E+004  0.1043930E+01  0.7957747E-01            NaN
         13   -1    0    0    0    0  0.00000000000E+00  0.00000000000E+00  0.74505805969E-08  0.10566000000E+00  0.10566000000E+00 0. -1.
     999900   -1    0    0    0    0 -0.00000000000E+00 -0.00000000000E+00 -0.74505805969E-08  0.93827000000E+00  0.93827000000E+00 0.  1.
     999902    2    1    2    0    0 -0.96580557842E-02  0.10328201686E-01  0.24189960299E-02  0.10295842225E+01  0.10294842737E+01 0.  0.
     999903    2    3    3    0    0  0.11261416357E+00  0.63829757922E-01 -0.24273402586E-01  0.13912063741E+00  0.44823719685E-01 0.  0.
         14    1    1    2    0    0  0.96580557842E-02 -0.10328201686E-01 -0.24189960299E-02  0.14345777546E-01  0.00000000000E+00 0.  1.
     999901    1    3    3    0    0 -0.12227221936E+00 -0.53501556235E-01  0.26692398616E-01  0.89046358504E+00  0.88000000000E+00 0.  1.
        -11    1    4    4    0    0  0.93484887354E-01  0.30336948647E-01 -0.14724325121E-01  0.99382199050E-01  0.51100000000E-03 0. -1.
         11    1    4    4    0    0  0.19129276220E-01  0.33492809275E-01 -0.95490774650E-02  0.39738438359E-01  0.51100000000E-03 0.  1.
</event>
<event>
 8    1  0.2001339E+004  0.1043930E+01  0.7957747E-01            NaN
         13   -1    0    0    0    0  0.00000000000E+00  0.00000000000E+00  0.74505805969E-08  0.10566000000E+00  0.10566000000E+00 0. -1.
     999900   -1    0    0    0    0 -0.00000000000E+00 -0.00000000000E+00 -0.74505805969E-08  0.93827000000E+00  0.93827000000E+00 0. -1.
     999902    2    1    2    0    0 -0.81784511276E-04 -0.37419073543E-02  0.13316661787E-01  0.10300973560E+01  0.10300044761E+01 0.  0.
     999903    2    3    3    0    0 -0.46832114041E-01  0.12221946618E+00  0.20091959418E-01  0.13987392022E+00  0.45057539938E-01 0.  0.
         14    1    1    2    0    0  0.81784511276E-04  0.37419073543E-02 -0.13316661787E-01  0.13832644017E-01  0.00000000000E+00 0.  1.
     999901    1    3    3    0    0  0.46750329530E-01 -0.12596137353E+00 -0.67752976310E-02  0.89022343577E+00  0.88000000000E+00 0.  1.
        -11    1    4    4    0    0 -0.49828541319E-01  0.87996531525E-01  0.27346745599E-01  0.10475866888E+00  0.51100000000E-03 0.  1.
         11    1    4    4    0    0  0.29964272783E-02  0.34222934651E-01 -0.72547861810E-02  0.35115251332E-01  0.51100000000E-03 0. -1.
</event>
<event>
 8    1  0.2001339E+004  0.1043930E+01  0.7957747E-01            NaN
         13   -1    0    0    0    0  0.00000000000E+00  0.00000000000E+00  0.74505805969E-08  0.10566000000E+00  0.10566000000E+00 0.  1.
     999900   -1    0    0    0    0 -0.00000000000E+00 -0.00000000000E+00 -0.74505805969E-08  0.93827000000E+00  0.93827000000E+00 0. -1.
     999902    2    1    2    0    0 -0.13052798214E-01 -0.54000759787E-02 -0.35002079895E-02  0.10293770684E+01  0.10292741914E+01 0.  0.
     999903    2    3    3    0    0  0.78251723210E-01  0.16522100098E-01 -0.10391499220E+00  0.13870303920E+00  0.45209462510E-01 0.  0.
         14    1    1    2    0    0  0.13052798214E-01  0.54000759787E-02  0.35002079895E-02  0.14552931586E-01  0.00000000000E+00 0.  1.
     999901    1    3    3    0    0 -0.91304521423E-01 -0.21922176077E-01  0.10041478421E+00  0.89067402922E+00  0.88000000000E+00 0.  1.
        -11    1    4    4    0    0  0.49205938605E-02  0.45535742533E-02 -0.40391325378E-01  0.40947131392E-01  0.51100000000E-03 0.  1.
         11    1    4    4    0    0  0.73331129349E-01  0.11968525845E-01 -0.63523666825E-01  0.97755907803E-01  0.51100000000E-03 0. -1.
</event>
<event>
 8    1  0.2001339E+004  0.1043930E+01  0.7957747E-01            NaN
         13   -1    0    0    0    0  0.00000000000E+00  0.00000000000E+00  0.74505805969E-08  0.10566000000E+00  0.10566000000E+00 0. -1.
     999900   -1    0    0    0    0 -0.00000000000E+00 -0.00000000000E+00 -0.74505805969E-08  0.93827000000E+00  0.93827000000E+00 0.  1.
     999902    2    1    2    0    0  0.84212989469E-02 -0.10497131137E-01 -0.62343173763E-03  0.10304579287E+01  0.10303698589E+01 0.  0.
     999903    2    3    3    0    0 -0.13047158278E+00 -0.20587203210E-01  0.14942369089E-02  0.13950477243E+00  0.44862923862E-01 0.  0.
         14    1    1    2    0    0 -0.84212989469E-02  0.10497131137E-01  0.62343173763E-03  0.13472071303E-01  0.00000000000E+00 0. -1.
     999901    1    3    3    0    0  0.13889288172E+00  0.10090072073E-01 -0.21176686466E-02  0.89095315627E+00  0.88000000000E+00 0.  1.
        -11    1    4    4    0    0 -0.21663137361E-01  0.13207100675E-01  0.30346094051E-02  0.25557562556E-01  0.51100000000E-03 0.  1.
         11    1    4    4    0    0 -0.10880844542E+00 -0.33794303885E-01 -0.15403724961E-02  0.11394720987E+00  0.51100000000E-03 0. -1.
</event>
<event>
 8    1  0.2001339E+004  0.1043930E+01  0.7957747E-01            NaN
         13   -1    0    0    0    0  0.00000000000E+00  0.00000000000E+00  0.74505805969E-08  0.10566000000E+00  0.10566000000E+00 0.  1.
     999900   -1    0    0    0    0 -0.00000000000E+00 -0.00000000000E+00 -0.74505805969E-08  0.93827000000E+00  0.93827000000E+00 0.  1.
     999902    2    1    2    0    0 -0.55129705519E-02 -0.48037850736E-03 -0.13165207215E-01  0.10296490235E+01  0.10295499820E+01 0.  0.
     999903    2    3    3    0    0 -0.26647491538E-01  0.11640598163E+00  0.53062866179E-01  0.13920236771E+00  0.47970720699E-01 0.  0.
         14    1    1    2    0    0  0.55129705519E-02  0.48037850736E-03  0.13165207215E-01  0.14280976466E-01  0.00000000000E+00 0.  1.
     999901    1    3    3    0    0  0.21134520986E-01 -0.11688636014E+00 -0.66228073394E-01  0.89044665582E+00  0.88000000000E+00 0. -1.
        -11    1    4    4    0    0  0.59480240182E-02  0.75248597434E-01  0.24094774464E-01  0.79237299821E-01  0.51100000000E-03 0. -1.
         11    1    4    4    0    0 -0.32595515557E-01  0.41157384195E-01  0.28968091715E-01  0.59965067888E-01  0.51100000000E-03 0.  1.
</event>
<event>
 8    1  0.2001339E+004  0.1043930E+01  0.7957747E-01            NaN
         13   -1    0    0    0    0  0.00000000000E+00  0.00000000000E+00  0.74505805969E-08  0.10566000000E+00  0.10566000000E+00 0. -1.
     999900   -1    0    0    0    0 -0.00000000000E+00 -0.00000000000E+00 -0.74505805969E-08  0.93827000000E+00  0.93827000000E+00 0. -1.
     999902    2    1    2    0    0 -0.88464530800E-02 -0.38269940149E-02 -0.10081258251E-01  0.10299823341E+01  0.10298878926E+01 0.  0.
     999903    2    3    3    0    0 -0.16036711191E-01 -0.28810599390E-02 -0.13300369898E+00  0.14140902762E+00  0.45178009445E-01 0.  0.
         14    1    1    2    0    0  0.88464530800E-02  0.38269940149E-02  0.10081258251E-01  0.13947665869E-01  0.00000000000E+00 0. -1.
     999901    1    3    3    0    0  0.71902581110E-02 -0.94593407590E-03  0.12292244073E+00  0.88857330651E+00  0.88000000000E+00 0.  1.
        -11    1    4    4    0    0 -0.22422543298E-01 -0.16393329876E-01 -0.51214774728E-01  0.58264277081E-01  0.51100000000E-03 0. -1.
         11    1    4    4    0    0  0.63858321073E-02  0.13512269937E-01 -0.81788924257E-01  0.83144750542E-01  0.51100000000E-03 0.  1.
</event>
<event>
 8    1  0.2001339E+004  0.1043930E+01  0.7957747E-01            NaN
         13   -1    0    0    0    0  0.00000000000E+00  0.00000000000E+00  0.74505805969E-08  0.10566000000E+00  0.10566000000E+00 0.  1.
     999900   -1    0    0    0    0 -0.00000000000E+00 -0.00000000000E+00 -0.74505805969E-08  0.93827000000E+00  0.93827000000E+00 0. -1.
     999902    2    1    2    0    0 -0.13452546688E-01 -0.40362603619E-02 -0.41135622365E-02  0.10292949802E+01  0.10291909310E+01 0.  0.
     999903    2    3    3    0    0 -0.42319987467E-02 -0.12011247170E+00 -0.56729899129E-01  0.14006655947E+00  0.44220402000E-01 0.  0.
         14    1    1    2    0    0  0.13452546688E-01  0.40362603619E-02  0.41135622365E-02  0.14635019794E-01  0.00000000000E+00 0.  1.
     999901    1    3    3    0    0 -0.92205479411E-02  0.11607621134E+00  0.52616336892E-01  0.88922842074E+00  0.88000000000E+00 0.  1.
        -11    1    4    4    0    0  0.32188600839E-02 -0.56723868457E-01 -0.50358470924E-01  0.75922295986E-01  0.51100000000E-03 0. -1.
         11    1    4    4    0    0 -0.74508588306E-02 -0.63388603248E-01 -0.63714282046E-02  0.64144263480E-01  0.51100000000E-03 0.  1.
</event>
<event>
 8    1  0.2001339E+004  0.1043930E+01  0.7957747E-01            NaN
         13   -1    0    0    0    0  0.00000000000E+00  0.00000000000E+00  0.74505805969E-08  0.10566000000E+00  0.10566000000E+00 0. -1.
     999900   -1    0    0    0    0 -0.00000000000E+00 -0.00000000000E+00 -0.74505805969E-08  0.93827000000E+00  0.93827000000E+00 0. -1.
     999902    2    1    2    0    0 -0.12305060683E-02 -0.92399792465E-02 -0.71190934149E-02  0.10322008546E+01  0.10321342119E+01 0.  0.
     999903    2    3    3    0    0  0.31893100534E-01 -0.93733414889E-01 -0.93238130604E-01  0.14335170957E+00  0.45312699219E-01 0.  0.
         14    1    1    2    0    0  0.12305060683E-02  0.92399792465E-02  0.71190934149E-02  0.11729145438E-01  0.00000000000E+00 0.  1.
     999901    1    3    3    0    0 -0.33123606602E-01  0.84493435643E-01  0.86119037189E-01  0.88884914499E+00  0.88000000000E+00 0.  1.
        -11    1    4    4    0    0 -0.40446486150E-02 -0.49860536121E-01 -0.57941389005E-01  0.76549970121E-01  0.51100000000E-03 0. -1.
         11    1    4    4    0    0  0.35937749149E-01 -0.43872878768E-01 -0.35296741599E-01  0.66801739451E-01  0.51100000000E-03 0.  1.
</event>
<event>
 8    1  0.2001339E+004  0.1043930E+01  0.7957747E-01            NaN
         13   -1    0    0    0    0  0.00000000000E+00  0.00000000000E+00  0.74505805969E-08  0.10566000000E+00  0.10566000000E+00 0.  1.
     999900   -1    0    0    0    0 -0.00000000000E+00 -0.00000000000E+00 -0.74505805969E-08  0.93827000000E+00  0.93827000000E+00 0. -1.
     999902    2    1    2    0    0 -0.77548935541E-02  0.67073540747E-02  0.87734030403E-02  0.10304355725E+01  0.10303472082E+01 0.  0.
     999903    2    3    3    0    0  0.28879422950E-01 -0.56294926041E-01  0.11707120414E+00  0.14080656321E+00  0.46018275027E-01 0.  0.
         14    1    1    2    0    0  0.77548935541E-02 -0.67073540747E-02 -0.87734030403E-02  0.13494427503E-01  0.00000000000E+00 0. -1.
     999901    1    3    3    0    0 -0.36634316504E-01  0.63002280116E-01 -0.10829780110E+00  0.88962900929E+00  0.88000000000E+00 0. -1.
        -11    1    4    4    0    0  0.29508302554E-01 -0.63468957251E-01  0.98125182102E-01  0.12053157652E+00  0.51100000000E-03 0. -1.
         11    1    4    4    0    0 -0.62887960425E-03  0.71740312100E-02  0.18946022036E-01  0.20274986692E-01  0.51100000000E-03 0.  1.
</event>
<event>
 8    1  0.2001339E+004  0.1043930E+01  0.7957747E-01            NaN
         13   -1    0    0    0    0  0.00000000000E+00  0.00000000000E+00  0.74505805969E-08  0.10566000000E+00  0.10566000000E+00 0. -1.
     999900   -1    0    0    0    0 -0.00000000000E+00 -0.00000000000E+00 -0.74505805969E-08  0.93827000000E+00  0.93827000000E+00 0.  1.
     999902    2    1    2    0    0 -0.70150362096E-02 -0.61052465832E-03 -0.11697825225E-01  0.10302763343E+01  0.10301858581E+01 0.  0.
     999903    2    3    3    0    0  0.12079499783E+00 -0.40008291358E-01 -0.36978468730E-01  0.13981201730E+00  0.44585851509E-01 0.  0.
         14    1    1    2    0    0  0.70150362096E-02  0.61052465832E-03  0.11697825225E-01  0.13653665748E-01  0.00000000000E+00 0. -1.
     999901    1    3    3    0    0 -0.12781003404E+00  0.39397766700E-01  0.25280643505E-01  0.89046431695E+00  0.88000000000E+00 0. -1.
        -11    1    4    4    0    0  0.34386963576E-01 -0.32020400433E-01 -0.21456912074E-01  0.51656843734E-01  0.51100000000E-03 0. -1.
         11    1    4    4    0    0  0.86408034253E-01 -0.79878909258E-02 -0.15521556656E-01  0.88155173569E-01  0.51100000000E-03 0.  1.
</event>
<event>
 8    1  0.2001339E+004  0.1043930E+01  0.7957747E-01            NaN
         13   -1    0    0    0    0  0.00000000000E+00  0.00000000000E+00  0.74505805969E-08  0.10566000000E+00  0.10566000000E+00 0.  1.
     999900   -1    0    0    0    0 -0.00000000000E+00 -0.00000000000E+00 -0.74505805969E-08  0.93827000000E+00  0.93827000000E+00 0.  1.
     999902    2    1    2    0    0 -0.11257518581E-01  0.46794847437E-02  0.87359808689E-02  0.10289317780E+01  0.10288224614E+01 0.  0.
     999903    2    3    3    0    0 -0.65251573931E-01 -0.22979181477E-02 -0.11399233628E+00  0.13874849236E+00  0.44652469947E-01 0.  0.
         14    1    1    2    0    0  0.11257518581E-01 -0.46794847437E-02 -0.87359808689E-02  0.14998222021E-01  0.00000000000E+00 0.  1.
     999901    1    3    3    0    0  0.53994055350E-01  0.69774028915E-02  0.12272831715E+00  0.89018328562E+00  0.88000000000E+00 0. -1.
        -11    1    4    4    0    0 -0.56070610329E-01 -0.18139999358E-01 -0.72782297752E-01  0.93650931156E-01  0.51100000000E-03 0. -1.
         11    1    4    4    0    0 -0.91809636026E-02  0.15842081210E-01 -0.41210038532E-01  0.45097561204E-01  0.51100000000E-03 0.  1.
</event>
<event>
 8    1  0.2001339E+004  0.1043930E+01  0.7957747E-01            NaN
         13   -1    0    0    0    0  0.00000000000E+00  0.00000000000E+00  0.74505805969E-08  0.10566000000E+00  0.10566000000E+00 0. -1.
     999900   -1    0    0    0    0 -0.00000000000E+00 -0.00000000000E+00 -0.74505805969E-08  0.93827000000E+00  0.93827000000E+00 0. -1.
     999902    2    1    2    0    0 -0.72959079696E-02 -0.53146731649E-02 -0.11353692276E-01  0.10294254368E+01  0.10293232474E+01 0.  0.
     999903    2    3    3    0    0 -0.22569113255E-01  0.12452272518E+00 -0.37021739203E-01  0.13939742075E+00  0.45230053929E-01 0.  0.
         14    1    1    2    0    0  0.72959079696E-02  0.53146731649E-02  0.11353692276E-01  0.14504563153E-01  0.00000000000E+00 0. -1.
     999901    1    3    3    0    0  0.15273205285E-01 -0.12983739834E+00  0.25668046927E-01  0.89002801610E+00  0.88000000000E+00 0. -1.
        -11    1    4    4    0    0 -0.29153314222E-01  0.12003284391E+00 -0.41416911107E-01  0.13028208240E+00  0.51100000000E-03 0. -1.
         11    1    4    4    0    0  0.65842009670E-02  0.44898812691E-02  0.43951719033E-02  0.91153383505E-02  0.51100000000E-03 0.  1.
</event>
<event>
 8    1  0.2001339E+004  0.1043930E+01  0.7957747E-01            NaN
         13   -1    0    0    0    0  0.00000000000E+00  0.00000000000E+00  0.74505805969E-08  0.10566000000E+00  0.10566000000E+00 0.  1.
     999900   -1    0    0    0    0 -0.00000000000E+00 -0.00000000000E+00 -0.74505805969E-08  0.93827000000E+00  0.93827000000E+00 0.  1.
     999902    2    1    2    0    0  0.49429339748E-02 -0.79748045665E-02 -0.10160172157E-01  0.10301003506E+01  0.10300075112E+01 0.  0.
     999903    2    3    3    0    0 -0.10701464877E+00 -0.57048652514E-02 -0.78646538360E-01  0.14036441488E+00  0.45080044698E-01 0.  0.
         14    1    1    2    0    0 -0.49429339748E-02  0.79748045665E-02  0.10160172157E-01  0.13829649396E-01  0.00000000000E+00 0.  1.
     999901    1    3    3    0    0  0.11195758275E+00 -0.22699393151E-02  0.68486366203E-01  0.88973593572E+00  0.88000000000E+00 0. -1.
        -11    1    4    4    0    0 -0.58474102660E-01 -0.84044521314E-02 -0.16266298614E-01  0.61275681058E-01  0.51100000000E-03 0. -1.
         11    1    4    4    0    0 -0.48540546111E-01  0.26995868800E-02 -0.62380239746E-01  0.79088733824E-01  0.51100000000E-03 0.  1.
</event>
<event>
 8    1  0.2868439E+004  0.1043930E+01  0.7957747E-01            NaN
         13   -1    0    0    0    0  0.00000000000E+00  0.00000000000E+00  0.74505805969E-08  0.10566000000E+00  0.10566000000E+00 0.  1.
     999900   -1    0    0    0    0 -0.00000000000E+00 -0.00000000000E+00 -0.74505805969E-08  0.93827000000E+00  0.93827000000E+00 0.  1.
     999902    2    1    2    0    0 -0.88860768669E-02 -0.92075790362E-02  0.34068103485E-03  0.10311292993E+01  0.10310498407E+01 0.  0.
     999903    2    3    3    0    0  0.53792294298E-01  0.31936925715E-01 -0.11709304120E+00  0.14016794911E+00  0.44974387266E-01 0.  0.
         14    1    1    2    0    0  0.88860768669E-02  0.92075790362E-02 -0.34068103485E-03  0.12800700659E-01  0.00000000000E+00 0. -1.
     999901    1    3    3    0    0 -0.62678371165E-01 -0.41144504752E-01  0.11743372224E+00  0.89096135023E+00  0.88000000000E+00 0. -1.
        -11    1    4    4    0    0  0.21510524432E-01  0.38243496274E-01 -0.61058131158E-01  0.75190585648E-01  0.51100000000E-03 0. -1.
         11    1    4    4    0    0  0.32281769866E-01 -0.63065705585E-02 -0.56034910046E-01  0.64977363464E-01  0.51100000000E-03 0.  1.
</event>
<event>
 8    1  0.2001339E+004  0.1043930E+01  0.7957747E-01            NaN
         13   -1    0    0    0    0  0.00000000000E+00  0.00000000000E+00  0.74505805969E-08  0.10566000000E+00  0.10566000000E+00 0. -1.
     999900   -1    0    0    0    0 -0.00000000000E+00 -0.00000000000E+00 -0.74505805969E-08  0.93827000000E+00  0.93827000000E+00 0.  1.
     999902    2    1    2    0    0  0.25509959065E-02  0.80498802962E-02 -0.10999163898E-01  0.10300631417E+01  0.10299697986E+01 0.  0.
     999903    2    3    3    0    0 -0.10006154192E-01 -0.21087630790E-01  0.12890275454E+00  0.13844706773E+00  0.44797981410E-01 0.  0.
         14    1    1    2    0    0 -0.25509959065E-02 -0.80498802962E-02  0.10999163898E-01  0.13866858309E-01  0.00000000000E+00 0. -1.
     999901    1    3    3    0    0  0.12557150098E-01  0.29137511087E-01 -0.13990191844E+00  0.89161607397E+00  0.88000000000E+00 0.  1.
        -11    1    4    4    0    0  0.98732252780E-02 -0.17228426575E-01  0.21993847840E-01  0.29635953224E-01  0.51100000000E-03 0. -1.
         11    1    4    4    0    0 -0.19879379470E-01 -0.38592042149E-02  0.10690890670E+00  0.10881111450E+00  0.51100000000E-03 0.  1.
</event>
<event>
 8    1  0.2001339E+004  0.1043930E+01  0.7957747E-01            NaN
         13   -1    0    0    0    0  0.00000000000E+00  0.00000000000E+00  0.74505805969E-08  0.10566000000E+00  0.10566000000E+00 0.  1.
     999900   -1    0    0    0    0 -0.00000000000E+00 -0.00000000000E+00 -0.74505805969E-08  0.93827000000E+00  0.93827000000E+00 0.  1.
     999902    2    1    2    0    0  0.51988053858E-02 -0.90857530862E-02  0.80368371799E-02  0.10307326806E+01  0.10306481891E+01 0.  0.
     999903    2    3    3    0    0  0.84774746472E-01  0.83785083752E-01  0.60082974450E-01  0.14075171278E+00  0.44658514681E-01 0.  0.
         14    1    1    2    0    0 -0.51988053858E-02  0.90857530862E-02 -0.80368371799E-02  0.13197319366E-01  0.00000000000E+00 0. -1.
     999901    1    3    3    0    0 -0.79575941086E-01 -0.92870836839E-01 -0.52046137270E-01  0.88998096785E+00  0.88000000000E+00 0.  1.
        -11    1    4    4    0    0  0.44124361881E-01  0.55910309368E-01  0.57242595308E-01  0.91377775436E-01  0.51100000000E-03 0. -1.
         11    1    4    4    0    0  0.40650384591E-01  0.27874774384E-01  0.28403791421E-02  0.49373937346E-01  0.51100000000E-03 0.  1.
</event>
<event>
 8    1  0.2001339E+004  0.1043930E+01  0.7957747E-01            NaN
         13   -1    0    0    0    0  0.00000000000E+00  0.00000000000E+00  0.74505805969E-08  0.10566000000E+00  0.10566000000E+00 0.  1.
     999900   -1    0    0    0    0 -0.00000000000E+00 -0.00000000000E+00 -0.74505805969E-08  0.93827000000E+00  0.93827000000E+00 0. -1.
     999902    2    1    2    0    0  0.10629774005E-01  0.92469854591E-02  0.48178691807E-02  0.10290400470E+01  0.10289323145E+01 0.  0.
     999903    2    3    3    0    0 -0.45377602097E-01  0.73535862454E-01  0.99939654408E-01  0.13981676805E+00  0.45761821056E-01 0.  0.
         14    1    1    2    0    0 -0.10629774005E-01 -0.92469854591E-02 -0.48178691807E-02  0.14889952952E-01  0.00000000000E+00 0.  1.
     999901    1    3    3    0    0  0.56007376102E-01 -0.64288876995E-01 -0.95121785228E-01  0.88922327900E+00  0.88000000000E+00 0. -1.
        -11    1    4    4    0    0 -0.10381856515E-01  0.29734164138E-02  0.38307944473E-01  0.39804319874E-01  0.51100000000E-03 0. -1.
         11    1    4    4    0    0 -0.34995745583E-01  0.70562446040E-01  0.61631709935E-01  0.10001244818E+00  0.51100000000E-03 0.  1.
</event>
<event>
 8    1  0.2001339E+004  0.1043930E+01  0.7957747E-01            NaN
         13   -1    0    0    0    0  0.00000000000E+00  0.00000000000E+00  0.74505805969E-08  0.10566000000E+00  0.10566000000E+00 0. -1.
     999900   -1    0    0    0    0 -0.00000000000E+00 -0.00000000000E+00 -0.74505805969E-08  0.93827000000E+00  0.93827000000E+00 0.  1.
     999902    2    1    2    0    0 -0.15161563143E-01  0.19073038545E-02  0.25762082793E-02  0.10284333018E+01  0.10283165411E+01 0.  0.
     999903    2    3    3    0    0  0.52393319367E-01 -0.96932561848E-01  0.69201869523E-01  0.13783128076E+00  0.45470669121E-01 0.  0.
         14    1    1    2    0    0  0.15161563143E-01 -0.19073038545E-02 -0.25762082793E-02  0.15496698165E-01  0.00000000000E+00 0. -1.
     999901    1    3    3    0    0 -0.67554882510E-01  0.98839865703E-01 -0.66625661243E-01  0.89060202107E+00  0.88000000000E+00 0.  1.
        -11    1    4    4    0    0  0.44608091079E-01 -0.37174157750E-01  0.25683749313E-01  0.63495794301E-01  0.51100000000E-03 0. -1.
         11    1    4    4    0    0  0.77852282886E-02 -0.59758404098E-01  0.43518120209E-01  0.74335486461E-01  0.51100000000E-03 0.  1.
</event>
<event>
 8    1  0.2001339E+004  0.1043930E+01  0.7957747E-01            NaN
         13   -1    0    0    0    0  0.00000000000E+00  0.00000000000E+00  0.74505805969E-08  0.10566000000E+00  0.10566000000E+00 0. -1.
     999900   -1    0    0    0    0 -0.00000000000E+00 -0.00000000000E+00 -0.74505805969E-08  0.93827000000E+00  0.93827000000E+00 0.  1.
     999902    2    1    2    0    0  0.93451200804E-02 -0.79258058948E-02 -0.50990507608E-02  0.10306578492E+01  0.10305723905E+01 0.  0.
     999903    2    3    3    0    0 -0.20192192676E-01 -0.10698678644E+00 -0.77814347590E-01  0.14162857796E+00  0.46364687938E-01 0.  0.
         14    1    1    2    0    0 -0.93451200804E-02  0.79258058948E-02  0.50990507608E-02  0.13272150808E-01  0.00000000000E+00 0. -1.
     999901    1    3    3    0    0  0.29537312757E-01  0.99060980542E-01  0.72715296829E-01  0.88902927123E+00  0.88000000000E+00 0. -1.
        -11    1    4    4    0    0 -0.28186903700E-02 -0.55981847701E-01 -0.65764474092E-01  0.86412611701E-01  0.51100000000E-03 0.  1.
         11    1    4    4    0    0 -0.17373502306E-01 -0.51004938736E-01 -0.12049873498E-01  0.55215966261E-01  0.51100000000E-03 0. -1.
</event>
<event>
 8    1  0.2139941E+004  0.1043930E+01  0.7957747E-01            NaN
         13   -1    0    0    0    0  0.00000000000E+00  0.00000000000E+00  0.74505805969E-08  0.10566000000E+00  0.10566000000E+00 0.  1.
     999900   -1    0    0    0    0 -0.00000000000E+00 -0.00000000000E+00 -0.74505805969E-08  0.93827000000E+00  0.93827000000E+00 0. -1.
     999902    2    1    2    0    0 -0.17772653507E-02  0.11317134158E-01 -0.76572670261E-02  0.10301506700E+01  0.10300585095E+01 0.  0.
     999903    2    3    3    0    0 -0.79852427059E-01  0.24727400254E-01 -0.10466566994E+00  0.14128274033E+00  0.44922776189E-01 0.  0.
         14    1    1    2    0    0  0.17772653507E-02 -0.11317134158E-01  0.76572670261E-02  0.13779330026E-01  0.00000000000E+00 0.  1.
     999901    1    3    3    0    0  0.78075161708E-01 -0.13410266096E-01  0.97008402915E-01  0.88886792964E+00  0.88000000000E+00 0.  1.
        -11    1    4    4    0    0 -0.36421548132E-01  0.34052122367E-01 -0.47311907886E-01  0.68736845686E-01  0.51100000000E-03 0. -1.
         11    1    4    4    0    0 -0.43430878928E-01 -0.93247221133E-02 -0.57353762055E-01  0.72545894644E-01  0.51100000000E-03 0.  1.
</event>
<event>
 8    1  0.2001339E+004  0.1043930E+01  0.7957747E-01            NaN
         13   -1    0    0    0    0  0.00000000000E+00  0.00000000000E+00  0.74505805969E-08  0.10566000000E+00  0.10566000000E+00 0. -1.
     999900   -1    0    0    0    0 -0.00000000000E+00 -0.00000000000E+00 -0.74505805969E-08  0.93827000000E+00  0.93827000000E+00 0.  1.
     999902    2    1    2    0    0 -0.20331389001E-02  0.12281106803E-01  0.37096662747E-02  0.10309407405E+01  0.10308589087E+01 0.  0.
     999903    2    3    3    0    0 -0.46592804316E-01  0.10385380239E+00 -0.72159741239E-01  0.14182472483E+00  0.44166985767E-01 0.  0.
         14    1    1    2    0    0  0.20331389001E-02 -0.12281106803E-01 -0.37096662747E-02  0.12989259484E-01  0.00000000000E+00 0.  1.
     999901    1    3    3    0    0  0.44559665415E-01 -0.91572695586E-01  0.75869407514E-01  0.88911601569E+00  0.88000000000E+00 0. -1.
        -11    1    4    4    0    0 -0.76778061340E-02  0.92794132375E-02  0.56572402920E-02  0.13316219651E-01  0.51100000000E-03 0. -1.
         11    1    4    4    0    0 -0.38914998181E-01  0.94574389151E-01 -0.77816981531E-01  0.12850850518E+00  0.51100000000E-03 0.  1.
</event>
<event>
 8    1  0.2001339E+004  0.1043930E+01  0.7957747E-01            NaN
         13   -1    0    0    0    0  0.00000000000E+00  0.00000000000E+00  0.74505805969E-08  0.10566000000E+00  0.10566000000E+00 0. -1.
     999900   -1    0    0    0    0 -0.00000000000E+00 -0.00000000000E+00 -0.74505805969E-08  0.93827000000E+00  0.93827000000E+00 0. -1.
     999902    2    1    2    0    0  0.93054368413E-02  0.21245825144E-02 -0.14280159628E-01  0.10267536219E+01  0.10266099416E+01 0.  0.
     999903    2    3    3    0    0 -0.35095835630E-01 -0.12341155762E+00 -0.14186824908E-01  0.13673631634E+00  0.45093502553E-01 0.  0.
         14    1    1    2    0    0 -0.93054368413E-02 -0.21245825144E-02  0.14280159628E-01  0.17176378101E-01  0.00000000000E+00 0. -1.
     999901    1    3    3    0    0  0.44401272471E-01  0.12553614014E+00 -0.93334720450E-04  0.89001730556E+00  0.88000000000E+00 0.  1.
        -11    1    4    4    0    0  0.10140551523E-01 -0.28675926790E-01 -0.85637632380E-02  0.31602827788E-01  0.51100000000E-03 0. -1.
         11    1    4    4    0    0 -0.45236387153E-01 -0.94735630834E-01 -0.56230616696E-02  0.10513348855E+00  0.51100000000E-03 0.  1.
</event>
<event>
 8    1  0.2001339E+004  0.1043930E+01  0.7957747E-01            NaN
         13   -1    0    0    0    0  0.00000000000E+00  0.00000000000E+00  0.74505805969E-08  0.10566000000E+00  0.10566000000E+00 0. -1.
     999900   -1    0    0    0    0 -0.00000000000E+00 -0.00000000000E+00 -0.74505805969E-08  0.93827000000E+00  0.93827000000E+00 0. -1.
     999902    2    1    2    0    0  0.26746142182E-02 -0.12565805876E-01  0.26153497967E-02  0.10308191994E+01  0.10307358191E+01 0.  0.
     999903    2    3    3    0    0 -0.36493972363E-01  0.11059825711E+00  0.62092283290E-01  0.13939277492E+00  0.44845396208E-01 0.  0.
         14    1    1    2    0    0 -0.26746142182E-02  0.12565805876E-01 -0.26153497967E-02  0.13110800628E-01  0.00000000000E+00 0.  1.
     999901    1    3    3    0    0  0.39168586581E-01 -0.12316406299E+00 -0.59476933493E-01  0.89142642445E+00  0.88000000000E+00 0. -1.
        -11    1    4    4    0    0 -0.38701099455E-01  0.62173561377E-01  0.21957757657E-01  0.76457380780E-01  0.51100000000E-03 0. -1.
         11    1    4    4    0    0  0.22071270921E-02  0.48424695738E-01  0.40134525633E-01  0.62935394144E-01  0.51100000000E-03 0.  1.
</event>
<event>
 8    1  0.2001339E+004  0.1043930E+01  0.7957747E-01            NaN
         13   -1    0    0    0    0  0.00000000000E+00  0.00000000000E+00  0.74505805969E-08  0.10566000000E+00  0.10566000000E+00 0.  1.
     999900   -1    0    0    0    0 -0.00000000000E+00 -0.00000000000E+00 -0.74505805969E-08  0.93827000000E+00  0.93827000000E+00 0. -1.
     999902    2    1    2    0    0 -0.85161356221E-02  0.64580739039E-02 -0.10649741468E-01  0.10288419823E+01  0.10287313431E+01 0.  0.
     999903    2    3    3    0    0 -0.11362095862E+00 -0.35577243594E-01  0.55951498635E-01  0.13909498629E+00  0.45181661238E-01 0.  0.
         14    1    1    2    0    0  0.85161356221E-02 -0.64580739039E-02  0.10649741468E-01  0.15088017690E-01  0.00000000000E+00 0.  1.
     999901    1    3    3    0    0  0.10510482300E+00  0.42035317498E-01 -0.66601240103E-01  0.88974699602E+00  0.88000000000E+00 0. -1.
        -11    1    4    4    0    0 -0.38801544417E-01 -0.19179329449E-01  0.43727839753E-01  0.61528786902E-01  0.51100000000E-03 0.  1.
         11    1    4    4    0    0 -0.74819414207E-01 -0.16397914145E-01  0.12223658882E-01  0.77566199392E-01  0.51100000000E-03 0. -1.
</event>
<event>
 8    1  0.2001339E+004  0.1043930E+01  0.7957747E-01            NaN
         13   -1    0    0    0    0  0.00000000000E+00  0.00000000000E+00  0.74505805969E-08  0.10566000000E+00  0.10566000000E+00 0. -1.
     999900   -1    0    0    0    0 -0.00000000000E+00 -0.00000000000E+00 -0.74505805969E-08  0.93827000000E+00  0.93827000000E+00 0.  1.
     999902    2    1    2    0    0 -0.46594666256E-02  0.78339032880E-03 -0.12984901177E-01  0.10301121858E+01  0.10300195063E+01 0.  0.
     999903    2    3    3    0    0  0.10930305900E+00 -0.60596283659E-01  0.41329408324E-01  0.13898651241E+00  0.44610114766E-01 0.  0.
         14    1    1    2    0    0  0.46594666256E-02 -0.78339032880E-03  0.12984901177E-01  0.13817814162E-01  0.00000000000E+00 0. -1.
     999901    1    3    3    0    0 -0.11396252563E+00  0.61379673987E-01 -0.54314309501E-01  0.89112567343E+00  0.88000000000E+00 0. -1.
        -11    1    4    4    0    0  0.64733087127E-01 -0.28593571993E-01  0.80645875416E-03  0.70773416090E-01  0.51100000000E-03 0. -1.
         11    1    4    4    0    0  0.44569971873E-01 -0.32002711665E-01  0.40522949570E-01  0.68213096320E-01  0.51100000000E-03 0.  1.
</event>
<event>
 8    1  0.2001339E+004  0.1043930E+01  0.7957747E-01            NaN
         13   -1    0    0    0    0  0.00000000000E+00  0.00000000000E+00  0.74505805969E-08  0.10566000000E+00  0.10566000000E+00 0.  1.
     999900   -1    0    0    0    0 -0.00000000000E+00 -0.00000000000E+00 -0.74505805969E-08  0.93827000000E+00  0.93827000000E+00 0. -1.
     999902    2    1    2    0    0  0.14424103434E-01  0.27534304711E-03  0.16193434383E-02  0.10294126708E+01  0.10293103001E+01 0.  0.
     999903    2    3    3    0    0 -0.11088051851E+00 -0.42802608563E-01 -0.53101084790E-01  0.13781226510E+00  0.45232096140E-01 0.  0.
         14    1    1    2    0    0 -0.14424103434E-01 -0.27534304711E-03 -0.16193434383E-02  0.14517329191E-01  0.00000000000E+00 0. -1.
     999901    1    3    3    0    0  0.12530462194E+00  0.43077951610E-01  0.54720428229E-01  0.89160040571E+00  0.88000000000E+00 0. -1.
        -11    1    4    4    0    0 -0.76713897705E-01 -0.60603416012E-02 -0.30435510860E-01  0.82754645088E-01  0.51100000000E-03 0. -1.
         11    1    4    4    0    0 -0.34166620805E-01 -0.36742266962E-01 -0.22665573930E-01  0.55057620011E-01  0.51100000000E-03 0.  1.
</event>
<event>
 8    1  0.2001339E+004  0.1043930E+01  0.7957747E-01            NaN
         13   -1    0    0    0    0  0.00000000000E+00  0.00000000000E+00  0.74505805969E-08  0.10566000000E+00  0.10566000000E+00 0.  1.
     999900   -1    0    0    0    0 -0.00000000000E+00 -0.00000000000E+00 -0.74505805969E-08  0.93827000000E+00  0.93827000000E+00 0. -1.
     999902    2    1    2    0    0  0.56461323882E-02  0.91620094413E-02  0.81482056687E-02  0.10304313155E+01  0.10303428951E+01 0.  0.
     999903    2    3    3    0    0 -0.10226759373E-01 -0.11624065994E+00 -0.60243354524E-01  0.13877264554E+00  0.44856524118E-01 0.  0.
         14    1    1    2    0    0 -0.56461323882E-02 -0.91620094413E-02 -0.81482056687E-02  0.13498684512E-01  0.00000000000E+00 0. -1.
     999901    1    3    3    0    0  0.15872891761E-01  0.12540266938E+00  0.68391560192E-01  0.89165866994E+00  0.88000000000E+00 0.  1.
        -11    1    4    4    0    0 -0.44990330825E-02 -0.51752664630E-01 -0.52003575994E-01  0.73506548226E-01  0.51100000000E-03 0.  1.
         11    1    4    4    0    0 -0.57277262900E-02 -0.64487995312E-01 -0.82397785294E-02  0.65266097317E-01  0.51100000000E-03 0. -1.
</event>
<event>
 8    1  0.2001339E+004  0.1043930E+01  0.7957747E-01            NaN
         13   -1    0    0    0    0  0.00000000000E+00  0.00000000000E+00  0.74505805969E-08  0.10566000000E+00  0.10566000000E+00 0.  1.
     999900   -1    0    0    0    0 -0.00000000000E+00 -0.00000000000E+00 -0.74505805969E-08  0.93827000000E+00  0.93827000000E+00 0. -1.
     999902    2    1    2    0    0 -0.22437795865E-02 -0.10069910337E-01  0.91731629941E-02  0.10301247633E+01  0.10300322536E+01 0.  0.
     999903    2    3    3    0    0  0.12181006727E+00 -0.51566382453E-01  0.13658428921E-01  0.14044424102E+00  0.45180171183E-01 0.  0.
         14    1    1    2    0    0  0.22437795865E-02  0.10069910337E-01 -0.91731629941E-02  0.13805236700E-01  0.00000000000E+00 0. -1.
     999901    1    3    3    0    0 -0.12405384685E+00  0.41496472117E-01 -0.44852659265E-02  0.88968052228E+00  0.88000000000E+00 0. -1.
        -11    1    4    4    0    0  0.66840111223E-01 -0.11606015595E-01 -0.98032852321E-02  0.68546813118E-01  0.51100000000E-03 0. -1.
         11    1    4    4    0    0  0.54969956043E-01 -0.39960366858E-01  0.23461714153E-01  0.71897427901E-01  0.51100000000E-03 0.  1.
</event>
<event>
 8    1  0.2001339E+004  0.1043930E+01  0.7957747E-01            NaN
         13   -1    0    0    0    0  0.00000000000E+00  0.00000000000E+00  0.74505805969E-08  0.10566000000E+00  0.10566000000E+00 0.  1.
     999900   -1    0    0    0    0 -0.00000000000E+00 -0.00000000000E+00 -0.74505805969E-08  0.93827000000E+00  0.93827000000E+00 0.  1.
     999902    2    1    2    0    0 -0.12214223543E-01  0.10318421724E-02  0.71998994006E-02  0.10297141459E+01  0.10296160119E+01 0.  0.
     999903    2    3    3    0    0 -0.95005071847E-01 -0.73197190545E-01  0.59132578708E-01  0.14119781124E+00  0.45347190148E-01 0.  0.
         14    1    1    2    0    0  0.12214223543E-01 -0.10318421724E-02 -0.71998994006E-02  0.14215854052E-01  0.00000000000E+00 0. -1.
     999901    1    3    3    0    0  0.82790848304E-01  0.74229032718E-01 -0.51932679307E-01  0.88851633471E+00  0.88000000000E+00 0.  1.
        -11    1    4    4    0    0 -0.30665950597E-01 -0.34219351612E-01  0.45648866166E-01  0.64772252192E-01  0.51100000000E-03 0.  1.
         11    1    4    4    0    0 -0.64339121250E-01 -0.38977838933E-01  0.13483712542E-01  0.76425559049E-01  0.51100000000E-03 0. -1.
</event>
<event>
 8    1  0.2001339E+004  0.1043930E+01  0.7957747E-01            NaN
         13   -1    0    0    0    0  0.00000000000E+00  0.00000000000E+00  0.74505805969E-08  0.10566000000E+00  0.10566000000E+00 0.  1.
     999900   -1    0    0    0    0 -0.00000000000E+00 -0.00000000000E+00 -0.74505805969E-08  0.93827000000E+00  0.93827000000E+00 0. -1.
     999902    2    1    2    0    0 -0.50841164513E-02 -0.20085293477E-02  0.12664363059E-01  0.10301362144E+01  0.10300438591E+01 0.  0.
     999903    2    3    3    0    0 -0.10905339927E+00  0.47360135446E-01 -0.58955435853E-01  0.13975636710E+00  0.43823194845E-01 0.  0.
         14    1    1    2    0    0  0.50841164513E-02  0.20085293477E-02 -0.12664363059E-01  0.13793785627E-01  0.00000000000E+00 0. -1.
     999901    1    3    3    0    0  0.10396928282E+00 -0.49368664793E-01  0.71619798912E-01  0.89037984727E+00  0.88000000000E+00 0.  1.
        -11    1    4    4    0    0 -0.46154919975E-01  0.21528070540E-01 -0.49644273363E-01  0.71123480355E-01  0.51100000000E-03 0.  1.
         11    1    4    4    0    0 -0.62898479297E-01  0.25832064906E-01 -0.93111624903E-02  0.68632886746E-01  0.51100000000E-03 0. -1.
</event>
<event>
 8    1  0.2001339E+004  0.1043930E+01  0.7957747E-01            NaN
         13   -1    0    0    0    0  0.00000000000E+00  0.00000000000E+00  0.74505805969E-08  0.10566000000E+00  0.10566000000E+00 0. -1.
     999900   -1    0    0    0    0 -0.00000000000E+00 -0.00000000000E+00 -0.74505805969E-08  0.93827000000E+00  0.93827000000E+00 0.  1.
     999902    2    1    2    0    0  0.73259813051E-02 -0.47083810033E-02  0.10592252975E-01  0.10302174263E+01  0.10301261626E+01 0.  0.
     999903    2    3    3    0    0 -0.10183255645E+00 -0.56760964427E-01 -0.60028815057E-01  0.13914369590E+00  0.46538509152E-01 0.  0.
         14    1    1    2    0    0 -0.73259813051E-02  0.47083810033E-02 -0.10592252975E-01  0.13712573677E-01  0.00000000000E+00 0.  1.
     999901    1    3    3    0    0  0.10915853776E+00  0.52052583424E-01  0.70621068032E-01  0.89107373043E+00  0.88000000000E+00 0. -1.
        -11    1    4    4    0    0 -0.10461017539E+00 -0.59759919105E-01 -0.54454253486E-01  0.13221219146E+00  0.51100000000E-03 0.  1.
         11    1    4    4    0    0  0.27776189333E-02  0.29989546782E-02 -0.55745615713E-02  0.69315044408E-02  0.51100000000E-03 0. -1.
</event>
<event>
 8    1  0.2001339E+004  0.1043930E+01  0.7957747E-01            NaN
         13   -1    0    0    0    0  0.00000000000E+00  0.00000000000E+00  0.74505805969E-08  0.10566000000E+00  0.10566000000E+00 0. -1.
     999900   -1    0    0    0    0 -0.00000000000E+00 -0.00000000000E+00 -0.74505805969E-08  0.93827000000E+00  0.93827000000E+00 0.  1.
     999902    2    1    2    0    0  0.74032734867E-02 -0.62376524278E-02  0.98799130798E-02  0.10300978111E+01  0.10300049374E+01 0.  0.
     999903    2    3    3    0    0  0.65211548086E-01 -0.11600341707E+00 -0.13368386112E-01  0.14109229760E+00  0.44933104914E-01 0.  0.
         14    1    1    2    0    0 -0.74032734867E-02  0.62376524278E-02 -0.98799130798E-02  0.13832188858E-01  0.00000000000E+00 0.  1.
     999901    1    3    3    0    0 -0.57808274599E-01  0.10976576465E+00  0.23248299192E-01  0.88900551355E+00  0.88000000000E+00 0.  1.
        -11    1    4    4    0    0  0.34561095015E-01 -0.25901456912E-01  0.70187104977E-02  0.43759321029E-01  0.51100000000E-03 0.  1.
         11    1    4    4    0    0  0.30650453071E-01 -0.90101960161E-01 -0.20387096610E-01  0.97332976568E-01  0.51100000000E-03 0. -1.
</event>
<event>
 8    1  0.2001339E+004  0.1043930E+01  0.7957747E-01            NaN
         13   -1    0    0    0    0  0.00000000000E+00  0.00000000000E+00  0.74505805969E-08  0.10566000000E+00  0.10566000000E+00 0.  1.
     999900   -1    0    0    0    0 -0.00000000000E+00 -0.00000000000E+00 -0.74505805969E-08  0.93827000000E+00  0.93827000000E+00 0.  1.
     999902    2    1    2    0    0  0.55006470241E-02  0.18455135930E-02 -0.12208346666E-01  0.10304130933E+01  0.10303244324E+01 0.  0.
     999903    2    3    3    0    0 -0.55024495918E-01  0.65103884952E-01 -0.10213835393E+00  0.14150796863E+00  0.48229149433E-01 0.  0.
         14    1    1    2    0    0 -0.55006470241E-02 -0.18455135930E-02  0.12208346666E-01  0.13516906688E-01  0.00000000000E+00 0.  1.
     999901    1    3    3    0    0  0.60525142942E-01 -0.63258371359E-01  0.89930007268E-01  0.88890512468E+00  0.88000000000E+00 0.  1.
        -11    1    4    4    0    0 -0.30545004073E-01  0.35417070650E-01 -0.89534505741E-01  0.10101512266E+00  0.51100000000E-03 0.  1.
         11    1    4    4    0    0 -0.24479491845E-01  0.29686814302E-01 -0.12603848193E-01  0.40492845969E-01  0.51100000000E-03 0. -1.
</event>
<event>
 8    1  0.2001339E+004  0.1043930E+01  0.7957747E-01            NaN
         13   -1    0    0    0    0  0.00000000000E+00  0.00000000000E+00  0.74505805969E-08  0.10566000000E+00  0.10566000000E+00 0. -1.
     999900   -1    0    0    0    0 -0.00000000000E+00 -0.00000000000E+00 -0.74505805969E-08  0.93827000000E+00  0.93827000000E+00 0.  1.
     999902    2    1    2    0    0  0.12348319685E-01  0.56456402364E-02 -0.28588429876E-03  0.10303492790E+01  0.10302597734E+01 0.  0.
     999903    2    3    3    0    0  0.98112649423E-01 -0.79296598171E-01 -0.44078835486E-01  0.14103014243E+00  0.45083421312E-01 0.  0.
         14    1    1    2    0    0 -0.12348319685E-01 -0.56456402364E-02  0.28588429876E-03  0.13580720988E-01  0.00000000000E+00 0. -1.
     999901    1    3    3    0    0 -0.85764329738E-01  0.84942238407E-01  0.43792951187E-01  0.88931913658E+00  0.88000000000E+00 0.  1.
        -11    1    4    4    0    0  0.35130372473E-01 -0.51028003983E-01 -0.61453556505E-02  0.62257744720E-01  0.51100000000E-03 0.  1.
         11    1    4    4    0    0  0.62982276950E-01 -0.28268594188E-01 -0.37933479836E-01  0.78772397708E-01  0.51100000000E-03 0. -1.
</event>
<event>
 8    1  0.2001339E+004  0.1043930E+01  0.7957747E-01            NaN
         13   -1    0    0    0    0  0.00000000000E+00  0.00000000000E+00  0.74505805969E-08  0.10566000000E+00  0.10566000000E+00 0. -1.
     999900   -1    0    0    0    0 -0.00000000000E+00 -0.00000000000E+00 -0.74505805969E-08  0.93827000000E+00  0.93827000000E+00 0. -1.
     999902    2    1    2    0    0 -0.39492246270E-02  0.11534537586E-01 -0.52739138022E-02  0.10306463221E+01  0.10305607139E+01 0.  0.
     999903    2    3    3    0    0 -0.54825974846E-01 -0.10044583329E+00 -0.67243590075E-01  0.13993408574E+00  0.44323752128E-01 0.  0.
         14    1    1    2    0    0  0.39492246270E-02 -0.11534537586E-01  0.52739138022E-02  0.13283677927E-01  0.00000000000E+00 0. -1.
     999901    1    3    3    0    0  0.50876750219E-01  0.11198037088E+00  0.61969676272E-01  0.89071223633E+00  0.88000000000E+00 0. -1.
        -11    1    4    4    0    0 -0.29827687690E-01 -0.81149361396E-01 -0.30972947065E-01  0.91839503368E-01  0.51100000000E-03 0. -1.
         11    1    4    4    0    0 -0.24998287156E-01 -0.19296471895E-01 -0.36270643009E-01  0.48094582373E-01  0.51100000000E-03 0.  1.
</event>
<event>
 8    1  0.2001339E+004  0.1043930E+01  0.7957747E-01            NaN
         13   -1    0    0    0    0  0.00000000000E+00  0.00000000000E+00  0.74505805969E-08  0.10566000000E+00  0.10566000000E+00 0.  1.
     999900   -1    0    0    0    0 -0.00000000000E+00 -0.00000000000E+00 -0.74505805969E-08  0.93827000000E+00  0.93827000000E+00 0. -1.
     999902    2    1    2    0    0  0.45474230794E-02  0.59753937408E-02 -0.10715301441E-01  0.10308455790E+01  0.10307625361E+01 0.  0.
     999903    2    3    3    0    0 -0.86450757950E-01 -0.83452467460E-01 -0.59274972937E-01  0.14031986183E+00  0.41690446529E-01 0.  0.
         14    1    1    2    0    0 -0.45474230794E-02 -0.59753937408E-02  0.10715301441E-01  0.13084420965E-01  0.00000000000E+00 0. -1.
     999901    1    3    3    0    0  0.90998181029E-01  0.89427861200E-01  0.48559671496E-01  0.89052571721E+00  0.88000000000E+00 0. -1.
        -11    1    4    4    0    0 -0.21799865019E-01 -0.10663632690E-01  0.34344073661E-02  0.24515371748E-01  0.51100000000E-03 0. -1.
         11    1    4    4    0    0 -0.64650892931E-01 -0.72788834770E-01 -0.62709380303E-01  0.11580449008E+00  0.51100000000E-03 0.  1.
</event>
<event>
 8    1  0.2001339E+004  0.1043930E+01  0.7957747E-01            NaN
         13   -1    0    0    0    0  0.00000000000E+00  0.00000000000E+00  0.74505805969E-08  0.10566000000E+00  0.10566000000E+00 0. -1.
     999900   -1    0    0    0    0 -0.00000000000E+00 -0.00000000000E+00 -0.74505805969E-08  0.93827000000E+00  0.93827000000E+00 0. -1.
     999902    2    1    2    0    0  0.57439103457E-02 -0.83297702377E-02 -0.98858928831E-02  0.10297840304E+01  0.10296868654E+01 0.  0.
     999903    2    3    3    0    0  0.77615115435E-01  0.29770578009E-01  0.10160646482E+00  0.13902724400E+00  0.45763603696E-01 0.  0.
         14    1    1    2    0    0 -0.57439103457E-02  0.83297702377E-02  0.98858928831E-02  0.14145969616E-01  0.00000000000E+00 0. -1.
     999901    1    3    3    0    0 -0.71871205089E-01 -0.38100348247E-01 -0.11149235770E+00  0.89075678638E+00  0.88000000000E+00 0. -1.
        -11    1    4    4    0    0  0.25348352942E-01 -0.11558600207E-01  0.35911899951E-01  0.45453997786E-01  0.51100000000E-03 0.  1.
         11    1    4    4    0    0  0.52266762493E-01  0.41329178217E-01  0.65694564868E-01  0.93573246218E-01  0.51100000000E-03 0. -1.
</event>
<event>
 8    1  0.2001339E+004  0.1043930E+01  0.7957747E-01            NaN
         13   -1    0    0    0    0  0.00000000000E+00  0.00000000000E+00  0.74505805969E-08  0.10566000000E+00  0.10566000000E+00 0.  1.
     999900   -1    0    0    0    0 -0.00000000000E+00 -0.00000000000E+00 -0.74505805969E-08  0.93827000000E+00  0.93827000000E+00 0.  1.
     999902    2    1    2    0    0 -0.12371722110E-01  0.35142105420E-02  0.55070952443E-02  0.10299393859E+01  0.10298443579E+01 0.  0.
     999903    2    3    3    0    0  0.94955444154E-01  0.88755314455E-01  0.19867602398E-01  0.13921418108E+00  0.45736466519E-01 0.  0.
         14    1    1    2    0    0  0.12371722110E-01 -0.35142105420E-02 -0.55070952443E-02  0.13990614058E-01  0.00000000000E+00 0. -1.
     999901    1    3    3    0    0 -0.10732716626E+00 -0.85241103913E-01 -0.14360507154E-01  0.89072520486E+00  0.88000000000E+00 0. -1.
        -11    1    4    4    0    0  0.27488179696E-01  0.28760982202E-01  0.27866016763E-01  0.48575406653E-01  0.51100000000E-03 0. -1.
         11    1    4    4    0    0  0.67467264458E-01  0.59994332253E-01 -0.79984143649E-02  0.90638774425E-01  0.51100000000E-03 0.  1.
</event>
<event>
 8    1  0.2001339E+004  0.1043930E+01  0.7957747E-01            NaN
         13   -1    0    0    0    0  0.00000000000E+00  0.00000000000E+00  0.74505805969E-08  0.10566000000E+00  0.10566000000E+00 0. -1.
     999900   -1    0    0    0    0 -0.00000000000E+00 -0.00000000000E+00 -0.74505805969E-08  0.93827000000E+00  0.93827000000E+00 0.  1.
     999902    2    1    2    0    0 -0.10115907261E-02  0.12714757465E-01  0.50026380028E-02  0.10302290964E+01  0.10301379889E+01 0.  0.
     999903    2    3    3    0    0 -0.55305547868E-01 -0.11824946651E+00  0.10751775229E-01  0.13886356287E+00  0.46106924287E-01 0.  0.
         14    1    1    2    0    0  0.10115907261E-02 -0.12714757465E-01 -0.50026380028E-02  0.13700903626E-01  0.00000000000E+00 0.  1.
     999901    1    3    3    0    0  0.54293957142E-01  0.13096422397E+00 -0.57491372265E-02  0.89136553351E+00  0.88000000000E+00 0.  1.
        -11    1    4    4    0    0 -0.49923195359E-01 -0.58243400535E-01  0.16077051622E-01  0.78379537193E-01  0.51100000000E-03 0. -1.
         11    1    4    4    0    0 -0.53823525091E-02 -0.60006065974E-01 -0.53252763924E-02  0.60484025676E-01  0.51100000000E-03 0.  1.
</event>
<event>
 8    1  0.2001339E+004  0.1043930E+01  0.7957747E-01            NaN
         13   -1    0    0    0    0  0.00000000000E+00  0.00000000000E+00  0.74505805969E-08  0.10566000000E+00  0.10566000000E+00 0.  1.
     999900   -1    0    0    0    0 -0.00000000000E+00 -0.00000000000E+00 -0.74505805969E-08  0.93827000000E+00  0.93827000000E+00 0.  1.
     999902    2    1    2    0    0 -0.40662126978E-02  0.23291902049E-02  0.13263885314E-01  0.10298626667E+01  0.10297665864E+01 0.  0.
     999903    2    3    3    0    0  0.85974851768E-01 -0.66288819273E-01  0.76388525627E-01  0.14036812218E+00  0.45630255076E-01 0.  0.
         14    1    1    2    0    0  0.40662126978E-02 -0.23291902049E-02 -0.13263885314E-01  0.14067333306E-01  0.00000000000E+00 0. -1.
     999901    1    3    3    0    0 -0.90041064466E-01  0.68618009478E-01 -0.63124640313E-01  0.88949454452E+00  0.88000000000E+00 0.  1.
        -11    1    4    4    0    0  0.79988896231E-01 -0.57341850709E-01  0.47001739518E-01  0.10906757539E+00  0.51100000000E-03 0.  1.
         11    1    4    4    0    0  0.59859555380E-02 -0.89469685641E-02  0.29386786109E-01  0.31300546784E-01  0.51100000000E-03 0. -1.
</event>
<event>
 8    1  0.2001339E+004  0.1043930E+01  0.7957747E-01            NaN
         13   -1    0    0    0    0  0.00000000000E+00  0.00000000000E+00  0.74505805969E-08  0.10566000000E+00  0.10566000000E+00 0.  1.
     999900   -1    0    0    0    0 -0.00000000000E+00 -0.00000000000E+00 -0.74505805969E-08  0.93827000000E+00  0.93827000000E+00 0.  1.
     999902    2    1    2    0    0  0.16394005761E-02 -0.13455800944E-01  0.20237308073E-02  0.10302244646E+01  0.10301332952E+01 0.  0.
     999903    2    3    3    0    0  0.98454823609E-01  0.84782397895E-01 -0.68816655805E-02  0.13943645622E+00  0.50137418339E-01 0.  0.
         14    1    1    2    0    0 -0.16394005761E-02  0.13455800944E-01 -0.20237308073E-02  0.13705535366E-01  0.00000000000E+00 0. -1.
     999901    1    3    3    0    0 -0.96815423033E-01 -0.98238198838E-01  0.89053963878E-02  0.89078800841E+00  0.88000000000E+00 0.  1.
        -11    1    4    4    0    0  0.29449265637E-01  0.58239091897E-01 -0.53821815693E-02  0.65484960648E-01  0.51100000000E-03 0. -1.
         11    1    4    4    0    0  0.69005557971E-01  0.26543305997E-01 -0.14994840113E-02  0.73951495573E-01  0.51100000000E-03 0.  1.
</event>
<event>
 8    1  0.2001339E+004  0.1043930E+01  0.7957747E-01            NaN
         13   -1    0    0    0    0  0.00000000000E+00  0.00000000000E+00  0.74505805969E-08  0.10566000000E+00  0.10566000000E+00 0.  1.
     999900   -1    0    0    0    0 -0.00000000000E+00 -0.00000000000E+00 -0.74505805969E-08  0.93827000000E+00  0.93827000000E+00 0. -1.
     999902    2    1    2    0    0  0.16737507105E-02  0.26992211288E-02 -0.12866278222E-01  0.10306775153E+01  0.10305923113E+01 0.  0.
     999903    2    3    3    0    0 -0.95733306156E-01 -0.90619769311E-01 -0.88934126442E-02  0.14038972340E+00  0.47469707703E-01 0.  0.
         14    1    1    2    0    0 -0.16737507105E-02 -0.26992211288E-02  0.12866278222E-01  0.13252484727E-01  0.00000000000E+00 0.  1.
     999901    1    3    3    0    0  0.97407056866E-01  0.93318990440E-01 -0.39728655779E-02  0.89028779188E+00  0.88000000000E+00 0.  1.
        -11    1    4    4    0    0 -0.84346273261E-01 -0.50652038426E-01 -0.31973087976E-02  0.98439863441E-01  0.51100000000E-03 0. -1.
         11    1    4    4    0    0 -0.11387032894E-01 -0.39967730885E-01 -0.56961038467E-02  0.41949859955E-01  0.51100000000E-03 0.  1.
</event>
<event>
 8    1  0.2001339E+004  0.1043930E+01  0.7957747E-01            NaN
         13   -1    0    0    0    0  0.00000000000E+00  0.00000000000E+00  0.74505805969E-08  0.10566000000E+00  0.10566000000E+00 0. -1.
     999900   -1    0    0    0    0 -0.00000000000E+00 -0.00000000000E+00 -0.74505805969E-08  0.93827000000E+00  0.93827000000E+00 0. -1.
     999902    2    1    2    0    0 -0.10854738602E-01 -0.48746412514E-02  0.71053384193E-02  0.10300709484E+01  0.10299777111E+01 0.  0.
     999903    2    3    3    0    0 -0.11921677531E-01  0.13149023008E+00 -0.12663223663E-02  0.13952807958E+00  0.45107365429E-01 0.  0.
         14    1    1    2    0    0  0.10854738602E-01  0.48746412514E-02 -0.71053384193E-02  0.13859051609E-01  0.00000000000E+00 0.  1.
     999901    1    3    3    0    0  0.10669389291E-02 -0.13636487133E+00  0.83716607855E-02  0.89054286881E+00  0.88000000000E+00 0.  1.
        -11    1    4    4    0    0 -0.28449510572E-01  0.99035084378E-01  0.79907285783E-03  0.10304475837E+00  0.51100000000E-03 0.  1.
         11    1    4    4    0    0  0.16527833041E-01  0.32455145703E-01 -0.20653952241E-02  0.36483321204E-01  0.51100000000E-03 0. -1.
</event>
<event>
 8    1  0.2001339E+004  0.1043930E+01  0.7957747E-01            NaN
         13   -1    0    0    0    0  0.00000000000E+00  0.00000000000E+00  0.74505805969E-08  0.10566000000E+00  0.10566000000E+00 0. -1.
     999900   -1    0    0    0    0 -0.00000000000E+00 -0.00000000000E+00 -0.74505805969E-08  0.93827000000E+00  0.93827000000E+00 0.  1.
     999902    2    1    2    0    0  0.53391869117E-02 -0.26762032335E-02  0.11647288160E-01  0.10308407562E+01  0.10307576516E+01 0.  0.
     999903    2    3    3    0    0  0.48920133966E-01 -0.54287044537E-01  0.11399333084E+00  0.14233769472E+00  0.43877980234E-01 0.  0.
         14    1    1    2    0    0 -0.53391869117E-02  0.26762032335E-02 -0.11647288160E-01  0.13089243756E-01  0.00000000000E+00 0.  1.
     999901    1    3    3    0    0 -0.43580947054E-01  0.51610841304E-01 -0.10234604268E+00  0.88850306152E+00  0.88000000000E+00 0.  1.
        -11    1    4    4    0    0 -0.40935015904E-02  0.25803832336E-02  0.18852610649E-01  0.19470418131E-01  0.51100000000E-03 0.  1.
         11    1    4    4    0    0  0.53013635556E-01 -0.56867427771E-01  0.95140720194E-01  0.12286727659E+00  0.51100000000E-03 0. -1.
</event>
<event>
 8    1  0.2001339E+004  0.1043930E+01  0.7957747E-01            NaN
         13   -1    0    0    0    0  0.00000000000E+00  0.00000000000E+00  0.74505805969E-08  0.10566000000E+00  0.10566000000E+00 0. -1.
     999900   -1    0    0    0    0 -0.00000000000E+00 -0.00000000000E+00 -0.74505805969E-08  0.93827000000E+00  0.93827000000E+00 0. -1.
     999902    2    1    2    0    0 -0.42847341796E-03 -0.12218724975E-01  0.64812546096E-02  0.10300920995E+01  0.10299991485E+01 0.  0.
     999903    2    3    3    0    0 -0.66579665233E-01  0.87180474672E-01 -0.74345443875E-01  0.13835831843E+00  0.39780551386E-01 0.  0.
         14    1    1    2    0    0  0.42847341796E-03  0.12218724975E-01 -0.64812546096E-02  0.13837900520E-01  0.00000000000E+00 0.  1.
     999901    1    3    3    0    0  0.66151191815E-01 -0.99399199647E-01  0.80826698484E-01  0.89173378105E+00  0.88000000000E+00 0.  1.
        -11    1    4    4    0    0 -0.52385430208E-01  0.73402394197E-01 -0.39854533775E-01  0.98594065518E-01  0.51100000000E-03 0.  1.
         11    1    4    4    0    0 -0.14194235025E-01  0.13778080474E-01 -0.34490910099E-01  0.39764252916E-01  0.51100000000E-03 0. -1.
</event>
<event>
 8    1  0.2001339E+004  0.1043930E+01  0.7957747E-01            NaN
         13   -1    0    0    0    0  0.00000000000E+00  0.00000000000E+00  0.74505805969E-08  0.10566000000E+00  0.10566000000E+00 0. -1.
     999900   -1    0    0    0    0 -0.00000000000E+00 -0.00000000000E+00 -0.74505805969E-08  0.93827000000E+00  0.93827000000E+00 0. -1.
     999902    2    1    2    0    0 -0.10695581368E-01 -0.84229327322E-02  0.35326385542E-02  0.10298651220E+01  0.10297690755E+01 0.  0.
     999903    2    3    3    0    0 -0.61095998471E-01  0.11705676685E+00 -0.11586533420E-02  0.13952397099E+00  0.45062049524E-01 0.  0.
         14    1    1    2    0    0  0.10695581368E-01  0.84229327322E-02 -0.35326385542E-02  0.14064877950E-01  0.00000000000E+00 0.  1.
     999901    1    3    3    0    0  0.50400417104E-01 -0.12547969959E+00  0.46912918962E-02  0.89034115106E+00  0.88000000000E+00 0.  1.
        -11    1    4    4    0    0 -0.58085317996E-01  0.85167322490E-01  0.14082512106E-01  0.10404785079E+00  0.51100000000E-03 0. -1.
         11    1    4    4    0    0 -0.30106804754E-02  0.31889444365E-01 -0.15241165448E-01  0.35476120194E-01  0.51100000000E-03 0.  1.
</event>
<event>
 8    1  0.2001339E+004  0.1043930E+01  0.7957747E-01            NaN
         13   -1    0    0    0    0  0.00000000000E+00  0.00000000000E+00  0.74505805969E-08  0.10566000000E+00  0.10566000000E+00 0.  1.
     999900   -1    0    0    0    0 -0.00000000000E+00 -0.00000000000E+00 -0.74505805969E-08  0.93827000000E+00  0.93827000000E+00 0. -1.
     999902    2    1    2    0    0 -0.96265684191E-02 -0.87871627039E-02 -0.92639867292E-03  0.10308631235E+01  0.10307803045E+01 0.  0.
     999903    2    3    3    0    0  0.11990177118E+00  0.10719552389E-01 -0.53096479342E-01  0.13963934685E+00  0.46782128356E-01 0.  0.
         14    1    1    2    0    0  0.96265684191E-02  0.87871627039E-02  0.92639867292E-03  0.13066876536E-01  0.00000000000E+00 0. -1.
     999901    1    3    3    0    0 -0.12952833960E+00 -0.19506715093E-01  0.52170080669E-01  0.89122377662E+00  0.88000000000E+00 0.  1.
        -11    1    4    4    0    0  0.43956876201E-01  0.25599097940E-01 -0.29142444304E-01  0.58626478332E-01  0.51100000000E-03 0.  1.
         11    1    4    4    0    0  0.75944894979E-01 -0.14879545551E-01 -0.23954035038E-01  0.81012868513E-01  0.51100000000E-03 0. -1.
</event>
<event>
 8    1  0.2046759E+004  0.1043930E+01  0.7957747E-01            NaN
         13   -1    0    0    0    0  0.00000000000E+00  0.00000000000E+00  0.74505805969E-08  0.10566000000E+00  0.10566000000E+00 0.  1.
     999900   -1    0    0    0    0 -0.00000000000E+00 -0.00000000000E+00 -0.74505805969E-08  0.93827000000E+00  0.93827000000E+00 0. -1.
     999902    2    1    2    0    0  0.38848555146E-02 -0.10680877478E-01 -0.85579932756E-02  0.10297028255E+01  0.10296045339E+01 0.  0.
     999903    2    3    3    0    0 -0.47191629338E-01  0.10611377873E+00 -0.61108521016E-01  0.13896641273E+00  0.45719018042E-01 0.  0.
         14    1    1    2    0    0 -0.38848555146E-02  0.10680877478E-01  0.85579932756E-02  0.14227174525E-01  0.00000000000E+00 0. -1.
     999901    1    3    3    0    0  0.51076484852E-01 -0.11679465621E+00  0.52550527741E-01  0.89073641274E+00  0.88000000000E+00 0.  1.
        -11    1    4    4    0    0 -0.27577215972E-01  0.74324950688E-01 -0.16847922701E-01  0.81048224878E-01  0.51100000000E-03 0.  1.
         11    1    4    4    0    0 -0.19614413366E-01  0.31788828040E-01 -0.44260598315E-01  0.57918187852E-01  0.51100000000E-03 0. -1.
</event>
<event>
 8    1  0.2001339E+004  0.1043930E+01  0.7957747E-01            NaN
         13   -1    0    0    0    0  0.00000000000E+00  0.00000000000E+00  0.74505805969E-08  0.10566000000E+00  0.10566000000E+00 0.  1.
     999900   -1    0    0    0    0 -0.00000000000E+00 -0.00000000000E+00 -0.74505805969E-08  0.93827000000E+00  0.93827000000E+00 0. -1.
     999902    2    1    2    0    0 -0.14001609742E-01  0.66040857142E-03 -0.30142854759E-02  0.10295923875E+01  0.10294925533E+01 0.  0.
     999903    2    3    3    0    0  0.42244308398E-01  0.66351175793E-01 -0.10550515808E+00  0.13943326737E+00  0.46078601826E-01 0.  0.
         14    1    1    2    0    0  0.14001609742E-01 -0.66040857142E-03  0.30142854759E-02  0.14337612486E-01  0.00000000000E+00 0.  1.
     999901    1    3    3    0    0 -0.56245918140E-01 -0.65690767222E-01  0.10249087261E+00  0.89015912014E+00  0.88000000000E+00 0.  1.
        -11    1    4    4    0    0  0.11069383850E-01  0.15442879335E-01 -0.63902721092E-01  0.66669578257E-01  0.51100000000E-03 0.  1.
         11    1    4    4    0    0  0.31174924548E-01  0.50908296458E-01 -0.41602436993E-01  0.72763689115E-01  0.51100000000E-03 0. -1.
</event>
<event>
 8    1  0.2001339E+004  0.1043930E+01  0.7957747E-01            NaN
         13   -1    0    0    0    0  0.00000000000E+00  0.00000000000E+00  0.74505805969E-08  0.10566000000E+00  0.10566000000E+00 0. -1.
     999900   -1    0    0    0    0 -0.00000000000E+00 -0.00000000000E+00 -0.74505805969E-08  0.93827000000E+00  0.93827000000E+00 0.  1.
     999902    2    1    2    0    0 -0.13429503515E-01 -0.11128545325E-03 -0.49216975572E-02  0.10296266068E+01  0.10295272519E+01 0.  0.
     999903    2    3    3    0    0  0.44896211704E-01 -0.58710846094E-01  0.10854410468E+00  0.13849794843E+00  0.44013927156E-01 0.  0.
         14    1    1    2    0    0  0.13429503515E-01  0.11128545325E-03  0.49216975572E-02  0.14303393163E-01  0.00000000000E+00 0.  1.
     999901    1    3    3    0    0 -0.58325715219E-01  0.58599560640E-01 -0.11346580224E+00  0.89112865841E+00  0.88000000000E+00 0.  1.
        -11    1    4    4    0    0  0.37788180670E-02 -0.40729838131E-01  0.56876560033E-01  0.70059998447E-01  0.51100000000E-03 0.  1.
         11    1    4    4    0    0  0.41117393637E-01 -0.17981007963E-01  0.51667544645E-01  0.68437949980E-01  0.51100000000E-03 0. -1.
</event>
<event>
 8    1  0.2001339E+004  0.1043930E+01  0.7957747E-01            NaN
         13   -1    0    0    0    0  0.00000000000E+00  0.00000000000E+00  0.74505805969E-08  0.10566000000E+00  0.10566000000E+00 0. -1.
     999900   -1    0    0    0    0 -0.00000000000E+00 -0.00000000000E+00 -0.74505805969E-08  0.93827000000E+00  0.93827000000E+00 0.  1.
     999902    2    1    2    0    0 -0.87577975348E-02 -0.22149772479E-02 -0.10164921840E-01  0.10303310744E+01  0.10302413271E+01 0.  0.
     999903    2    3    3    0    0  0.92646366938E-01  0.73370343935E-01  0.57906111999E-01  0.13868674451E+00  0.43753155543E-01 0.  0.
         14    1    1    2    0    0  0.87577975348E-02  0.22149772479E-02  0.10164921840E-01  0.13598925615E-01  0.00000000000E+00 0. -1.
     999901    1    3    3    0    0 -0.10140416447E+00 -0.75585321183E-01 -0.68071033839E-01  0.89164432988E+00  0.88000000000E+00 0.  1.
        -11    1    4    4    0    0  0.50736482638E-01  0.31898627347E-01  0.61800700299E-02  0.60250871228E-01  0.51100000000E-03 0.  1.
         11    1    4    4    0    0  0.41909884300E-01  0.41471716588E-01  0.51726041969E-01  0.78435873282E-01  0.51100000000E-03 0. -1.
</event>
<event>
 8    1  0.2001339E+004  0.1043930E+01  0.7957747E-01            NaN
         13   -1    0    0    0    0  0.00000000000E+00  0.00000000000E+00  0.74505805969E-08  0.10566000000E+00  0.10566000000E+00 0. -1.
     999900   -1    0    0    0    0 -0.00000000000E+00 -0.00000000000E+00 -0.74505805969E-08  0.93827000000E+00  0.93827000000E+00 0.  1.
     999902    2    1    2    0    0  0.13270567001E-01  0.13006290330E-02  0.97018703612E-02  0.10274398250E+01  0.10273074847E+01 0.  0.
     999903    2    3    3    0    0  0.78090092823E-01 -0.66807882053E-01  0.83317547543E-01  0.13937473267E+00  0.43842293249E-01 0.  0.
         14    1    1    2    0    0 -0.13270567001E-01 -0.13006290330E-02 -0.97018703612E-02  0.16490175042E-01  0.00000000000E+00 0.  1.
     999901    1    3    3    0    0 -0.64819525821E-01  0.68108511086E-01 -0.73615677182E-01  0.88806509229E+00  0.88000000000E+00 0.  1.
        -11    1    4    4    0    0  0.33418511250E-01 -0.44193596546E-01  0.20585033997E-01  0.59109014672E-01  0.51100000000E-03 0. -1.
         11    1    4    4    0    0  0.44671581573E-01 -0.22614285506E-01  0.62732513546E-01  0.80265717999E-01  0.51100000000E-03 0.  1.
</event>
<event>
 8    1  0.2001339E+004  0.1043930E+01  0.7957747E-01            NaN
         13   -1    0    0    0    0  0.00000000000E+00  0.00000000000E+00  0.74505805969E-08  0.10566000000E+00  0.10566000000E+00 0.  1.
     999900   -1    0    0    0    0 -0.00000000000E+00 -0.00000000000E+00 -0.74505805969E-08  0.93827000000E+00  0.93827000000E+00 0.  1.
     999902    2    1    2    0    0  0.23199282343E-01  0.11311610467E-01 -0.38922943805E-02  0.10178280999E+01  0.10174933571E+01 0.  0.
     999903    2    3    3    0    0  0.77240131872E-01  0.89392159885E-01  0.21302239501E-01  0.13236113263E+00  0.55755607811E-01 0.  0.
         14    1    1    2    0    0 -0.23199282343E-01 -0.11311610467E-01  0.38922943805E-02  0.26101900087E-01  0.00000000000E+00 0.  1.
     999901    1    3    3    0    0 -0.54040849529E-01 -0.78080549418E-01 -0.25194533882E-01  0.88546696728E+00  0.88000000000E+00 0.  1.
        -11    1    4    4    0    0  0.95915978441E-02  0.46955228291E-01 -0.52247008512E-02  0.48211521787E-01  0.51100000000E-03 0. -1.
         11    1    4    4    0    0  0.67648534028E-01  0.42436931594E-01  0.26526940353E-01  0.84149610841E-01  0.51100000000E-03 0.  1.
</event>
<event>
 8    1  0.2001339E+004  0.1043930E+01  0.7957747E-01            NaN
         13   -1    0    0    0    0  0.00000000000E+00  0.00000000000E+00  0.74505805969E-08  0.10566000000E+00  0.10566000000E+00 0.  1.
     999900   -1    0    0    0    0 -0.00000000000E+00 -0.00000000000E+00 -0.74505805969E-08  0.93827000000E+00  0.93827000000E+00 0. -1.
     999902    2    1    2    0    0  0.72061357485E-02  0.91587191247E-02 -0.71612362695E-02  0.10302517752E+01  0.10301609712E+01 0.  0.
     999903    2    3    3    0    0 -0.70827520597E-01  0.10751695555E+00 -0.35655936972E-01  0.14088371745E+00  0.44726307667E-01 0.  0.
         14    1    1    2    0    0 -0.72061357485E-02 -0.91587191247E-02  0.71612362695E-02  0.13678224788E-01  0.00000000000E+00 0.  1.
     999901    1    3    3    0    0  0.78033656345E-01 -0.98358236425E-01  0.28494700702E-01  0.88936805776E+00  0.88000000000E+00 0. -1.
        -11    1    4    4    0    0 -0.47415520559E-01  0.10148633194E+00 -0.31347654455E-01  0.11632129522E+00  0.51100000000E-03 0.  1.
         11    1    4    4    0    0 -0.23412000037E-01  0.60306236128E-02 -0.43082825168E-02  0.24562422237E-01  0.51100000000E-03 0. -1.
</event>
<event>
 8    1  0.2001339E+004  0.1043930E+01  0.7957747E-01            NaN
         13   -1    0    0    0    0  0.00000000000E+00  0.00000000000E+00  0.74505805969E-08  0.10566000000E+00  0.10566000000E+00 0.  1.
     999900   -1    0    0    0    0 -0.00000000000E+00 -0.00000000000E+00 -0.74505805969E-08  0.93827000000E+00  0.93827000000E+00 0.  1.
     999902    2    1    2    0    0 -0.42119645943E-02  0.16803431238E-02 -0.15028505406E-01  0.10282322239E+01  0.10281123898E+01 0.  0.
     999903    2    3    3    0    0 -0.44213891243E-01  0.99978865380E-01 -0.73724927514E-01  0.13991469986E+00  0.46798681575E-01 0.  0.
         14    1    1    2    0    0  0.42119645943E-02 -0.16803431238E-02  0.15028505406E-01  0.15697776068E-01  0.00000000000E+00 0.  1.
     999901    1    3    3    0    0  0.40001926649E-01 -0.98298522256E-01  0.58696422109E-01  0.88831752408E+00  0.88000000000E+00 0. -1.
        -11    1    4    4    0    0 -0.31396726270E-01  0.21704081961E-01 -0.34388287541E-01  0.51377398098E-01  0.51100000000E-03 0.  1.
         11    1    4    4    0    0 -0.12817164973E-01  0.78274783418E-01 -0.39336639973E-01  0.88537301757E-01  0.51100000000E-03 0. -1.
</event>
<event>
 8    1  0.2001339E+004  0.1043930E+01  0.7957747E-01            NaN
         13   -1    0    0    0    0  0.00000000000E+00  0.00000000000E+00  0.74505805969E-08  0.10566000000E+00  0.10566000000E+00 0. -1.
     999900   -1    0    0    0    0 -0.00000000000E+00 -0.00000000000E+00 -0.74505805969E-08  0.93827000000E+00  0.93827000000E+00 0. -1.
     999902    2    1    2    0    0  0.14489711212E-02 -0.10148669948E-01  0.10188574078E-01  0.10294765554E+01  0.10293750901E+01 0.  0.
     999903    2    3    3    0    0 -0.10663792082E+00 -0.64086256977E-01  0.47292612327E-01  0.14044970026E+00  0.44842308509E-01 0.  0.
         14    1    1    2    0    0 -0.14489711212E-02  0.10148669948E-01 -0.10188574078E-01  0.14453444599E-01  0.00000000000E+00 0.  1.
     999901    1    3    3    0    0  0.10808689194E+00  0.53937587029E-01 -0.37104038249E-01  0.88902685514E+00  0.88000000000E+00 0. -1.
        -11    1    4    4    0    0 -0.52218928323E-01 -0.96257173735E-02  0.70243488553E-02  0.53563733141E-01  0.51100000000E-03 0.  1.
         11    1    4    4    0    0 -0.54418992499E-01 -0.54460539604E-01  0.40268263472E-01  0.86885967121E-01  0.51100000000E-03 0. -1.
</event>
<event>
 8    1  0.2001339E+004  0.1043930E+01  0.7957747E-01            NaN
         13   -1    0    0    0    0  0.00000000000E+00  0.00000000000E+00  0.74505805969E-08  0.10566000000E+00  0.10566000000E+00 0. -1.
     999900   -1    0    0    0    0 -0.00000000000E+00 -0.00000000000E+00 -0.74505805969E-08  0.93827000000E+00  0.93827000000E+00 0.  1.
     999902    2    1    2    0    0 -0.46977624122E-02  0.10284779968E-01 -0.82218953356E-02  0.10299498271E+01  0.10298549418E+01 0.  0.
     999903    2    3    3    0    0  0.86497847796E-01 -0.96380274006E-01 -0.17528028319E-01  0.13878167399E+00  0.46712807309E-01 0.  0.
         14    1    1    2    0    0  0.46977624122E-02 -0.10284779968E-01  0.82218953356E-02  0.13980172874E-01  0.00000000000E+00 0. -1.
     999901    1    3    3    0    0 -0.91195610208E-01  0.10666505397E+00  0.93061329836E-02  0.89116815314E+00  0.88000000000E+00 0.  1.
        -11    1    4    4    0    0  0.81866000842E-02 -0.65596300543E-03 -0.12546434916E-01  0.15004161373E-01  0.51100000000E-03 0.  1.
         11    1    4    4    0    0  0.78311247712E-01 -0.95724311000E-01 -0.49815934028E-02  0.12377751261E+00  0.51100000000E-03 0. -1.
</event>
<event>
 7    1  0.2666718E+004  0.1043930E+01  0.7957747E-01            NaN
         13   -1    0    0    0    0  0.00000000000E+00  0.00000000000E+00  0.74505805969E-08  0.10566000000E+00  0.10566000000E+00 0.  1.
     999900   -1    0    0    0    0 -0.00000000000E+00 -0.00000000000E+00 -0.74505805969E-08  0.93827000000E+00  0.93827000000E+00 0. -1.
     999903    2    1    2    0    0 -0.80952605747E-02 -0.72914389681E-01 -0.80184012012E-01  0.11775672567E+00  0.45333532746E-01 0.  0.
         14    1    1    2    0    0 -0.29163507133E-01 -0.21632906658E-01 -0.29602772853E-02  0.36431525364E-01  0.00000000000E+00 0.  1.
     999901    1    1    2    0    0  0.37258767708E-01  0.94547296338E-01  0.83144289297E-01  0.88974174897E+00  0.88000000000E+00 0.  1.
        -11    1    3    3    0    0  0.18902016891E-01 -0.33329376234E-01 -0.35242981999E-01  0.52062101992E-01  0.51100000000E-03 0. -1.
         11    1    3    3    0    0 -0.26997277466E-01 -0.39585013447E-01 -0.44941030013E-01  0.65694623675E-01  0.51100000000E-03 0.  1.
</event>
<event>
 8    1  0.2001339E+004  0.1043930E+01  0.7957747E-01            NaN
         13   -1    0    0    0    0  0.00000000000E+00  0.00000000000E+00  0.74505805969E-08  0.10566000000E+00  0.10566000000E+00 0. -1.
     999900   -1    0    0    0    0 -0.00000000000E+00 -0.00000000000E+00 -0.74505805969E-08  0.93827000000E+00  0.93827000000E+00 0.  1.
     999902    2    1    2    0    0  0.82206692697E-02 -0.37569955329E-02  0.10646614301E-01  0.10299641554E+01  0.10298694658E+01 0.  0.
     999903    2    3    3    0    0  0.91546471982E-01  0.25920901946E-01  0.94037584749E-01  0.14160723338E+00  0.46442346075E-01 0.  0.
         14    1    1    2    0    0 -0.82206692697E-02  0.37569955329E-02 -0.10646614301E-01  0.13965844577E-01  0.00000000000E+00 0.  1.
     999901    1    3    3    0    0 -0.83325802712E-01 -0.29677897479E-01 -0.83390970448E-01  0.88835692205E+00  0.88000000000E+00 0.  1.
        -11    1    4    4    0    0  0.48290792248E-01 -0.75709429868E-02  0.29884662547E-01  0.57294624270E-01  0.51100000000E-03 0.  1.
         11    1    4    4    0    0  0.43255679734E-01  0.33491844932E-01  0.64152922202E-01  0.84312609106E-01  0.51100000000E-03 0. -1.
</event>
<event>
 8    1  0.2001339E+004  0.1043930E+01  0.7957747E-01            NaN
         13   -1    0    0    0    0  0.00000000000E+00  0.00000000000E+00  0.74505805969E-08  0.10566000000E+00  0.10566000000E+00 0. -1.
     999900   -1    0    0    0    0 -0.00000000000E+00 -0.00000000000E+00 -0.74505805969E-08  0.93827000000E+00  0.93827000000E+00 0. -1.
     999902    2    1    2    0    0  0.10354187784E-01  0.44210452414E-02  0.93575119966E-02  0.10292904004E+01  0.10291862856E+01 0.  0.
     999903    2    3    3    0    0  0.42281952310E-01 -0.57606451228E-01  0.11224851709E+00  0.14055345878E+00  0.45268957054E-01 0.  0.
         14    1    1    2    0    0 -0.10354187784E-01 -0.44210452414E-02 -0.93575119966E-02  0.14639599601E-01  0.00000000000E+00 0. -1.
     999901    1    3    3    0    0 -0.31927764526E-01  0.62027496469E-01 -0.10289100509E+00  0.88873694162E+00  0.88000000000E+00 0. -1.
        -11    1    4    4    0    0  0.32073586469E-01 -0.27616837924E-01  0.28543888692E-01  0.51053103613E-01  0.51100000000E-03 0.  1.
         11    1    4    4    0    0  0.10208365842E-01 -0.29989613304E-01  0.83704628397E-01  0.89500355169E-01  0.51100000000E-03 0. -1.
</event>
<event>
 8    1  0.2001339E+004  0.1043930E+01  0.7957747E-01            NaN
         13   -1    0    0    0    0  0.00000000000E+00  0.00000000000E+00  0.74505805969E-08  0.10566000000E+00  0.10566000000E+00 0.  1.
     999900   -1    0    0    0    0 -0.00000000000E+00 -0.00000000000E+00 -0.74505805969E-08  0.93827000000E+00  0.93827000000E+00 0. -1.
     999902    2    1    2    0    0 -0.17451815145E-02  0.12793207627E-01  0.37408467451E-02  0.10304873160E+01  0.10303996325E+01 0.  0.
     999903    2    3    3    0    0  0.96377960153E-02  0.77752862756E-01  0.10886983012E+00  0.14177958441E+00  0.45939262783E-01 0.  0.
         14    1    1    2    0    0  0.17451815145E-02 -0.12793207627E-01 -0.37408467451E-02  0.13442684043E-01  0.00000000000E+00 0.  1.
     999901    1    3    3    0    0 -0.11382977530E-01 -0.64959655130E-01 -0.10512898338E+00  0.88870773155E+00  0.88000000000E+00 0. -1.
        -11    1    4    4    0    0 -0.66660833232E-02  0.47106102406E-01  0.31732167485E-01  0.57189274563E-01  0.51100000000E-03 0.  1.
         11    1    4    4    0    0  0.16303879339E-01  0.30646760351E-01  0.77137662637E-01  0.84590309844E-01  0.51100000000E-03 0. -1.
</event>
<event>
 8    1  0.2001339E+004  0.1043930E+01  0.7957747E-01            NaN
         13   -1    0    0    0    0  0.00000000000E+00  0.00000000000E+00  0.74505805969E-08  0.10566000000E+00  0.10566000000E+00 0. -1.
     999900   -1    0    0    0    0 -0.00000000000E+00 -0.00000000000E+00 -0.74505805969E-08  0.93827000000E+00  0.93827000000E+00 0. -1.
     999902    2    1    2    0    0 -0.53691509004E-02 -0.54845295536E-02  0.11637810890E-01  0.10299891791E+01  0.10298948308E+01 0.  0.
     999903    2    3    3    0    0  0.81864188793E-01  0.82376529036E-01  0.63116809719E-01  0.13983227802E+00  0.45625610840E-01 0.  0.
         14    1    1    2    0    0  0.53691509004E-02  0.54845295536E-02 -0.11637810890E-01  0.13940820927E-01  0.00000000000E+00 0.  1.
     999901    1    3    3    0    0 -0.87233339693E-01 -0.87861058589E-01 -0.51478998829E-01  0.89015690105E+00  0.88000000000E+00 0. -1.
        -11    1    4    4    0    0  0.78322229924E-01  0.51786579683E-01  0.49698729698E-01  0.10623768818E+00  0.51100000000E-03 0.  1.
         11    1    4    4    0    0  0.35419588694E-02  0.30589949352E-01  0.13418080021E-01  0.33594589839E-01  0.51100000000E-03 0. -1.
</event>
<event>
 8    1  0.2001339E+004  0.1043930E+01  0.7957747E-01            NaN
         13   -1    0    0    0    0  0.00000000000E+00  0.00000000000E+00  0.74505805969E-08  0.10566000000E+00  0.10566000000E+00 0. -1.
     999900   -1    0    0    0    0 -0.00000000000E+00 -0.00000000000E+00 -0.74505805969E-08  0.93827000000E+00  0.93827000000E+00 0.  1.
     999902    2    1    2    0    0 -0.66695871540E-02 -0.25816916545E-02  0.13220996258E-01  0.10288985907E+01  0.10287887862E+01 0.  0.
     999903    2    3    3    0    0 -0.11875469158E+00  0.14132671883E-02  0.60802974035E-01  0.14050505459E+00  0.44045369987E-01 0.  0.
         14    1    1    2    0    0  0.66695871540E-02  0.25816916545E-02 -0.13220996258E-01  0.15031409337E-01  0.00000000000E+00 0.  1.
     999901    1    3    3    0    0  0.11208510442E+00 -0.39949588428E-02 -0.47581977777E-01  0.88839353607E+00  0.88000000000E+00 0.  1.
        -11    1    4    4    0    0 -0.66158002418E-01  0.44090016003E-02  0.57417890835E-01  0.87712005381E-01  0.51100000000E-03 0.  1.
         11    1    4    4    0    0 -0.52596689161E-01 -0.29957344120E-02  0.33850832000E-02  0.52793049208E-01  0.51100000000E-03 0. -1.
</event>
<event>
 8    1  0.2001339E+004  0.1043930E+01  0.7957747E-01            NaN
         13   -1    0    0    0    0  0.00000000000E+00  0.00000000000E+00  0.74505805969E-08  0.10566000000E+00  0.10566000000E+00 0.  1.
     999900   -1    0    0    0    0 -0.00000000000E+00 -0.00000000000E+00 -0.74505805969E-08  0.93827000000E+00  0.93827000000E+00 0. -1.
     999902    2    1    2    0    0  0.21617113828E-02 -0.13425629352E-01  0.32657381139E-02  0.10299448091E+01  0.10298498552E+01 0.  0.
     999903    2    3    3    0    0 -0.10963272985E+00 -0.74507774494E-01 -0.14852694903E-01  0.14058700529E+00  0.44422512275E-01 0.  0.
         14    1    1    2    0    0 -0.21617113828E-02  0.13425629352E-01 -0.32657381139E-02  0.13985190918E-01  0.00000000000E+00 0. -1.
     999901    1    3    3    0    0  0.11179444123E+00  0.61082145142E-01  0.18118433017E-01  0.88935780379E+00  0.88000000000E+00 0.  1.
        -11    1    4    4    0    0 -0.22768127273E-01 -0.15955392184E-01 -0.22186354918E-01  0.35573271213E-01  0.51100000000E-03 0.  1.
         11    1    4    4    0    0 -0.86864602576E-01 -0.58552382311E-01  0.73336600148E-02  0.10501373408E+00  0.51100000000E-03 0. -1.
</event>
<event>
 8    1  0.2001339E+004  0.1043930E+01  0.7957747E-01            NaN
         13   -1    0    0    0    0  0.00000000000E+00  0.00000000000E+00  0.74505805969E-08  0.10566000000E+00  0.10566000000E+00 0. -1.
     999900   -1    0    0    0    0 -0.00000000000E+00 -0.00000000000E+00 -0.74505805969E-08  0.93827000000E+00  0.93827000000E+00 0.  1.
     999902    2    1    2    0    0 -0.32913175176E-02  0.78377828706E-02 -0.87784187958E-02  0.10317101699E+01  0.10316378000E+01 0.  0.
     999903    2    3    3    0    0 -0.97442836929E-01  0.78338554857E-01  0.51004718008E-01  0.14187372936E+00  0.43527441650E-01 0.  0.
         14    1    1    2    0    0  0.32913175176E-02 -0.78377828706E-02  0.87784187958E-02  0.12219830109E-01  0.00000000000E+00 0. -1.
     999901    1    3    3    0    0  0.94151519411E-01 -0.70500771986E-01 -0.59783136804E-01  0.88983644054E+00  0.88000000000E+00 0.  1.
        -11    1    4    4    0    0 -0.19943146368E-01  0.35363751832E-01  0.30846539057E-01  0.50991118084E-01  0.51100000000E-03 0. -1.
         11    1    4    4    0    0 -0.77499690561E-01  0.42974803025E-01  0.20158178952E-01  0.90882611273E-01  0.51100000000E-03 0.  1.
</event>
<event>
 8    1  0.2001339E+004  0.1043930E+01  0.7957747E-01            NaN
         13   -1    0    0    0    0  0.00000000000E+00  0.00000000000E+00  0.74505805969E-08  0.10566000000E+00  0.10566000000E+00 0.  1.
     999900   -1    0    0    0    0 -0.00000000000E+00 -0.00000000000E+00 -0.74505805969E-08  0.93827000000E+00  0.93827000000E+00 0.  1.
     999902    2    1    2    0    0  0.16711561306E-02  0.17457466349E-02  0.13766342126E-01  0.10299531416E+01  0.10298583016E+01 0.  0.
     999903    2    3    3    0    0  0.81006387990E-01  0.39136837885E-01  0.10007337406E+00  0.14139190206E+00  0.43396575887E-01 0.  0.
         14    1    1    2    0    0 -0.16711561306E-02 -0.17457466349E-02 -0.13766342126E-01  0.13976858362E-01  0.00000000000E+00 0. -1.
     999901    1    3    3    0    0 -0.79335231859E-01 -0.37391091251E-01 -0.86307031929E-01  0.88856123958E+00  0.88000000000E+00 0.  1.
        -11    1    4    4    0    0  0.34332513681E-01 -0.47702657798E-02  0.25306068137E-01  0.42920101780E-01  0.51100000000E-03 0.  1.
         11    1    4    4    0    0  0.46673874309E-01  0.43907103665E-01  0.74767305918E-01  0.98471800281E-01  0.51100000000E-03 0. -1.
</event>
<event>
 8    1  0.2001339E+004  0.1043930E+01  0.7957747E-01            NaN
         13   -1    0    0    0    0  0.00000000000E+00  0.00000000000E+00  0.74505805969E-08  0.10566000000E+00  0.10566000000E+00 0. -1.
     999900   -1    0    0    0    0 -0.00000000000E+00 -0.00000000000E+00 -0.74505805969E-08  0.93827000000E+00  0.93827000000E+00 0. -1.
     999902    2    1    2    0    0  0.92448154441E-02 -0.10379042977E-01 -0.32818040089E-03  0.10300268044E+01  0.10299329682E+01 0.  0.
     999903    2    3    3    0    0  0.17879371559E-01  0.84853659295E-01 -0.99412277007E-01  0.13931838895E+00  0.44799522951E-01 0.  0.
         14    1    1    2    0    0 -0.92448154441E-02  0.10379042977E-01  0.32818040089E-03  0.13903195607E-01  0.00000000000E+00 0. -1.
     999901    1    3    3    0    0 -0.86345561152E-02 -0.95232702272E-01  0.99084096606E-01  0.89070841544E+00  0.88000000000E+00 0.  1.
        -11    1    4    4    0    0 -0.11468631419E-01  0.17757663521E-01 -0.39072282163E-01  0.44427114184E-01  0.51100000000E-03 0.  1.
         11    1    4    4    0    0  0.29348002978E-01  0.67095995774E-01 -0.60339994844E-01  0.94891274765E-01  0.51100000000E-03 0. -1.
</event>
<event>
 8    1  0.2001339E+004  0.1043930E+01  0.7957747E-01            NaN
         13   -1    0    0    0    0  0.00000000000E+00  0.00000000000E+00  0.74505805969E-08  0.10566000000E+00  0.10566000000E+00 0.  1.
     999900   -1    0    0    0    0 -0.00000000000E+00 -0.00000000000E+00 -0.74505805969E-08  0.93827000000E+00  0.93827000000E+00 0.  1.
     999902    2    1    2    0    0  0.71380666510E-02  0.12450053580E-02  0.11593613737E-01  0.10302583537E+01  0.10301676375E+01 0.  0.
     999903    2    3    3    0    0 -0.36613262075E-01  0.92999556616E-01 -0.85442949427E-01  0.13910787758E+00  0.45398849195E-01 0.  0.
         14    1    1    2    0    0 -0.71380666510E-02 -0.12450053580E-02 -0.11593613737E-01  0.13671646328E-01  0.00000000000E+00 0. -1.
     999901    1    3    3    0    0  0.43751328726E-01 -0.91754551258E-01  0.97036563164E-01  0.89115047609E+00  0.88000000000E+00 0.  1.
        -11    1    4    4    0    0 -0.13113789077E-01  0.41319055163E-01 -0.96593782537E-02  0.44416218803E-01  0.51100000000E-03 0.  1.
         11    1    4    4    0    0 -0.23499472998E-01  0.51680501453E-01 -0.75783571174E-01  0.94691658780E-01  0.51100000000E-03 0. -1.
</event>
<event>
 8    1  0.2001339E+004  0.1043930E+01  0.7957747E-01            NaN
         13   -1    0    0    0    0  0.00000000000E+00  0.00000000000E+00  0.74505805969E-08  0.10566000000E+00  0.10566000000E+00 0. -1.
     999900   -1    0    0    0    0 -0.00000000000E+00 -0.00000000000E+00 -0.74505805969E-08  0.93827000000E+00  0.93827000000E+00 0.  1.
     999902    2    1    2    0    0 -0.52527553125E-02 -0.56563681438E-02 -0.16390948126E-01  0.10258123534E+01  0.10256523462E+01 0.  0.
     999903    2    3    3    0    0  0.40939084079E-02 -0.10486257613E+00  0.73396496800E-01  0.13564887564E+00  0.44728645851E-01 0.  0.
         14    1    1    2    0    0  0.52527553125E-02  0.56563681438E-02  0.16390948126E-01  0.18117646630E-01  0.00000000000E+00 0. -1.
     999901    1    3    3    0    0 -0.93466637205E-02  0.99206207988E-01 -0.89787444925E-01  0.89016347773E+00  0.88000000000E+00 0.  1.
        -11    1    4    4    0    0  0.11109949715E-01 -0.24178365538E-01  0.39921302244E-03  0.26616627036E-01  0.51100000000E-03 0.  1.
         11    1    4    4    0    0 -0.70160413067E-02 -0.80684210594E-01  0.72997283777E-01  0.10903224860E+00  0.51100000000E-03 0. -1.
</event>
<event>
 8    1  0.2001339E+004  0.1043930E+01  0.7957747E-01            NaN
         13   -1    0    0    0    0  0.00000000000E+00  0.00000000000E+00  0.74505805969E-08  0.10566000000E+00  0.10566000000E+00 0. -1.
     999900   -1    0    0    0    0 -0.00000000000E+00 -0.00000000000E+00 -0.74505805969E-08  0.93827000000E+00  0.93827000000E+00 0. -1.
     999902    2    1    2    0    0  0.12075004649E-01 -0.67386214129E-02 -0.25495604223E-02  0.10298688829E+01  0.10297728880E+01 0.  0.
     999903    2    3    3    0    0 -0.69204121498E-01 -0.97081705832E-01 -0.57461264646E-01  0.13982199396E+00  0.45103492328E-01 0.  0.
         14    1    1    2    0    0 -0.12075004649E-01  0.67386214129E-02  0.25495604223E-02  0.14061117102E-01  0.00000000000E+00 0. -1.
     999901    1    3    3    0    0  0.81279126147E-01  0.90343084420E-01  0.54911704224E-01  0.89004688894E+00  0.88000000000E+00 0. -1.
        -11    1    4    4    0    0 -0.43766099304E-02 -0.34199958874E-01 -0.29207015352E-01  0.45189631203E-01  0.51100000000E-03 0. -1.
         11    1    4    4    0    0 -0.64827511568E-01 -0.62881746958E-01 -0.28254249294E-01  0.94632362756E-01  0.51100000000E-03 0.  1.
</event>
<event>
 8    1  0.2670366E+004  0.1043930E+01  0.7957747E-01            NaN
         13   -1    0    0    0    0  0.00000000000E+00  0.00000000000E+00  0.74505805969E-08  0.10566000000E+00  0.10566000000E+00 0.  1.
     999900   -1    0    0    0    0 -0.00000000000E+00 -0.00000000000E+00 -0.74505805969E-08  0.93827000000E+00  0.93827000000E+00 0.  1.
     999902    2    1    2    0    0 -0.10959843693E-01  0.32254749215E-02  0.90551565279E-02  0.10293520124E+01  0.10292487784E+01 0.  0.
     999903    2    3    3    0    0  0.11243334146E+00 -0.33547842870E-01  0.58198671874E-01  0.13862576932E+00  0.45423611472E-01 0.  0.
         14    1    1    2    0    0  0.10959843693E-01 -0.32254749215E-02 -0.90551565279E-02  0.14577987583E-01  0.00000000000E+00 0. -1.
     999901    1    3    3    0    0 -0.12339318515E+00  0.36773317792E-01 -0.49143515346E-01  0.89072624310E+00  0.88000000000E+00 0.  1.
        -11    1    4    4    0    0  0.64545225024E-01 -0.83082523030E-02  0.53572982763E-01  0.84293764496E-01  0.51100000000E-03 0.  1.
         11    1    4    4    0    0  0.47888116431E-01 -0.25239590567E-01  0.46256891117E-02  0.54332004823E-01  0.51100000000E-03 0. -1.
</event>
<event>
 8    1  0.2001339E+004  0.1043930E+01  0.7957747E-01            NaN
         13   -1    0    0    0    0  0.00000000000E+00  0.00000000000E+00  0.74505805969E-08  0.10566000000E+00  0.10566000000E+00 0.  1.
     999900   -1    0    0    0    0 -0.00000000000E+00 -0.00000000000E+00 -0.74505805969E-08  0.93827000000E+00  0.93827000000E+00 0.  1.
     999902    2    1    2    0    0 -0.10195409412E-01 -0.32733785571E-02 -0.86982235532E-02  0.10301343314E+01  0.10300419507E+01 0.  0.
     999903    2    3    3    0    0 -0.71948288302E-01 -0.93540635464E-01  0.61845476626E-01  0.14056251899E+00  0.44794554291E-01 0.  0.
         14    1    1    2    0    0  0.10195409412E-01  0.32733785571E-02  0.86982235532E-02  0.13795668640E-01  0.00000000000E+00 0.  1.
     999901    1    3    3    0    0  0.61752878890E-01  0.90267256907E-01 -0.70543700180E-01  0.88957181237E+00  0.88000000000E+00 0.  1.
        -11    1    4    4    0    0 -0.29739228723E-01 -0.63101708206E-01  0.16851650359E-01  0.71766890307E-01  0.51100000000E-03 0.  1.
         11    1    4    4    0    0 -0.42209059579E-01 -0.30438927258E-01  0.44993826268E-01  0.68795628686E-01  0.51100000000E-03 0. -1.
</event>
<event>
 8    1  0.2001339E+004  0.1043930E+01  0.7957747E-01            NaN
         13   -1    0    0    0    0  0.00000000000E+00  0.00000000000E+00  0.74505805969E-08  0.10566000000E+00  0.10566000000E+00 0. -1.
     999900   -1    0    0    0    0 -0.00000000000E+00 -0.00000000000E+00 -0.74505805969E-08  0.93827000000E+00  0.93827000000E+00 0. -1.
     999902    2    1    2    0    0  0.95508938051E-02 -0.96134639710E-02  0.22630495176E-02  0.10301910170E+01  0.10300993990E+01 0.  0.
     999903    2    3    3    0    0 -0.55632031807E-01  0.95800205143E-01  0.70457333481E-01  0.13889347079E+00  0.45327233751E-01 0.  0.
         14    1    1    2    0    0 -0.95508938051E-02  0.96134639710E-02 -0.22630495176E-02  0.13738983045E-01  0.00000000000E+00 0.  1.
     999901    1    3    3    0    0  0.65182925612E-01 -0.10541366911E+00 -0.68194283963E-01  0.89129754616E+00  0.88000000000E+00 0. -1.
        -11    1    4    4    0    0 -0.47107762394E-01  0.36344725909E-01  0.38295013992E-01  0.70759095506E-01  0.51100000000E-03 0.  1.
         11    1    4    4    0    0 -0.85242694125E-02  0.59455479234E-01  0.32162319489E-01  0.68134375288E-01  0.51100000000E-03 0. -1.
</event>
<event>
 8    1  0.2001339E+004  0.1043930E+01  0.7957747E-01            NaN
         13   -1    0    0    0    0  0.00000000000E+00  0.00000000000E+00  0.74505805969E-08  0.10566000000E+00  0.10566000000E+00 0. -1.
     999900   -1    0    0    0    0 -0.00000000000E+00 -0.00000000000E+00 -0.74505805969E-08  0.93827000000E+00  0.93827000000E+00 0.  1.
     999902    2    1    2    0    0  0.10509556124E-01 -0.84462182855E-04  0.92065139800E-02  0.10299579635E+01  0.10298631894E+01 0.  0.
     999903    2    3    3    0    0 -0.11042095676E+00 -0.71138929706E-01  0.43467582458E-02  0.13883701576E+00  0.44758101250E-01 0.  0.
         14    1    1    2    0    0 -0.10509556124E-01  0.84462182855E-04 -0.92065139800E-02  0.13972036482E-01  0.00000000000E+00 0. -1.
     999901    1    3    3    0    0  0.12093051288E+00  0.71054467523E-01  0.48597557342E-02  0.89112094775E+00  0.88000000000E+00 0. -1.
        -11    1    4    4    0    0 -0.23993591342E-01 -0.33741056736E-01 -0.12322348146E-01  0.43200147222E-01  0.51100000000E-03 0. -1.
         11    1    4    4    0    0 -0.86427365417E-01 -0.37397872970E-01  0.16669106392E-01  0.95636868542E-01  0.51100000000E-03 0.  1.
</event>
<event>
 8    1  0.2001339E+004  0.1043930E+01  0.7957747E-01            NaN
         13   -1    0    0    0    0  0.00000000000E+00  0.00000000000E+00  0.74505805969E-08  0.10566000000E+00  0.10566000000E+00 0. -1.
     999900   -1    0    0    0    0 -0.00000000000E+00 -0.00000000000E+00 -0.74505805969E-08  0.93827000000E+00  0.93827000000E+00 0.  1.
     999902    2    1    2    0    0  0.13595339835E-01 -0.12857610895E-02 -0.22374823209E-02  0.10300919086E+01  0.10299989550E+01 0.  0.
     999903    2    3    3    0    0 -0.39565295720E-01 -0.92772658327E-01 -0.85690319763E-01  0.13983336096E+00  0.45148191315E-01 0.  0.
         14    1    1    2    0    0 -0.13595339835E-01  0.12857610895E-02  0.22374823209E-02  0.13838091413E-01  0.00000000000E+00 0.  1.
     999901    1    3    3    0    0  0.53160635555E-01  0.91486897237E-01  0.83452837442E-01  0.89025854762E+00  0.88000000000E+00 0. -1.
        -11    1    4    4    0    0 -0.10691295346E-01 -0.29190449486E-02 -0.25722436663E-01  0.28013023551E-01  0.51100000000E-03 0.  1.
         11    1    4    4    0    0 -0.28874000374E-01 -0.89853613378E-01 -0.59967883100E-01  0.11182033741E+00  0.51100000000E-03 0. -1.
</event>
<event>
 8    1  0.2001339E+004  0.1043930E+01  0.7957747E-01            NaN
         13   -1    0    0    0    0  0.00000000000E+00  0.00000000000E+00  0.74505805969E-08  0.10566000000E+00  0.10566000000E+00 0.  1.
     999900   -1    0    0    0    0 -0.00000000000E+00 -0.00000000000E+00 -0.74505805969E-08  0.93827000000E+00  0.93827000000E+00 0. -1.
     999902    2    1    2    0    0  0.15430638392E-01 -0.49029239930E-02  0.50321854168E-02  0.10269751731E+01  0.10268352059E+01 0.  0.
     999903    2    3    3    0    0  0.60396756141E-01  0.71531981948E-01  0.91443589949E-01  0.13830696876E+00  0.44747009623E-01 0.  0.
         14    1    1    2    0    0 -0.15430638392E-01  0.49029239930E-02 -0.50321854168E-02  0.16954826892E-01  0.00000000000E+00 0.  1.
     999901    1    3    3    0    0 -0.44966117749E-01 -0.76434905941E-01 -0.86411404532E-01  0.88866820435E+00  0.88000000000E+00 0. -1.
        -11    1    4    4    0    0  0.62148103734E-01  0.53965463537E-01  0.87657760278E-01  0.12024475918E+00  0.51100000000E-03 0. -1.
         11    1    4    4    0    0 -0.17513475931E-02  0.17566518410E-01  0.37858296706E-02  0.18062209575E-01  0.51100000000E-03 0.  1.
</event>
<event>
 8    1  0.2001339E+004  0.1043930E+01  0.7957747E-01            NaN
         13   -1    0    0    0    0  0.00000000000E+00  0.00000000000E+00  0.74505805969E-08  0.10566000000E+00  0.10566000000E+00 0.  1.
     999900   -1    0    0    0    0 -0.00000000000E+00 -0.00000000000E+00 -0.74505805969E-08  0.93827000000E+00  0.93827000000E+00 0. -1.
     999902    2    1    2    0    0 -0.19437017173E-02  0.96179334955E-02 -0.99091967534E-02  0.10299845778E+01  0.10298901668E+01 0.  0.
     999903    2    3    3    0    0 -0.12060468364E+00 -0.24926475330E-01  0.46465585325E-01  0.13956228420E+00  0.46387085109E-01 0.  0.
         14    1    1    2    0    0  0.19437017173E-02 -0.96179334955E-02  0.99091967534E-02  0.13945422238E-01  0.00000000000E+00 0.  1.
     999901    1    3    3    0    0  0.11866098192E+00  0.34544408826E-01 -0.56374782079E-01  0.89042229356E+00  0.88000000000E+00 0. -1.
        -11    1    4    4    0    0 -0.33316517464E-01  0.13516257678E-01  0.16695170909E-01  0.39644285972E-01  0.51100000000E-03 0. -1.
         11    1    4    4    0    0 -0.87288166174E-01 -0.38442733009E-01  0.29770414417E-01  0.99917998232E-01  0.51100000000E-03 0.  1.
</event>
<event>
 8    1  0.2001339E+004  0.1043930E+01  0.7957747E-01            NaN
         13   -1    0    0    0    0  0.00000000000E+00  0.00000000000E+00  0.74505805969E-08  0.10566000000E+00  0.10566000000E+00 0. -1.
     999900   -1    0    0    0    0 -0.00000000000E+00 -0.00000000000E+00 -0.74505805969E-08  0.93827000000E+00  0.93827000000E+00 0.  1.
     999902    2    1    2    0    0 -0.59384653333E-02  0.12492371412E-01  0.10215115781E-03  0.10300976051E+01  0.10300047286E+01 0.  0.
     999903    2    3    3    0    0  0.62147850916E-01  0.46672170842E-01  0.10809269345E+00  0.14022909662E+00  0.44040007451E-01 0.  0.
         14    1    1    2    0    0  0.59384653333E-02 -0.12492371412E-01 -0.10215115781E-03  0.13832394907E-01  0.00000000000E+00 0.  1.
     999901    1    3    3    0    0 -0.68086316250E-01 -0.34179799430E-01 -0.10799054229E+00  0.88986850847E+00  0.88000000000E+00 0.  1.
        -11    1    4    4    0    0  0.39774693650E-01  0.52591397614E-01  0.75330959820E-01  0.10011441448E+00  0.51100000000E-03 0. -1.
         11    1    4    4    0    0  0.22373157267E-01 -0.59192267726E-02  0.32761733631E-01  0.40114682140E-01  0.51100000000E-03 0.  1.
</event>
<event>
 8    1  0.2001339E+004  0.1043930E+01  0.7957747E-01            NaN
         13   -1    0    0    0    0  0.00000000000E+00  0.00000000000E+00  0.74505805969E-08  0.10566000000E+00  0.10566000000E+00 0.  1.
     999900   -1    0    0    0    0 -0.00000000000E+00 -0.00000000000E+00 -0.74505805969E-08  0.93827000000E+00  0.93827000000E+00 0.  1.
     999902    2    1    2    0    0  0.11856869639E-01  0.70173301805E-02  0.23011717220E-02  0.10299613325E+01  0.10298666044E+01 0.  0.
     999903    2    3    3    0    0 -0.85947556622E-01  0.49979646591E-01  0.87113573215E-01  0.13945326972E+00  0.44424005160E-01 0.  0.
         14    1    1    2    0    0 -0.11856869639E-01 -0.70173301805E-02 -0.23011717220E-02  0.13968667502E-01  0.00000000000E+00 0.  1.
     999901    1    3    3    0    0  0.97804426260E-01 -0.42962316410E-01 -0.84812401493E-01  0.89050806278E+00  0.88000000000E+00 0.  1.
        -11    1    4    4    0    0 -0.11282142212E-01 -0.31399837119E-02  0.28134775532E-01  0.30479057496E-01  0.51100000000E-03 0.  1.
         11    1    4    4    0    0 -0.74665414410E-01  0.53119630302E-01  0.58978797683E-01  0.10897421222E+00  0.51100000000E-03 0. -1.
</event>
<event>
 8    1  0.2001339E+004  0.1043930E+01  0.7957747E-01            NaN
         13   -1    0    0    0    0  0.00000000000E+00  0.00000000000E+00  0.74505805969E-08  0.10566000000E+00  0.10566000000E+00 0.  1.
     999900   -1    0    0    0    0 -0.00000000000E+00 -0.00000000000E+00 -0.74505805969E-08  0.93827000000E+00  0.93827000000E+00 0.  1.
     999902    2    1    2    0    0  0.12810131989E-01 -0.39386026988E-02 -0.34750369095E-02  0.10300848581E+01  0.10299918092E+01 0.  0.
     999903    2    3    3    0    0  0.29187398252E-01  0.11851405743E+00 -0.51774499646E-01  0.14014345164E+00  0.45410375470E-01 0.  0.
         14    1    1    2    0    0 -0.12810131989E-01  0.39386026988E-02  0.34750369095E-02  0.13845141903E-01  0.00000000000E+00 0.  1.
     999901    1    3    3    0    0 -0.16377266264E-01 -0.12245266013E+00  0.48299462736E-01  0.88994140645E+00  0.88000000000E+00 0. -1.
        -11    1    4    4    0    0  0.20818975261E-01  0.93093609918E-01 -0.18049748005E-01  0.97087097302E-01  0.51100000000E-03 0.  1.
         11    1    4    4    0    0  0.83684229911E-02  0.25420447508E-01 -0.33724751640E-01  0.43056354340E-01  0.51100000000E-03 0. -1.
</event>
<event>
 8    1  0.2001339E+004  0.1043930E+01  0.7957747E-01            NaN
         13   -1    0    0    0    0  0.00000000000E+00  0.00000000000E+00  0.74505805969E-08  0.10566000000E+00  0.10566000000E+00 0.  1.
     999900   -1    0    0    0    0 -0.00000000000E+00 -0.00000000000E+00 -0.74505805969E-08  0.93827000000E+00  0.93827000000E+00 0. -1.
     999902    2    1    2    0    0  0.37078407905E-02  0.50965025017E-03 -0.14320812011E-01  0.10291281932E+01  0.10290217416E+01 0.  0.
     999903    2    3    3    0    0  0.12745596990E+00  0.18912044540E-01 -0.33380102737E-01  0.14007504290E+00  0.43635956406E-01 0.  0.
         14    1    1    2    0    0 -0.37078407905E-02 -0.50965025017E-03  0.14320812011E-01  0.14801806760E-01  0.00000000000E+00 0.  1.
     999901    1    3    3    0    0 -0.12374812911E+00 -0.18402394290E-01  0.19059290725E-01  0.88905315034E+00  0.88000000000E+00 0.  1.
        -11    1    4    4    0    0  0.45145953133E-01 -0.13713881603E-01 -0.16145401615E-01  0.49871462253E-01  0.51100000000E-03 0. -1.
         11    1    4    4    0    0  0.82310016767E-01  0.32625926143E-01 -0.17234701121E-01  0.90203580642E-01  0.51100000000E-03 0.  1.
</event>
<event>
 8    1  0.2001339E+004  0.1043930E+01  0.7957747E-01            NaN
         13   -1    0    0    0    0  0.00000000000E+00  0.00000000000E+00  0.74505805969E-08  0.10566000000E+00  0.10566000000E+00 0. -1.
     999900   -1    0    0    0    0 -0.00000000000E+00 -0.00000000000E+00 -0.74505805969E-08  0.93827000000E+00  0.93827000000E+00 0. -1.
     999902    2    1    2    0    0  0.17375214116E-02  0.68741910864E-02  0.16510111662E-01  0.10259617705E+01  0.10258044147E+01 0.  0.
     999903    2    3    3    0    0 -0.17810235752E-01 -0.79252310583E-01  0.10153643106E+00  0.13746339455E+00  0.44591532601E-01 0.  0.
         14    1    1    2    0    0 -0.17375214116E-02 -0.68741910864E-02 -0.16510111662E-01  0.17968229486E-01  0.00000000000E+00 0.  1.
     999901    1    3    3    0    0  0.19547757164E-01  0.86126501670E-01 -0.85026319393E-01  0.88849837596E+00  0.88000000000E+00 0. -1.
        -11    1    4    4    0    0 -0.12354102599E-01 -0.84241967038E-01  0.91503365823E-01  0.12498983934E+00  0.51100000000E-03 0.  1.
         11    1    4    4    0    0 -0.54561331537E-02  0.49896564548E-02  0.10033065232E-01  0.12473555206E-01  0.51100000000E-03 0. -1.
</event>
<event>
 8    1  0.2001339E+004  0.1043930E+01  0.7957747E-01            NaN
         13   -1    0    0    0    0  0.00000000000E+00  0.00000000000E+00  0.74505805969E-08  0.10566000000E+00  0.10566000000E+00 0. -1.
     999900   -1    0    0    0    0 -0.00000000000E+00 -0.00000000000E+00 -0.74505805969E-08  0.93827000000E+00  0.93827000000E+00 0.  1.
     999902    2    1    2    0    0 -0.10447379648E-01 -0.39200450174E-02  0.69021515768E-02  0.10308092458E+01  0.10307257380E+01 0.  0.
     999903    2    3    3    0    0 -0.55043390891E-01 -0.17659376469E-01  0.12183032951E+00  0.14211016313E+00  0.44844629764E-01 0.  0.
         14    1    1    2    0    0  0.10447379648E-01  0.39200450174E-02 -0.69021515768E-02  0.13120754202E-01  0.00000000000E+00 0. -1.
     999901    1    3    3    0    0  0.44596011243E-01  0.13739331451E-01 -0.11492817793E+00  0.88869908267E+00  0.88000000000E+00 0.  1.
        -11    1    4    4    0    0  0.74895695429E-02 -0.15226428052E-02  0.21166447605E-01  0.22509813821E-01  0.51100000000E-03 0. -1.
         11    1    4    4    0    0 -0.62532960434E-01 -0.16136733664E-01  0.10066388191E+00  0.11960034931E+00  0.51100000000E-03 0.  1.
</event>
<event>
 8    1  0.2001339E+004  0.1043930E+01  0.7957747E-01            NaN
         13   -1    0    0    0    0  0.00000000000E+00  0.00000000000E+00  0.74505805969E-08  0.10566000000E+00  0.10566000000E+00 0.  1.
     999900   -1    0    0    0    0 -0.00000000000E+00 -0.00000000000E+00 -0.74505805969E-08  0.93827000000E+00  0.93827000000E+00 0. -1.
     999902    2    1    2    0    0  0.13934667319E-01 -0.20044695886E-02  0.57854572779E-02  0.10287094755E+01  0.10285968698E+01 0.  0.
     999903    2    3    3    0    0  0.47325194906E-01  0.52950597106E-01  0.11075997794E+00  0.14014060548E+00  0.48251184295E-01 0.  0.
         14    1    1    2    0    0 -0.13934667319E-01  0.20044695886E-02 -0.57854572779E-02  0.15220524549E-01  0.00000000000E+00 0.  1.
     999901    1    3    3    0    0 -0.33390527587E-01 -0.54955066695E-01 -0.10497452066E+00  0.88856886997E+00  0.88000000000E+00 0. -1.
        -11    1    4    4    0    0  0.52310002966E-01  0.49364813986E-01  0.75236026036E-01  0.10408622390E+00  0.51100000000E-03 0.  1.
         11    1    4    4    0    0 -0.49848080606E-02  0.35857831201E-02  0.35523951902E-01  0.36054381588E-01  0.51100000000E-03 0. -1.
</event>
<event>
 8    1  0.2001339E+004  0.1043930E+01  0.7957747E-01            NaN
         13   -1    0    0    0    0  0.00000000000E+00  0.00000000000E+00  0.74505805969E-08  0.10566000000E+00  0.10566000000E+00 0. -1.
     999900   -1    0    0    0    0 -0.00000000000E+00 -0.00000000000E+00 -0.74505805969E-08  0.93827000000E+00  0.93827000000E+00 0. -1.
     999902    2    1    2    0    0 -0.21976981507E-02 -0.85402021113E-02 -0.10833789503E-01  0.10299608939E+01  0.10298661598E+01 0.  0.
     999903    2    3    3    0    0  0.35198193174E-01 -0.49818495058E-02  0.12586450190E+00  0.13861498048E+00  0.45918496777E-01 0.  0.
         14    1    1    2    0    0  0.21976981507E-02  0.85402021113E-02  0.10833789503E-01  0.13969106065E-01  0.00000000000E+00 0. -1.
     999901    1    3    3    0    0 -0.37395891325E-01 -0.35583526056E-02 -0.13669829141E+00  0.89134591346E+00  0.88000000000E+00 0. -1.
        -11    1    4    4    0    0  0.10123447393E-01  0.25530948825E-02  0.41481180350E-03  0.10461150531E-01  0.51100000000E-03 0. -1.
         11    1    4    4    0    0  0.25074745782E-01 -0.75349443883E-02  0.12544969010E+00  0.12815382995E+00  0.51100000000E-03 0.  1.
</event>
<event>
 8    1  0.2001339E+004  0.1043930E+01  0.7957747E-01            NaN
         13   -1    0    0    0    0  0.00000000000E+00  0.00000000000E+00  0.74505805969E-08  0.10566000000E+00  0.10566000000E+00 0. -1.
     999900   -1    0    0    0    0 -0.00000000000E+00 -0.00000000000E+00 -0.74505805969E-08  0.93827000000E+00  0.93827000000E+00 0.  1.
     999902    2    1    2    0    0  0.63735177306E-02 -0.17203369643E-02  0.12085365803E-01  0.10301591121E+01  0.10300670652E+01 0.  0.
     999903    2    3    3    0    0  0.56178051890E-01 -0.27015955520E-01  0.11924595969E+00  0.14190027997E+00  0.45058353135E-01 0.  0.
         14    1    1    2    0    0 -0.63735177306E-02  0.17203369643E-02 -0.12085365803E-01  0.13770887920E-01  0.00000000000E+00 0.  1.
     999901    1    3    3    0    0 -0.49804534159E-01  0.25295618556E-01 -0.10716059388E+00  0.88825883211E+00  0.88000000000E+00 0.  1.
        -11    1    4    4    0    0  0.40019356588E-01 -0.33397228845E-01  0.11106801412E+00  0.12269184438E+00  0.51100000000E-03 0. -1.
         11    1    4    4    0    0  0.16158695302E-01  0.63812733249E-02  0.81779455687E-02  0.19208435591E-01  0.51100000000E-03 0.  1.
</event>
<event>
 8    1  0.2001339E+004  0.1043930E+01  0.7957747E-01            NaN
         13   -1    0    0    0    0  0.00000000000E+00  0.00000000000E+00  0.74505805969E-08  0.10566000000E+00  0.10566000000E+00 0.  1.
     999900   -1    0    0    0    0 -0.00000000000E+00 -0.00000000000E+00 -0.74505805969E-08  0.93827000000E+00  0.93827000000E+00 0. -1.
     999902    2    1    2    0    0  0.97229014668E-02  0.90938406439E-02 -0.90642950191E-04  0.10306168123E+01  0.10305308209E+01 0.  0.
     999903    2    3    3    0    0  0.22036382370E-02 -0.96304071884E-01 -0.90408430348E-01  0.13970572695E+00  0.45438701354E-01 0.  0.
         14    1    1    2    0    0 -0.97229014668E-02 -0.90938406439E-02  0.90642950191E-04  0.13313187700E-01  0.00000000000E+00 0.  1.
     999901    1    3    3    0    0  0.75192632297E-02  0.10539791253E+00  0.90317787398E-01  0.89091108535E+00  0.88000000000E+00 0.  1.
        -11    1    4    4    0    0 -0.79604018860E-02 -0.44625835665E-01 -0.69625137451E-01  0.83082814668E-01  0.51100000000E-03 0.  1.
         11    1    4    4    0    0  0.10164040123E-01 -0.51678236219E-01 -0.20783292897E-01  0.56622912279E-01  0.51100000000E-03 0. -1.
</event>
<event>
 8    1  0.2001339E+004  0.1043930E+01  0.7957747E-01            NaN
         13   -1    0    0    0    0  0.00000000000E+00  0.00000000000E+00  0.74505805969E-08  0.10566000000E+00  0.10566000000E+00 0. -1.
     999900   -1    0    0    0    0 -0.00000000000E+00 -0.00000000000E+00 -0.74505805969E-08  0.93827000000E+00  0.93827000000E+00 0.  1.
     999902    2    1    2    0    0  0.65200610349E-02 -0.75500569119E-02 -0.92131497453E-02  0.10303507260E+01  0.10302612396E+01 0.  0.
     999903    2    3    3    0    0 -0.12610469866E+00  0.36469516544E-01  0.11022697014E-01  0.13909512893E+00  0.44649013226E-01 0.  0.
         14    1    1    2    0    0 -0.65200610349E-02  0.75500569119E-02  0.92131497453E-02  0.13579274042E-01  0.00000000000E+00 0. -1.
     999901    1    3    3    0    0  0.13262475970E+00 -0.44019573456E-01 -0.20235846760E-01  0.89125559702E+00  0.88000000000E+00 0.  1.
        -11    1    4    4    0    0 -0.95283301879E-02  0.17194714278E-01  0.69762620281E-02  0.20865680630E-01  0.51100000000E-03 0. -1.
         11    1    4    4    0    0 -0.11657636847E+00  0.19274802266E-01  0.40464349863E-02  0.11822944830E+00  0.51100000000E-03 0.  1.
</event>
<event>
 8    1  0.2001339E+004  0.1043930E+01  0.7957747E-01            NaN
         13   -1    0    0    0    0  0.00000000000E+00  0.00000000000E+00  0.74505805969E-08  0.10566000000E+00  0.10566000000E+00 0. -1.
     999900   -1    0    0    0    0 -0.00000000000E+00 -0.00000000000E+00 -0.74505805969E-08  0.93827000000E+00  0.93827000000E+00 0.  1.
     999902    2    1    2    0    0  0.10772318552E-01 -0.80637692259E-02  0.44374472169E-02  0.10297610848E+01  0.10296636021E+01 0.  0.
     999903    2    3    3    0    0 -0.12925032512E+00  0.16579040509E-01 -0.83663291978E-02  0.13825811477E+00  0.45440067214E-01 0.  0.
         14    1    1    2    0    0 -0.10772318552E-01  0.80637692259E-02 -0.44374472169E-02  0.14168915235E-01  0.00000000000E+00 0.  1.
     999901    1    3    3    0    0  0.14002264367E+00 -0.24642809735E-01  0.12803776415E-01  0.89150296999E+00  0.88000000000E+00 0. -1.
        -11    1    4    4    0    0 -0.53901976813E-01 -0.13914666394E-01  0.49382248659E-02  0.55889965387E-01  0.51100000000E-03 0. -1.
         11    1    4    4    0    0 -0.75348348309E-01  0.30493706903E-01 -0.13304554064E-01  0.82368149387E-01  0.51100000000E-03 0.  1.
</event>
<event>
 8    1  0.2001339E+004  0.1043930E+01  0.7957747E-01            NaN
         13   -1    0    0    0    0  0.00000000000E+00  0.00000000000E+00  0.74505805969E-08  0.10566000000E+00  0.10566000000E+00 0.  1.
     999900   -1    0    0    0    0 -0.00000000000E+00 -0.00000000000E+00 -0.74505805969E-08  0.93827000000E+00  0.93827000000E+00 0.  1.
     999902    2    1    2    0    0  0.14885566207E-01 -0.62377462833E-02  0.89823863391E-03  0.10277653351E+01  0.10276382085E+01 0.  0.
     999903    2    3    3    0    0  0.76830672942E-01  0.66685632275E-01  0.82996625374E-01  0.13877986808E+00  0.44960939773E-01 0.  0.
         14    1    1    2    0    0 -0.14885566207E-01  0.62377462833E-02 -0.89823863391E-03  0.16164664940E-01  0.00000000000E+00 0. -1.
     999901    1    3    3    0    0 -0.61945106735E-01 -0.72923378558E-01 -0.82098386740E-01  0.88898546698E+00  0.88000000000E+00 0.  1.
        -11    1    4    4    0    0  0.54708049027E-01  0.62060454939E-01  0.44003010111E-01  0.93706972608E-01  0.51100000000E-03 0.  1.
         11    1    4    4    0    0  0.22122623915E-01  0.46251773360E-02  0.38993615263E-01  0.45072895476E-01  0.51100000000E-03 0. -1.
</event>
<event>
 8    1  0.2001339E+004  0.1043930E+01  0.7957747E-01            NaN
         13   -1    0    0    0    0  0.00000000000E+00  0.00000000000E+00  0.74505805969E-08  0.10566000000E+00  0.10566000000E+00 0.  1.
     999900   -1    0    0    0    0 -0.00000000000E+00 -0.00000000000E+00 -0.74505805969E-08  0.93827000000E+00  0.93827000000E+00 0. -1.
     999902    2    1    2    0    0  0.10367130365E-02 -0.50384653472E-02 -0.11432511256E-01  0.10313935244E+01  0.10313173318E+01 0.  0.
     999903    2    3    3    0    0  0.55211378254E-01 -0.22408462690E-02  0.12040622146E+00  0.13992048921E+00  0.45019634080E-01 0.  0.
         14    1    1    2    0    0 -0.10367130365E-02  0.50384653472E-02  0.11432511256E-01  0.12536475605E-01  0.00000000000E+00 0.  1.
     999901    1    3    3    0    0 -0.54174665217E-01 -0.27976190782E-02 -0.13183873272E+00  0.89147303519E+00  0.88000000000E+00 0. -1.
        -11    1    4    4    0    0  0.20863773356E-01  0.49261544014E-02  0.92874884208E-01  0.95318252573E-01  0.51100000000E-03 0. -1.
         11    1    4    4    0    0  0.34347604898E-01 -0.71670006704E-02  0.27531337252E-01  0.44602236634E-01  0.51100000000E-03 0.  1.
</event>
<event>
 8    1  0.2001339E+004  0.1043930E+01  0.7957747E-01            NaN
         13   -1    0    0    0    0  0.00000000000E+00  0.00000000000E+00  0.74505805969E-08  0.10566000000E+00  0.10566000000E+00 0.  1.
     999900   -1    0    0    0    0 -0.00000000000E+00 -0.00000000000E+00 -0.74505805969E-08  0.93827000000E+00  0.93827000000E+00 0. -1.
     999902    2    1    2    0    0 -0.72587568380E-03  0.38143378035E-02  0.11987052279E-01  0.10313297821E+01  0.10312528080E+01 0.  0.
     999903    2    3    3    0    0  0.46805851399E-01 -0.15524195152E-01 -0.12258231638E+00  0.13962234191E+00  0.45124114518E-01 0.  0.
         14    1    1    2    0    0  0.72587568380E-03 -0.38143378035E-02 -0.11987052279E-01  0.12600217884E-01  0.00000000000E+00 0. -1.
     999901    1    3    3    0    0 -0.47531727082E-01  0.19338532956E-01  0.13456936866E+00  0.89170744021E+00  0.88000000000E+00 0.  1.
        -11    1    4    4    0    0  0.12946663321E-01  0.15711369813E-01 -0.44983748764E-01  0.49378760681E-01  0.51100000000E-03 0.  1.
         11    1    4    4    0    0  0.33859188078E-01 -0.31235564965E-01 -0.77598567617E-01  0.90243581229E-01  0.51100000000E-03 0. -1.
</event>
<event>
 8    1  0.2001339E+004  0.1043930E+01  0.7957747E-01            NaN
         13   -1    0    0    0    0  0.00000000000E+00  0.00000000000E+00  0.74505805969E-08  0.10566000000E+00  0.10566000000E+00 0.  1.
     999900   -1    0    0    0    0 -0.00000000000E+00 -0.00000000000E+00 -0.74505805969E-08  0.93827000000E+00  0.93827000000E+00 0.  1.
     999902    2    1    2    0    0  0.41503156144E-04 -0.32576538657E-03 -0.13026851836E-01  0.10308990095E+01  0.10308166476E+01 0.  0.
     999903    2    3    3    0    0  0.11081041992E+00 -0.60625963098E-01  0.42889343243E-01  0.14015073546E+00  0.42991584310E-01 0.  0.
         14    1    1    2    0    0 -0.41503156144E-04  0.32576538657E-03  0.13026851836E-01  0.13030990536E-01  0.00000000000E+00 0.  1.
     999901    1    3    3    0    0 -0.11076891677E+00  0.60300197711E-01 -0.55916195078E-01  0.89074827400E+00  0.88000000000E+00 0.  1.
        -11    1    4    4    0    0  0.33434739574E-01 -0.15148925254E-01  0.33867642892E-01  0.49946472376E-01  0.51100000000E-03 0.  1.
         11    1    4    4    0    0  0.77375680350E-01 -0.45477037843E-01  0.90217003506E-02  0.90204263086E-01  0.51100000000E-03 0. -1.
</event>
<event>
 8    1  0.2001339E+004  0.1043930E+01  0.7957747E-01            NaN
         13   -1    0    0    0    0  0.00000000000E+00  0.00000000000E+00  0.74505805969E-08  0.10566000000E+00  0.10566000000E+00 0. -1.
     999900   -1    0    0    0    0 -0.00000000000E+00 -0.00000000000E+00 -0.74505805969E-08  0.93827000000E+00  0.93827000000E+00 0.  1.
     999902    2    1    2    0    0  0.13241187681E-01  0.34866102812E-03 -0.13425869969E-02  0.10306163545E+01  0.10305303572E+01 0.  0.
     999903    2    3    3    0    0  0.11995041066E+00 -0.21518008023E-01  0.56543892827E-01  0.14201303807E+00  0.46036566751E-01 0.  0.
         14    1    1    2    0    0 -0.13241187681E-01 -0.34866102812E-03  0.13425869969E-02  0.13313645465E-01  0.00000000000E+00 0. -1.
     999901    1    3    3    0    0 -0.10670922298E+00  0.21866669051E-01 -0.57886479824E-01  0.88860331646E+00  0.88000000000E+00 0.  1.
        -11    1    4    4    0    0  0.63496357251E-01 -0.32037948285E-01  0.42640655606E-01  0.82925895509E-01  0.51100000000E-03 0. -1.
         11    1    4    4    0    0  0.56454053413E-01  0.10519940262E-01  0.13903237221E-01  0.59087142562E-01  0.51100000000E-03 0.  1.
</event>
<event>
 8    1  0.2001339E+004  0.1043930E+01  0.7957747E-01            NaN
         13   -1    0    0    0    0  0.00000000000E+00  0.00000000000E+00  0.74505805969E-08  0.10566000000E+00  0.10566000000E+00 0. -1.
     999900   -1    0    0    0    0 -0.00000000000E+00 -0.00000000000E+00 -0.74505805969E-08  0.93827000000E+00  0.93827000000E+00 0.  1.
     999902    2    1    2    0    0  0.28258275849E-02 -0.14504062316E-02 -0.13640008650E-01  0.10299250432E+01  0.10298298188E+01 0.  0.
     999903    2    3    3    0    0 -0.85087102774E-01  0.96648868237E-01  0.28698978142E-01  0.13911376081E+00  0.44138286231E-01 0.  0.
         14    1    1    2    0    0 -0.28258275849E-02  0.14504062316E-02  0.13640008650E-01  0.14004956827E-01  0.00000000000E+00 0. -1.
     999901    1    3    3    0    0  0.87912930359E-01 -0.98099274468E-01 -0.42338986792E-01  0.89081128236E+00  0.88000000000E+00 0. -1.
        -11    1    4    4    0    0 -0.76424582283E-01  0.69503323166E-01  0.36506813146E-01  0.10956476274E+00  0.51100000000E-03 0.  1.
         11    1    4    4    0    0 -0.86625204911E-02  0.27145545071E-01 -0.78078350032E-02  0.29548998069E-01  0.51100000000E-03 0. -1.
</event>
<event>
 8    1  0.2001339E+004  0.1043930E+01  0.7957747E-01            NaN
         13   -1    0    0    0    0  0.00000000000E+00  0.00000000000E+00  0.74505805969E-08  0.10566000000E+00  0.10566000000E+00 0.  1.
     999900   -1    0    0    0    0 -0.00000000000E+00 -0.00000000000E+00 -0.74505805969E-08  0.93827000000E+00  0.93827000000E+00 0. -1.
     999902    2    1    2    0    0  0.50158625011E-02 -0.12815210609E-01  0.40065643089E-02  0.10295967848E+01  0.10294970123E+01 0.  0.
     999903    2    3    3    0    0  0.21783328333E-01  0.12218233100E+00  0.41093188952E-01  0.13837240125E+00  0.45334709092E-01 0.  0.
         14    1    1    2    0    0 -0.50158625011E-02  0.12815210609E-01 -0.40065643089E-02  0.14333215172E-01  0.00000000000E+00 0. -1.
     999901    1    3    3    0    0 -0.16767465832E-01 -0.13499754161E+00 -0.37086624643E-01  0.89122438357E+00  0.88000000000E+00 0.  1.
        -11    1    4    4    0    0  0.14169721807E-01  0.31570633560E-01 -0.72919990581E-02  0.35368351541E-01  0.51100000000E-03 0. -1.
         11    1    4    4    0    0  0.76136065260E-02  0.90611697440E-01  0.48385188010E-01  0.10300404971E+00  0.51100000000E-03 0.  1.
</event>
<event>
 8    1  0.2001339E+004  0.1043930E+01  0.7957747E-01            NaN
         13   -1    0    0    0    0  0.00000000000E+00  0.00000000000E+00  0.74505805969E-08  0.10566000000E+00  0.10566000000E+00 0.  1.
     999900   -1    0    0    0    0 -0.00000000000E+00 -0.00000000000E+00 -0.74505805969E-08  0.93827000000E+00  0.93827000000E+00 0. -1.
     999902    2    1    2    0    0 -0.62147054463E-02  0.12391101331E-03 -0.12505879158E-01  0.10299645093E+01  0.10298698245E+01 0.  0.
     999903    2    3    3    0    0  0.65058031174E-01  0.78964409100E-01 -0.85197635109E-01  0.14059410359E+00  0.45167904656E-01 0.  0.
         14    1    1    2    0    0  0.62147054463E-02 -0.12391101331E-03  0.12505879158E-01  0.13965490727E-01  0.00000000000E+00 0.  1.
     999901    1    3    3    0    0 -0.71272736620E-01 -0.78840498087E-01  0.72691755950E-01  0.88937040568E+00  0.88000000000E+00 0.  1.
        -11    1    4    4    0    0  0.57516250134E-01  0.43206762032E-01 -0.71880238984E-01  0.10169549249E+00  0.51100000000E-03 0.  1.
         11    1    4    4    0    0  0.75417810395E-02  0.35757647068E-01 -0.13317396124E-01  0.38898611101E-01  0.51100000000E-03 0. -1.
</event>
<event>
 8    1  0.2030576E+004  0.1043930E+01  0.7957747E-01            NaN
         13   -1    0    0    0    0  0.00000000000E+00  0.00000000000E+00  0.74505805969E-08  0.10566000000E+00  0.10566000000E+00 0.  1.
     999900   -1    0    0    0    0 -0.00000000000E+00 -0.00000000000E+00 -0.74505805969E-08  0.93827000000E+00  0.93827000000E+00 0.  1.
     999902    2    1    2    0    0 -0.14590438693E-02  0.13646842082E-01  0.19031799032E-02  0.10300740554E+01  0.10299808602E+01 0.  0.
     999903    2    3    3    0    0 -0.33506834014E-01  0.12463723939E+00  0.40850725131E-01  0.14166939508E+00  0.41764654778E-01 0.  0.
         14    1    1    2    0    0  0.14590438693E-02 -0.13646842082E-01 -0.19031799032E-02  0.13855944630E-01  0.00000000000E+00 0.  1.
     999901    1    3    3    0    0  0.32047790145E-01 -0.11099039731E+00 -0.38947545228E-01  0.88840466029E+00  0.88000000000E+00 0.  1.
        -11    1    4    4    0    0 -0.33194395236E-01  0.45531371938E-01  0.13264978201E-01  0.57889502272E-01  0.51100000000E-03 0. -1.
         11    1    4    4    0    0 -0.31243877821E-03  0.79105867456E-01  0.27585746931E-01  0.83779892807E-01  0.51100000000E-03 0.  1.
</event>
<event>
 8    1  0.2001339E+004  0.1043930E+01  0.7957747E-01            NaN
         13   -1    0    0    0    0  0.00000000000E+00  0.00000000000E+00  0.74505805969E-08  0.10566000000E+00  0.10566000000E+00 0. -1.
     999900   -1    0    0    0    0 -0.00000000000E+00 -0.00000000000E+00 -0.74505805969E-08  0.93827000000E+00  0.93827000000E+00 0.  1.
     999902    2    1    2    0    0  0.82704824135E-02 -0.11272914554E-01 -0.19998702718E-02  0.10298062978E+01  0.10297094406E+01 0.  0.
     999903    2    3    3    0    0  0.11536842250E+00  0.18376995822E-01 -0.64027182023E-01  0.14065137693E+00  0.45119207764E-01 0.  0.
         14    1    1    2    0    0 -0.82704824135E-02  0.11272914554E-01  0.19998702718E-02  0.14123702170E-01  0.00000000000E+00 0. -1.
     999901    1    3    3    0    0 -0.10709794009E+00 -0.29649910376E-01  0.62027311751E-01  0.88915492090E+00  0.88000000000E+00 0. -1.
        -11    1    4    4    0    0  0.50470163331E-01  0.11764601155E-01 -0.39661125551E-02  0.51977248838E-01  0.51100000000E-03 0.  1.
         11    1    4    4    0    0  0.64898259168E-01  0.66123946667E-02 -0.60061069468E-01  0.88674128092E-01  0.51100000000E-03 0. -1.
</event>
<event>
 7    1  0.2001339E+004  0.1043930E+01  0.7957747E-01            NaN
         13   -1    0    0    0    0  0.00000000000E+00  0.00000000000E+00  0.74505805969E-08  0.10566000000E+00  0.10566000000E+00 0. -1.
     999900   -1    0    0    0    0 -0.00000000000E+00 -0.00000000000E+00 -0.74505805969E-08  0.93827000000E+00  0.93827000000E+00 0.  1.
     999903    2    1    2    0    0  0.46309089655E-01 -0.82353106373E-01 -0.72348548695E-01  0.12789955431E+00  0.46876620826E-01 0.  0.
         14    1    1    2    0    0 -0.19494815188E-01 -0.10650351500E-01  0.18806000601E-01  0.29105729073E-01  0.00000000000E+00 0. -1.
     999901    1    1    2    0    0 -0.26814274468E-01  0.93003457873E-01  0.53542548094E-01  0.88692471662E+00  0.88000000000E+00 0. -1.
        -11    1    3    3    0    0  0.27516512559E-01 -0.21259834238E-01 -0.48490567525E-01  0.59671896862E-01  0.51100000000E-03 0. -1.
         11    1    3    3    0    0  0.18792577096E-01 -0.61093272135E-01 -0.23857981170E-01  0.68227657446E-01  0.51100000000E-03 0.  1.
</event>
<event>
 8    1  0.2001339E+004  0.1043930E+01  0.7957747E-01            NaN
         13   -1    0    0    0    0  0.00000000000E+00  0.00000000000E+00  0.74505805969E-08  0.10566000000E+00  0.10566000000E+00 0.  1.
     999900   -1    0    0    0    0 -0.00000000000E+00 -0.00000000000E+00 -0.74505805969E-08  0.93827000000E+00  0.93827000000E+00 0. -1.
     999902    2    1    2    0    0 -0.11602846182E-01  0.56897192857E-02  0.39524729299E-02  0.10304162667E+01  0.10303276478E+01 0.  0.
     999903    2    3    3    0    0 -0.40293380101E-01 -0.90271507831E-01 -0.88209126808E-01  0.13995264347E+00  0.45093134259E-01 0.  0.
         14    1    1    2    0    0  0.11602846182E-01 -0.56897192857E-02 -0.39524729299E-02  0.13513733286E-01  0.00000000000E+00 0. -1.
     999901    1    3    3    0    0  0.28690533919E-01  0.95961227117E-01  0.92161599738E-01  0.89046362324E+00  0.88000000000E+00 0.  1.
        -11    1    4    4    0    0 -0.21557354100E-01 -0.86531982844E-01 -0.68074259617E-01  0.11219121852E+00  0.51100000000E-03 0. -1.
         11    1    4    4    0    0 -0.18736026001E-01 -0.37395249867E-02 -0.20134867191E-01  0.27761424950E-01  0.51100000000E-03 0.  1.
</event>
<event>
 8    1  0.2001339E+004  0.1043930E+01  0.7957747E-01            NaN
         13   -1    0    0    0    0  0.00000000000E+00  0.00000000000E+00  0.74505805969E-08  0.10566000000E+00  0.10566000000E+00 0.  1.
     999900   -1    0    0    0    0 -0.00000000000E+00 -0.00000000000E+00 -0.74505805969E-08  0.93827000000E+00  0.93827000000E+00 0. -1.
     999902    2    1    2    0    0  0.44804166932E-02 -0.11175954115E-01  0.21946614644E-02  0.10316910203E+01  0.10316184221E+01 0.  0.
     999903    2    3    3    0    0 -0.94742541933E-01 -0.80696491840E-01 -0.50746101614E-01  0.14181404846E+00  0.45254662361E-01 0.  0.
         14    1    1    2    0    0 -0.44804166932E-02  0.11175954115E-01 -0.21946614644E-02  0.12238979658E-01  0.00000000000E+00 0. -1.
     999901    1    3    3    0    0  0.99222958626E-01  0.69520537724E-01  0.52940763078E-01  0.88987697188E+00  0.88000000000E+00 0.  1.
        -11    1    4    4    0    0 -0.77538043847E-01 -0.37945387276E-01 -0.32197541688E-01  0.92135462613E-01  0.51100000000E-03 0. -1.
         11    1    4    4    0    0 -0.17204498086E-01 -0.42751104563E-01 -0.18548559926E-01  0.49678585850E-01  0.51100000000E-03 0.  1.
</event>
<event>
 8    1  0.2001339E+004  0.1043930E+01  0.7957747E-01            NaN
         13   -1    0    0    0    0  0.00000000000E+00  0.00000000000E+00  0.74505805969E-08  0.10566000000E+00  0.10566000000E+00 0. -1.
     999900   -1    0    0    0    0 -0.00000000000E+00 -0.00000000000E+00 -0.74505805969E-08  0.93827000000E+00  0.93827000000E+00 0.  1.
     999902    2    1    2    0    0  0.69191332835E-02 -0.37390630290E-02  0.11838625901E-01  0.10297170460E+01  0.10296189522E+01 0.  0.
     999903    2    3    3    0    0 -0.10300669041E+00  0.62019334132E-01 -0.51209845741E-01  0.13821103746E+00  0.44978511537E-01 0.  0.
         14    1    1    2    0    0 -0.69191332835E-02  0.37390630290E-02 -0.11838625901E-01  0.14212953984E-01  0.00000000000E+00 0.  1.
     999901    1    3    3    0    0  0.10992582369E+00 -0.65758397161E-01  0.63048471643E-01  0.89150600855E+00  0.88000000000E+00 0. -1.
        -11    1    4    4    0    0 -0.75941956188E-02  0.19189818322E-01  0.22281308961E-02  0.20764070473E-01  0.51100000000E-03 0. -1.
         11    1    4    4    0    0 -0.95412494791E-01  0.42829515810E-01 -0.53437976637E-01  0.11744696699E+00  0.51100000000E-03 0.  1.
</event>
<event>
 7    1  0.2516277E+004  0.1043930E+01  0.7957747E-01            NaN
         13   -1    0    0    0    0  0.00000000000E+00  0.00000000000E+00  0.74505805969E-08  0.10566000000E+00  0.10566000000E+00 0. -1.
     999900   -1    0    0    0    0 -0.00000000000E+00 -0.00000000000E+00 -0.74505805969E-08  0.93827000000E+00  0.93827000000E+00 0.  1.
     999903    2    1    2    0    0  0.80125850684E-01 -0.13695376783E-01 -0.66263909127E-01  0.11423135854E+00  0.45278939119E-01 0.  0.
         14    1    1    2    0    0 -0.43386393021E-01  0.11650424367E-01 -0.86533469164E-02  0.45749228410E-01  0.00000000000E+00 0. -1.
     999901    1    1    2    0    0 -0.36739457663E-01  0.20449524155E-02  0.74917256044E-01  0.88394941305E+00  0.88000000000E+00 0. -1.
        -11    1    3    3    0    0  0.69487357036E-01  0.66122963604E-02 -0.53812354751E-01  0.88137653110E-01  0.51100000000E-03 0.  1.
         11    1    3    3    0    0  0.10638493649E-01 -0.20307673143E-01 -0.12451554376E-01  0.26093705429E-01  0.51100000000E-03 0. -1.
</event>
<event>
 7    1  0.3301871E+004  0.1043930E+01  0.7957747E-01            NaN
         13   -1    0    0    0    0  0.00000000000E+00  0.00000000000E+00  0.74505805969E-08  0.10566000000E+00  0.10566000000E+00 0. -1.
     999900   -1    0    0    0    0 -0.00000000000E+00 -0.00000000000E+00 -0.74505805969E-08  0.93827000000E+00  0.93827000000E+00 0. -1.
     999903    2    1    2    0    0  0.29185748918E-02 -0.57682032171E-01  0.20999097907E-01  0.75955525965E-01  0.44637931144E-01 0.  0.
         14    1    1    2    0    0  0.31926275044E-01 -0.54621357053E-01  0.45099198997E-01  0.77696315451E-01  0.00000000000E+00 0. -1.
     999901    1    1    2    0    0 -0.34844849936E-01  0.11230338922E+00 -0.66098296904E-01  0.89027815858E+00  0.88000000000E+00 0. -1.
        -11    1    3    3    0    0 -0.69753353425E-02 -0.35459612500E-01  0.32896140253E-01  0.48871838377E-01  0.51100000000E-03 0.  1.
         11    1    3    3    0    0  0.98939102343E-02 -0.22222419671E-01 -0.11897042346E-01  0.27083687588E-01  0.51100000000E-03 0. -1.
</event>
<event>
 8    1  0.2001339E+004  0.1043930E+01  0.7957747E-01            NaN
         13   -1    0    0    0    0  0.00000000000E+00  0.00000000000E+00  0.74505805969E-08  0.10566000000E+00  0.10566000000E+00 0. -1.
     999900   -1    0    0    0    0 -0.00000000000E+00 -0.00000000000E+00 -0.74505805969E-08  0.93827000000E+00  0.93827000000E+00 0. -1.
     999902    2    1    2    0    0  0.15352976368E-03 -0.11109278615E-01  0.61386075037E-02  0.10312366102E+01  0.10311584864E+01 0.  0.
     999903    2    3    3    0    0 -0.23221504521E-01 -0.48359171372E-02  0.13350471235E+00  0.14173794692E+00  0.41273635807E-01 0.  0.
         14    1    1    2    0    0 -0.15352976368E-03  0.11109278615E-01 -0.61386075037E-02  0.12693389808E-01  0.00000000000E+00 0.  1.
     999901    1    3    3    0    0  0.23375034284E-01 -0.62733614776E-02 -0.12736610484E+00  0.88949866327E+00  0.88000000000E+00 0. -1.
        -11    1    4    4    0    0 -0.24243377759E-01  0.12992845711E-02  0.32650592206E-01  0.40690930168E-01  0.51100000000E-03 0.  1.
         11    1    4    4    0    0  0.10218732382E-02 -0.61352017083E-02  0.10085412014E+00  0.10104701676E+00  0.51100000000E-03 0. -1.
</event>
<event>
 8    1  0.2001339E+004  0.1043930E+01  0.7957747E-01            NaN
         13   -1    0    0    0    0  0.00000000000E+00  0.00000000000E+00  0.74505805969E-08  0.10566000000E+00  0.10566000000E+00 0. -1.
     999900   -1    0    0    0    0 -0.00000000000E+00 -0.00000000000E+00 -0.74505805969E-08  0.93827000000E+00  0.93827000000E+00 0. -1.
     999902    2    1    2    0    0 -0.56421436937E-02  0.16532583814E-01  0.22965437925E-02  0.10263108563E+01  0.10261596072E+01 0.  0.
     999903    2    3    3    0    0  0.72683707612E-01 -0.94474297534E-01 -0.44791595455E-01  0.13464120916E+00  0.43745330422E-01 0.  0.
         14    1    1    2    0    0  0.56421436937E-02 -0.16532583814E-01 -0.22965437925E-02  0.17619143748E-01  0.00000000000E+00 0.  1.
     999901    1    3    3    0    0 -0.78325851306E-01  0.11100688135E+00  0.47088139248E-01  0.89166964709E+00  0.88000000000E+00 0.  1.
        -11    1    4    4    0    0  0.98334229407E-02 -0.17156431829E-01  0.86303758625E-02  0.21582026512E-01  0.51100000000E-03 0.  1.
         11    1    4    4    0    0  0.62850284671E-01 -0.77317865705E-01 -0.53421971318E-01  0.11305918265E+00  0.51100000000E-03 0. -1.
</event>
<event>
 8    1  0.2001339E+004  0.1043930E+01  0.7957747E-01            NaN
         13   -1    0    0    0    0  0.00000000000E+00  0.00000000000E+00  0.74505805969E-08  0.10566000000E+00  0.10566000000E+00 0.  1.
     999900   -1    0    0    0    0 -0.00000000000E+00 -0.00000000000E+00 -0.74505805969E-08  0.93827000000E+00  0.93827000000E+00 0. -1.
     999902    2    1    2    0    0 -0.13170986408E-01  0.43272972313E-02  0.39581398273E-02  0.10295123977E+01  0.10294114386E+01 0.  0.
     999903    2    3    3    0    0  0.40104218985E-02 -0.46522283252E-01 -0.12221113421E+00  0.13889487806E+00  0.46645680445E-01 0.  0.
         14    1    1    2    0    0  0.13170986408E-01 -0.43272972313E-02 -0.39581398273E-02  0.14417602269E-01  0.00000000000E+00 0. -1.
     999901    1    3    3    0    0 -0.17181408306E-01  0.50849580484E-01  0.12616927404E+00  0.89061751967E+00  0.88000000000E+00 0.  1.
        -11    1    4    4    0    0 -0.96423324453E-02 -0.13469652166E-01 -0.87498101153E-01  0.89053831646E-01  0.51100000000E-03 0. -1.
         11    1    4    4    0    0  0.13652754344E-01 -0.33052631086E-01 -0.34713033060E-01  0.49841046418E-01  0.51100000000E-03 0.  1.
</event>
<event>
 8    1  0.2001339E+004  0.1043930E+01  0.7957747E-01            NaN
         13   -1    0    0    0    0  0.00000000000E+00  0.00000000000E+00  0.74505805969E-08  0.10566000000E+00  0.10566000000E+00 0. -1.
     999900   -1    0    0    0    0 -0.00000000000E+00 -0.00000000000E+00 -0.74505805969E-08  0.93827000000E+00  0.93827000000E+00 0. -1.
     999902    2    1    2    0    0 -0.72586872056E-02 -0.63467444197E-02  0.99493499506E-02  0.10300750634E+01  0.10299818818E+01 0.  0.
     999903    2    3    3    0    0 -0.23449999443E-01  0.95844253388E-01  0.89080927244E-01  0.14048697602E+00  0.45443981464E-01 0.  0.
         14    1    1    2    0    0  0.72586872056E-02  0.63467444197E-02 -0.99493499506E-02  0.13854936633E-01  0.00000000000E+00 0.  1.
     999901    1    3    3    0    0  0.16191312237E-01 -0.10219099781E+00 -0.79131577293E-01  0.88958808735E+00  0.88000000000E+00 0. -1.
        -11    1    4    4    0    0 -0.49562035413E-02  0.42921111540E-01  0.68048356131E-01  0.80607851122E-01  0.51100000000E-03 0. -1.
         11    1    4    4    0    0 -0.18493795901E-01  0.52923141848E-01  0.21032571112E-01  0.59879124898E-01  0.51100000000E-03 0.  1.
</event>
<event>
 8    1  0.2001339E+004  0.1043930E+01  0.7957747E-01            NaN
         13   -1    0    0    0    0  0.00000000000E+00  0.00000000000E+00  0.74505805969E-08  0.10566000000E+00  0.10566000000E+00 0. -1.
     999900   -1    0    0    0    0 -0.00000000000E+00 -0.00000000000E+00 -0.74505805969E-08  0.93827000000E+00  0.93827000000E+00 0.  1.
     999902    2    1    2    0    0 -0.53432895364E-02  0.34143670660E-02 -0.12657338795E-01  0.10297731334E+01  0.10296758177E+01 0.  0.
     999903    2    3    3    0    0  0.33902534300E-01 -0.12657408653E+00 -0.87868706922E-02  0.13935064199E+00  0.46594110292E-01 0.  0.
         14    1    1    2    0    0  0.53432895364E-02 -0.34143670660E-02  0.12657338795E-01  0.14156866564E-01  0.00000000000E+00 0. -1.
     999901    1    3    3    0    0 -0.39245823836E-01  0.12998845359E+00 -0.38704681030E-02  0.89042249145E+00  0.88000000000E+00 0. -1.
        -11    1    4    4    0    0  0.14699772547E-01 -0.11435029460E+00 -0.10312592863E-02  0.11529699824E+00  0.51100000000E-03 0. -1.
         11    1    4    4    0    0  0.19202761753E-01 -0.12223791929E-01 -0.77556114059E-02  0.24053643743E-01  0.51100000000E-03 0.  1.
</event>
<event>
 8    1  0.2001339E+004  0.1043930E+01  0.7957747E-01            NaN
         13   -1    0    0    0    0  0.00000000000E+00  0.00000000000E+00  0.74505805969E-08  0.10566000000E+00  0.10566000000E+00 0. -1.
     999900   -1    0    0    0    0 -0.00000000000E+00 -0.00000000000E+00 -0.74505805969E-08  0.93827000000E+00  0.93827000000E+00 0.  1.
     999902    2    1    2    0    0  0.16232975931E-02  0.74367394143E-02 -0.11779581830E-01  0.10299050673E+01  0.10298095693E+01 0.  0.
     999903    2    3    3    0    0  0.12518767728E+00 -0.37837980268E-01 -0.20127904003E-01  0.14008056180E+00  0.45975689007E-01 0.  0.
         14    1    1    2    0    0 -0.16232975931E-02 -0.74367394143E-02  0.11779581830E-01  0.14024932666E-01  0.00000000000E+00 0. -1.
     999901    1    3    3    0    0 -0.12356437969E+00  0.45274719682E-01  0.83483221735E-02  0.88982450554E+00  0.88000000000E+00 0. -1.
        -11    1    4    4    0    0  0.52356042233E-02  0.29872848961E-02  0.82512087353E-02  0.10231275054E-01  0.51100000000E-03 0.  1.
         11    1    4    4    0    0  0.11995207306E+00 -0.40825265164E-01 -0.28379112739E-01  0.12984928674E+00  0.51100000000E-03 0. -1.
</event>
<event>
 8    1  0.2001339E+004  0.1043930E+01  0.7957747E-01            NaN
         13   -1    0    0    0    0  0.00000000000E+00  0.00000000000E+00  0.74505805969E-08  0.10566000000E+00  0.10566000000E+00 0. -1.
     999900   -1    0    0    0    0 -0.00000000000E+00 -0.00000000000E+00 -0.74505805969E-08  0.93827000000E+00  0.93827000000E+00 0. -1.
     999902    2    1    2    0    0  0.11335606456E-01 -0.73814105904E-02 -0.24879096264E-02  0.10301760591E+01  0.10300842402E+01 0.  0.
     999903    2    3    3    0    0 -0.11071657521E+00 -0.62774762975E-01  0.38478756800E-01  0.13908491545E+00  0.40806471126E-01 0.  0.
         14    1    1    2    0    0 -0.11335606456E-01  0.73814105904E-02  0.24879096264E-02  0.13753940902E-01  0.00000000000E+00 0.  1.
     999901    1    3    3    0    0  0.12205218167E+00  0.55393352384E-01 -0.40966666426E-01  0.89109114365E+00  0.88000000000E+00 0.  1.
        -11    1    4    4    0    0 -0.97674237329E-01 -0.49139147973E-01  0.46188709304E-01  0.11869528419E+00  0.51100000000E-03 0.  1.
         11    1    4    4    0    0 -0.13042337885E-01 -0.13635615001E-01 -0.77099525047E-02  0.20389631252E-01  0.51100000000E-03 0. -1.
</event>
<event>
 8    1  0.2001339E+004  0.1043930E+01  0.7957747E-01            NaN
         13   -1    0    0    0    0  0.00000000000E+00  0.00000000000E+00  0.74505805969E-08  0.10566000000E+00  0.10566000000E+00 0.  1.
     999900   -1    0    0    0    0 -0.00000000000E+00 -0.00000000000E+00 -0.74505805969E-08  0.93827000000E+00  0.93827000000E+00 0.  1.
     999902    2    1    2    0    0  0.17410657606E-01  0.51131329707E-02 -0.10907563925E-01  0.10227580828E+01  0.10225389214E+01 0.  0.
     999903    2    3    3    0    0  0.71846515735E-01  0.37785799166E-01 -0.98838273431E-01  0.13609998892E+00  0.46524340385E-01 0.  0.
         14    1    1    2    0    0 -0.17410657606E-01 -0.51131329707E-02  0.10907563925E-01  0.21171917198E-01  0.00000000000E+00 0.  1.
     999901    1    3    3    0    0 -0.54435858129E-01 -0.32672666195E-01  0.87930709505E-01  0.88665809388E+00  0.88000000000E+00 0. -1.
        -11    1    4    4    0    0  0.22878396710E-01  0.37639277617E-01 -0.39524663832E-01  0.59182737581E-01  0.51100000000E-03 0. -1.
         11    1    4    4    0    0  0.48968119025E-01  0.14652154846E-03 -0.59313609598E-01  0.76917251342E-01  0.51100000000E-03 0.  1.
</event>
<event>
 8    1  0.2001339E+004  0.1043930E+01  0.7957747E-01            NaN
         13   -1    0    0    0    0  0.00000000000E+00  0.00000000000E+00  0.74505805969E-08  0.10566000000E+00  0.10566000000E+00 0. -1.
     999900   -1    0    0    0    0 -0.00000000000E+00 -0.00000000000E+00 -0.74505805969E-08  0.93827000000E+00  0.93827000000E+00 0.  1.
     999902    2    1    2    0    0 -0.13754972548E-01 -0.10929256504E-03 -0.18597501475E-02  0.10300494422E+01  0.10299559134E+01 0.  0.
     999903    2    3    3    0    0  0.47423796263E-01 -0.10323824760E+00 -0.67069079733E-01  0.13952674186E+00  0.45412531517E-01 0.  0.
         14    1    1    2    0    0  0.13754972548E-01  0.10929256504E-03  0.18597501475E-02  0.13880557815E-01  0.00000000000E+00 0. -1.
     999901    1    3    3    0    0 -0.61178768811E-01  0.10312895504E+00  0.65209329585E-01  0.89052270032E+00  0.88000000000E+00 0. -1.
        -11    1    4    4    0    0  0.26864630017E-01 -0.26834378138E-01 -0.41782984962E-01  0.56461235812E-01  0.51100000000E-03 0.  1.
         11    1    4    4    0    0  0.20559166246E-01 -0.76403869465E-01 -0.25286094770E-01  0.83065506053E-01  0.51100000000E-03 0. -1.
</event>
<event>
 8    1  0.2001339E+004  0.1043930E+01  0.7957747E-01            NaN
         13   -1    0    0    0    0  0.00000000000E+00  0.00000000000E+00  0.74505805969E-08  0.10566000000E+00  0.10566000000E+00 0.  1.
     999900   -1    0    0    0    0 -0.00000000000E+00 -0.00000000000E+00 -0.74505805969E-08  0.93827000000E+00  0.93827000000E+00 0. -1.
     999902    2    1    2    0    0  0.96184832084E-02 -0.76535297318E-02  0.49465794253E-02  0.10306800798E+01  0.10305949091E+01 0.  0.
     999903    2    3    3    0    0  0.10383112860E+00 -0.61758164438E-01  0.59934632751E-01  0.14229557971E+00  0.45397110705E-01 0.  0.
         14    1    1    2    0    0 -0.96184832084E-02  0.76535297318E-02 -0.49465794253E-02  0.13249920173E-01  0.00000000000E+00 0. -1.
     999901    1    3    3    0    0 -0.94212645388E-01  0.54104634706E-01 -0.54988053326E-01  0.88838450012E+00  0.88000000000E+00 0. -1.
        -11    1    4    4    0    0  0.73769008199E-01 -0.26480058756E-01  0.54849894621E-01  0.95665208635E-01  0.51100000000E-03 0.  1.
         11    1    4    4    0    0  0.30062120397E-01 -0.35278105681E-01  0.50847381306E-02  0.46630371070E-01  0.51100000000E-03 0. -1.
</event>
<event>
 8    1  0.2001339E+004  0.1043930E+01  0.7957747E-01            NaN
         13   -1    0    0    0    0  0.00000000000E+00  0.00000000000E+00  0.74505805969E-08  0.10566000000E+00  0.10566000000E+00 0.  1.
     999900   -1    0    0    0    0 -0.00000000000E+00 -0.00000000000E+00 -0.74505805969E-08  0.93827000000E+00  0.93827000000E+00 0. -1.
     999902    2    1    2    0    0 -0.63028217001E-02 -0.67140105002E-02  0.90971056388E-02  0.10309854711E+01  0.10309042054E+01 0.  0.
     999903    2    3    3    0    0 -0.64207675177E-01 -0.95331122283E-01  0.71470594250E-01  0.14244936227E+00  0.44419889014E-01 0.  0.
         14    1    1    2    0    0  0.63028217001E-02  0.67140105002E-02 -0.90971056388E-02  0.12944528936E-01  0.00000000000E+00 0. -1.
     999901    1    3    3    0    0  0.57904853477E-01  0.88617111783E-01 -0.62373488611E-01  0.88853610880E+00  0.88000000000E+00 0.  1.
        -11    1    4    4    0    0 -0.14822646501E-01 -0.16381598781E-02  0.44888481437E-03  0.14928396955E-01  0.51100000000E-03 0.  1.
         11    1    4    4    0    0 -0.49385028676E-01 -0.93692962405E-01  0.71021709436E-01  0.12752096531E+00  0.51100000000E-03 0. -1.
</event>
<event>
 8    1  0.2063044E+004  0.1043930E+01  0.7957747E-01            NaN
         13   -1    0    0    0    0  0.00000000000E+00  0.00000000000E+00  0.74505805969E-08  0.10566000000E+00  0.10566000000E+00 0. -1.
     999900   -1    0    0    0    0 -0.00000000000E+00 -0.00000000000E+00 -0.74505805969E-08  0.93827000000E+00  0.93827000000E+00 0.  1.
     999902    2    1    2    0    0 -0.24230333387E-02  0.11928318436E-01 -0.15396133017E-01  0.10243035693E+01  0.10241155234E+01 0.  0.
     999903    2    3    3    0    0  0.11325903847E+00  0.18252053680E-01 -0.57081714504E-01  0.13573167062E+00  0.44766248668E-01 0.  0.
         14    1    1    2    0    0  0.24230333387E-02 -0.11928318436E-01  0.15396133017E-01  0.19626430729E-01  0.00000000000E+00 0. -1.
     999901    1    3    3    0    0 -0.11568207181E+00 -0.63237352444E-02  0.41685581487E-01  0.88857189865E+00  0.88000000000E+00 0. -1.
        -11    1    4    4    0    0  0.53532328031E-01  0.25354488033E-01 -0.11693018543E-01  0.60378373707E-01  0.51100000000E-03 0.  1.
         11    1    4    4    0    0  0.59726710441E-01 -0.71024343528E-02 -0.45388695961E-01  0.75353296914E-01  0.51100000000E-03 0. -1.
</event>
<event>
 8    1  0.2001339E+004  0.1043930E+01  0.7957747E-01            NaN
         13   -1    0    0    0    0  0.00000000000E+00  0.00000000000E+00  0.74505805969E-08  0.10566000000E+00  0.10566000000E+00 0.  1.
     999900   -1    0    0    0    0 -0.00000000000E+00 -0.00000000000E+00 -0.74505805969E-08  0.93827000000E+00  0.93827000000E+00 0. -1.
     999902    2    1    2    0    0  0.38254086844E-02 -0.13221372344E-01 -0.10334163845E-01  0.10267185683E+01  0.10265742960E+01 0.  0.
     999903    2    3    3    0    0  0.34361427330E-01  0.49274361160E-01  0.11282683608E+00  0.13542355708E+00  0.44732253663E-01 0.  0.
         14    1    1    2    0    0 -0.38254086844E-02  0.13221372344E-01  0.10334163845E-01  0.17211431685E-01  0.00000000000E+00 0.  1.
     999901    1    3    3    0    0 -0.30536018646E-01 -0.62495733504E-01 -0.12316099993E+00  0.89129501123E+00  0.88000000000E+00 0. -1.
        -11    1    4    4    0    0  0.29687429796E-01  0.49558281472E-02  0.50728679532E-01  0.58987827292E-01  0.51100000000E-03 0. -1.
         11    1    4    4    0    0  0.46739975340E-02  0.44318533013E-01  0.62098156547E-01  0.76435729793E-01  0.51100000000E-03 0.  1.
</event>
<event>
 8    1  0.2001339E+004  0.1043930E+01  0.7957747E-01            NaN
         13   -1    0    0    0    0  0.00000000000E+00  0.00000000000E+00  0.74505805969E-08  0.10566000000E+00  0.10566000000E+00 0.  1.
     999900   -1    0    0    0    0 -0.00000000000E+00 -0.00000000000E+00 -0.74505805969E-08  0.93827000000E+00  0.93827000000E+00 0.  1.
     999902    2    1    2    0    0 -0.12668163498E-01 -0.27319402866E-03 -0.54375575903E-02  0.10301414528E+01  0.10300491681E+01 0.  0.
     999903    2    3    3    0    0 -0.70297286648E-01  0.10527448033E+00 -0.42785266952E-01  0.14117785467E+00  0.45565149649E-01 0.  0.
         14    1    1    2    0    0  0.12668163498E-01  0.27319402866E-03  0.54375575903E-02  0.13788547201E-01  0.00000000000E+00 0.  1.
     999901    1    3    3    0    0  0.57629123151E-01 -0.10554767436E+00  0.37347709361E-01  0.88896359813E+00  0.88000000000E+00 0. -1.
        -11    1    4    4    0    0 -0.60045896089E-01  0.63194403743E-01 -0.11904955765E-01  0.87983131305E-01  0.51100000000E-03 0. -1.
         11    1    4    4    0    0 -0.10251390559E-01  0.42080076589E-01 -0.30880311187E-01  0.53194723367E-01  0.51100000000E-03 0.  1.
</event>
<event>
 8    1  0.2001339E+004  0.1043930E+01  0.7957747E-01            NaN
         13   -1    0    0    0    0  0.00000000000E+00  0.00000000000E+00  0.74505805969E-08  0.10566000000E+00  0.10566000000E+00 0.  1.
     999900   -1    0    0    0    0 -0.00000000000E+00 -0.00000000000E+00 -0.74505805969E-08  0.93827000000E+00  0.93827000000E+00 0.  1.
     999902    2    1    2    0    0 -0.11730595832E-01 -0.52158562428E-02 -0.10791245244E-01  0.10271591023E+01  0.10270221801E+01 0.  0.
     999903    2    3    3    0    0  0.42792946639E-01  0.26229280035E-01 -0.12021886763E+00  0.13815065590E+00  0.45976256677E-01 0.  0.
         14    1    1    2    0    0  0.11730595832E-01  0.52158562428E-02  0.10791245244E-01  0.16770897675E-01  0.00000000000E+00 0.  1.
     999901    1    3    3    0    0 -0.54523542471E-01 -0.31445136278E-01  0.10942762238E+00  0.88900844643E+00  0.88000000000E+00 0. -1.
        -11    1    4    4    0    0  0.27156160023E-01  0.92045715220E-02 -0.10850528404E+00  0.11223118528E+00  0.51100000000E-03 0. -1.
         11    1    4    4    0    0  0.15636786616E-01  0.17024708513E-01 -0.11713583590E-01  0.25919470618E-01  0.51100000000E-03 0.  1.
</event>
<event>
 8    1  0.2001339E+004  0.1043930E+01  0.7957747E-01            NaN
         13   -1    0    0    0    0  0.00000000000E+00  0.00000000000E+00  0.74505805969E-08  0.10566000000E+00  0.10566000000E+00 0. -1.
     999900   -1    0    0    0    0 -0.00000000000E+00 -0.00000000000E+00 -0.74505805969E-08  0.93827000000E+00  0.93827000000E+00 0. -1.
     999902    2    1    2    0    0 -0.61698420429E-02  0.77365288399E-02 -0.87293490415E-02  0.10307344567E+01  0.10306499880E+01 0.  0.
     999903    2    3    3    0    0 -0.97630516991E-01 -0.60730427057E-01 -0.68231524372E-01  0.14135642231E+00  0.45893295726E-01 0.  0.
         14    1    1    2    0    0  0.61698420429E-02 -0.77365288399E-02  0.87293490415E-02  0.13195543339E-01  0.00000000000E+00 0. -1.
     999901    1    3    3    0    0  0.91460674948E-01  0.68466955897E-01  0.59502175330E-01  0.88937803435E+00  0.88000000000E+00 0.  1.
        -11    1    4    4    0    0 -0.65838424003E-01 -0.16814002965E-01 -0.26501785358E-01  0.72938429645E-01  0.51100000000E-03 0. -1.
         11    1    4    4    0    0 -0.31792092988E-01 -0.43916424092E-01 -0.41729739013E-01  0.68417992668E-01  0.51100000000E-03 0.  1.
</event>
<event>
 8    1  0.2001339E+004  0.1043930E+01  0.7957747E-01            NaN
         13   -1    0    0    0    0  0.00000000000E+00  0.00000000000E+00  0.74505805969E-08  0.10566000000E+00  0.10566000000E+00 0. -1.
     999900   -1    0    0    0    0 -0.00000000000E+00 -0.00000000000E+00 -0.74505805969E-08  0.93827000000E+00  0.93827000000E+00 0. -1.
     999902    2    1    2    0    0 -0.10935674662E-01 -0.54896476660E-02 -0.63171658281E-02  0.10301593139E+01  0.10300672697E+01 0.  0.
     999903    2    3    3    0    0  0.60801816269E-01  0.11075676816E+00 -0.33483237318E-01  0.13920617694E+00  0.47888515984E-01 0.  0.
         14    1    1    2    0    0  0.10935674662E-01  0.54896476660E-02  0.63171658281E-02  0.13770686109E-01  0.00000000000E+00 0. -1.
     999901    1    3    3    0    0 -0.71737490930E-01 -0.11624641583E+00  0.27166071490E-01  0.89095313695E+00  0.88000000000E+00 0.  1.
        -11    1    4    4    0    0  0.58245012597E-01  0.81262697277E-01 -0.82819688109E-02  0.10032427219E+00  0.51100000000E-03 0.  1.
         11    1    4    4    0    0  0.25568036715E-02  0.29494070882E-01 -0.25201268507E-01  0.38881904757E-01  0.51100000000E-03 0. -1.
</event>
<event>
 8    1  0.2001339E+004  0.1043930E+01  0.7957747E-01            NaN
         13   -1    0    0    0    0  0.00000000000E+00  0.00000000000E+00  0.74505805969E-08  0.10566000000E+00  0.10566000000E+00 0. -1.
     999900   -1    0    0    0    0 -0.00000000000E+00 -0.00000000000E+00 -0.74505805969E-08  0.93827000000E+00  0.93827000000E+00 0.  1.
     999902    2    1    2    0    0 -0.11963409118E-02 -0.46974350443E-02 -0.14567488550E-01  0.10285771875E+01  0.10284626011E+01 0.  0.
     999903    2    3    3    0    0 -0.12464509967E+00  0.15104471825E-01 -0.43839968939E-01  0.13925801556E+00  0.41307457912E-01 0.  0.
         14    1    1    2    0    0  0.11963409118E-02  0.46974350443E-02  0.14567488550E-01  0.15352812453E-01  0.00000000000E+00 0. -1.
     999901    1    3    3    0    0  0.12344875876E+00 -0.19801906869E-01  0.29272480389E-01  0.88931917199E+00  0.88000000000E+00 0.  1.
        -11    1    4    4    0    0 -0.53100640232E-01  0.21198399464E-02  0.22039972994E-02  0.53191074811E-01  0.51100000000E-03 0.  1.
         11    1    4    4    0    0 -0.71544459442E-01  0.12984631878E-01 -0.46043966238E-01  0.86066940749E-01  0.51100000000E-03 0. -1.
</event>
<event>
 8    1  0.2001339E+004  0.1043930E+01  0.7957747E-01            NaN
         13   -1    0    0    0    0  0.00000000000E+00  0.00000000000E+00  0.74505805969E-08  0.10566000000E+00  0.10566000000E+00 0. -1.
     999900   -1    0    0    0    0 -0.00000000000E+00 -0.00000000000E+00 -0.74505805969E-08  0.93827000000E+00  0.93827000000E+00 0. -1.
     999902    2    1    2    0    0 -0.49134710517E-02 -0.94534063770E-02 -0.96176292910E-02  0.10295770253E+01  0.10294769755E+01 0.  0.
     999903    2    3    3    0    0 -0.12435652493E+00 -0.84275833686E-02 -0.47506407317E-01  0.14069950002E+00  0.44765177463E-01 0.  0.
         14    1    1    2    0    0  0.49134710517E-02  0.94534063770E-02  0.96176292910E-02  0.14352974712E-01  0.00000000000E+00 0. -1.
     999901    1    3    3    0    0  0.11944305388E+00 -0.10258230084E-02  0.37888778026E-01  0.88887752527E+00  0.88000000000E+00 0. -1.
        -11    1    4    4    0    0 -0.41989300301E-01 -0.20988802298E-01 -0.51408630273E-02  0.47226271876E-01  0.51100000000E-03 0. -1.
         11    1    4    4    0    0 -0.82367224634E-01  0.12561218930E-01 -0.42365544290E-01  0.93473228139E-01  0.51100000000E-03 0.  1.
</event>
<event>
 8    1  0.2001339E+004  0.1043930E+01  0.7957747E-01            NaN
         13   -1    0    0    0    0  0.00000000000E+00  0.00000000000E+00  0.74505805969E-08  0.10566000000E+00  0.10566000000E+00 0.  1.
     999900   -1    0    0    0    0 -0.00000000000E+00 -0.00000000000E+00 -0.74505805969E-08  0.93827000000E+00  0.93827000000E+00 0. -1.
     999902    2    1    2    0    0  0.26531049770E-02  0.12959023233E-01  0.52802410048E-02  0.10296872406E+01  0.10295887321E+01 0.  0.
     999903    2    3    3    0    0  0.30916731315E-01  0.92093705182E-01 -0.91422100885E-01  0.14041086437E+00  0.43819122465E-01 0.  0.
         14    1    1    2    0    0 -0.26531049770E-02 -0.12959023233E-01 -0.52802410048E-02  0.14242759362E-01  0.00000000000E+00 0. -1.
     999901    1    3    3    0    0 -0.28263626338E-01 -0.79134681949E-01  0.96702341890E-01  0.88927637627E+00  0.88000000000E+00 0.  1.
        -11    1    4    4    0    0  0.69622126697E-04  0.24247208463E-01 -0.48946319668E-01  0.54625408882E-01  0.51100000000E-03 0.  1.
         11    1    4    4    0    0  0.30847109188E-01  0.67846496719E-01 -0.42475781217E-01  0.85785455488E-01  0.51100000000E-03 0. -1.
</event>
<event>
 8    1  0.2317406E+004  0.1043930E+01  0.7957747E-01            NaN
         13   -1    0    0    0    0  0.00000000000E+00  0.00000000000E+00  0.74505805969E-08  0.10566000000E+00  0.10566000000E+00 0.  1.
     999900   -1    0    0    0    0 -0.00000000000E+00 -0.00000000000E+00 -0.74505805969E-08  0.93827000000E+00  0.93827000000E+00 0. -1.
     999902    2    1    2    0    0  0.10979222349E-02 -0.69300248930E-03 -0.13511329356E-01  0.10303564335E+01  0.10302670229E+01 0.  0.
     999903    2    3    3    0    0 -0.88775139369E-01  0.60194744195E-02 -0.10139551632E+00  0.14139869839E+00  0.42370765090E-01 0.  0.
         14    1    1    2    0    0 -0.10979222349E-02  0.69300248930E-03  0.13511329356E-01  0.13573566468E-01  0.00000000000E+00 0.  1.
     999901    1    3    3    0    0  0.89873061604E-01 -0.67124769088E-02  0.87884186966E-01  0.88895773514E+00  0.88000000000E+00 0.  1.
        -11    1    4    4    0    0 -0.46611419124E-01  0.23661211126E-01 -0.61619784687E-01  0.80806783692E-01  0.51100000000E-03 0. -1.
         11    1    4    4    0    0 -0.42163720245E-01 -0.17641736706E-01 -0.39775731635E-01  0.60591914700E-01  0.51100000000E-03 0.  1.
</event>
<event>
 8    1  0.2001339E+004  0.1043930E+01  0.7957747E-01            NaN
         13   -1    0    0    0    0  0.00000000000E+00  0.00000000000E+00  0.74505805969E-08  0.10566000000E+00  0.10566000000E+00 0. -1.
     999900   -1    0    0    0    0 -0.00000000000E+00 -0.00000000000E+00 -0.74505805969E-08  0.93827000000E+00  0.93827000000E+00 0.  1.
     999902    2    1    2    0    0  0.61134713337E-02 -0.11666688407E-01 -0.50533525074E-02  0.10298224658E+01  0.10297258317E+01 0.  0.
     999903    2    3    3    0    0  0.42130862759E-01 -0.11490934145E+00  0.52084424005E-01  0.14121624062E+00  0.47434934832E-01 0.  0.
         14    1    1    2    0    0 -0.61134713337E-02  0.11666688407E-01  0.50533525074E-02  0.14107534217E-01  0.00000000000E+00 0.  1.
     999901    1    3    3    0    0 -0.36017391425E-01  0.10324265304E+00 -0.57137776512E-01  0.88860622516E+00  0.88000000000E+00 0. -1.
        -11    1    4    4    0    0  0.14711374262E-01 -0.23647697916E-02  0.10085422287E-01  0.17999820348E-01  0.51100000000E-03 0.  1.
         11    1    4    4    0    0  0.27419488497E-01 -0.11254457166E+00  0.41999001718E-01  0.12321642027E+00  0.51100000000E-03 0. -1.
</event>
<event>
 8    1  0.2001339E+004  0.1043930E+01  0.7957747E-01            NaN
         13   -1    0    0    0    0  0.00000000000E+00  0.00000000000E+00  0.74505805969E-08  0.10566000000E+00  0.10566000000E+00 0.  1.
     999900   -1    0    0    0    0 -0.00000000000E+00 -0.00000000000E+00 -0.74505805969E-08  0.93827000000E+00  0.93827000000E+00 0.  1.
     999902    2    1    2    0    0  0.48194415316E-02 -0.69265987410E-02  0.11533319643E-01  0.10296393650E+01  0.10295401885E+01 0.  0.
     999903    2    3    3    0    0 -0.10750492935E+00  0.75394078862E-01 -0.13627064546E-02  0.13859516534E+00  0.44330417600E-01 0.  0.
         14    1    1    2    0    0 -0.48194415316E-02  0.69265987410E-02 -0.11533319643E-01  0.14290635003E-01  0.00000000000E+00 0.  1.
     999901    1    3    3    0    0  0.11232437088E+00 -0.82320677603E-01  0.12896026098E-01  0.89104419966E+00  0.88000000000E+00 0. -1.
        -11    1    4    4    0    0 -0.35637592559E-01  0.13131546445E-01 -0.18049416511E-01  0.42053752185E-01  0.51100000000E-03 0. -1.
         11    1    4    4    0    0 -0.71867336790E-01  0.62262532417E-01  0.16686710056E-01  0.96541413154E-01  0.51100000000E-03 0.  1.
</event>
<event>
 8    1  0.2001339E+004  0.1043930E+01  0.7957747E-01            NaN
         13   -1    0    0    0    0  0.00000000000E+00  0.00000000000E+00  0.74505805969E-08  0.10566000000E+00  0.10566000000E+00 0.  1.
     999900   -1    0    0    0    0 -0.00000000000E+00 -0.00000000000E+00 -0.74505805969E-08  0.93827000000E+00  0.93827000000E+00 0.  1.
     999902    2    1    2    0    0 -0.85349535411E-02 -0.11331295437E-01  0.10445831606E-01  0.10263129887E+01  0.10261617766E+01 0.  0.
     999903    2    3    3    0    0  0.26586159777E-01  0.90762926837E-01  0.87493739205E-01  0.13637304531E+00  0.44695864547E-01 0.  0.
         14    1    1    2    0    0  0.85349535411E-02  0.11331295437E-01 -0.10445831606E-01  0.17617011273E-01  0.00000000000E+00 0. -1.
     999901    1    3    3    0    0 -0.35121113319E-01 -0.10209422227E+00 -0.77047907598E-01  0.88993994342E+00  0.88000000000E+00 0. -1.
        -11    1    4    4    0    0  0.39106830941E-01  0.65789985603E-01  0.61053241350E-01  0.97905187974E-01  0.51100000000E-03 0.  1.
         11    1    4    4    0    0 -0.12520671164E-01  0.24972941235E-01  0.26440497855E-01  0.38467857337E-01  0.51100000000E-03 0. -1.
</event>
<event>
 8    1  0.2001339E+004  0.1043930E+01  0.7957747E-01            NaN
         13   -1    0    0    0    0  0.00000000000E+00  0.00000000000E+00  0.74505805969E-08  0.10566000000E+00  0.10566000000E+00 0. -1.
     999900   -1    0    0    0    0 -0.00000000000E+00 -0.00000000000E+00 -0.74505805969E-08  0.93827000000E+00  0.93827000000E+00 0. -1.
     999902    2    1    2    0    0  0.13930136484E-01 -0.11015060796E-02 -0.35698587087E-02  0.10295075900E+01  0.10294065630E+01 0.  0.
     999903    2    3    3    0    0  0.10904646416E+00  0.19853215195E-01 -0.75131275160E-01  0.14124678798E+00  0.44951808736E-01 0.  0.
         14    1    1    2    0    0 -0.13930136484E-01  0.11015060796E-02  0.35698587087E-02  0.14422409969E-01  0.00000000000E+00 0. -1.
     999901    1    3    3    0    0 -0.95116327676E-01 -0.20954721275E-01  0.71561416451E-01  0.88826080205E+00  0.88000000000E+00 0.  1.
        -11    1    4    4    0    0  0.83461450052E-01 -0.17881638489E-02 -0.39582642416E-01  0.92390788915E-01  0.51100000000E-03 0.  1.
         11    1    4    4    0    0  0.25585014107E-01  0.21641379044E-01 -0.35548632743E-01  0.48855999066E-01  0.51100000000E-03 0. -1.
</event>
<event>
 8    1  0.2001339E+004  0.1043930E+01  0.7957747E-01            NaN
         13   -1    0    0    0    0  0.00000000000E+00  0.00000000000E+00  0.74505805969E-08  0.10566000000E+00  0.10566000000E+00 0. -1.
     999900   -1    0    0    0    0 -0.00000000000E+00 -0.00000000000E+00 -0.74505805969E-08  0.93827000000E+00  0.93827000000E+00 0.  1.
     999902    2    1    2    0    0 -0.63017186980E-02 -0.59709095565E-02  0.96950586827E-02  0.10309162541E+01  0.10308341115E+01 0.  0.
     999903    2    3    3    0    0 -0.13383250600E+00  0.51276307939E-02  0.33189256323E-03  0.14160475176E+00  0.45982206461E-01 0.  0.
         14    1    1    2    0    0  0.63017186980E-02  0.59709095565E-02 -0.96950586827E-02  0.13013745900E-01  0.00000000000E+00 0.  1.
     999901    1    3    3    0    0  0.12753078730E+00 -0.11098540350E-01  0.93631661194E-02  0.88931150234E+00  0.88000000000E+00 0.  1.
        -11    1    4    4    0    0 -0.40615685238E-01 -0.11877677217E-01  0.16604946372E-01  0.45460955429E-01  0.51100000000E-03 0. -1.
         11    1    4    4    0    0 -0.93216820757E-01  0.17005308011E-01 -0.16273053809E-01  0.96143796336E-01  0.51100000000E-03 0.  1.
</event>
<event>
 8    1  0.2001339E+004  0.1043930E+01  0.7957747E-01            NaN
         13   -1    0    0    0    0  0.00000000000E+00  0.00000000000E+00  0.74505805969E-08  0.10566000000E+00  0.10566000000E+00 0.  1.
     999900   -1    0    0    0    0 -0.00000000000E+00 -0.00000000000E+00 -0.74505805969E-08  0.93827000000E+00  0.93827000000E+00 0. -1.
     999902    2    1    2    0    0  0.10291221989E-01  0.24523979248E-02 -0.10371602239E-01  0.10291146823E+01  0.10290080348E+01 0.  0.
     999903    2    3    3    0    0  0.12178961707E+00 -0.44905165506E-01 -0.28644374623E-01  0.14062803348E+00  0.45897264475E-01 0.  0.
         14    1    1    2    0    0 -0.10291221989E-01 -0.24523979248E-02  0.10371602239E-01  0.14815317702E-01  0.00000000000E+00 0.  1.
     999901    1    3    3    0    0 -0.11149839508E+00  0.47357563431E-01  0.18272772383E-01  0.88848664882E+00  0.88000000000E+00 0.  1.
        -11    1    4    4    0    0  0.94594633775E-01 -0.28162340470E-01 -0.40325433126E-01  0.10661924703E+00  0.51100000000E-03 0.  1.
         11    1    4    4    0    0  0.27194983298E-01 -0.16742825036E-01  0.11681058503E-01  0.34008786446E-01  0.51100000000E-03 0. -1.
</event>
<event>
 8    1  0.2481620E+004  0.1043930E+01  0.7957747E-01            NaN
         13   -1    0    0    0    0  0.00000000000E+00  0.00000000000E+00  0.74505805969E-08  0.10566000000E+00  0.10566000000E+00 0.  1.
     999900   -1    0    0    0    0 -0.00000000000E+00 -0.00000000000E+00 -0.74505805969E-08  0.93827000000E+00  0.93827000000E+00 0. -1.
     999902    2    1    2    0    0 -0.19101493096E-02  0.89407329921E-02 -0.99682295812E-02  0.10304040628E+01  0.10303152826E+01 0.  0.
     999903    2    3    3    0    0 -0.17205167955E-01 -0.13011257315E+00  0.65725354321E-02  0.13920074341E+00  0.45916764322E-01 0.  0.
         14    1    1    2    0    0  0.19101493096E-02 -0.89407329921E-02  0.99682295812E-02  0.13525937225E-01  0.00000000000E+00 0.  1.
     999901    1    3    3    0    0  0.15295018645E-01  0.13905330615E+00 -0.16540765013E-01  0.89120331937E+00  0.88000000000E+00 0. -1.
        -11    1    4    4    0    0  0.13039326325E-01 -0.70194803720E-01  0.94425677575E-02  0.72019148198E-01  0.51100000000E-03 0.  1.
         11    1    4    4    0    0 -0.30244494280E-01 -0.59917769435E-01 -0.28700323255E-02  0.67181595209E-01  0.51100000000E-03 0. -1.
</event>
<event>
 8    1  0.2001339E+004  0.1043930E+01  0.7957747E-01            NaN
         13   -1    0    0    0    0  0.00000000000E+00  0.00000000000E+00  0.74505805969E-08  0.10566000000E+00  0.10566000000E+00 0.  1.
     999900   -1    0    0    0    0 -0.00000000000E+00 -0.00000000000E+00 -0.74505805969E-08  0.93827000000E+00  0.93827000000E+00 0. -1.
     999902    2    1    2    0    0 -0.41223974028E-03 -0.10415751813E-01  0.76520487109E-02  0.10309989646E+01  0.10309178693E+01 0.  0.
     999903    2    3    3    0    0  0.78534758628E-01  0.70982079784E-01  0.80752185154E-01  0.14071706233E+00  0.45543520502E-01 0.  0.
         14    1    1    2    0    0  0.41223974028E-03  0.10415751813E-01 -0.76520487109E-02  0.12931035415E-01  0.00000000000E+00 0. -1.
     999901    1    3    3    0    0 -0.78946998368E-01 -0.81397831596E-01 -0.73100136443E-01  0.89028190226E+00  0.88000000000E+00 0. -1.
        -11    1    4    4    0    0  0.63885904535E-01  0.34983631142E-01  0.68433797058E-01  0.99943528790E-01  0.51100000000E-03 0.  1.
         11    1    4    4    0    0  0.14648854093E-01  0.35998448642E-01  0.12318388096E-01  0.40773533538E-01  0.51100000000E-03 0. -1.
</event>
<event>
 8    1  0.2001339E+004  0.1043930E+01  0.7957747E-01            NaN
         13   -1    0    0    0    0  0.00000000000E+00  0.00000000000E+00  0.74505805969E-08  0.10566000000E+00  0.10566000000E+00 0. -1.
     999900   -1    0    0    0    0 -0.00000000000E+00 -0.00000000000E+00 -0.74505805969E-08  0.93827000000E+00  0.93827000000E+00 0.  1.
     999902    2    1    2    0    0  0.11019661074E-01  0.45714707500E-02  0.98535074740E-02  0.10284567041E+01  0.10283402985E+01 0.  0.
     999903    2    3    3    0    0  0.95355812948E-02  0.13130440941E+00 -0.12770420479E-02  0.13930692522E+00  0.45530356206E-01 0.  0.
         14    1    1    2    0    0 -0.11019661074E-01 -0.45714707500E-02 -0.98535074740E-02  0.15473295853E-01  0.00000000000E+00 0.  1.
     999901    1    3    3    0    0  0.14840797793E-02 -0.12673293866E+00  0.11130549522E-01  0.88914977893E+00  0.88000000000E+00 0. -1.
        -11    1    4    4    0    0  0.27172211119E-01  0.63513582539E-01  0.27855419091E-02  0.69139891443E-01  0.51100000000E-03 0. -1.
         11    1    4    4    0    0 -0.17636629824E-01  0.67790826873E-01 -0.40625839570E-02  0.70167033777E-01  0.51100000000E-03 0.  1.
</event>
<event>
 8    1  0.2001339E+004  0.1043930E+01  0.7957747E-01            NaN
         13   -1    0    0    0    0  0.00000000000E+00  0.00000000000E+00  0.74505805969E-08  0.10566000000E+00  0.10566000000E+00 0.  1.
     999900   -1    0    0    0    0 -0.00000000000E+00 -0.00000000000E+00 -0.74505805969E-08  0.93827000000E+00  0.93827000000E+00 0.  1.
     999902    2    1    2    0    0 -0.21434925219E-02 -0.58678910604E-03 -0.58707461384E-02  0.10376526963E+01  0.10376337088E+01 0.  0.
     999903    2    3    3    0    0 -0.88191109535E-02 -0.13940187572E+00  0.29366677615E-02  0.14670277475E+00  0.44748412602E-01 0.  0.
         14    1    1    2    0    0  0.21434925219E-02  0.58678910604E-03  0.58707461384E-02  0.62773037100E-02  0.00000000000E+00 0.  1.
     999901    1    3    3    0    0  0.66756184316E-02  0.13881508661E+00 -0.88074138999E-02  0.89094992154E+00  0.88000000000E+00 0.  1.
        -11    1    4    4    0    0  0.95792468391E-02 -0.61482971076E-02 -0.38122293348E-02  0.12014896622E-01  0.51100000000E-03 0. -1.
         11    1    4    4    0    0 -0.18398357793E-01 -0.13325357861E+00  0.67488970963E-02  0.13468787813E+00  0.51100000000E-03 0.  1.
</event>
<event>
 8    1  0.2001339E+004  0.1043930E+01  0.7957747E-01            NaN
         13   -1    0    0    0    0  0.00000000000E+00  0.00000000000E+00  0.74505805969E-08  0.10566000000E+00  0.10566000000E+00 0.  1.
     999900   -1    0    0    0    0 -0.00000000000E+00 -0.00000000000E+00 -0.74505805969E-08  0.93827000000E+00  0.93827000000E+00 0. -1.
     999902    2    1    2    0    0 -0.13818002708E-01 -0.27660031048E-02  0.25760350100E-02  0.10296043612E+01  0.10295046948E+01 0.  0.
     999903    2    3    3    0    0 -0.99586114702E-01  0.40055909059E-01 -0.78962700194E-01  0.14065079064E+00  0.45007408195E-01 0.  0.
         14    1    1    2    0    0  0.13818002708E-01  0.27660031048E-02 -0.25760350100E-02  0.14325638848E-01  0.00000000000E+00 0. -1.
     999901    1    3    3    0    0  0.85768111994E-01 -0.42821912164E-01  0.81538735204E-01  0.88895357052E+00  0.88000000000E+00 0.  1.
        -11    1    4    4    0    0 -0.47182943884E-01  0.72443676871E-02 -0.58535205673E-01  0.75533717510E-01  0.51100000000E-03 0. -1.
         11    1    4    4    0    0 -0.52403170818E-01  0.32811541372E-01 -0.20427494521E-01  0.65117073125E-01  0.51100000000E-03 0.  1.
</event>
<event>
 8    1  0.2001339E+004  0.1043930E+01  0.7957747E-01            NaN
         13   -1    0    0    0    0  0.00000000000E+00  0.00000000000E+00  0.74505805969E-08  0.10566000000E+00  0.10566000000E+00 0. -1.
     999900   -1    0    0    0    0 -0.00000000000E+00 -0.00000000000E+00 -0.74505805969E-08  0.93827000000E+00  0.93827000000E+00 0.  1.
     999902    2    1    2    0    0 -0.45663232333E-02  0.80962050631E-02  0.10038955286E-01  0.10302486087E+01  0.10301577623E+01 0.  0.
     999903    2    3    3    0    0  0.22105528405E-01  0.76965189145E-01 -0.10521992875E+00  0.13966512864E+00  0.44975771530E-01 0.  0.
         14    1    1    2    0    0  0.45663232333E-02 -0.80962050631E-02 -0.10038955286E-01  0.13681391287E-01  0.00000000000E+00 0.  1.
     999901    1    3    3    0    0 -0.26671851638E-01 -0.68868984082E-01  0.11525888404E+00  0.89058348008E+00  0.88000000000E+00 0. -1.
        -11    1    4    4    0    0  0.35407214655E-01  0.51001708588E-01 -0.78637150374E-01  0.10019434948E+00  0.51100000000E-03 0. -1.
         11    1    4    4    0    0 -0.13301686250E-01  0.25963480557E-01 -0.26582778375E-01  0.39470779152E-01  0.51100000000E-03 0.  1.
</event>
<event>
 8    1  0.2001339E+004  0.1043930E+01  0.7957747E-01            NaN
         13   -1    0    0    0    0  0.00000000000E+00  0.00000000000E+00  0.74505805969E-08  0.10566000000E+00  0.10566000000E+00 0.  1.
     999900   -1    0    0    0    0 -0.00000000000E+00 -0.00000000000E+00 -0.74505805969E-08  0.93827000000E+00  0.93827000000E+00 0. -1.
     999902    2    1    2    0    0  0.47208173377E-02  0.71346193682E-02 -0.11326671147E-01  0.10297355508E+01  0.10296377140E+01 0.  0.
     999903    2    3    3    0    0  0.72308146301E-01 -0.34245947737E-01  0.10400593774E+00  0.13867886960E+00  0.44870266666E-01 0.  0.
         14    1    1    2    0    0 -0.47208173377E-02 -0.71346193682E-02  0.11326671147E-01  0.14194449237E-01  0.00000000000E+00 0.  1.
     999901    1    3    3    0    0 -0.67587328963E-01  0.41380567105E-01 -0.11533260889E+00  0.89105668116E+00  0.88000000000E+00 0. -1.
        -11    1    4    4    0    0  0.29071075243E-01 -0.68152549221E-02  0.72862557026E-01  0.78745085261E-01  0.51100000000E-03 0.  1.
         11    1    4    4    0    0  0.43237071058E-01 -0.27430692815E-01  0.31143380715E-01  0.59933784340E-01  0.51100000000E-03 0. -1.
</event>
<event>
 8    1  0.2001339E+004  0.1043930E+01  0.7957747E-01            NaN
         13   -1    0    0    0    0  0.00000000000E+00  0.00000000000E+00  0.74505805969E-08  0.10566000000E+00  0.10566000000E+00 0. -1.
     999900   -1    0    0    0    0 -0.00000000000E+00 -0.00000000000E+00 -0.74505805969E-08  0.93827000000E+00  0.93827000000E+00 0. -1.
     999902    2    1    2    0    0  0.10897256729E-02 -0.16100783910E-01 -0.60826291727E-02  0.10266840984E+01  0.10265392427E+01 0.  0.
     999903    2    3    3    0    0  0.12891282061E+00  0.11903299775E-01 -0.53330420255E-02  0.13700801454E+00  0.44525844706E-01 0.  0.
         14    1    1    2    0    0 -0.10897256729E-02  0.16100783910E-01  0.60826291727E-02  0.17245901606E-01  0.00000000000E+00 0. -1.
     999901    1    3    3    0    0 -0.12782309494E+00 -0.28004083685E-01 -0.74958714722E-03  0.88967608386E+00  0.88000000000E+00 0. -1.
        -11    1    4    4    0    0  0.78140140246E-01  0.24669183737E-01 -0.16218431655E-01  0.83532920398E-01  0.51100000000E-03 0. -1.
         11    1    4    4    0    0  0.50772680367E-01 -0.12765883962E-01  0.10885389629E-01  0.53475094141E-01  0.51100000000E-03 0.  1.
</event>
<event>
 8    1  0.2001339E+004  0.1043930E+01  0.7957747E-01            NaN
         13   -1    0    0    0    0  0.00000000000E+00  0.00000000000E+00  0.74505805969E-08  0.10566000000E+00  0.10566000000E+00 0.  1.
     999900   -1    0    0    0    0 -0.00000000000E+00 -0.00000000000E+00 -0.74505805969E-08  0.93827000000E+00  0.93827000000E+00 0. -1.
     999902    2    1    2    0    0 -0.10311993435E-01 -0.29546493128E-03  0.97450235222E-02  0.10297388058E+01  0.10296410143E+01 0.  0.
     999903    2    3    3    0    0 -0.83742581296E-01 -0.20234091570E-02  0.10489723705E+00  0.14156709904E+00  0.44954411174E-01 0.  0.
         14    1    1    2    0    0  0.10311993435E-01  0.29546493128E-03 -0.97450235222E-02  0.14191194156E-01  0.00000000000E+00 0. -1.
     999901    1    3    3    0    0  0.73430587862E-01  0.17279442257E-02 -0.95152213526E-01  0.88817170680E+00  0.88000000000E+00 0. -1.
        -11    1    4    4    0    0 -0.94484811334E-02 -0.47677765297E-02  0.44603989512E-01  0.45845201387E-01  0.51100000000E-03 0.  1.
         11    1    4    4    0    0 -0.74294100163E-01  0.27443673727E-02  0.60293247535E-01  0.95721897655E-01  0.51100000000E-03 0. -1.
</event>
<event>
 8    1  0.2001339E+004  0.1043930E+01  0.7957747E-01            NaN
         13   -1    0    0    0    0  0.00000000000E+00  0.00000000000E+00  0.74505805969E-08  0.10566000000E+00  0.10566000000E+00 0.  1.
     999900   -1    0    0    0    0 -0.00000000000E+00 -0.00000000000E+00 -0.74505805969E-08  0.93827000000E+00  0.93827000000E+00 0.  1.
     999902    2    1    2    0    0  0.77700041605E-02  0.10175855407E-01 -0.50770991626E-02  0.10301569127E+01  0.10300648362E+01 0.  0.
     999903    2    3    3    0    0 -0.33326777568E-01  0.12959507518E+00 -0.67412346366E-03  0.14112975804E+00  0.44850825494E-01 0.  0.
         14    1    1    2    0    0 -0.77700041605E-02 -0.10175855407E-01  0.50770991626E-02  0.13773087302E-01  0.00000000000E+00 0. -1.
     999901    1    3    3    0    0  0.41096781729E-01 -0.11941921978E+00 -0.44029756989E-02  0.88902715466E+00  0.88000000000E+00 0. -1.
        -11    1    4    4    0    0 -0.68781978569E-02  0.45808048906E-01 -0.21130431371E-01  0.50916040707E-01  0.51100000000E-03 0.  1.
         11    1    4    4    0    0 -0.26448579711E-01  0.83787026278E-01  0.20456307907E-01  0.90213717336E-01  0.51100000000E-03 0. -1.
</event>
<event>
 8    1  0.2001339E+004  0.1043930E+01  0.7957747E-01            NaN
         13   -1    0    0    0    0  0.00000000000E+00  0.00000000000E+00  0.74505805969E-08  0.10566000000E+00  0.10566000000E+00 0.  1.
     999900   -1    0    0    0    0 -0.00000000000E+00 -0.00000000000E+00 -0.74505805969E-08  0.93827000000E+00  0.93827000000E+00 0.  1.
     999902    2    1    2    0    0 -0.10541931331E-01 -0.77376670264E-02 -0.91146333991E-03  0.10308214313E+01  0.10307380796E+01 0.  0.
     999903    2    3    3    0    0  0.53817296332E-01 -0.11574711537E+00  0.40944419708E-01  0.14090004937E+00  0.43389887159E-01 0.  0.
         14    1    1    2    0    0  0.10541931331E-01  0.77376670264E-02  0.91146333991E-03  0.13108568672E-01  0.00000000000E+00 0.  1.
     999901    1    3    3    0    0 -0.64359227663E-01  0.10800944834E+00 -0.41855883048E-01  0.88992138196E+00  0.88000000000E+00 0.  1.
        -11    1    4    4    0    0  0.42623132553E-01 -0.40783168322E-01  0.19376424472E-01  0.62094324969E-01  0.51100000000E-03 0.  1.
         11    1    4    4    0    0  0.11194163779E-01 -0.74963947045E-01  0.21567995236E-01  0.78805724403E-01  0.51100000000E-03 0. -1.
</event>
<event>
 8    1  0.2001339E+004  0.1043930E+01  0.7957747E-01            NaN
         13   -1    0    0    0    0  0.00000000000E+00  0.00000000000E+00  0.74505805969E-08  0.10566000000E+00  0.10566000000E+00 0.  1.
     999900   -1    0    0    0    0 -0.00000000000E+00 -0.00000000000E+00 -0.74505805969E-08  0.93827000000E+00  0.93827000000E+00 0.  1.
     999902    2    1    2    0    0  0.55691447349E-02  0.80585544547E-02 -0.83822843953E-02  0.10310374299E+01  0.10309568194E+01 0.  0.
     999903    2    3    3    0    0  0.12584211737E+00 -0.46951890304E-01 -0.36796136618E-02  0.14114201349E+00  0.43206595652E-01 0.  0.
         14    1    1    2    0    0 -0.55691447349E-02 -0.80585544547E-02  0.83822843953E-02  0.12892570134E-01  0.00000000000E+00 0.  1.
     999901    1    3    3    0    0 -0.12027297263E+00  0.55010444759E-01 -0.47026707335E-02  0.88989541638E+00  0.88000000000E+00 0.  1.
        -11    1    4    4    0    0  0.87802522563E-01 -0.11639268434E-01  0.40437849597E-02  0.88664360686E-01  0.51100000000E-03 0.  1.
         11    1    4    4    0    0  0.38039594806E-01 -0.35312621870E-01 -0.77233986215E-02  0.52477652802E-01  0.51100000000E-03 0. -1.
</event>
<event>
 8    1  0.2001339E+004  0.1043930E+01  0.7957747E-01            NaN
         13   -1    0    0    0    0  0.00000000000E+00  0.00000000000E+00  0.74505805969E-08  0.10566000000E+00  0.10566000000E+00 0. -1.
     999900   -1    0    0    0    0 -0.00000000000E+00 -0.00000000000E+00 -0.74505805969E-08  0.93827000000E+00  0.93827000000E+00 0.  1.
     999902    2    1    2    0    0  0.10876589201E-01 -0.16380274417E-02  0.73234597299E-02  0.10307157505E+01  0.10306310407E+01 0.  0.
     999903    2    3    3    0    0  0.12319928325E+00 -0.34947850841E-01 -0.38703833009E-01  0.14175880916E+00  0.46884513586E-01 0.  0.
         14    1    1    2    0    0 -0.10876589201E-01  0.16380274417E-02 -0.73234597299E-02  0.13214249467E-01  0.00000000000E+00 0.  1.
     999901    1    3    3    0    0 -0.11232269405E+00  0.33309823400E-01  0.46027292739E-01  0.88895694137E+00  0.88000000000E+00 0.  1.
        -11    1    4    4    0    0  0.45241590418E-01 -0.13093260112E-01  0.87581485629E-02  0.47908258695E-01  0.51100000000E-03 0. -1.
         11    1    4    4    0    0  0.77957692831E-01 -0.21854590730E-01 -0.47461981572E-01  0.93850550469E-01  0.51100000000E-03 0.  1.
</event>
<event>
 8    1  0.2001339E+004  0.1043930E+01  0.7957747E-01            NaN
         13   -1    0    0    0    0  0.00000000000E+00  0.00000000000E+00  0.74505805969E-08  0.10566000000E+00  0.10566000000E+00 0.  1.
     999900   -1    0    0    0    0 -0.00000000000E+00 -0.00000000000E+00 -0.74505805969E-08  0.93827000000E+00  0.93827000000E+00 0. -1.
     999902    2    1    2    0    0 -0.79537845618E-02 -0.94523416520E-02 -0.73329342781E-02  0.10295640202E+01  0.10294637877E+01 0.  0.
     999903    2    3    3    0    0 -0.57979173126E-01  0.33115168958E-02  0.11878155244E+00  0.13907521094E+00  0.43131269849E-01 0.  0.
         14    1    1    2    0    0  0.79537845618E-02  0.94523416520E-02  0.73329342781E-02  0.14365979837E-01  0.00000000000E+00 0.  1.
     999901    1    3    3    0    0  0.50025388565E-01 -0.12763858548E-01 -0.12611448672E+00  0.89048880922E+00  0.88000000000E+00 0. -1.
        -11    1    4    4    0    0  0.43464867441E-02 -0.70079854658E-02  0.77487354513E-02  0.11327304595E-01  0.51100000000E-03 0. -1.
         11    1    4    4    0    0 -0.62325659870E-01  0.10319502362E-01  0.11103281699E+00  0.12774790635E+00  0.51100000000E-03 0.  1.
</event>
<event>
 8    1  0.2001339E+004  0.1043930E+01  0.7957747E-01            NaN
         13   -1    0    0    0    0  0.00000000000E+00  0.00000000000E+00  0.74505805969E-08  0.10566000000E+00  0.10566000000E+00 0. -1.
     999900   -1    0    0    0    0 -0.00000000000E+00 -0.00000000000E+00 -0.74505805969E-08  0.93827000000E+00  0.93827000000E+00 0.  1.
     999902    2    1    2    0    0  0.13983479758E-02 -0.13619124804E-01 -0.18532234152E-02  0.10301144155E+01  0.10300217661E+01 0.  0.
     999903    2    3    3    0    0 -0.13165526659E+00 -0.16649524690E-01  0.15634055585E-02  0.14010086449E+00  0.44894232372E-01 0.  0.
         14    1    1    2    0    0 -0.13983479758E-02  0.13619124804E-01  0.18532234152E-02  0.13815584480E-01  0.00000000000E+00 0.  1.
     999901    1    3    3    0    0  0.13305361456E+00  0.30303998859E-02 -0.34166289737E-02  0.89001355103E+00  0.88000000000E+00 0. -1.
        -11    1    4    4    0    0 -0.37476677472E-01  0.15088112790E-01 -0.37383772303E-02  0.40575720416E-01  0.51100000000E-03 0. -1.
         11    1    4    4    0    0 -0.94178589114E-01 -0.31737637480E-01  0.53017827888E-02  0.99525144070E-01  0.51100000000E-03 0.  1.
</event>
<event>
 8    1  0.2001339E+004  0.1043930E+01  0.7957747E-01            NaN
         13   -1    0    0    0    0  0.00000000000E+00  0.00000000000E+00  0.74505805969E-08  0.10566000000E+00  0.10566000000E+00 0.  1.
     999900   -1    0    0    0    0 -0.00000000000E+00 -0.00000000000E+00 -0.74505805969E-08  0.93827000000E+00  0.93827000000E+00 0.  1.
     999902    2    1    2    0    0 -0.50649505572E-03  0.58378507352E-02 -0.10654431948E-01  0.10317704787E+01  0.10316988256E+01 0.  0.
     999903    2    3    3    0    0  0.70638360895E-01  0.11041557463E+00 -0.33323074373E-01  0.14243816835E+00  0.44685874332E-01 0.  0.
         14    1    1    2    0    0  0.50649505572E-03 -0.58378507352E-02  0.10654431948E-01  0.12159521314E-01  0.00000000000E+00 0.  1.
     999901    1    3    3    0    0 -0.71144855951E-01 -0.10457772390E+00  0.22668642425E-01  0.88933231034E+00  0.88000000000E+00 0.  1.
        -11    1    4    4    0    0  0.41338750441E-02  0.34125332864E-01  0.39040149515E-02  0.34599562421E-01  0.51100000000E-03 0.  1.
         11    1    4    4    0    0  0.66504485851E-01  0.76290241769E-01 -0.37227089324E-01  0.10783860593E+00  0.51100000000E-03 0. -1.
</event>
<event>
 8    1  0.2001339E+004  0.1043930E+01  0.7957747E-01            NaN
         13   -1    0    0    0    0  0.00000000000E+00  0.00000000000E+00  0.74505805969E-08  0.10566000000E+00  0.10566000000E+00 0. -1.
     999900   -1    0    0    0    0 -0.00000000000E+00 -0.00000000000E+00 -0.74505805969E-08  0.93827000000E+00  0.93827000000E+00 0.  1.
     999902    2    1    2    0    0 -0.52872502754E-02  0.11434577944E-01  0.66464319450E-02  0.10296864174E+01  0.10295878974E+01 0.  0.
     999903    2    3    3    0    0 -0.54642524644E-01 -0.38792861505E-01  0.11470927186E+00  0.14028419333E+00  0.45063801923E-01 0.  0.
         14    1    1    2    0    0  0.52872502754E-02 -0.11434577944E-01 -0.66464319450E-02  0.14243582619E-01  0.00000000000E+00 0.  1.
     999901    1    3    3    0    0  0.49355274368E-01  0.50227439449E-01 -0.10806283991E+00  0.88940222405E+00  0.88000000000E+00 0.  1.
        -11    1    4    4    0    0 -0.50496284997E-02 -0.16451971836E-01  0.51600731718E-02  0.17973691925E-01  0.51100000000E-03 0. -1.
         11    1    4    4    0    0 -0.49592896144E-01 -0.22340889669E-01  0.10954919869E+00  0.12231050140E+00  0.51100000000E-03 0.  1.
</event>
<event>
 8    1  0.2001339E+004  0.1043930E+01  0.7957747E-01            NaN
         13   -1    0    0    0    0  0.00000000000E+00  0.00000000000E+00  0.74505805969E-08  0.10566000000E+00  0.10566000000E+00 0. -1.
     999900   -1    0    0    0    0 -0.00000000000E+00 -0.00000000000E+00 -0.74505805969E-08  0.93827000000E+00  0.93827000000E+00 0.  1.
     999902    2    1    2    0    0 -0.12689175316E-01 -0.34801322789E-02 -0.59347590134E-02  0.10294957402E+01  0.10293945460E+01 0.  0.
     999903    2    3    3    0    0 -0.74335836138E-01 -0.10316918259E+00  0.39131320451E-01  0.14058113855E+00  0.45410345781E-01 0.  0.
         14    1    1    2    0    0  0.12689175316E-01  0.34801322789E-02  0.59347590134E-02  0.14434259781E-01  0.00000000000E+00 0.  1.
     999901    1    3    3    0    0  0.61646660822E-01  0.99689050316E-01 -0.45066079464E-01  0.88891460167E+00  0.88000000000E+00 0.  1.
        -11    1    4    4    0    0 -0.20016924277E-02 -0.36031385882E-01  0.67738286622E-02  0.36720749134E-01  0.51100000000E-03 0.  1.
         11    1    4    4    0    0 -0.72334143711E-01 -0.67137796712E-01  0.32357491789E-01  0.10386038942E+00  0.51100000000E-03 0. -1.
</event>
<event>
 8    1  0.2001339E+004  0.1043930E+01  0.7957747E-01            NaN
         13   -1    0    0    0    0  0.00000000000E+00  0.00000000000E+00  0.74505805969E-08  0.10566000000E+00  0.10566000000E+00 0. -1.
     999900   -1    0    0    0    0 -0.00000000000E+00 -0.00000000000E+00 -0.74505805969E-08  0.93827000000E+00  0.93827000000E+00 0.  1.
     999902    2    1    2    0    0  0.10251770803E-01  0.43889016320E-02  0.84161618087E-02  0.10299588497E+01  0.10298640876E+01 0.  0.
     999903    2    3    3    0    0  0.74684173064E-01 -0.10023539249E+00 -0.44335059137E-01  0.13985746853E+00  0.44380788887E-01 0.  0.
         14    1    1    2    0    0 -0.10251770803E-01 -0.43889016320E-02 -0.84161618087E-02  0.13971150336E-01  0.00000000000E+00 0.  1.
     999901    1    3    3    0    0 -0.64432402262E-01  0.10462429412E+00  0.52751220946E-01  0.89010138113E+00  0.88000000000E+00 0. -1.
        -11    1    4    4    0    0  0.35943778384E-01 -0.68480536392E-01 -0.75540626655E-02  0.77710128380E-01  0.51100000000E-03 0. -1.
         11    1    4    4    0    0  0.38740394680E-01 -0.31754856095E-01 -0.36780996472E-01  0.62147340153E-01  0.51100000000E-03 0.  1.
</event>
<event>
 8    1  0.2001339E+004  0.1043930E+01  0.7957747E-01            NaN
         13   -1    0    0    0    0  0.00000000000E+00  0.00000000000E+00  0.74505805969E-08  0.10566000000E+00  0.10566000000E+00 0. -1.
     999900   -1    0    0    0    0 -0.00000000000E+00 -0.00000000000E+00 -0.74505805969E-08  0.93827000000E+00  0.93827000000E+00 0. -1.
     999902    2    1    2    0    0  0.13650183574E-01 -0.19244013349E-02 -0.18156995167E-02  0.10300257705E+01  0.10299319203E+01 0.  0.
     999903    2    3    3    0    0  0.25452736506E-01  0.11207832376E+00  0.66322399761E-01  0.13998154571E+00  0.44573310149E-01 0.  0.
         14    1    1    2    0    0 -0.13650183574E-01  0.19244013349E-02  0.18156995167E-02  0.13904229458E-01  0.00000000000E+00 0. -1.
     999901    1    3    3    0    0 -0.11802552932E-01 -0.11400272509E+00 -0.68138099278E-01  0.89004422483E+00  0.88000000000E+00 0. -1.
        -11    1    4    4    0    0  0.27810385665E-02  0.33930842162E-01  0.43940114311E-01  0.55588047205E-01  0.51100000000E-03 0. -1.
         11    1    4    4    0    0  0.22671697939E-01  0.78147481594E-01  0.22382285450E-01  0.84393498505E-01  0.51100000000E-03 0.  1.
</event>
<event>
 8    1  0.2001339E+004  0.1043930E+01  0.7957747E-01            NaN
         13   -1    0    0    0    0  0.00000000000E+00  0.00000000000E+00  0.74505805969E-08  0.10566000000E+00  0.10566000000E+00 0. -1.
     999900   -1    0    0    0    0 -0.00000000000E+00 -0.00000000000E+00 -0.74505805969E-08  0.93827000000E+00  0.93827000000E+00 0.  1.
     999902    2    1    2    0    0 -0.14615793732E-01  0.36033985533E-03  0.82033859331E-02  0.10271655492E+01  0.10270287331E+01 0.  0.
     999903    2    3    3    0    0 -0.26144644189E-01 -0.12707381335E+00  0.24420220403E-02  0.13789305374E+00  0.46660843742E-01 0.  0.
         14    1    1    2    0    0  0.14615793732E-01 -0.36033985533E-03 -0.82033859331E-02  0.16764450841E-01  0.00000000000E+00 0.  1.
     999901    1    3    3    0    0  0.11528850457E-01  0.12743415321E+00  0.57613638928E-02  0.88927249542E+00  0.88000000000E+00 0. -1.
        -11    1    4    4    0    0 -0.12850673520E-01 -0.23497751033E-01  0.18057395828E-01  0.32305027142E-01  0.51100000000E-03 0.  1.
         11    1    4    4    0    0 -0.13293970669E-01 -0.10357606232E+00 -0.15615373787E-01  0.10558802660E+00  0.51100000000E-03 0. -1.
</event>
<event>
 8    1  0.2001339E+004  0.1043930E+01  0.7957747E-01            NaN
         13   -1    0    0    0    0  0.00000000000E+00  0.00000000000E+00  0.74505805969E-08  0.10566000000E+00  0.10566000000E+00 0.  1.
     999900   -1    0    0    0    0 -0.00000000000E+00 -0.00000000000E+00 -0.74505805969E-08  0.93827000000E+00  0.93827000000E+00 0.  1.
     999902    2    1    2    0    0  0.62818379616E-02  0.73991063346E-02  0.13164433629E-01  0.10275742495E+01  0.10274440752E+01 0.  0.
     999903    2    3    3    0    0 -0.92345296111E-01  0.34936022756E-01  0.86073402196E-01  0.13864156864E+00  0.45438690454E-01 0.  0.
         14    1    1    2    0    0 -0.62818379616E-02 -0.73991063346E-02 -0.13164433629E-01  0.16355750533E-01  0.00000000000E+00 0. -1.
     999901    1    3    3    0    0  0.98627134072E-01 -0.27536916421E-01 -0.72908968566E-01  0.88893268082E+00  0.88000000000E+00 0.  1.
        -11    1    4    4    0    0 -0.52568326418E-01 -0.18266090444E-02  0.29463077795E-01  0.60291786482E-01  0.51100000000E-03 0.  1.
         11    1    4    4    0    0 -0.39776969693E-01  0.36762631800E-01  0.56610324400E-01  0.78349782160E-01  0.51100000000E-03 0. -1.
</event>
<event>
 8    1  0.2102292E+004  0.1043930E+01  0.7957747E-01            NaN
         13   -1    0    0    0    0  0.00000000000E+00  0.00000000000E+00  0.74505805969E-08  0.10566000000E+00  0.10566000000E+00 0. -1.
     999900   -1    0    0    0    0 -0.00000000000E+00 -0.00000000000E+00 -0.74505805969E-08  0.93827000000E+00  0.93827000000E+00 0.  1.
     999902    2    1    2    0    0  0.23178986121E-01  0.20077356107E-02 -0.11582409977E-01  0.10179406056E+01  0.10176087794E+01 0.  0.
     999903    2    3    3    0    0  0.10767232292E+00  0.54028242004E-01 -0.30479464587E-01  0.13216278035E+00  0.45006918262E-01 0.  0.
         14    1    1    2    0    0 -0.23178986121E-01 -0.20077356107E-02  0.11582409977E-01  0.25989394390E-01  0.00000000000E+00 0.  1.
     999901    1    3    3    0    0 -0.84493336799E-01 -0.52020506393E-01  0.18897054609E-01  0.88577782526E+00  0.88000000000E+00 0.  1.
        -11    1    4    4    0    0  0.59664877228E-01  0.88223879906E-02 -0.20459870005E-02  0.60350470489E-01  0.51100000000E-03 0. -1.
         11    1    4    4    0    0  0.48007445692E-01  0.45205854013E-01 -0.28433477586E-01  0.71812309861E-01  0.51100000000E-03 0.  1.
</event>
<event>
 8    1  0.2001339E+004  0.1043930E+01  0.7957747E-01            NaN
         13   -1    0    0    0    0  0.00000000000E+00  0.00000000000E+00  0.74505805969E-08  0.10566000000E+00  0.10566000000E+00 0. -1.
     999900   -1    0    0    0    0 -0.00000000000E+00 -0.00000000000E+00 -0.74505805969E-08  0.93827000000E+00  0.93827000000E+00 0.  1.
     999902    2    1    2    0    0  0.70842616753E-02 -0.12289329404E-01  0.10062160641E-01  0.10265385809E+01  0.10263912493E+01 0.  0.
     999903    2    3    3    0    0 -0.30577903495E-02  0.92880317869E-01  0.89329824217E-01  0.13668079542E+00  0.45450179470E-01 0.  0.
         14    1    1    2    0    0 -0.70842616753E-02  0.12289329404E-01 -0.10062160641E-01  0.17391419075E-01  0.00000000000E+00 0.  1.
     999901    1    3    3    0    0  0.10142052025E-01 -0.10516964727E+00 -0.79267663576E-01  0.88985778550E+00  0.88000000000E+00 0.  1.
        -11    1    4    4    0    0  0.18595692053E-01  0.33603060391E-01  0.21437994076E-01  0.43986522272E-01  0.51100000000E-03 0. -1.
         11    1    4    4    0    0 -0.21653482403E-01  0.59277257478E-01  0.67891830142E-01  0.92694273152E-01  0.51100000000E-03 0.  1.
</event>
<event>
 8    1  0.2001339E+004  0.1043930E+01  0.7957747E-01            NaN
         13   -1    0    0    0    0  0.00000000000E+00  0.00000000000E+00  0.74505805969E-08  0.10566000000E+00  0.10566000000E+00 0. -1.
     999900   -1    0    0    0    0 -0.00000000000E+00 -0.00000000000E+00 -0.74505805969E-08  0.93827000000E+00  0.93827000000E+00 0.  1.
     999902    2    1    2    0    0 -0.36811549059E-02 -0.12337985980E-01  0.47441485043E-02  0.10302083476E+01  0.10301169622E+01 0.  0.
     999903    2    3    3    0    0  0.10502452580E+00  0.70426383498E-01  0.36455126392E-01  0.13910091750E+00  0.45056214845E-01 0.  0.
         14    1    1    2    0    0  0.36811549059E-02  0.12337985980E-01 -0.47441485043E-02  0.13721652398E-01  0.00000000000E+00 0.  1.
     999901    1    3    3    0    0 -0.10870568070E+00 -0.82764369478E-01 -0.31710977888E-01  0.89110743011E+00  0.88000000000E+00 0. -1.
        -11    1    4    4    0    0  0.80596399316E-01  0.44021283161E-01  0.61148044704E-02  0.92039692028E-01  0.51100000000E-03 0. -1.
         11    1    4    4    0    0  0.24428126482E-01  0.26405100337E-01  0.30340321922E-01  0.47061225468E-01  0.51100000000E-03 0.  1.
</event>
<event>
 8    1  0.2001339E+004  0.1043930E+01  0.7957747E-01            NaN
         13   -1    0    0    0    0  0.00000000000E+00  0.00000000000E+00  0.74505805969E-08  0.10566000000E+00  0.10566000000E+00 0. -1.
     999900   -1    0    0    0    0 -0.00000000000E+00 -0.00000000000E+00 -0.74505805969E-08  0.93827000000E+00  0.93827000000E+00 0.  1.
     999902    2    1    2    0    0 -0.12056702155E-01  0.22041132174E-02 -0.67656415126E-02  0.10299301398E+01  0.10298349852E+01 0.  0.
     999903    2    3    3    0    0  0.13061571381E+00 -0.29839538195E-02  0.53529356588E-02  0.13834212153E+00  0.45172115254E-01 0.  0.
         14    1    1    2    0    0  0.12056702155E-01 -0.22041132174E-02  0.67656415126E-02  0.13999860250E-01  0.00000000000E+00 0.  1.
     999901    1    3    3    0    0 -0.14267241596E+00  0.51880670368E-02 -0.12118577171E-01  0.89158801822E+00  0.88000000000E+00 0. -1.
        -11    1    4    4    0    0  0.33815453215E-01  0.15455440738E-01 -0.10254429806E-01  0.38571621384E-01  0.51100000000E-03 0.  1.
         11    1    4    4    0    0  0.96800260591E-01 -0.18439394558E-01  0.15607365465E-01  0.99770500149E-01  0.51100000000E-03 0. -1.
</event>
<event>
 8    1  0.2001339E+004  0.1043930E+01  0.7957747E-01            NaN
         13   -1    0    0    0    0  0.00000000000E+00  0.00000000000E+00  0.74505805969E-08  0.10566000000E+00  0.10566000000E+00 0.  1.
     999900   -1    0    0    0    0 -0.00000000000E+00 -0.00000000000E+00 -0.74505805969E-08  0.93827000000E+00  0.93827000000E+00 0. -1.
     999902    2    1    2    0    0  0.52014676126E-02  0.32252433121E-02 -0.12411550546E-01  0.10300915013E+01  0.10299985422E+01 0.  0.
     999903    2    3    3    0    0  0.61979308465E-01  0.11726982953E+00 -0.36049224535E-02  0.14087417827E+00  0.47316921278E-01 0.  0.
         14    1    1    2    0    0 -0.52014676126E-02 -0.32252433121E-02  0.12411550546E-01  0.13838498716E-01  0.00000000000E+00 0.  1.
     999901    1    3    3    0    0 -0.56777840853E-01 -0.11404458622E+00 -0.88066280929E-02  0.88921732302E+00  0.88000000000E+00 0. -1.
        -11    1    4    4    0    0  0.55923514915E-01  0.56699438274E-01 -0.66979101643E-02  0.79921142025E-01  0.51100000000E-03 0.  1.
         11    1    4    4    0    0  0.60557935505E-02  0.60570391260E-01  0.30929877108E-02  0.60953036240E-01  0.51100000000E-03 0. -1.
</event>
<event>
 8    1  0.2001339E+004  0.1043930E+01  0.7957747E-01            NaN
         13   -1    0    0    0    0  0.00000000000E+00  0.00000000000E+00  0.74505805969E-08  0.10566000000E+00  0.10566000000E+00 0.  1.
     999900   -1    0    0    0    0 -0.00000000000E+00 -0.00000000000E+00 -0.74505805969E-08  0.93827000000E+00  0.93827000000E+00 0. -1.
     999902    2    1    2    0    0 -0.37875069357E-02 -0.13156121126E-01  0.19917960473E-02  0.10300954063E+01  0.10300025000E+01 0.  0.
     999903    2    3    3    0    0 -0.12723626269E+00  0.35883275140E-01  0.10678716947E-01  0.14008421518E+00  0.45087430297E-01 0.  0.
         14    1    1    2    0    0  0.37875069357E-02  0.13156121126E-01 -0.19917960473E-02  0.13834593719E-01  0.00000000000E+00 0.  1.
     999901    1    3    3    0    0  0.12344875575E+00 -0.49039396266E-01 -0.86869208994E-02  0.89001119110E+00  0.88000000000E+00 0.  1.
        -11    1    4    4    0    0 -0.39795413783E-01  0.22450268701E-02 -0.15558042079E-01  0.42790523462E-01  0.51100000000E-03 0. -1.
         11    1    4    4    0    0 -0.87440848905E-01  0.33638248270E-01  0.26236759026E-01  0.97293691723E-01  0.51100000000E-03 0.  1.
</event>
<event>
 8    1  0.2001339E+004  0.1043930E+01  0.7957747E-01            NaN
         13   -1    0    0    0    0  0.00000000000E+00  0.00000000000E+00  0.74505805969E-08  0.10566000000E+00  0.10566000000E+00 0. -1.
     999900   -1    0    0    0    0 -0.00000000000E+00 -0.00000000000E+00 -0.74505805969E-08  0.93827000000E+00  0.93827000000E+00 0. -1.
     999902    2    1    2    0    0 -0.68354098724E-02  0.17988251638E-02  0.11936460921E-01  0.10300578084E+01  0.10299643931E+01 0.  0.
     999903    2    3    3    0    0  0.12158328705E+00  0.32855284775E-01  0.39749064564E-01  0.13976043881E+00  0.45727745367E-01 0.  0.
         14    1    1    2    0    0  0.68354098724E-02 -0.17988251638E-02 -0.11936460921E-01  0.13872191586E-01  0.00000000000E+00 0.  1.
     999901    1    3    3    0    0 -0.12841869692E+00 -0.31056459611E-01 -0.27812603643E-01  0.89029736960E+00  0.88000000000E+00 0. -1.
        -11    1    4    4    0    0  0.62742217149E-01  0.18046200258E-01  0.44320660565E-01  0.78910285961E-01  0.51100000000E-03 0.  1.
         11    1    4    4    0    0  0.58841069896E-01  0.14809084517E-01 -0.45715960010E-02  0.60850152849E-01  0.51100000000E-03 0. -1.
</event>
<event>
 8    1  0.2001339E+004  0.1043930E+01  0.7957747E-01            NaN
         13   -1    0    0    0    0  0.00000000000E+00  0.00000000000E+00  0.74505805969E-08  0.10566000000E+00  0.10566000000E+00 0. -1.
     999900   -1    0    0    0    0 -0.00000000000E+00 -0.00000000000E+00 -0.74505805969E-08  0.93827000000E+00  0.93827000000E+00 0.  1.
     999902    2    1    2    0    0  0.50279209727E-02  0.84602946960E-02 -0.98527990594E-02  0.10300039731E+01  0.10299098263E+01 0.  0.
     999903    2    3    3    0    0  0.83181792439E-01 -0.73115221243E-01  0.70611471032E-01  0.13914085726E+00  0.45925506486E-01 0.  0.
         14    1    1    2    0    0 -0.50279209727E-02 -0.84602946960E-02  0.98527990594E-02  0.13926026891E-01  0.00000000000E+00 0. -1.
     999901    1    3    3    0    0 -0.78153871467E-01  0.81575515939E-01 -0.80464270091E-01  0.89086311585E+00  0.88000000000E+00 0.  1.
        -11    1    4    4    0    0  0.79190657252E-01 -0.60572362127E-01  0.43061037005E-01  0.10860333917E+00  0.51100000000E-03 0. -1.
         11    1    4    4    0    0  0.39911351873E-02 -0.12542859115E-01  0.27550434027E-01  0.30537518088E-01  0.51100000000E-03 0.  1.
</event>
<event>
 8    1  0.2001339E+004  0.1043930E+01  0.7957747E-01            NaN
         13   -1    0    0    0    0  0.00000000000E+00  0.00000000000E+00  0.74505805969E-08  0.10566000000E+00  0.10566000000E+00 0. -1.
     999900   -1    0    0    0    0 -0.00000000000E+00 -0.00000000000E+00 -0.74505805969E-08  0.93827000000E+00  0.93827000000E+00 0.  1.
     999902    2    1    2    0    0  0.12883044001E-01  0.73989664758E-02 -0.27512460940E-02  0.10288208345E+01  0.10287098826E+01 0.  0.
     999903    2    3    3    0    0 -0.21160272354E-01 -0.52192558926E-01 -0.11780363686E+00  0.13868199705E+00  0.46724502281E-01 0.  0.
         14    1    1    2    0    0 -0.12883044001E-01 -0.73989664758E-02  0.27512460940E-02  0.15109165520E-01  0.00000000000E+00 0.  1.
     999901    1    3    3    0    0  0.34043316355E-01  0.59591525402E-01  0.11505239077E+00  0.89013883743E+00  0.88000000000E+00 0.  1.
        -11    1    4    4    0    0 -0.10185203247E-02 -0.39603126443E-02 -0.62311540383E-01  0.62447663253E-01  0.51100000000E-03 0. -1.
         11    1    4    4    0    0 -0.20141752029E-01 -0.48232246282E-01 -0.55492096479E-01  0.76234333793E-01  0.51100000000E-03 0.  1.
</event>
<event>
 8    1  0.2001339E+004  0.1043930E+01  0.7957747E-01            NaN
         13   -1    0    0    0    0  0.00000000000E+00  0.00000000000E+00  0.74505805969E-08  0.10566000000E+00  0.10566000000E+00 0. -1.
     999900   -1    0    0    0    0 -0.00000000000E+00 -0.00000000000E+00 -0.74505805969E-08  0.93827000000E+00  0.93827000000E+00 0.  1.
     999902    2    1    2    0    0  0.33411080593E-02 -0.10570816309E-01 -0.83175050484E-02  0.10300704888E+01  0.10299772453E+01 0.  0.
     999903    2    3    3    0    0 -0.22064768175E-01 -0.70259565685E-01 -0.11214254127E+00  0.14159547874E+00  0.45277692895E-01 0.  0.
         14    1    1    2    0    0 -0.33411080593E-02  0.10570816309E-01  0.83175050484E-02  0.13859511201E-01  0.00000000000E+00 0. -1.
     999901    1    3    3    0    0  0.25405876234E-01  0.59688749375E-01  0.10382503622E+00  0.88847501006E+00  0.88000000000E+00 0. -1.
        -11    1    4    4    0    0  0.41852313621E-02 -0.56771897562E-01 -0.74444183427E-01  0.93716391743E-01  0.51100000000E-03 0. -1.
         11    1    4    4    0    0 -0.26249999537E-01 -0.13487668122E-01 -0.37698357839E-01  0.47879086999E-01  0.51100000000E-03 0.  1.
</event>
<event>
 7    1  0.2001339E+004  0.1043930E+01  0.7957747E-01            NaN
         13   -1    0    0    0    0  0.00000000000E+00  0.00000000000E+00  0.74505805969E-08  0.10566000000E+00  0.10566000000E+00 0. -1.
     999900   -1    0    0    0    0 -0.00000000000E+00 -0.00000000000E+00 -0.74505805969E-08  0.93827000000E+00  0.93827000000E+00 0.  1.
     999903    2    1    2    0    0  0.91224088081E-01  0.69905979351E-02  0.62418339182E-01  0.11954294369E+00  0.44986260282E-01 0.  0.
         14    1    1    2    0    0  0.28467392853E-01 -0.16978037870E-01  0.56496493945E-02  0.33623871938E-01  0.00000000000E+00 0. -1.
     999901    1    1    2    0    0 -0.11969148093E+00  0.99874399350E-02 -0.68067988576E-01  0.89076318437E+00  0.88000000000E+00 0.  1.
        -11    1    3    3    0    0  0.68108341229E-01 -0.15331151321E-01  0.42533706848E-01  0.81750643331E-01  0.51100000000E-03 0. -1.
         11    1    3    3    0    0  0.23115746852E-01  0.22321749256E-01  0.19884632334E-01  0.37792300359E-01  0.51100000000E-03 0.  1.
</event>
<event>
 8    1  0.2001339E+004  0.1043930E+01  0.7957747E-01            NaN
         13   -1    0    0    0    0  0.00000000000E+00  0.00000000000E+00  0.74505805969E-08  0.10566000000E+00  0.10566000000E+00 0. -1.
     999900   -1    0    0    0    0 -0.00000000000E+00 -0.00000000000E+00 -0.74505805969E-08  0.93827000000E+00  0.93827000000E+00 0.  1.
     999902    2    1    2    0    0  0.98470621874E-02 -0.84991836120E-02  0.19181460382E-03  0.10309208667E+01  0.10308387827E+01 0.  0.
     999903    2    3    3    0    0 -0.91511404618E-01 -0.13385034952E-01  0.94778666891E-01  0.14005382672E+00  0.45591472288E-01 0.  0.
         14    1    1    2    0    0 -0.98470621874E-02  0.84991836120E-02 -0.19181460382E-03  0.13009133278E-01  0.00000000000E+00 0.  1.
     999901    1    3    3    0    0  0.10135846681E+00  0.48858513403E-02 -0.94586852288E-01  0.89086704000E+00  0.88000000000E+00 0.  1.
        -11    1    4    4    0    0 -0.72143495953E-01 -0.24371219567E-01  0.88825106254E-01  0.11699914946E+00  0.51100000000E-03 0.  1.
         11    1    4    4    0    0 -0.19367908666E-01  0.10986184615E-01  0.59535606372E-02  0.23054677264E-01  0.51100000000E-03 0. -1.
</event>
<event>
 8    1  0.2001339E+004  0.1043930E+01  0.7957747E-01            NaN
         13   -1    0    0    0    0  0.00000000000E+00  0.00000000000E+00  0.74505805969E-08  0.10566000000E+00  0.10566000000E+00 0. -1.
     999900   -1    0    0    0    0 -0.00000000000E+00 -0.00000000000E+00 -0.74505805969E-08  0.93827000000E+00  0.93827000000E+00 0. -1.
     999902    2    1    2    0    0 -0.64909840198E-02  0.76562291444E-02  0.10089347494E-01  0.10296981466E+01  0.10295997900E+01 0.  0.
     999903    2    3    3    0    0  0.54489921181E-01  0.94427044451E-02 -0.11830761413E+00  0.13829047217E+00  0.45488976179E-01 0.  0.
         14    1    1    2    0    0  0.64909840198E-02 -0.76562291444E-02 -0.10089347494E-01  0.14231853397E-01  0.00000000000E+00 0.  1.
     999901    1    3    3    0    0 -0.60980905201E-01 -0.17864753007E-02  0.12839696162E+00  0.89140767444E+00  0.88000000000E+00 0.  1.
        -11    1    4    4    0    0 -0.75323537874E-03  0.60146704472E-02 -0.50012942835E-01  0.50381536262E-01  0.51100000000E-03 0. -1.
         11    1    4    4    0    0  0.55243156560E-01  0.34280339978E-02 -0.68294671292E-01  0.87908935903E-01  0.51100000000E-03 0.  1.
</event>
<event>
 8    1  0.2001339E+004  0.1043930E+01  0.7957747E-01            NaN
         13   -1    0    0    0    0  0.00000000000E+00  0.00000000000E+00  0.74505805969E-08  0.10566000000E+00  0.10566000000E+00 0. -1.
     999900   -1    0    0    0    0 -0.00000000000E+00 -0.00000000000E+00 -0.74505805969E-08  0.93827000000E+00  0.93827000000E+00 0.  1.
     999902    2    1    2    0    0 -0.97932420627E-02  0.41893444761E-02 -0.36155863728E-02  0.10326814151E+01  0.10326201501E+01 0.  0.
     999903    2    3    3    0    0 -0.13007295134E+00  0.23373624543E-01 -0.35206322490E-01  0.14373078674E+00  0.44201299984E-01 0.  0.
         14    1    1    2    0    0  0.97932420627E-02 -0.41893444761E-02  0.36155863728E-02  0.11248584891E-01  0.00000000000E+00 0.  1.
     999901    1    3    3    0    0  0.12027970927E+00 -0.19184280067E-01  0.31590736118E-01  0.88895062837E+00  0.88000000000E+00 0.  1.
        -11    1    4    4    0    0 -0.67477420016E-01  0.26196114675E-02 -0.38437891927E-01  0.77703263979E-01  0.51100000000E-03 0.  1.
         11    1    4    4    0    0 -0.62595531321E-01  0.20754013076E-01  0.32315694366E-02  0.66027522763E-01  0.51100000000E-03 0. -1.
</event>
<event>
 8    1  0.2001339E+004  0.1043930E+01  0.7957747E-01            NaN
         13   -1    0    0    0    0  0.00000000000E+00  0.00000000000E+00  0.74505805969E-08  0.10566000000E+00  0.10566000000E+00 0.  1.
     999900   -1    0    0    0    0 -0.00000000000E+00 -0.00000000000E+00 -0.74505805969E-08  0.93827000000E+00  0.93827000000E+00 0.  1.
     999902    2    1    2    0    0  0.68897892385E-02 -0.10622833242E-01  0.64933656651E-02  0.10297005383E+01  0.10296022150E+01 0.  0.
     999903    2    3    3    0    0  0.11234952053E+00  0.23612893680E-01  0.67518419971E-01  0.14064604215E+00  0.45195006637E-01 0.  0.
         14    1    1    2    0    0 -0.68897892385E-02  0.10622833242E-01 -0.64933656651E-02  0.14229461673E-01  0.00000000000E+00 0.  1.
     999901    1    3    3    0    0 -0.10545973129E+00 -0.34235726922E-01 -0.61025054306E-01  0.88905449618E+00  0.88000000000E+00 0.  1.
        -11    1    4    4    0    0  0.10547719428E+00  0.12301229524E-01  0.69974302393E-01  0.12717477296E+00  0.51100000000E-03 0.  1.
         11    1    4    4    0    0  0.68723262532E-02  0.11311664156E-01 -0.24558824222E-02  0.13471269189E-01  0.51100000000E-03 0. -1.
</event>
<event>
 8    1  0.2001339E+004  0.1043930E+01  0.7957747E-01            NaN
         13   -1    0    0    0    0  0.00000000000E+00  0.00000000000E+00  0.74505805969E-08  0.10566000000E+00  0.10566000000E+00 0.  1.
     999900   -1    0    0    0    0 -0.00000000000E+00 -0.00000000000E+00 -0.74505805969E-08  0.93827000000E+00  0.93827000000E+00 0.  1.
     999902    2    1    2    0    0  0.10897933138E-02  0.63063627743E-02  0.18858879934E-01  0.10240147994E+01  0.10238211242E+01 0.  0.
     999903    2    3    3    0    0 -0.93860969332E-01 -0.82165536236E-01 -0.17203772252E-01  0.13376571120E+00  0.45124702804E-01 0.  0.
         14    1    1    2    0    0 -0.10897933138E-02 -0.63063627743E-02 -0.18858879934E-01  0.19915200558E-01  0.00000000000E+00 0. -1.
     999901    1    3    3    0    0  0.94950762645E-01  0.88471899010E-01  0.36062652185E-01  0.89024908825E+00  0.88000000000E+00 0. -1.
        -11    1    4    4    0    0 -0.22086545062E-01 -0.44924582490E-01  0.38400929652E-02  0.50209969326E-01  0.51100000000E-03 0.  1.
         11    1    4    4    0    0 -0.71774424270E-01 -0.37240953745E-01 -0.21043865217E-01  0.83555741870E-01  0.51100000000E-03 0. -1.
</event>
<event>
 8    1  0.2001339E+004  0.1043930E+01  0.7957747E-01            NaN
         13   -1    0    0    0    0  0.00000000000E+00  0.00000000000E+00  0.74505805969E-08  0.10566000000E+00  0.10566000000E+00 0. -1.
     999900   -1    0    0    0    0 -0.00000000000E+00 -0.00000000000E+00 -0.74505805969E-08  0.93827000000E+00  0.93827000000E+00 0.  1.
     999902    2    1    2    0    0  0.12891066515E-01  0.41543137836E-02  0.29854287397E-02  0.10300609444E+01  0.10299675715E+01 0.  0.
     999903    2    3    3    0    0  0.24840988526E-01  0.30153735594E-01 -0.12656272845E+00  0.14011628566E+00  0.45696026012E-01 0.  0.
         14    1    1    2    0    0 -0.12891066515E-01 -0.41543137836E-02 -0.29854287397E-02  0.13869055615E-01  0.00000000000E+00 0. -1.
     999901    1    3    3    0    0 -0.11949922011E-01 -0.25999421810E-01  0.12954815718E+00  0.88994465873E+00  0.88000000000E+00 0. -1.
        -11    1    4    4    0    0 -0.59961473367E-02  0.55943701313E-02 -0.73773240018E-01  0.74229393260E-01  0.51100000000E-03 0.  1.
         11    1    4    4    0    0  0.30837135863E-01  0.24559365463E-01 -0.52789488427E-01  0.65886892395E-01  0.51100000000E-03 0. -1.
</event>
<event>
 8    1  0.2001339E+004  0.1043930E+01  0.7957747E-01            NaN
         13   -1    0    0    0    0  0.00000000000E+00  0.00000000000E+00  0.74505805969E-08  0.10566000000E+00  0.10566000000E+00 0.  1.
     999900   -1    0    0    0    0 -0.00000000000E+00 -0.00000000000E+00 -0.74505805969E-08  0.93827000000E+00  0.93827000000E+00 0.  1.
     999902    2    1    2    0    0  0.15490452578E-02 -0.92693007100E-02 -0.92541825385E-02  0.10307406342E+01  0.10306562451E+01 0.  0.
     999903    2    3    3    0    0  0.87327057304E-01  0.16101826018E-01  0.98100666936E-01  0.13971503120E+00  0.44847133144E-01 0.  0.
         14    1    1    2    0    0 -0.15490452578E-02  0.92693007100E-02  0.92541825385E-02  0.13189365842E-01  0.00000000000E+00 0.  1.
     999901    1    3    3    0    0 -0.85778012046E-01 -0.25371126728E-01 -0.10735484947E+00  0.89102560296E+00  0.88000000000E+00 0. -1.
        -11    1    4    4    0    0  0.61505653448E-01 -0.10378905126E-01  0.64792374203E-01  0.89938756682E-01  0.51100000000E-03 0. -1.
         11    1    4    4    0    0  0.25821403856E-01  0.26480731144E-01  0.33308292733E-01  0.49776274517E-01  0.51100000000E-03 0.  1.
</event>
<event>
 8    1  0.2001339E+004  0.1043930E+01  0.7957747E-01            NaN
         13   -1    0    0    0    0  0.00000000000E+00  0.00000000000E+00  0.74505805969E-08  0.10566000000E+00  0.10566000000E+00 0.  1.
     999900   -1    0    0    0    0 -0.00000000000E+00 -0.00000000000E+00 -0.74505805969E-08  0.93827000000E+00  0.93827000000E+00 0. -1.
     999902    2    1    2    0    0 -0.14201359305E-01  0.15063429627E-01 -0.60183431488E-02  0.10223706407E+01  0.10221432977E+01 0.  0.
     999903    2    3    3    0    0 -0.15284088286E-01 -0.41948732631E-01 -0.11708854514E+00  0.13355786588E+00  0.46202560660E-01 0.  0.
         14    1    1    2    0    0  0.14201359305E-01 -0.15063429627E-01  0.60183431488E-02  0.21559359278E-01  0.00000000000E+00 0.  1.
     999901    1    3    3    0    0  0.10827289809E-02  0.57012162258E-01  0.11107020199E+00  0.88881277484E+00  0.88000000000E+00 0.  1.
        -11    1    4    4    0    0  0.11839575899E-01  0.25138768144E-02 -0.20093982883E-01  0.23463256449E-01  0.51100000000E-03 0.  1.
         11    1    4    4    0    0 -0.27123664185E-01 -0.44462609446E-01 -0.96994562258E-01  0.11009460943E+00  0.51100000000E-03 0. -1.
</event>
<event>
 8    1  0.2001339E+004  0.1043930E+01  0.7957747E-01            NaN
         13   -1    0    0    0    0  0.00000000000E+00  0.00000000000E+00  0.74505805969E-08  0.10566000000E+00  0.10566000000E+00 0.  1.
     999900   -1    0    0    0    0 -0.00000000000E+00 -0.00000000000E+00 -0.74505805969E-08  0.93827000000E+00  0.93827000000E+00 0.  1.
     999902    2    1    2    0    0  0.10859025119E-01  0.87238358038E-02 -0.32225834489E-03  0.10299970323E+01  0.10299027911E+01 0.  0.
     999903    2    3    3    0    0  0.53440205965E-01  0.99730093881E-01  0.71346094119E-01  0.14138482854E+00  0.45798006039E-01 0.  0.
         14    1    1    2    0    0 -0.10859025119E-01 -0.87238358038E-02  0.32225834489E-03  0.13932967670E-01  0.00000000000E+00 0.  1.
     999901    1    3    3    0    0 -0.42581180847E-01 -0.91006258078E-01 -0.71668352464E-01  0.88861220379E+00  0.88000000000E+00 0.  1.
        -11    1    4    4    0    0  0.15451574997E-01  0.99489877239E-02  0.30654087228E-01  0.35744478055E-01  0.51100000000E-03 0. -1.
         11    1    4    4    0    0  0.37988630968E-01  0.89781106157E-01  0.40692006891E-01  0.10564035049E+00  0.51100000000E-03 0.  1.
</event>
<event>
 8    1  0.2001339E+004  0.1043930E+01  0.7957747E-01            NaN
         13   -1    0    0    0    0  0.00000000000E+00  0.00000000000E+00  0.74505805969E-08  0.10566000000E+00  0.10566000000E+00 0. -1.
     999900   -1    0    0    0    0 -0.00000000000E+00 -0.00000000000E+00 -0.74505805969E-08  0.93827000000E+00  0.93827000000E+00 0. -1.
     999902    2    1    2    0    0  0.10237820718E-01  0.82164850902E-03 -0.25965168041E-03  0.10336559794E+01  0.10336049189E+01 0.  0.
     999903    2    3    3    0    0 -0.13093433946E+00  0.29786900945E-02  0.34467943272E-01  0.14172535575E+00  0.41777547864E-01 0.  0.
         14    1    1    2    0    0 -0.10237820718E-01 -0.82164850902E-03  0.25965168041E-03  0.10274020553E-01  0.00000000000E+00 0.  1.
     999901    1    3    3    0    0  0.14117216017E+00 -0.21570415854E-02 -0.34727594952E-01  0.89193062370E+00  0.88000000000E+00 0. -1.
        -11    1    4    4    0    0 -0.91562597924E-01 -0.13013133616E-01  0.10886362067E-01  0.93122634118E-01  0.51100000000E-03 0.  1.
         11    1    4    4    0    0 -0.39371741533E-01  0.15991823710E-01  0.23581581205E-01  0.48602721632E-01  0.51100000000E-03 0. -1.
</event>
<event>
 7    1  0.2001339E+004  0.1043930E+01  0.7957747E-01            NaN
         13   -1    0    0    0    0  0.00000000000E+00  0.00000000000E+00  0.74505805969E-08  0.10566000000E+00  0.10566000000E+00 0. -1.
     999900   -1    0    0    0    0 -0.00000000000E+00 -0.00000000000E+00 -0.74505805969E-08  0.93827000000E+00  0.93827000000E+00 0. -1.
     999903    2    1    2    0    0  0.67393261955E-01 -0.69405790778E-01 -0.35633796408E-01  0.11235926575E+00  0.44674619233E-01 0.  0.
         14    1    1    2    0    0 -0.13754349126E-01 -0.39558176851E-01  0.89609748096E-02  0.42829085272E-01  0.00000000000E+00 0. -1.
     999901    1    1    2    0    0 -0.53638912829E-01  0.10896396763E+00  0.26672821598E-01  0.88874164898E+00  0.88000000000E+00 0.  1.
        -11    1    3    3    0    0  0.18739264455E-01 -0.47332542313E-01 -0.28809073105E-01  0.58495755473E-01  0.51100000000E-03 0.  1.
         11    1    3    3    0    0  0.48653997500E-01 -0.22073248465E-01 -0.68247233029E-02  0.53863510280E-01  0.51100000000E-03 0. -1.
</event>
<event>
 8    1  0.2001339E+004  0.1043930E+01  0.7957747E-01            NaN
         13   -1    0    0    0    0  0.00000000000E+00  0.00000000000E+00  0.74505805969E-08  0.10566000000E+00  0.10566000000E+00 0.  1.
     999900   -1    0    0    0    0 -0.00000000000E+00 -0.00000000000E+00 -0.74505805969E-08  0.93827000000E+00  0.93827000000E+00 0.  1.
     999902    2    1    2    0    0  0.43901452942E-02 -0.23282000917E-02 -0.13189035064E-01  0.10298358687E+01  0.10297394194E+01 0.  0.
     999903    2    3    3    0    0 -0.71874674549E-03 -0.11594078380E+00 -0.66268993055E-01  0.14093126082E+00  0.45025091794E-01 0.  0.
         14    1    1    2    0    0 -0.43901452942E-02  0.23282000917E-02  0.13189035064E-01  0.14094131306E-01  0.00000000000E+00 0.  1.
     999901    1    3    3    0    0  0.51088920397E-02  0.11361258371E+00  0.53079957991E-01  0.88890460787E+00  0.88000000000E+00 0. -1.
        -11    1    4    4    0    0  0.76560240690E-02 -0.99791852948E-01 -0.37482708469E-01  0.10687489497E+00  0.51100000000E-03 0. -1.
         11    1    4    4    0    0 -0.83747708145E-02 -0.16148930854E-01 -0.28786284586E-01  0.34056365854E-01  0.51100000000E-03 0.  1.
</event>
<event>
 8    1  0.2001339E+004  0.1043930E+01  0.7957747E-01            NaN
         13   -1    0    0    0    0  0.00000000000E+00  0.00000000000E+00  0.74505805969E-08  0.10566000000E+00  0.10566000000E+00 0. -1.
     999900   -1    0    0    0    0 -0.00000000000E+00 -0.00000000000E+00 -0.74505805969E-08  0.93827000000E+00  0.93827000000E+00 0.  1.
     999902    2    1    2    0    0 -0.84457955462E-02 -0.79860986586E-02 -0.77752882920E-02  0.10299455679E+01  0.10298506243E+01 0.  0.
     999903    2    3    3    0    0 -0.37676383205E-01  0.10050250057E+00  0.76518763954E-01  0.13880602174E+00  0.43493999159E-01 0.  0.
         14    1    1    2    0    0  0.84457955462E-02  0.79860986586E-02  0.77752882920E-02  0.13984432138E-01  0.00000000000E+00 0. -1.
     999901    1    3    3    0    0  0.29230587659E-01 -0.10848859923E+00 -0.84294052246E-01  0.89113954612E+00  0.88000000000E+00 0.  1.
        -11    1    4    4    0    0 -0.99820348795E-02  0.57944225984E-01  0.18361038992E-01  0.61600026129E-01  0.51100000000E-03 0.  1.
         11    1    4    4    0    0 -0.27694348325E-01  0.42558274583E-01  0.58157724962E-01  0.77205995612E-01  0.51100000000E-03 0. -1.
</event>
<event>
 8    1  0.2001339E+004  0.1043930E+01  0.7957747E-01            NaN
         13   -1    0    0    0    0  0.00000000000E+00  0.00000000000E+00  0.74505805969E-08  0.10566000000E+00  0.10566000000E+00 0. -1.
     999900   -1    0    0    0    0 -0.00000000000E+00 -0.00000000000E+00 -0.74505805969E-08  0.93827000000E+00  0.93827000000E+00 0.  1.
     999902    2    1    2    0    0 -0.63069033933E-02  0.24500079114E-02 -0.12000789334E-01  0.10301532619E+01  0.10300611362E+01 0.  0.
     999903    2    3    3    0    0 -0.87015489733E-03  0.68390569570E-01  0.11217997036E+00  0.13897506588E+00  0.45295651142E-01 0.  0.
         14    1    1    2    0    0  0.63069033933E-02 -0.24500079114E-02  0.12000789334E-01  0.13776738141E-01  0.00000000000E+00 0. -1.
     999901    1    3    3    0    0 -0.54367484960E-02 -0.65940561659E-01 -0.12418075969E+00  0.89117819598E+00  0.88000000000E+00 0.  1.
        -11    1    4    4    0    0  0.74297617195E-02  0.33872064044E-01  0.19637184410E-01  0.39854713829E-01  0.51100000000E-03 0.  1.
         11    1    4    4    0    0 -0.82999166169E-02  0.34518505526E-01  0.92542785946E-01  0.99120352054E-01  0.51100000000E-03 0. -1.
</event>
<event>
 8    1  0.2001339E+004  0.1043930E+01  0.7957747E-01            NaN
         13   -1    0    0    0    0  0.00000000000E+00  0.00000000000E+00  0.74505805969E-08  0.10566000000E+00  0.10566000000E+00 0.  1.
     999900   -1    0    0    0    0 -0.00000000000E+00 -0.00000000000E+00 -0.74505805969E-08  0.93827000000E+00  0.93827000000E+00 0.  1.
     999902    2    1    2    0    0 -0.15922270149E-02 -0.77957479984E-02 -0.11746243285E-01  0.10297425723E+01  0.10296448330E+01 0.  0.
     999903    2    3    3    0    0  0.12404586297E-01 -0.11010264325E+00 -0.75571046475E-01  0.14140917930E+00  0.44823064512E-01 0.  0.
         14    1    1    2    0    0  0.15922270149E-02  0.77957479984E-02  0.11746243285E-01  0.14187427711E-01  0.00000000000E+00 0.  1.
     999901    1    3    3    0    0 -0.13996813311E-01  0.10230689525E+00  0.63824803190E-01  0.88833339299E+00  0.88000000000E+00 0. -1.
        -11    1    4    4    0    0  0.21481178913E-01 -0.33528129445E-01 -0.40153856742E-01  0.56552363733E-01  0.51100000000E-03 0.  1.
         11    1    4    4    0    0 -0.90765926160E-02 -0.76574513808E-01 -0.35417189734E-01  0.84856815566E-01  0.51100000000E-03 0. -1.
</event>
<event>
 8    1  0.2001339E+004  0.1043930E+01  0.7957747E-01            NaN
         13   -1    0    0    0    0  0.00000000000E+00  0.00000000000E+00  0.74505805969E-08  0.10566000000E+00  0.10566000000E+00 0.  1.
     999900   -1    0    0    0    0 -0.00000000000E+00 -0.00000000000E+00 -0.74505805969E-08  0.93827000000E+00  0.93827000000E+00 0.  1.
     999902    2    1    2    0    0 -0.11462868176E-01 -0.57427214880E-02  0.46191819747E-02  0.10303023429E+01  0.10302122134E+01 0.  0.
     999903    2    3    3    0    0 -0.93372205408E-01  0.16380012446E-01 -0.94809742143E-01  0.14064810338E+00  0.42500920323E-01 0.  0.
         14    1    1    2    0    0  0.11462868176E-01  0.57427214880E-02 -0.46191819747E-02  0.13627657137E-01  0.00000000000E+00 0. -1.
     999901    1    3    3    0    0  0.81909337231E-01 -0.22122733934E-01  0.99428924118E-01  0.88965423948E+00  0.88000000000E+00 0. -1.
        -11    1    4    4    0    0 -0.45384504615E-01 -0.85926420134E-02 -0.25631738740E-01  0.52828343792E-01  0.51100000000E-03 0.  1.
         11    1    4    4    0    0 -0.47987700793E-01  0.24972654459E-01 -0.69178003403E-01  0.87819759587E-01  0.51100000000E-03 0. -1.
</event>
<event>
 8    1  0.2001339E+004  0.1043930E+01  0.7957747E-01            NaN
         13   -1    0    0    0    0  0.00000000000E+00  0.00000000000E+00  0.74505805969E-08  0.10566000000E+00  0.10566000000E+00 0.  1.
     999900   -1    0    0    0    0 -0.00000000000E+00 -0.00000000000E+00 -0.74505805969E-08  0.93827000000E+00  0.93827000000E+00 0. -1.
     999902    2    1    2    0    0 -0.87790662095E-02  0.57216826434E-02 -0.97358776416E-02  0.10296262603E+01  0.10295269005E+01 0.  0.
     999903    2    3    3    0    0 -0.52526709590E-01 -0.39207814948E-02  0.12050669045E+00  0.13891308539E+00  0.44727565344E-01 0.  0.
         14    1    1    2    0    0  0.87790662095E-02 -0.57216826434E-02  0.97358776416E-02  0.14303739694E-01  0.00000000000E+00 0.  1.
     999901    1    3    3    0    0  0.43747643381E-01  0.96424641382E-02 -0.13024256810E+00  0.89071317491E+00  0.88000000000E+00 0. -1.
        -11    1    4    4    0    0 -0.34164799885E-02 -0.14748529300E-01  0.50440129854E-01  0.52665541607E-01  0.51100000000E-03 0. -1.
         11    1    4    4    0    0 -0.49110229602E-01  0.10827747805E-01  0.70066560601E-01  0.86247543788E-01  0.51100000000E-03 0.  1.
</event>
<event>
 8    1  0.2001339E+004  0.1043930E+01  0.7957747E-01            NaN
         13   -1    0    0    0    0  0.00000000000E+00  0.00000000000E+00  0.74505805969E-08  0.10566000000E+00  0.10566000000E+00 0. -1.
     999900   -1    0    0    0    0 -0.00000000000E+00 -0.00000000000E+00 -0.74505805969E-08  0.93827000000E+00  0.93827000000E+00 0.  1.
     999902    2    1    2    0    0 -0.57757891417E-02  0.10557093886E-01  0.99464051008E-02  0.10283177309E+01  0.10281992087E+01 0.  0.
     999903    2    3    3    0    0 -0.54201078984E-01  0.32199950833E-01 -0.11425521926E+00  0.13801471202E+00  0.44935640757E-01 0.  0.
         14    1    1    2    0    0  0.57757891417E-02 -0.10557093886E-01 -0.99464051008E-02  0.15612269084E-01  0.00000000000E+00 0.  1.
     999901    1    3    3    0    0  0.48425289842E-01 -0.21642856947E-01  0.12420162436E+00  0.89030301889E+00  0.88000000000E+00 0. -1.
        -11    1    4    4    0    0 -0.37320967356E-01 -0.89448559727E-03 -0.38450591050E-01  0.53594437976E-01  0.51100000000E-03 0. -1.
         11    1    4    4    0    0 -0.16880111628E-01  0.33094436431E-01 -0.75804628211E-01  0.84420274048E-01  0.51100000000E-03 0.  1.
</event>
<event>
 8    1  0.2001339E+004  0.1043930E+01  0.7957747E-01            NaN
         13   -1    0    0    0    0  0.00000000000E+00  0.00000000000E+00  0.74505805969E-08  0.10566000000E+00  0.10566000000E+00 0.  1.
     999900   -1    0    0    0    0 -0.00000000000E+00 -0.00000000000E+00 -0.74505805969E-08  0.93827000000E+00  0.93827000000E+00 0. -1.
     999902    2    1    2    0    0  0.55326782843E-02 -0.12821381478E-01 -0.26640893340E-02  0.10297139624E+01  0.10296158258E+01 0.  0.
     999903    2    3    3    0    0  0.78954854324E-01 -0.67879348978E-01  0.82921006549E-01  0.14081182814E+00  0.45941294914E-01 0.  0.
         14    1    1    2    0    0 -0.55326782843E-02  0.12821381478E-01  0.26640893340E-02  0.14216037562E-01  0.00000000000E+00 0.  1.
     999901    1    3    3    0    0 -0.73422176040E-01  0.55057967500E-01 -0.85585095883E-01  0.88890213430E+00  0.88000000000E+00 0. -1.
        -11    1    4    4    0    0  0.60779511155E-01 -0.31474791880E-01  0.31804474394E-01  0.75475805478E-01  0.51100000000E-03 0. -1.
         11    1    4    4    0    0  0.18175343169E-01 -0.36404557099E-01  0.51116532155E-01  0.65336022663E-01  0.51100000000E-03 0.  1.
</event>
<event>
 8    1  0.2022899E+004  0.1043930E+01  0.7957747E-01            NaN
         13   -1    0    0    0    0  0.00000000000E+00  0.00000000000E+00  0.74505805969E-08  0.10566000000E+00  0.10566000000E+00 0.  1.
     999900   -1    0    0    0    0 -0.00000000000E+00 -0.00000000000E+00 -0.74505805969E-08  0.93827000000E+00  0.93827000000E+00 0. -1.
     999902    2    1    2    0    0  0.19131328779E-01  0.44981835002E-02  0.17946451269E-01  0.10173157837E+01  0.10169675940E+01 0.  0.
     999903    2    3    3    0    0  0.83340608876E-01  0.86997210159E-01  0.24701619799E-01  0.13110217890E+00  0.45425099096E-01 0.  0.
         14    1    1    2    0    0 -0.19131328779E-01 -0.44981835002E-02 -0.17946451269E-01  0.26614216291E-01  0.00000000000E+00 0. -1.
     999901    1    3    3    0    0 -0.64209280098E-01 -0.82499026658E-01 -0.67551685304E-02  0.88621360481E+00  0.88000000000E+00 0. -1.
        -11    1    4    4    0    0  0.42013460037E-01  0.71016875490E-01  0.26749170500E-01  0.86742761496E-01  0.51100000000E-03 0.  1.
         11    1    4    4    0    0  0.41327148840E-01  0.15980334669E-01 -0.20475507008E-02  0.44359417402E-01  0.51100000000E-03 0. -1.
</event>
<event>
 8    1  0.2001339E+004  0.1043930E+01  0.7957747E-01            NaN
         13   -1    0    0    0    0  0.00000000000E+00  0.00000000000E+00  0.74505805969E-08  0.10566000000E+00  0.10566000000E+00 0.  1.
     999900   -1    0    0    0    0 -0.00000000000E+00 -0.00000000000E+00 -0.74505805969E-08  0.93827000000E+00  0.93827000000E+00 0.  1.
     999902    2    1    2    0    0 -0.29446627716E-02 -0.13591745784E-01 -0.16262715159E-01  0.10225318109E+01  0.10223078899E+01 0.  0.
     999903    2    3    3    0    0  0.19852074415E-01 -0.36211650112E-01 -0.12101368296E+00  0.13573751877E+00  0.45551883362E-01 0.  0.
         14    1    1    2    0    0  0.29446627716E-02  0.13591745784E-01  0.16262715159E-01  0.21398189097E-01  0.00000000000E+00 0.  1.
     999901    1    3    3    0    0 -0.22796737186E-01  0.22619904329E-01  0.10475096780E+00  0.88679429213E+00  0.88000000000E+00 0. -1.
        -11    1    4    4    0    0 -0.10248237264E-01  0.40402034792E-02 -0.26147963936E-01  0.28378279549E-01  0.51100000000E-03 0. -1.
         11    1    4    4    0    0  0.30100311678E-01 -0.40251853591E-01 -0.94865719021E-01  0.10735923922E+00  0.51100000000E-03 0.  1.
</event>
<event>
 8    1  0.2001339E+004  0.1043930E+01  0.7957747E-01            NaN
         13   -1    0    0    0    0  0.00000000000E+00  0.00000000000E+00  0.74505805969E-08  0.10566000000E+00  0.10566000000E+00 0.  1.
     999900   -1    0    0    0    0 -0.00000000000E+00 -0.00000000000E+00 -0.74505805969E-08  0.93827000000E+00  0.93827000000E+00 0. -1.
     999902    2    1    2    0    0  0.14663538403E-03 -0.55063824889E-02 -0.12164160599E-01  0.10305767774E+01  0.10304902647E+01 0.  0.
     999903    2    3    3    0    0 -0.67059021258E-02 -0.55577711424E-01 -0.12305448290E+00  0.14217891676E+00  0.44029393358E-01 0.  0.
         14    1    1    2    0    0 -0.14663538403E-03  0.55063824889E-02  0.12164160599E-01  0.13353222575E-01  0.00000000000E+00 0.  1.
     999901    1    3    3    0    0  0.68525375098E-02  0.50071328935E-01  0.11089032230E+00  0.88839786066E+00  0.88000000000E+00 0.  1.
        -11    1    4    4    0    0 -0.17170732454E-01 -0.13428268544E-01 -0.17235100908E-01  0.27793205526E-01  0.51100000000E-03 0. -1.
         11    1    4    4    0    0  0.10464830328E-01 -0.42149442880E-01 -0.10581938199E+00  0.11438571124E+00  0.51100000000E-03 0.  1.
</event>
<event>
 8    1  0.2001339E+004  0.1043930E+01  0.7957747E-01            NaN
         13   -1    0    0    0    0  0.00000000000E+00  0.00000000000E+00  0.74505805969E-08  0.10566000000E+00  0.10566000000E+00 0. -1.
     999900   -1    0    0    0    0 -0.00000000000E+00 -0.00000000000E+00 -0.74505805969E-08  0.93827000000E+00  0.93827000000E+00 0. -1.
     999902    2    1    2    0    0  0.93684656772E-02  0.15308577684E-02  0.10021439120E-01  0.10301263441E+01  0.10300338557E+01 0.  0.
     999903    2    3    3    0    0 -0.32384938959E-01  0.11021834045E+00 -0.65281967744E-01  0.13926893755E+00  0.44014029689E-01 0.  0.
         14    1    1    2    0    0 -0.93684656772E-02 -0.15308577684E-02 -0.10021439120E-01  0.13803655918E-01  0.00000000000E+00 0.  1.
     999901    1    3    3    0    0  0.41753404636E-01 -0.10868748269E+00  0.75303406864E-01  0.89085740653E+00  0.88000000000E+00 0.  1.
        -11    1    4    4    0    0 -0.38587162294E-01  0.73400978138E-01 -0.30857777172E-01  0.88482406266E-01  0.51100000000E-03 0. -1.
         11    1    4    4    0    0  0.62022233349E-02  0.36817362316E-01 -0.34424190572E-01  0.50786531283E-01  0.51100000000E-03 0.  1.
</event>
<event>
 8    1  0.2001339E+004  0.1043930E+01  0.7957747E-01            NaN
         13   -1    0    0    0    0  0.00000000000E+00  0.00000000000E+00  0.74505805969E-08  0.10566000000E+00  0.10566000000E+00 0. -1.
     999900   -1    0    0    0    0 -0.00000000000E+00 -0.00000000000E+00 -0.74505805969E-08  0.93827000000E+00  0.93827000000E+00 0. -1.
     999902    2    1    2    0    0 -0.10163166859E-01  0.71085102152E-02 -0.18236867388E-02  0.10313941829E+01  0.10313179984E+01 0.  0.
     999903    2    3    3    0    0  0.73940435236E-01  0.83418448228E-01  0.73987418311E-01  0.14086403392E+00  0.44076212582E-01 0.  0.
         14    1    1    2    0    0  0.10163166859E-01 -0.71085102152E-02  0.18236867388E-02  0.12535817141E-01  0.00000000000E+00 0. -1.
     999901    1    3    3    0    0 -0.84103602094E-01 -0.76309938013E-01 -0.75811105050E-01  0.89053014894E+00  0.88000000000E+00 0.  1.
        -11    1    4    4    0    0  0.31420044082E-01  0.18054555717E-01  0.44748874018E-01  0.57583930043E-01  0.51100000000E-03 0.  1.
         11    1    4    4    0    0  0.42520391153E-01  0.65363892511E-01  0.29238544293E-01  0.83280103875E-01  0.51100000000E-03 0. -1.
</event>
<event>
 8    1  0.2001339E+004  0.1043930E+01  0.7957747E-01            NaN
         13   -1    0    0    0    0  0.00000000000E+00  0.00000000000E+00  0.74505805969E-08  0.10566000000E+00  0.10566000000E+00 0. -1.
     999900   -1    0    0    0    0 -0.00000000000E+00 -0.00000000000E+00 -0.74505805969E-08  0.93827000000E+00  0.93827000000E+00 0.  1.
     999902    2    1    2    0    0 -0.16329280432E-02 -0.75199806461E-02 -0.98633645779E-02  0.10314199031E+01  0.10313440328E+01 0.  0.
     999903    2    3    3    0    0 -0.47046554950E-02 -0.53388579304E-01 -0.12450374163E+00  0.14279412143E+00  0.44905514724E-01 0.  0.
         14    1    1    2    0    0  0.16329280432E-02  0.75199806461E-02  0.98633645779E-02  0.12510096870E-01  0.00000000000E+00 0. -1.
     999901    1    3    3    0    0  0.30717274518E-02  0.45868598658E-01  0.11464037705E+00  0.88862578170E+00  0.88000000000E+00 0. -1.
        -11    1    4    4    0    0  0.18901317921E-01 -0.15099438601E-01 -0.34050719324E-01  0.41772783876E-01  0.51100000000E-03 0.  1.
         11    1    4    4    0    0 -0.23605973416E-01 -0.38289140704E-01 -0.90453022301E-01  0.10102133755E+00  0.51100000000E-03 0. -1.
</event>
<event>
 8    1  0.2001339E+004  0.1043930E+01  0.7957747E-01            NaN
         13   -1    0    0    0    0  0.00000000000E+00  0.00000000000E+00  0.74505805969E-08  0.10566000000E+00  0.10566000000E+00 0.  1.
     999900   -1    0    0    0    0 -0.00000000000E+00 -0.00000000000E+00 -0.74505805969E-08  0.93827000000E+00  0.93827000000E+00 0. -1.
     999902    2    1    2    0    0  0.11442439140E-01 -0.10081387479E-01 -0.98375425230E-02  0.10257822445E+01  0.10256217003E+01 0.  0.
     999903    2    3    3    0    0  0.14105857518E-01  0.10992407823E+00  0.62863749540E-01  0.13466278928E+00  0.43588273865E-01 0.  0.
         14    1    1    2    0    0 -0.11442439140E-01  0.10081387479E-01  0.98375425230E-02  0.18147755505E-01  0.00000000000E+00 0.  1.
     999901    1    3    3    0    0 -0.26634183782E-02 -0.12000546571E+00 -0.72701292063E-01  0.89111945522E+00  0.88000000000E+00 0. -1.
        -11    1    4    4    0    0  0.26004556052E-01  0.73365028249E-01  0.27885899386E-01  0.82683425249E-01  0.51100000000E-03 0. -1.
         11    1    4    4    0    0 -0.11898698534E-01  0.36559049984E-01  0.34977850153E-01  0.51979364029E-01  0.51100000000E-03 0.  1.
</event>
<event>
 8    1  0.2220926E+004  0.1043930E+01  0.7957747E-01            NaN
         13   -1    0    0    0    0  0.00000000000E+00  0.00000000000E+00  0.74505805969E-08  0.10566000000E+00  0.10566000000E+00 0.  1.
     999900   -1    0    0    0    0 -0.00000000000E+00 -0.00000000000E+00 -0.74505805969E-08  0.93827000000E+00  0.93827000000E+00 0. -1.
     999902    2    1    2    0    0 -0.96047417028E-02 -0.97574400954E-02  0.27909954805E-02  0.10299568702E+01  0.10298620811E+01 0.  0.
     999903    2    3    3    0    0 -0.21246428248E-01  0.20587188144E-01 -0.12849731136E+00  0.13962381745E+00  0.45913051974E-01 0.  0.
         14    1    1    2    0    0  0.96047417028E-02  0.97574400954E-02 -0.27909954805E-02  0.13973129791E-01  0.00000000000E+00 0. -1.
     999901    1    3    3    0    0  0.11641686545E-01 -0.30344628239E-01  0.13128830684E+00  0.89033305276E+00  0.88000000000E+00 0.  1.
        -11    1    4    4    0    0 -0.68672580956E-02  0.34120543840E-01 -0.85027460999E-01  0.91876552996E-01  0.51100000000E-03 0.  1.
         11    1    4    4    0    0 -0.14379170152E-01 -0.13533355696E-01 -0.43469850365E-01  0.47747264449E-01  0.51100000000E-03 0. -1.
</event>
<event>
 8    1  0.2001339E+004  0.1043930E+01  0.7957747E-01            NaN
         13   -1    0    0    0    0  0.00000000000E+00  0.00000000000E+00  0.74505805969E-08  0.10566000000E+00  0.10566000000E+00 0. -1.
     999900   -1    0    0    0    0 -0.00000000000E+00 -0.00000000000E+00 -0.74505805969E-08  0.93827000000E+00  0.93827000000E+00 0. -1.
     999902    2    1    2    0    0  0.11183266669E-01  0.58078360030E-02  0.30322620644E-02  0.10309688648E+01  0.10308873892E+01 0.  0.
     999903    2    3    3    0    0 -0.46226335951E-01  0.10452464782E+00 -0.68322073907E-01  0.14072602564E+00  0.45537153769E-01 0.  0.
         14    1    1    2    0    0 -0.11183266669E-01 -0.58078360030E-02 -0.30322620644E-02  0.12961135199E-01  0.00000000000E+00 0.  1.
     999901    1    3    3    0    0  0.57409602619E-01 -0.98716811817E-01  0.71354335971E-01  0.89024283916E+00  0.88000000000E+00 0.  1.
        -11    1    4    4    0    0 -0.28413840781E-01  0.10068984717E+00 -0.60801420612E-01  0.12100770860E+00  0.51100000000E-03 0.  1.
         11    1    4    4    0    0 -0.17812495170E-01  0.38348006536E-02 -0.75206532949E-02  0.19718317048E-01  0.51100000000E-03 0. -1.
</event>
<event>
 8    1  0.2001339E+004  0.1043930E+01  0.7957747E-01            NaN
         13   -1    0    0    0    0  0.00000000000E+00  0.00000000000E+00  0.74505805969E-08  0.10566000000E+00  0.10566000000E+00 0. -1.
     999900   -1    0    0    0    0 -0.00000000000E+00 -0.00000000000E+00 -0.74505805969E-08  0.93827000000E+00  0.93827000000E+00 0. -1.
     999902    2    1    2    0    0 -0.77881908953E-02  0.77350129719E-03  0.11398890578E-01  0.10301028916E+01  0.10300100865E+01 0.  0.
     999903    2    3    3    0    0 -0.85589329904E-01 -0.87856131183E-01  0.53033476447E-01  0.14126001020E+00  0.45799647139E-01 0.  0.
         14    1    1    2    0    0  0.77881908953E-02 -0.77350129719E-03 -0.11398890578E-01  0.13827108450E-01  0.00000000000E+00 0.  1.
     999901    1    3    3    0    0  0.77801139009E-01  0.88629632481E-01 -0.41634585870E-01  0.88884288135E+00  0.88000000000E+00 0. -1.
        -11    1    4    4    0    0 -0.25229851129E-01 -0.57957037230E-01  0.30862730206E-01  0.70344387049E-01  0.51100000000E-03 0. -1.
         11    1    4    4    0    0 -0.60359478775E-01 -0.29899093953E-01  0.22170746241E-01  0.70915623152E-01  0.51100000000E-03 0.  1.
</event>
<event>
 8    1  0.2001339E+004  0.1043930E+01  0.7957747E-01            NaN
         13   -1    0    0    0    0  0.00000000000E+00  0.00000000000E+00  0.74505805969E-08  0.10566000000E+00  0.10566000000E+00 0.  1.
     999900   -1    0    0    0    0 -0.00000000000E+00 -0.00000000000E+00 -0.74505805969E-08  0.93827000000E+00  0.93827000000E+00 0. -1.
     999902    2    1    2    0    0 -0.45861284241E-02  0.26382642498E-02  0.15073903197E-01  0.10279545323E+01  0.10278303872E+01 0.  0.
     999903    2    3    3    0    0  0.29545428900E-02  0.60582271184E-01  0.11408551794E+00  0.14047626800E+00  0.55128355348E-01 0.  0.
         14    1    1    2    0    0  0.45861284241E-02 -0.26382642498E-02 -0.15073903197E-01  0.15975467748E-01  0.00000000000E+00 0. -1.
     999901    1    3    3    0    0 -0.75406713141E-02 -0.57944006934E-01 -0.99011614740E-01  0.88747826425E+00  0.88000000000E+00 0. -1.
        -11    1    4    4    0    0 -0.75446506196E-02 -0.76657742709E-03  0.52035987367E-01  0.52588159277E-01  0.51100000000E-03 0.  1.
         11    1    4    4    0    0  0.10499193510E-01  0.61348848611E-01  0.62049530570E-01  0.87888108725E-01  0.51100000000E-03 0. -1.
</event>
<event>
 8    1  0.2001339E+004  0.1043930E+01  0.7957747E-01            NaN
         13   -1    0    0    0    0  0.00000000000E+00  0.00000000000E+00  0.74505805969E-08  0.10566000000E+00  0.10566000000E+00 0.  1.
     999900   -1    0    0    0    0 -0.00000000000E+00 -0.00000000000E+00 -0.74505805969E-08  0.93827000000E+00  0.93827000000E+00 0.  1.
     999902    2    1    2    0    0 -0.52602328433E-02 -0.93126382203E-02  0.12769651087E-01  0.10272728913E+01  0.10271378359E+01 0.  0.
     999903    2    3    3    0    0 -0.93416767871E-01  0.42025493258E-01  0.81349987976E-01  0.13872889073E+00  0.46206600993E-01 0.  0.
         14    1    1    2    0    0  0.52602328433E-02  0.93126382203E-02 -0.12769651087E-01  0.16657108665E-01  0.00000000000E+00 0. -1.
     999901    1    3    3    0    0  0.88156535028E-01 -0.51338131478E-01 -0.68580336889E-01  0.88854400061E+00  0.88000000000E+00 0.  1.
        -11    1    4    4    0    0 -0.77498626768E-01  0.23143279653E-01  0.39216011079E-01  0.89887736593E-01  0.51100000000E-03 0. -1.
         11    1    4    4    0    0 -0.15918141103E-01  0.18882213605E-01  0.42133976897E-01  0.48841154132E-01  0.51100000000E-03 0.  1.
</event>
<event>
 8    1  0.2001339E+004  0.1043930E+01  0.7957747E-01            NaN
         13   -1    0    0    0    0  0.00000000000E+00  0.00000000000E+00  0.74505805969E-08  0.10566000000E+00  0.10566000000E+00 0. -1.
     999900   -1    0    0    0    0 -0.00000000000E+00 -0.00000000000E+00 -0.74505805969E-08  0.93827000000E+00  0.93827000000E+00 0. -1.
     999902    2    1    2    0    0  0.47912677066E-02  0.90166281130E-02  0.95347252110E-02  0.10299597883E+01  0.10298650391E+01 0.  0.
     999903    2    3    3    0    0  0.11321347553E+00  0.37688944615E-01 -0.58348128142E-01  0.14024884728E+00  0.45027630588E-01 0.  0.
         14    1    1    2    0    0 -0.47912677066E-02 -0.90166281130E-02 -0.95347252110E-02  0.13970211652E-01  0.00000000000E+00 0.  1.
     999901    1    3    3    0    0 -0.10842220783E+00 -0.28672316502E-01  0.67882853353E-01  0.88971094107E+00  0.88000000000E+00 0.  1.
        -11    1    4    4    0    0  0.37638749841E-01  0.29882066456E-01 -0.70531435729E-02  0.48575933759E-01  0.51100000000E-03 0. -1.
         11    1    4    4    0    0  0.75574725691E-01  0.78068781596E-02 -0.51294984569E-01  0.91672913517E-01  0.51100000000E-03 0.  1.
</event>
<event>
 8    1  0.2001339E+004  0.1043930E+01  0.7957747E-01            NaN
         13   -1    0    0    0    0  0.00000000000E+00  0.00000000000E+00  0.74505805969E-08  0.10566000000E+00  0.10566000000E+00 0. -1.
     999900   -1    0    0    0    0 -0.00000000000E+00 -0.00000000000E+00 -0.74505805969E-08  0.93827000000E+00  0.93827000000E+00 0.  1.
     999902    2    1    2    0    0  0.98335693273E-02 -0.37554036724E-02 -0.79326065051E-02  0.10307493935E+01  0.10306651172E+01 0.  0.
     999903    2    3    3    0    0  0.87824132141E-01 -0.97490902098E-01  0.29702942644E-01  0.14154452050E+00  0.43989002088E-01 0.  0.
         14    1    1    2    0    0 -0.98335693273E-02  0.37554036724E-02  0.79326065051E-02  0.13180606527E-01  0.00000000000E+00 0. -1.
     999901    1    3    3    0    0 -0.77990562813E-01  0.93735498425E-01 -0.37635549149E-01  0.88920487297E+00  0.88000000000E+00 0.  1.
        -11    1    4    4    0    0  0.57671356100E-01 -0.41495539008E-01  0.31953884524E-01  0.77904922368E-01  0.51100000000E-03 0. -1.
         11    1    4    4    0    0  0.30152776041E-01 -0.55995363090E-01 -0.22509418800E-02  0.63639598135E-01  0.51100000000E-03 0.  1.
</event>
<event>
 8    1  0.2001339E+004  0.1043930E+01  0.7957747E-01            NaN
         13   -1    0    0    0    0  0.00000000000E+00  0.00000000000E+00  0.74505805969E-08  0.10566000000E+00  0.10566000000E+00 0. -1.
     999900   -1    0    0    0    0 -0.00000000000E+00 -0.00000000000E+00 -0.74505805969E-08  0.93827000000E+00  0.93827000000E+00 0.  1.
     999902    2    1    2    0    0  0.13206986008E-01 -0.30244365022E-02  0.18372826216E-02  0.10302571326E+01  0.10301664001E+01 0.  0.
     999903    2    3    3    0    0 -0.57372896225E-01  0.11800743156E+00 -0.95663823675E-02  0.13910042559E+00  0.45166465496E-01 0.  0.
         14    1    1    2    0    0 -0.13206986008E-01  0.30244365022E-02 -0.18372826216E-02  0.13672867403E-01  0.00000000000E+00 0. -1.
     999901    1    3    3    0    0  0.70579882233E-01 -0.12103186806E+00  0.11403664989E-01  0.89115670700E+00  0.88000000000E+00 0. -1.
        -11    1    4    4    0    0 -0.13268888663E-01  0.23689899665E-01  0.16485400825E-01  0.31769550105E-01  0.51100000000E-03 0. -1.
         11    1    4    4    0    0 -0.44104007561E-01  0.94317531891E-01 -0.26051783192E-01  0.10733087549E+00  0.51100000000E-03 0.  1.
</event>
<event>
 8    1  0.2001339E+004  0.1043930E+01  0.7957747E-01            NaN
         13   -1    0    0    0    0  0.00000000000E+00  0.00000000000E+00  0.74505805969E-08  0.10566000000E+00  0.10566000000E+00 0. -1.
     999900   -1    0    0    0    0 -0.00000000000E+00 -0.00000000000E+00 -0.74505805969E-08  0.93827000000E+00  0.93827000000E+00 0. -1.
     999902    2    1    2    0    0 -0.46960147626E-03  0.99111949485E-02  0.93800084692E-02  0.10302758113E+01  0.10301853282E+01 0.  0.
     999903    2    3    3    0    0  0.72763366881E-01  0.56430267553E-01  0.97502141606E-01  0.14162931119E+00  0.45533630577E-01 0.  0.
         14    1    1    2    0    0  0.46960147626E-03 -0.99111949485E-02 -0.93800084692E-02  0.13654188725E-01  0.00000000000E+00 0.  1.
     999901    1    3    3    0    0 -0.73232968357E-01 -0.46519072605E-01 -0.88122133137E-01  0.88864650009E+00  0.88000000000E+00 0. -1.
        -11    1    4    4    0    0  0.21169431691E-01  0.34413658118E-01  0.17773485957E-01  0.44142979366E-01  0.51100000000E-03 0. -1.
         11    1    4    4    0    0  0.51593935189E-01  0.22016609435E-01  0.79728655649E-01  0.97486331821E-01  0.51100000000E-03 0.  1.
</event>
<event>
 8    1  0.2001339E+004  0.1043930E+01  0.7957747E-01            NaN
         13   -1    0    0    0    0  0.00000000000E+00  0.00000000000E+00  0.74505805969E-08  0.10566000000E+00  0.10566000000E+00 0.  1.
     999900   -1    0    0    0    0 -0.00000000000E+00 -0.00000000000E+00 -0.74505805969E-08  0.93827000000E+00  0.93827000000E+00 0.  1.
     999902    2    1    2    0    0 -0.89718752816E-02 -0.69232131741E-02  0.51549990198E-02  0.10314801228E+01  0.10314049856E+01 0.  0.
     999903    2    3    3    0    0 -0.49237356309E-01  0.27713954033E-01 -0.12097240976E+00  0.14090212761E+00  0.45018942002E-01 0.  0.
         14    1    1    2    0    0  0.89718752816E-02  0.69232131741E-02 -0.51549990198E-02  0.12449877173E-01  0.00000000000E+00 0. -1.
     999901    1    3    3    0    0  0.40265481028E-01 -0.34637167207E-01  0.12612740878E+00  0.89057799521E+00  0.88000000000E+00 0. -1.
        -11    1    4    4    0    0 -0.17231446418E-01  0.13145370512E-02 -0.54083634657E-02  0.18115249645E-01  0.51100000000E-03 0. -1.
         11    1    4    4    0    0 -0.32005909891E-01  0.26399416982E-01 -0.11556404629E+00  0.12278687797E+00  0.51100000000E-03 0.  1.
</event>
<event>
 8    1  0.2001339E+004  0.1043930E+01  0.7957747E-01            NaN
         13   -1    0    0    0    0  0.00000000000E+00  0.00000000000E+00  0.74505805969E-08  0.10566000000E+00  0.10566000000E+00 0. -1.
     999900   -1    0    0    0    0 -0.00000000000E+00 -0.00000000000E+00 -0.74505805969E-08  0.93827000000E+00  0.93827000000E+00 0. -1.
     999902    2    1    2    0    0 -0.17747281810E-02  0.13759129151E-01 -0.32652504263E-02  0.10296778017E+01  0.10295791617E+01 0.  0.
     999903    2    3    3    0    0  0.77090734211E-01 -0.10476966812E+00 -0.15039186725E-01  0.13815805292E+00  0.44065925505E-01 0.  0.
         14    1    1    2    0    0  0.17747281810E-02 -0.13759129151E-01  0.32652504263E-02  0.14252198268E-01  0.00000000000E+00 0.  1.
     999901    1    3    3    0    0 -0.78865462392E-01  0.11852879727E+00  0.11773936299E-01  0.89151974881E+00  0.88000000000E+00 0. -1.
        -11    1    4    4    0    0  0.36131918669E-01 -0.70135045424E-01 -0.26645974597E-01  0.83274901540E-01  0.51100000000E-03 0. -1.
         11    1    4    4    0    0  0.40958815541E-01 -0.34634622698E-01  0.11606787872E-01  0.54883151382E-01  0.51100000000E-03 0.  1.
</event>
<event>
 8    1  0.2001339E+004  0.1043930E+01  0.7957747E-01            NaN
         13   -1    0    0    0    0  0.00000000000E+00  0.00000000000E+00  0.74505805969E-08  0.10566000000E+00  0.10566000000E+00 0.  1.
     999900   -1    0    0    0    0 -0.00000000000E+00 -0.00000000000E+00 -0.74505805969E-08  0.93827000000E+00  0.93827000000E+00 0.  1.
     999902    2    1    2    0    0  0.14339089451E-02  0.11661069566E-01 -0.59875297554E-02  0.10307433723E+01  0.10306590185E+01 0.  0.
     999903    2    3    3    0    0  0.93924038167E-01  0.94634244319E-01  0.16522982580E-01  0.14172948324E+00  0.45131721899E-01 0.  0.
         14    1    1    2    0    0 -0.14339089451E-02 -0.11661069566E-01  0.59875297554E-02  0.13186627729E-01  0.00000000000E+00 0.  1.
     999901    1    3    3    0    0 -0.92490129222E-01 -0.82973174753E-01 -0.22510512335E-01  0.88901388904E+00  0.88000000000E+00 0.  1.
        -11    1    4    4    0    0  0.52153855625E-01  0.26600750893E-01 -0.57944024522E-02  0.58834180757E-01  0.51100000000E-03 0.  1.
         11    1    4    4    0    0  0.41770182542E-01  0.68033493426E-01  0.22317385032E-01  0.82895302479E-01  0.51100000000E-03 0. -1.
</event>
<event>
 8    1  0.2001339E+004  0.1043930E+01  0.7957747E-01            NaN
         13   -1    0    0    0    0  0.00000000000E+00  0.00000000000E+00  0.74505805969E-08  0.10566000000E+00  0.10566000000E+00 0.  1.
     999900   -1    0    0    0    0 -0.00000000000E+00 -0.00000000000E+00 -0.74505805969E-08  0.93827000000E+00  0.93827000000E+00 0. -1.
     999902    2    1    2    0    0  0.11199420369E-01  0.34611106795E-02 -0.81069406934E-02  0.10296776742E+01  0.10295790324E+01 0.  0.
     999903    2    3    3    0    0  0.11143536099E+00 -0.51086546058E-01  0.51674749644E-01  0.14029781094E+00  0.44559186891E-01 0.  0.
         14    1    1    2    0    0 -0.11199420369E-01 -0.34611106795E-02  0.81069406934E-02  0.14252325815E-01  0.00000000000E+00 0. -1.
     999901    1    3    3    0    0 -0.10023594062E+00  0.54547656737E-01 -0.59781690338E-01  0.88937986325E+00  0.88000000000E+00 0. -1.
        -11    1    4    4    0    0  0.33525475685E-01 -0.32569710199E-01  0.35259070610E-01  0.58550890033E-01  0.51100000000E-03 0.  1.
         11    1    4    4    0    0  0.77909885305E-01 -0.18516835858E-01  0.16415679034E-01  0.81746920906E-01  0.51100000000E-03 0. -1.
</event>
<event>
 8    1  0.2001339E+004  0.1043930E+01  0.7957747E-01            NaN
         13   -1    0    0    0    0  0.00000000000E+00  0.00000000000E+00  0.74505805969E-08  0.10566000000E+00  0.10566000000E+00 0. -1.
     999900   -1    0    0    0    0 -0.00000000000E+00 -0.00000000000E+00 -0.74505805969E-08  0.93827000000E+00  0.93827000000E+00 0. -1.
     999902    2    1    2    0    0  0.46901594073E-02 -0.11845743216E-01  0.54461596055E-02  0.10300743195E+01  0.10299811279E+01 0.  0.
     999903    2    3    3    0    0 -0.11200776270E+00 -0.20744259454E-02  0.74712188671E-01  0.13961844387E+00  0.36896566037E-01 0.  0.
         14    1    1    2    0    0 -0.46901594073E-02  0.11845743216E-01 -0.54461596055E-02  0.13855680498E-01  0.00000000000E+00 0.  1.
     999901    1    3    3    0    0  0.11669792210E+00 -0.97713172711E-02 -0.69266029065E-01  0.89045587563E+00  0.88000000000E+00 0. -1.
        -11    1    4    4    0    0 -0.50054733525E-01 -0.69730610123E-02  0.13333656741E-01  0.52269947879E-01  0.51100000000E-03 0.  1.
         11    1    4    4    0    0 -0.61953029172E-01  0.48986350670E-02  0.61378531930E-01  0.87348495991E-01  0.51100000000E-03 0. -1.
</event>
<event>
 8    1  0.2001339E+004  0.1043930E+01  0.7957747E-01            NaN
         13   -1    0    0    0    0  0.00000000000E+00  0.00000000000E+00  0.74505805969E-08  0.10566000000E+00  0.10566000000E+00 0.  1.
     999900   -1    0    0    0    0 -0.00000000000E+00 -0.00000000000E+00 -0.74505805969E-08  0.93827000000E+00  0.93827000000E+00 0. -1.
     999902    2    1    2    0    0  0.80435596161E-02  0.34839732651E-02 -0.10372885123E-01  0.10303493643E+01  0.10302598598E+01 0.  0.
     999903    2    3    3    0    0 -0.29675700599E-01  0.90915798150E-01 -0.93851501384E-01  0.14128483007E+00  0.44799211354E-01 0.  0.
         14    1    1    2    0    0 -0.80435596161E-02 -0.34839732651E-02  0.10372885123E-01  0.13580635729E-01  0.00000000000E+00 0.  1.
     999901    1    3    3    0    0  0.37719260215E-01 -0.87431824885E-01  0.83478616260E-01  0.88906453420E+00  0.88000000000E+00 0.  1.
        -11    1    4    4    0    0  0.61082898330E-02  0.50026395200E-01 -0.36148138460E-01  0.62023386367E-01  0.51100000000E-03 0. -1.
         11    1    4    4    0    0 -0.35783990431E-01  0.40889402950E-01 -0.57703362924E-01  0.79261443707E-01  0.51100000000E-03 0.  1.
</event>
<event>
 8    1  0.2001339E+004  0.1043930E+01  0.7957747E-01            NaN
         13   -1    0    0    0    0  0.00000000000E+00  0.00000000000E+00  0.74505805969E-08  0.10566000000E+00  0.10566000000E+00 0. -1.
     999900   -1    0    0    0    0 -0.00000000000E+00 -0.00000000000E+00 -0.74505805969E-08  0.93827000000E+00  0.93827000000E+00 0. -1.
     999902    2    1    2    0    0  0.24360542140E-02  0.82977342407E-02  0.10800687859E-01  0.10300937573E+01  0.10300008288E+01 0.  0.
     999903    2    3    3    0    0  0.12439119159E+00  0.31413235586E-01 -0.34645903036E-01  0.14022142120E+00  0.44740903583E-01 0.  0.
         14    1    1    2    0    0 -0.24360542140E-02 -0.82977342407E-02 -0.10800687859E-01  0.13836242694E-01  0.00000000000E+00 0.  1.
     999901    1    3    3    0    0 -0.12195513737E+00 -0.23115501345E-01  0.45446590895E-01  0.88987233610E+00  0.88000000000E+00 0. -1.
        -11    1    4    4    0    0  0.89037827858E-01  0.42265688220E-01 -0.20819943967E-01  0.10073655929E+00  0.51100000000E-03 0.  1.
         11    1    4    4    0    0  0.35353363728E-01 -0.10852452634E-01 -0.13825959069E-01  0.39484861912E-01  0.51100000000E-03 0. -1.
</event>
<event>
 8    1  0.2001339E+004  0.1043930E+01  0.7957747E-01            NaN
         13   -1    0    0    0    0  0.00000000000E+00  0.00000000000E+00  0.74505805969E-08  0.10566000000E+00  0.10566000000E+00 0. -1.
     999900   -1    0    0    0    0 -0.00000000000E+00 -0.00000000000E+00 -0.74505805969E-08  0.93827000000E+00  0.93827000000E+00 0.  1.
     999902    2    1    2    0    0  0.55025816150E-03  0.16403326697E-02  0.78596304730E-02  0.10358821887E+01  0.10358509264E+01 0.  0.
     999903    2    3    3    0    0  0.10102474924E+00 -0.65584594195E-01 -0.66139506068E-01  0.14454039885E+00  0.44834737451E-01 0.  0.
         14    1    1    2    0    0 -0.55025816150E-03 -0.16403326697E-02 -0.78596304730E-02  0.80478112853E-02  0.00000000000E+00 0.  1.
     999901    1    3    3    0    0 -0.10047449108E+00  0.67224926865E-01  0.73999136541E-01  0.89134178986E+00  0.88000000000E+00 0. -1.
        -11    1    4    4    0    0  0.64773921520E-01 -0.59378361331E-01 -0.61962063626E-01  0.10752213332E+00  0.51100000000E-03 0.  1.
         11    1    4    4    0    0  0.36250827719E-01 -0.62062328650E-02 -0.41774424421E-02  0.37018265533E-01  0.51100000000E-03 0. -1.
</event>
<event>
 8    1  0.2001339E+004  0.1043930E+01  0.7957747E-01            NaN
         13   -1    0    0    0    0  0.00000000000E+00  0.00000000000E+00  0.74505805969E-08  0.10566000000E+00  0.10566000000E+00 0. -1.
     999900   -1    0    0    0    0 -0.00000000000E+00 -0.00000000000E+00 -0.74505805969E-08  0.93827000000E+00  0.93827000000E+00 0.  1.
     999902    2    1    2    0    0  0.68783109815E-02  0.11280338743E-01 -0.21015501267E-03  0.10307163189E+01  0.10306316163E+01 0.  0.
     999903    2    3    3    0    0  0.68947898765E-01  0.46488952403E-01  0.10528309108E+00  0.14154754682E+00  0.45123644612E-01 0.  0.
         14    1    1    2    0    0 -0.68783109815E-02 -0.11280338743E-01  0.21015501267E-03  0.13213681139E-01  0.00000000000E+00 0. -1.
     999901    1    3    3    0    0 -0.62069587784E-01 -0.35208613660E-01 -0.10549324609E+00  0.88916877204E+00  0.88000000000E+00 0.  1.
        -11    1    4    4    0    0  0.59699041382E-01  0.44865278509E-01  0.10840491710E+00  0.13163873264E+00  0.51100000000E-03 0.  1.
         11    1    4    4    0    0  0.92488573833E-02  0.16236738945E-02 -0.31218260188E-02  0.99088141825E-02  0.51100000000E-03 0. -1.
</event>
<event>
 8    1  0.2001339E+004  0.1043930E+01  0.7957747E-01            NaN
         13   -1    0    0    0    0  0.00000000000E+00  0.00000000000E+00  0.74505805969E-08  0.10566000000E+00  0.10566000000E+00 0. -1.
     999900   -1    0    0    0    0 -0.00000000000E+00 -0.00000000000E+00 -0.74505805969E-08  0.93827000000E+00  0.93827000000E+00 0.  1.
     999902    2    1    2    0    0  0.10743305494E-01  0.62619624477E-02 -0.46384384181E-02  0.10306580033E+01  0.10305725466E+01 0.  0.
     999903    2    3    3    0    0  0.13015889387E+00 -0.28578111387E-01 -0.17174066914E-01  0.14182109163E+00  0.45389727371E-01 0.  0.
         14    1    1    2    0    0 -0.10743305494E-01 -0.62619624477E-02  0.46384384181E-02  0.13271996745E-01  0.00000000000E+00 0. -1.
     999901    1    3    3    0    0 -0.11941558838E+00  0.34840073834E-01  0.12535628496E-01  0.88883691163E+00  0.88000000000E+00 0. -1.
        -11    1    4    4    0    0  0.77210207010E-01  0.55372480157E-02 -0.43010338307E-02  0.77529589159E-01  0.51100000000E-03 0. -1.
         11    1    4    4    0    0  0.52948686864E-01 -0.34115359402E-01 -0.12873033083E-01  0.64291502467E-01  0.51100000000E-03 0.  1.
</event>
<event>
 8    1  0.2001339E+004  0.1043930E+01  0.7957747E-01            NaN
         13   -1    0    0    0    0  0.00000000000E+00  0.00000000000E+00  0.74505805969E-08  0.10566000000E+00  0.10566000000E+00 0. -1.
     999900   -1    0    0    0    0 -0.00000000000E+00 -0.00000000000E+00 -0.74505805969E-08  0.93827000000E+00  0.93827000000E+00 0. -1.
     999902    2    1    2    0    0 -0.61585672849E-03  0.13959238662E-01 -0.16475290818E-02  0.10298603882E+01  0.10297642765E+01 0.  0.
     999903    2    3    3    0    0 -0.47311463279E-01  0.51804173869E-01 -0.11313758353E+00  0.14079191446E+00  0.45827975998E-01 0.  0.
         14    1    1    2    0    0  0.61585672849E-03 -0.13959238662E-01  0.16475290818E-02  0.14069611779E-01  0.00000000000E+00 0.  1.
     999901    1    3    3    0    0  0.46695606551E-01 -0.37844935206E-01  0.11149005444E+00  0.88906847376E+00  0.88000000000E+00 0.  1.
        -11    1    4    4    0    0 -0.25123769887E-01  0.18088472864E-01 -0.87883464930E-01  0.93178115419E-01  0.51100000000E-03 0.  1.
         11    1    4    4    0    0 -0.22187693392E-01  0.33715701005E-01 -0.25254118595E-01  0.47613799043E-01  0.51100000000E-03 0. -1.
</event>
<event>
 8    1  0.2001339E+004  0.1043930E+01  0.7957747E-01            NaN
         13   -1    0    0    0    0  0.00000000000E+00  0.00000000000E+00  0.74505805969E-08  0.10566000000E+00  0.10566000000E+00 0.  1.
     999900   -1    0    0    0    0 -0.00000000000E+00 -0.00000000000E+00 -0.74505805969E-08  0.93827000000E+00  0.93827000000E+00 0. -1.
     999902    2    1    2    0    0 -0.46999905990E-02 -0.82737397930E-02 -0.97457051487E-02  0.10303093007E+01  0.10302192638E+01 0.  0.
     999903    2    3    3    0    0 -0.71313962372E-01 -0.11026407897E+00  0.26153943799E-01  0.14119275300E+00  0.44805316460E-01 0.  0.
         14    1    1    2    0    0  0.46999905990E-02  0.82737397930E-02  0.97457051487E-02  0.13620699345E-01  0.00000000000E+00 0.  1.
     999901    1    3    3    0    0  0.66613971773E-01  0.10199033918E+00 -0.35899648947E-01  0.88911654766E+00  0.88000000000E+00 0. -1.
        -11    1    4    4    0    0 -0.30166052820E-01 -0.80140333941E-01  0.43882317435E-02  0.85743696945E-01  0.51100000000E-03 0.  1.
         11    1    4    4    0    0 -0.41147909553E-01 -0.30123745029E-01  0.21765712055E-01  0.55449056055E-01  0.51100000000E-03 0. -1.
</event>
<event>
 8    1  0.2001339E+004  0.1043930E+01  0.7957747E-01            NaN
         13   -1    0    0    0    0  0.00000000000E+00  0.00000000000E+00  0.74505805969E-08  0.10566000000E+00  0.10566000000E+00 0. -1.
     999900   -1    0    0    0    0 -0.00000000000E+00 -0.00000000000E+00 -0.74505805969E-08  0.93827000000E+00  0.93827000000E+00 0.  1.
     999902    2    1    2    0    0 -0.12977530634E-01  0.12253889714E-01 -0.12326673418E-01  0.10222385042E+01  0.10220083358E+01 0.  0.
     999903    2    3    3    0    0  0.14914961255E-01 -0.11686226765E+00  0.35803624177E-01  0.13107886708E+00  0.44950241627E-01 0.  0.
         14    1    1    2    0    0  0.12977530634E-01 -0.12253889714E-01  0.12326673418E-01  0.21691495846E-01  0.00000000000E+00 0. -1.
     999901    1    3    3    0    0 -0.27892491889E-01  0.12911615736E+00 -0.48130297595E-01  0.89115963707E+00  0.88000000000E+00 0.  1.
        -11    1    4    4    0    0 -0.15616806696E-01 -0.28079793675E-01  0.11081574488E-01  0.33991497148E-01  0.51100000000E-03 0.  1.
         11    1    4    4    0    0  0.30531767951E-01 -0.88782473974E-01  0.24722049689E-01  0.97087369936E-01  0.51100000000E-03 0. -1.
</event>
<event>
 8    1  0.2001339E+004  0.1043930E+01  0.7957747E-01            NaN
         13   -1    0    0    0    0  0.00000000000E+00  0.00000000000E+00  0.74505805969E-08  0.10566000000E+00  0.10566000000E+00 0. -1.
     999900   -1    0    0    0    0 -0.00000000000E+00 -0.00000000000E+00 -0.74505805969E-08  0.93827000000E+00  0.93827000000E+00 0. -1.
     999902    2    1    2    0    0  0.72214043523E-02  0.10644640956E-01  0.33357525019E-02  0.10306414972E+01  0.10305558265E+01 0.  0.
     999903    2    3    3    0    0 -0.71190694361E-01 -0.99608311004E-01  0.52869840191E-01  0.13892528871E+00  0.38924096094E-01 0.  0.
         14    1    1    2    0    0 -0.72214043523E-02 -0.10644640956E-01 -0.33357525019E-02  0.13288502799E-01  0.00000000000E+00 0.  1.
     999901    1    3    3    0    0  0.78412098713E-01  0.11025295196E+00 -0.49534087689E-01  0.89171620849E+00  0.88000000000E+00 0. -1.
        -11    1    4    4    0    0 -0.21962668524E-01 -0.61251760126E-02  0.86829193381E-02  0.24403499731E-01  0.51100000000E-03 0. -1.
         11    1    4    4    0    0 -0.49228025837E-01 -0.93483134992E-01  0.44186920853E-01  0.11452178898E+00  0.51100000000E-03 0.  1.
</event>
<event>
 8    1  0.2001339E+004  0.1043930E+01  0.7957747E-01            NaN
         13   -1    0    0    0    0  0.00000000000E+00  0.00000000000E+00  0.74505805969E-08  0.10566000000E+00  0.10566000000E+00 0. -1.
     999900   -1    0    0    0    0 -0.00000000000E+00 -0.00000000000E+00 -0.74505805969E-08  0.93827000000E+00  0.93827000000E+00 0. -1.
     999902    2    1    2    0    0 -0.30837316586E-02 -0.48233406253E-02 -0.52899720765E-02  0.10361352697E+01  0.10361059499E+01 0.  0.
     999903    2    3    3    0    0 -0.11434087136E+00  0.78549528202E-01 -0.97109049745E-03  0.14520999836E+00  0.42908476600E-01 0.  0.
         14    1    1    2    0    0  0.30837316586E-02  0.48233406253E-02  0.52899720765E-02  0.77947302904E-02  0.00000000000E+00 0. -1.
     999901    1    3    3    0    0  0.11125713970E+00 -0.83372868827E-01 -0.43188815791E-02  0.89092527135E+00  0.88000000000E+00 0. -1.
        -11    1    4    4    0    0 -0.11227355730E+00  0.75120407606E-01  0.80496327151E-02  0.13532732546E+00  0.51100000000E-03 0. -1.
         11    1    4    4    0    0 -0.20673140580E-02  0.34291205961E-02 -0.90207232126E-02  0.98826729054E-02  0.51100000000E-03 0.  1.
</event>
<event>
 8    1  0.2001339E+004  0.1043930E+01  0.7957747E-01            NaN
         13   -1    0    0    0    0  0.00000000000E+00  0.00000000000E+00  0.74505805969E-08  0.10566000000E+00  0.10566000000E+00 0.  1.
     999900   -1    0    0    0    0 -0.00000000000E+00 -0.00000000000E+00 -0.74505805969E-08  0.93827000000E+00  0.93827000000E+00 0.  1.
     999902    2    1    2    0    0 -0.23148738026E-02 -0.11493255265E-01 -0.78345594990E-02  0.10298291532E+01  0.10297326114E+01 0.  0.
     999903    2    3    3    0    0  0.33725061829E-01  0.19025441689E-01 -0.12709932750E+00  0.14052923041E+00  0.45769840763E-01 0.  0.
         14    1    1    2    0    0  0.23148738026E-02  0.11493255265E-01  0.78345594990E-02  0.14100846778E-01  0.00000000000E+00 0.  1.
     999901    1    3    3    0    0 -0.36039935631E-01 -0.30518696954E-01  0.11926476800E+00  0.88929992281E+00  0.88000000000E+00 0. -1.
        -11    1    4    4    0    0  0.42255768702E-01  0.10790224832E-01 -0.72111321326E-01  0.84275042123E-01  0.51100000000E-03 0. -1.
         11    1    4    4    0    0 -0.85307068733E-02  0.82352168565E-02 -0.54988006171E-01  0.56254188289E-01  0.51100000000E-03 0.  1.
</event>
<event>
 7    1  0.2001339E+004  0.1043930E+01  0.7957747E-01            NaN
         13   -1    0    0    0    0  0.00000000000E+00  0.00000000000E+00  0.74505805969E-08  0.10566000000E+00  0.10566000000E+00 0.  1.
     999900   -1    0    0    0    0 -0.00000000000E+00 -0.00000000000E+00 -0.74505805969E-08  0.93827000000E+00  0.93827000000E+00 0.  1.
     999903    2    1    2    0    0 -0.51168905300E-02 -0.92552914338E-02  0.11846278567E+00  0.12712746269E+00  0.44901193669E-01 0.  0.
         14    1    1    2    0    0 -0.26532228906E-01 -0.89780118788E-02 -0.80971347736E-02  0.29156945306E-01  0.00000000000E+00 0.  1.
     999901    1    1    2    0    0  0.31649119436E-01  0.18233303313E-01 -0.11036565089E+00  0.88764559201E+00  0.88000000000E+00 0.  1.
        -11    1    3    3    0    0  0.10340381150E-01  0.20941958941E-02  0.99821158069E-01  0.10037845316E+00  0.51100000000E-03 0. -1.
         11    1    3    3    0    0 -0.15457271680E-01 -0.11349487328E-01  0.18641627600E-01  0.26749009532E-01  0.51100000000E-03 0.  1.
</event>
<event>
 8    1  0.2001339E+004  0.1043930E+01  0.7957747E-01            NaN
         13   -1    0    0    0    0  0.00000000000E+00  0.00000000000E+00  0.74505805969E-08  0.10566000000E+00  0.10566000000E+00 0.  1.
     999900   -1    0    0    0    0 -0.00000000000E+00 -0.00000000000E+00 -0.74505805969E-08  0.93827000000E+00  0.93827000000E+00 0.  1.
     999902    2    1    2    0    0 -0.89567847876E-02 -0.10695611278E-01 -0.27262338289E-03  0.10299767058E+01  0.10298821875E+01 0.  0.
     999903    2    3    3    0    0  0.24203433824E-02  0.11894234060E+00 -0.54931034181E-01  0.13872871595E+00  0.45553261831E-01 0.  0.
         14    1    1    2    0    0  0.89567847876E-02  0.10695611278E-01  0.27262338289E-03  0.13953294157E-01  0.00000000000E+00 0.  1.
     999901    1    3    3    0    0 -0.11377128170E-01 -0.12963795188E+00  0.54658410798E-01  0.89124798989E+00  0.88000000000E+00 0. -1.
        -11    1    4    4    0    0 -0.18397686572E-01  0.40364072726E-01 -0.86861371807E-02  0.45204461488E-01  0.51100000000E-03 0.  1.
         11    1    4    4    0    0  0.20818029954E-01  0.78578267876E-01 -0.46244897000E-01  0.93524254464E-01  0.51100000000E-03 0. -1.
</event>
<event>
 8    1  0.2001339E+004  0.1043930E+01  0.7957747E-01            NaN
         13   -1    0    0    0    0  0.00000000000E+00  0.00000000000E+00  0.74505805969E-08  0.10566000000E+00  0.10566000000E+00 0. -1.
     999900   -1    0    0    0    0 -0.00000000000E+00 -0.00000000000E+00 -0.74505805969E-08  0.93827000000E+00  0.93827000000E+00 0. -1.
     999902    2    1    2    0    0 -0.65483791536E-02 -0.22009344773E-02 -0.12522544253E-01  0.10296282695E+01  0.10295289378E+01 0.  0.
     999903    2    3    3    0    0 -0.33873911887E-01  0.51053872212E-02 -0.12979083932E+00  0.14139861441E+00  0.44434213165E-01 0.  0.
         14    1    1    2    0    0  0.65483791536E-02  0.22009344773E-02  0.12522544253E-01  0.14301730549E-01  0.00000000000E+00 0. -1.
     999901    1    3    3    0    0  0.27325532734E-01 -0.73063216985E-02  0.11726829506E+00  0.88822965505E+00  0.88000000000E+00 0.  1.
        -11    1    4    4    0    0 -0.23591989607E-01  0.19224916829E-01 -0.41905533150E-01  0.51792994027E-01  0.51100000000E-03 0. -1.
         11    1    4    4    0    0 -0.10281922281E-01 -0.14119529608E-01 -0.87885306168E-01  0.89605620378E-01  0.51100000000E-03 0.  1.
</event>
<event>
 8    1  0.2001339E+004  0.1043930E+01  0.7957747E-01            NaN
         13   -1    0    0    0    0  0.00000000000E+00  0.00000000000E+00  0.74505805969E-08  0.10566000000E+00  0.10566000000E+00 0.  1.
     999900   -1    0    0    0    0 -0.00000000000E+00 -0.00000000000E+00 -0.74505805969E-08  0.93827000000E+00  0.93827000000E+00 0.  1.
     999902    2    1    2    0    0 -0.50822093848E-02  0.59550042234E-02 -0.11977770225E-01  0.10296206357E+01  0.10295211972E+01 0.  0.
     999903    2    3    3    0    0  0.10397381966E+00 -0.58613376305E-01  0.51128224775E-01  0.13830438438E+00  0.47622728966E-01 0.  0.
         14    1    1    2    0    0  0.50822093848E-02 -0.59550042234E-02  0.11977770225E-01  0.14309364315E-01  0.00000000000E+00 0.  1.
     999901    1    3    3    0    0 -0.10905602904E+00  0.64568380529E-01 -0.63105995001E-01  0.89131625130E+00  0.88000000000E+00 0.  1.
        -11    1    4    4    0    0  0.55184750777E-01 -0.22061216139E-01  0.11048685837E-02  0.59443551639E-01  0.51100000000E-03 0. -1.
         11    1    4    4    0    0  0.48789068880E-01 -0.36552160167E-01  0.50023356192E-01  0.78860832742E-01  0.51100000000E-03 0.  1.
</event>
<event>
 8    1  0.2001339E+004  0.1043930E+01  0.7957747E-01            NaN
         13   -1    0    0    0    0  0.00000000000E+00  0.00000000000E+00  0.74505805969E-08  0.10566000000E+00  0.10566000000E+00 0. -1.
     999900   -1    0    0    0    0 -0.00000000000E+00 -0.00000000000E+00 -0.74505805969E-08  0.93827000000E+00  0.93827000000E+00 0.  1.
     999902    2    1    2    0    0  0.68133357083E-02  0.10928668196E-01 -0.59834679869E-02  0.10297293232E+01  0.10296314000E+01 0.  0.
     999903    2    3    3    0    0  0.60990600206E-01  0.11798870465E+00  0.18410649718E-01  0.14125191755E+00  0.44406806357E-01 0.  0.
         14    1    1    2    0    0 -0.68133357083E-02 -0.10928668196E-01  0.59834679869E-02  0.14200676785E-01  0.00000000000E+00 0. -1.
     999901    1    3    3    0    0 -0.54177264497E-01 -0.10706003645E+00 -0.24394117705E-01  0.88847740566E+00  0.88000000000E+00 0. -1.
        -11    1    4    4    0    0  0.43870824093E-01  0.40674851956E-01 -0.52981514584E-03  0.59830047746E-01  0.51100000000E-03 0. -1.
         11    1    4    4    0    0  0.17119776113E-01  0.77313852694E-01  0.18940464864E-01  0.81421869806E-01  0.51100000000E-03 0.  1.
</event>
<event>
 8    1  0.2001339E+004  0.1043930E+01  0.7957747E-01            NaN
         13   -1    0    0    0    0  0.00000000000E+00  0.00000000000E+00  0.74505805969E-08  0.10566000000E+00  0.10566000000E+00 0. -1.
     999900   -1    0    0    0    0 -0.00000000000E+00 -0.00000000000E+00 -0.74505805969E-08  0.93827000000E+00  0.93827000000E+00 0.  1.
     999902    2    1    2    0    0  0.57762157615E-02 -0.90173631715E-02  0.66387217047E-02  0.10313303916E+01  0.10312534249E+01 0.  0.
     999903    2    3    3    0    0 -0.63162348369E-01 -0.11678291965E+00 -0.17448626178E-01  0.14175400860E+00  0.46497438916E-01 0.  0.
         14    1    1    2    0    0 -0.57762157615E-02  0.90173631715E-02 -0.66387217047E-02  0.12599608445E-01  0.00000000000E+00 0.  1.
     999901    1    3    3    0    0  0.68938564131E-01  0.10776555647E+00  0.24087347883E-01  0.88957638296E+00  0.88000000000E+00 0.  1.
        -11    1    4    4    0    0 -0.34092026819E-01 -0.62281311760E-01  0.14103242731E-01  0.72390542640E-01  0.51100000000E-03 0.  1.
         11    1    4    4    0    0 -0.29070321550E-01 -0.54501607886E-01 -0.31551868909E-01  0.69363465958E-01  0.51100000000E-03 0. -1.
</event>
<event>
 8    1  0.2001339E+004  0.1043930E+01  0.7957747E-01            NaN
         13   -1    0    0    0    0  0.00000000000E+00  0.00000000000E+00  0.74505805969E-08  0.10566000000E+00  0.10566000000E+00 0.  1.
     999900   -1    0    0    0    0 -0.00000000000E+00 -0.00000000000E+00 -0.74505805969E-08  0.93827000000E+00  0.93827000000E+00 0.  1.
     999902    2    1    2    0    0  0.74809701490E-03  0.90495663040E-02  0.93588065218E-02  0.10308900016E+01  0.10308075251E+01 0.  0.
     999903    2    3    3    0    0  0.12701471859E+00 -0.28776930332E-01  0.30640302913E-01  0.14081865294E+00  0.43934205290E-01 0.  0.
         14    1    1    2    0    0 -0.74809701490E-03 -0.90495663040E-02 -0.93588065218E-02  0.13039998426E-01  0.00000000000E+00 0. -1.
     999901    1    3    3    0    0 -0.12626662158E+00  0.37826496636E-01 -0.21281496391E-01  0.89007134864E+00  0.88000000000E+00 0.  1.
        -11    1    4    4    0    0  0.10614440388E+00 -0.12124931279E-01  0.37536548723E-01  0.11323825345E+00  0.51100000000E-03 0. -1.
         11    1    4    4    0    0  0.20870314715E-01 -0.16651999053E-01 -0.68962458104E-02  0.27580399490E-01  0.51100000000E-03 0.  1.
</event>
<event>
 7    1  0.2001339E+004  0.1043930E+01  0.7957747E-01            NaN
         13   -1    0    0    0    0  0.00000000000E+00  0.00000000000E+00  0.74505805969E-08  0.10566000000E+00  0.10566000000E+00 0.  1.
     999900   -1    0    0    0    0 -0.00000000000E+00 -0.00000000000E+00 -0.74505805969E-08  0.93827000000E+00  0.93827000000E+00 0.  1.
     999903    2    1    2    0    0  0.49164063957E-01 -0.38796567615E-01  0.53939695093E-01  0.94321127614E-01  0.45439031285E-01 0.  0.
         14    1    1    2    0    0 -0.16476238747E-01  0.56179083821E-01  0.28248552990E-01  0.65004127933E-01  0.00000000000E+00 0.  1.
     999901    1    1    2    0    0 -0.32687825210E-01 -0.17382516206E-01 -0.82188248083E-01  0.88460474445E+00  0.88000000000E+00 0.  1.
        -11    1    3    3    0    0  0.21727977989E-01 -0.25995606909E-01  0.16835021171E-02  0.33925976868E-01  0.51100000000E-03 0.  1.
         11    1    3    3    0    0  0.27436085968E-01 -0.12800960705E-01  0.52256192976E-01  0.60395150746E-01  0.51100000000E-03 0. -1.
</event>
<event>
 7    1  0.2001339E+004  0.1043930E+01  0.7957747E-01            NaN
         13   -1    0    0    0    0  0.00000000000E+00  0.00000000000E+00  0.74505805969E-08  0.10566000000E+00  0.10566000000E+00 0.  1.
     999900   -1    0    0    0    0 -0.00000000000E+00 -0.00000000000E+00 -0.74505805969E-08  0.93827000000E+00  0.93827000000E+00 0.  1.
     999903    2    1    2    0    0 -0.10042266609E+00 -0.58569963231E-01  0.30698866223E-01  0.12781744560E+00  0.43355813386E-01 0.  0.
         14    1    1    2    0    0  0.27179171646E-01 -0.82985197705E-02  0.85380795719E-02  0.29672741776E-01  0.00000000000E+00 0.  1.
     999901    1    1    2    0    0  0.73243494441E-01  0.66868483002E-01 -0.39236945794E-01  0.88643981263E+00  0.88000000000E+00 0.  1.
        -11    1    3    3    0    0 -0.73297982325E-01 -0.50306453367E-01  0.41958112416E-02  0.89001120309E-01  0.51100000000E-03 0.  1.
         11    1    3    3    0    0 -0.27124683762E-01 -0.82635098646E-02  0.26503054981E-01  0.38816325287E-01  0.51100000000E-03 0. -1.
</event>
<event>
 8    1  0.2001339E+004  0.1043930E+01  0.7957747E-01            NaN
         13   -1    0    0    0    0  0.00000000000E+00  0.00000000000E+00  0.74505805969E-08  0.10566000000E+00  0.10566000000E+00 0. -1.
     999900   -1    0    0    0    0 -0.00000000000E+00 -0.00000000000E+00 -0.74505805969E-08  0.93827000000E+00  0.93827000000E+00 0.  1.
     999902    2    1    2    0    0 -0.57793567831E-02  0.18791532251E-02  0.11642840490E-01  0.10307965345E+01  0.10307128638E+01 0.  0.
     999903    2    3    3    0    0  0.31814018426E-01 -0.12058829147E+00 -0.44453428317E-01  0.13975314147E+00  0.44734387806E-01 0.  0.
         14    1    1    2    0    0  0.57793567831E-02 -0.18791532251E-02 -0.11642840490E-01  0.13133465512E-01  0.00000000000E+00 0.  1.
     999901    1    3    3    0    0 -0.37593375209E-01  0.12246744470E+00  0.56096268807E-01  0.89104339302E+00  0.88000000000E+00 0. -1.
        -11    1    4    4    0    0  0.58668491821E-02 -0.97688068495E-01 -0.31824139459E-01  0.10290974501E+00  0.51100000000E-03 0.  1.
         11    1    4    4    0    0  0.25947169244E-01 -0.22900222977E-01 -0.12629288858E-01  0.36843396454E-01  0.51100000000E-03 0. -1.
</event>
<event>
 8    1  0.2001339E+004  0.1043930E+01  0.7957747E-01            NaN
         13   -1    0    0    0    0  0.00000000000E+00  0.00000000000E+00  0.74505805969E-08  0.10566000000E+00  0.10566000000E+00 0.  1.
     999900   -1    0    0    0    0 -0.00000000000E+00 -0.00000000000E+00 -0.74505805969E-08  0.93827000000E+00  0.93827000000E+00 0. -1.
     999902    2    1    2    0    0  0.70274759119E-02  0.12148293511E-01 -0.26619260501E-02  0.10296453123E+01  0.10295462189E+01 0.  0.
     999903    2    3    3    0    0 -0.81089558419E-01 -0.56436307386E-01 -0.86212306521E-01  0.13866319950E+00  0.45103745119E-01 0.  0.
         14    1    1    2    0    0 -0.70274759119E-02 -0.12148293511E-01  0.26619260501E-02  0.14284687719E-01  0.00000000000E+00 0.  1.
     999901    1    3    3    0    0  0.88117034331E-01  0.68584600897E-01  0.83550380471E-01  0.89098211278E+00  0.88000000000E+00 0.  1.
        -11    1    4    4    0    0 -0.51535457301E-01 -0.28257969132E-01 -0.76877626387E-01  0.96772138235E-01  0.51100000000E-03 0. -1.
         11    1    4    4    0    0 -0.29554101118E-01 -0.28178338254E-01 -0.93346801340E-02  0.41891061265E-01  0.51100000000E-03 0.  1.
</event>
<event>
 8    1  0.2001339E+004  0.1043930E+01  0.7957747E-01            NaN
         13   -1    0    0    0    0  0.00000000000E+00  0.00000000000E+00  0.74505805969E-08  0.10566000000E+00  0.10566000000E+00 0. -1.
     999900   -1    0    0    0    0 -0.00000000000E+00 -0.00000000000E+00 -0.74505805969E-08  0.93827000000E+00  0.93827000000E+00 0.  1.
     999902    2    1    2    0    0  0.37879610509E-02 -0.96849952201E-02  0.15531706202E-01  0.10252382457E+01  0.10250678411E+01 0.  0.
     999903    2    3    3    0    0  0.54655701889E-01  0.64717186137E-01 -0.94089005951E-01  0.13386856247E+00  0.43502770555E-01 0.  0.
         14    1    1    2    0    0 -0.37879610509E-02  0.96849952201E-02 -0.15531706202E-01  0.18691754302E-01  0.00000000000E+00 0.  1.
     999901    1    3    3    0    0 -0.50867740838E-01 -0.74402181357E-01  0.10962071215E+00  0.89136968323E+00  0.88000000000E+00 0. -1.
        -11    1    4    4    0    0  0.40688945263E-01  0.69145561268E-01 -0.75257616001E-01  0.11000303994E+00  0.51100000000E-03 0.  1.
         11    1    4    4    0    0  0.13966756625E-01 -0.44283751304E-02 -0.18831389950E-01  0.23865522525E-01  0.51100000000E-03 0. -1.
</event>
<event>
 8    1  0.2001339E+004  0.1043930E+01  0.7957747E-01            NaN
         13   -1    0    0    0    0  0.00000000000E+00  0.00000000000E+00  0.74505805969E-08  0.10566000000E+00  0.10566000000E+00 0. -1.
     999900   -1    0    0    0    0 -0.00000000000E+00 -0.00000000000E+00 -0.74505805969E-08  0.93827000000E+00  0.93827000000E+00 0. -1.
     999902    2    1    2    0    0  0.13106529108E-02  0.13489730875E-01 -0.19888369011E-02  0.10302316015E+01  0.10301405276E+01 0.  0.
     999903    2    3    3    0    0  0.22691272876E-01 -0.85685963061E-03  0.13077758504E+00  0.13990027080E+00  0.44200463201E-01 0.  0.
         14    1    1    2    0    0 -0.13106529108E-02 -0.13489730875E-01  0.19888369011E-02  0.13698398532E-01  0.00000000000E+00 0. -1.
     999901    1    3    3    0    0 -0.21380619965E-01  0.14346590506E-01 -0.13276642195E+00  0.89033133067E+00  0.88000000000E+00 0. -1.
        -11    1    4    4    0    0  0.32532238787E-01 -0.52577791463E-02  0.61383582548E-01  0.69672061326E-01  0.51100000000E-03 0. -1.
         11    1    4    4    0    0 -0.98409659110E-02  0.44009195157E-02  0.69394002497E-01  0.70228209475E-01  0.51100000000E-03 0.  1.
</event>
<event>
 8    1  0.2001339E+004  0.1043930E+01  0.7957747E-01            NaN
         13   -1    0    0    0    0  0.00000000000E+00  0.00000000000E+00  0.74505805969E-08  0.10566000000E+00  0.10566000000E+00 0.  1.
     999900   -1    0    0    0    0 -0.00000000000E+00 -0.00000000000E+00 -0.74505805969E-08  0.93827000000E+00  0.93827000000E+00 0.  1.
     999902    2    1    2    0    0  0.59035039439E-02  0.29926204885E-02 -0.11585005077E-01  0.10305876060E+01  0.10305012344E+01 0.  0.
     999903    2    3    3    0    0 -0.10238930362E-01 -0.45023810052E-01  0.12288789051E+00  0.13893233881E+00  0.45483864903E-01 0.  0.
         14    1    1    2    0    0 -0.59035039439E-02 -0.29926204885E-02  0.11585005077E-01  0.13342394045E-01  0.00000000000E+00 0.  1.
     999901    1    3    3    0    0  0.16142434306E-01  0.48016430540E-01 -0.13447289558E+00  0.89165526715E+00  0.88000000000E+00 0.  1.
        -11    1    4    4    0    0 -0.95924654259E-02 -0.24998917646E-02  0.71684518615E-01  0.72368475055E-01  0.51100000000E-03 0. -1.
         11    1    4    4    0    0 -0.64646493591E-03 -0.42523918287E-01  0.51203371892E-01  0.66563863751E-01  0.51100000000E-03 0.  1.
</event>
<event>
 8    1  0.2001339E+004  0.1043930E+01  0.7957747E-01            NaN
         13   -1    0    0    0    0  0.00000000000E+00  0.00000000000E+00  0.74505805969E-08  0.10566000000E+00  0.10566000000E+00 0.  1.
     999900   -1    0    0    0    0 -0.00000000000E+00 -0.00000000000E+00 -0.74505805969E-08  0.93827000000E+00  0.93827000000E+00 0. -1.
     999902    2    1    2    0    0  0.19654873397E-02  0.23561117594E-02  0.13693029918E-01  0.10298974139E+01  0.10298018109E+01 0.  0.
     999903    2    3    3    0    0  0.42308327675E-01 -0.12463259631E+00 -0.10430092051E-01  0.13954040591E+00  0.45160374306E-01 0.  0.
         14    1    1    2    0    0 -0.19654873397E-02 -0.23561117594E-02 -0.13693029918E-01  0.14032586057E-01  0.00000000000E+00 0. -1.
     999901    1    3    3    0    0 -0.40342840336E-01  0.12698870807E+00  0.24123121969E-01  0.89035700803E+00  0.88000000000E+00 0.  1.
        -11    1    4    4    0    0  0.15431216884E-01 -0.84427187043E-01  0.11208315654E-01  0.86556107972E-01  0.51100000000E-03 0.  1.
         11    1    4    4    0    0  0.26877110792E-01 -0.40205409266E-01 -0.21638407705E-01  0.52984297936E-01  0.51100000000E-03 0. -1.
</event>
<event>
 8    1  0.2001339E+004  0.1043930E+01  0.7957747E-01            NaN
         13   -1    0    0    0    0  0.00000000000E+00  0.00000000000E+00  0.74505805969E-08  0.10566000000E+00  0.10566000000E+00 0. -1.
     999900   -1    0    0    0    0 -0.00000000000E+00 -0.00000000000E+00 -0.74505805969E-08  0.93827000000E+00  0.93827000000E+00 0.  1.
     999902    2    1    2    0    0  0.74257844751E-03  0.12084251585E-01 -0.80473733343E-02  0.10293924357E+01  0.10292897774E+01 0.  0.
     999903    2    3    3    0    0 -0.61714515392E-01 -0.61932007071E-01 -0.97742006754E-01  0.13954726802E+00  0.47704142573E-01 0.  0.
         14    1    1    2    0    0 -0.74257844751E-03 -0.12084251585E-01  0.80473733343E-02  0.14537564331E-01  0.00000000000E+00 0.  1.
     999901    1    3    3    0    0  0.62457093840E-01  0.74016258655E-01  0.89694633420E-01  0.88984516764E+00  0.88000000000E+00 0. -1.
        -11    1    4    4    0    0 -0.12465934236E-01 -0.46084977078E-01 -0.43535034525E-01  0.64612576026E-01  0.51100000000E-03 0.  1.
         11    1    4    4    0    0 -0.49248581156E-01 -0.15847029993E-01 -0.54206972230E-01  0.74934691998E-01  0.51100000000E-03 0. -1.
</event>
<event>
 8    1  0.2001339E+004  0.1043930E+01  0.7957747E-01            NaN
         13   -1    0    0    0    0  0.00000000000E+00  0.00000000000E+00  0.74505805969E-08  0.10566000000E+00  0.10566000000E+00 0.  1.
     999900   -1    0    0    0    0 -0.00000000000E+00 -0.00000000000E+00 -0.74505805969E-08  0.93827000000E+00  0.93827000000E+00 0. -1.
     999902    2    1    2    0    0  0.77111006062E-02 -0.47203502558E-02 -0.10375489799E-01  0.10301679664E+01  0.10300760387E+01 0.  0.
     999903    2    3    3    0    0  0.24305806294E-03 -0.11109356731E+00 -0.74819502525E-01  0.14139124322E+00  0.45295539813E-01 0.  0.
         14    1    1    2    0    0 -0.77111006062E-02  0.47203502558E-02  0.10375489799E-01  0.13762033559E-01  0.00000000000E+00 0.  1.
     999901    1    3    3    0    0  0.74680425432E-02  0.10637321705E+00  0.64444012725E-01  0.88877672322E+00  0.88000000000E+00 0.  1.
        -11    1    4    4    0    0 -0.12845884987E-01 -0.70185948151E-01 -0.24988732573E-01  0.75602790660E-01  0.51100000000E-03 0. -1.
         11    1    4    4    0    0  0.13088943050E-01 -0.40907619156E-01 -0.49830769952E-01  0.65788452559E-01  0.51100000000E-03 0.  1.
</event>
<event>
 8    1  0.2001339E+004  0.1043930E+01  0.7957747E-01            NaN
         13   -1    0    0    0    0  0.00000000000E+00  0.00000000000E+00  0.74505805969E-08  0.10566000000E+00  0.10566000000E+00 0. -1.
     999900   -1    0    0    0    0 -0.00000000000E+00 -0.00000000000E+00 -0.74505805969E-08  0.93827000000E+00  0.93827000000E+00 0. -1.
     999902    2    1    2    0    0 -0.80692256098E-02  0.44164363996E-02  0.21012340461E-01  0.10209923505E+01  0.10207346590E+01 0.  0.
     999903    2    3    3    0    0  0.27119343570E-01  0.67680284681E-01  0.10341354277E+00  0.13418317823E+00  0.44661893848E-01 0.  0.
         14    1    1    2    0    0  0.80692256098E-02 -0.44164363996E-02 -0.21012340461E-01  0.22937649489E-01  0.00000000000E+00 0.  1.
     999901    1    3    3    0    0 -0.35188569180E-01 -0.63263848282E-01 -0.82401202306E-01  0.88680917228E+00  0.88000000000E+00 0. -1.
        -11    1    4    4    0    0  0.29362261763E-01  0.28906829760E-01  0.29475665514E-01  0.50663825370E-01  0.51100000000E-03 0.  1.
         11    1    4    4    0    0 -0.22429181925E-02  0.38773454921E-01  0.73937877253E-01  0.83519352861E-01  0.51100000000E-03 0. -1.
</event>
<event>
 8    1  0.2001339E+004  0.1043930E+01  0.7957747E-01            NaN
         13   -1    0    0    0    0  0.00000000000E+00  0.00000000000E+00  0.74505805969E-08  0.10566000000E+00  0.10566000000E+00 0.  1.
     999900   -1    0    0    0    0 -0.00000000000E+00 -0.00000000000E+00 -0.74505805969E-08  0.93827000000E+00  0.93827000000E+00 0. -1.
     999902    2    1    2    0    0 -0.69776336860E-02 -0.10228727224E-01 -0.10692046482E-02  0.10315019096E+01  0.10314270367E+01 0.  0.
     999903    2    3    3    0    0 -0.49733025068E-02  0.79242453181E-01 -0.10711459708E+00  0.14062889130E+00  0.44708478356E-01 0.  0.
         14    1    1    2    0    0  0.69776336860E-02  0.10228727224E-01  0.10692046482E-02  0.12428090403E-01  0.00000000000E+00 0. -1.
     999901    1    3    3    0    0 -0.20043311792E-02 -0.89471180405E-01  0.10604539244E+00  0.89087301829E+00  0.88000000000E+00 0.  1.
        -11    1    4    4    0    0  0.14802854338E-01  0.24967429168E-01 -0.57774565679E-01  0.64658012467E-01  0.51100000000E-03 0. -1.
         11    1    4    4    0    0 -0.19776156845E-01  0.54275024013E-01 -0.49340031404E-01  0.75970878836E-01  0.51100000000E-03 0.  1.
</event>
<event>
 8    1  0.2001339E+004  0.1043930E+01  0.7957747E-01            NaN
         13   -1    0    0    0    0  0.00000000000E+00  0.00000000000E+00  0.74505805969E-08  0.10566000000E+00  0.10566000000E+00 0. -1.
     999900   -1    0    0    0    0 -0.00000000000E+00 -0.00000000000E+00 -0.74505805969E-08  0.93827000000E+00  0.93827000000E+00 0. -1.
     999902    2    1    2    0    0  0.53750140024E-02 -0.12633675193E-02 -0.13710478191E-01  0.10291494694E+01  0.10290433257E+01 0.  0.
     999903    2    3    3    0    0  0.71964160484E-01 -0.87752432126E-01 -0.64468035163E-01  0.14095421928E+00  0.53222501220E-01 0.  0.
         14    1    1    2    0    0 -0.53750140024E-02  0.12633675193E-02  0.13710478191E-01  0.14780530615E-01  0.00000000000E+00 0. -1.
     999901    1    3    3    0    0 -0.66589146481E-01  0.86489064607E-01  0.50757556971E-01  0.88819525011E+00  0.88000000000E+00 0.  1.
        -11    1    4    4    0    0  0.32823928372E-01 -0.46550288376E-01 -0.61819351884E-01  0.84060888706E-01  0.51100000000E-03 0.  1.
         11    1    4    4    0    0  0.39140232112E-01 -0.41202143750E-01 -0.26486832786E-02  0.56893330571E-01  0.51100000000E-03 0. -1.
</event>
<event>
 8    1  0.2001339E+004  0.1043930E+01  0.7957747E-01            NaN
         13   -1    0    0    0    0  0.00000000000E+00  0.00000000000E+00  0.74505805969E-08  0.10566000000E+00  0.10566000000E+00 0. -1.
     999900   -1    0    0    0    0 -0.00000000000E+00 -0.00000000000E+00 -0.74505805969E-08  0.93827000000E+00  0.93827000000E+00 0.  1.
     999902    2    1    2    0    0  0.83533136890E-03  0.11065613852E-01 -0.11068470519E-01  0.10282565630E+01  0.10281371031E+01 0.  0.
     999903    2    3    3    0    0 -0.15172866638E-01  0.84951337639E-01 -0.10113202376E+00  0.14043518105E+00  0.45248294973E-01 0.  0.
         14    1    1    2    0    0 -0.83533136890E-03 -0.11065613852E-01  0.11068470519E-01  0.15673437021E-01  0.00000000000E+00 0. -1.
     999901    1    3    3    0    0  0.16008198006E-01 -0.73885723787E-01  0.90063553246E-01  0.88782138193E+00  0.88000000000E+00 0. -1.
        -11    1    4    4    0    0 -0.12188291024E-01  0.61144530099E-01 -0.98112010805E-01  0.11624730442E+00  0.51100000000E-03 0.  1.
         11    1    4    4    0    0 -0.29845756137E-02  0.23806807540E-01 -0.30200129594E-02  0.24187876635E-01  0.51100000000E-03 0. -1.
</event>
<event>
 8    1  0.2001339E+004  0.1043930E+01  0.7957747E-01            NaN
         13   -1    0    0    0    0  0.00000000000E+00  0.00000000000E+00  0.74505805969E-08  0.10566000000E+00  0.10566000000E+00 0. -1.
     999900   -1    0    0    0    0 -0.00000000000E+00 -0.00000000000E+00 -0.74505805969E-08  0.93827000000E+00  0.93827000000E+00 0. -1.
     999902    2    1    2    0    0 -0.85276460223E-02  0.40920589122E-03  0.11464766145E-01  0.10296356284E+01  0.10295363997E+01 0.  0.
     999903    2    3    3    0    0 -0.11106800883E+00 -0.72540211965E-01 -0.10771471000E-01  0.14040529053E+00  0.44715054343E-01 0.  0.
         14    1    1    2    0    0  0.85276460223E-02 -0.40920589122E-03 -0.11464766145E-01  0.14294371581E-01  0.00000000000E+00 0.  1.
     999901    1    3    3    0    0  0.10254036281E+00  0.72949417857E-01  0.22236237145E-01  0.88923033788E+00  0.88000000000E+00 0. -1.
        -11    1    4    4    0    0 -0.39596646632E-01 -0.33861076395E-01 -0.25182264179E-01  0.57869460593E-01  0.51100000000E-03 0.  1.
         11    1    4    4    0    0 -0.71471362200E-01 -0.38679135570E-01  0.14410793180E-01  0.82535829942E-01  0.51100000000E-03 0. -1.
</event>
<event>
 8    1  0.2001339E+004  0.1043930E+01  0.7957747E-01            NaN
         13   -1    0    0    0    0  0.00000000000E+00  0.00000000000E+00  0.74505805969E-08  0.10566000000E+00  0.10566000000E+00 0. -1.
     999900   -1    0    0    0    0 -0.00000000000E+00 -0.00000000000E+00 -0.74505805969E-08  0.93827000000E+00  0.93827000000E+00 0.  1.
     999902    2    1    2    0    0  0.53448891152E-02  0.10852399287E-01 -0.57854215910E-02  0.10305205439E+01  0.10304332962E+01 0.  0.
     999903    2    3    3    0    0  0.12891449768E+00 -0.34579446258E-01 -0.57601462533E-02  0.14072646582E+00  0.44227514977E-01 0.  0.
         14    1    1    2    0    0 -0.53448891152E-02 -0.10852399287E-01  0.57854215910E-02  0.13409456101E-01  0.00000000000E+00 0.  1.
     999901    1    3    3    0    0 -0.12356960856E+00  0.45431845545E-01 -0.25275337665E-04  0.88979407808E+00  0.88000000000E+00 0.  1.
        -11    1    4    4    0    0  0.33662288890E-01  0.92314745132E-02 -0.81731209593E-02  0.35852905631E-01  0.51100000000E-03 0. -1.
         11    1    4    4    0    0  0.95252208790E-01 -0.43810920771E-01  0.24129747059E-02  0.10487356019E+00  0.51100000000E-03 0.  1.
</event>
<event>
 8    1  0.2001339E+004  0.1043930E+01  0.7957747E-01            NaN
         13   -1    0    0    0    0  0.00000000000E+00  0.00000000000E+00  0.74505805969E-08  0.10566000000E+00  0.10566000000E+00 0.  1.
     999900   -1    0    0    0    0 -0.00000000000E+00 -0.00000000000E+00 -0.74505805969E-08  0.93827000000E+00  0.93827000000E+00 0.  1.
     999902    2    1    2    0    0 -0.28073545618E-02  0.12423148533E-01 -0.27339126080E-02  0.10309034833E+01  0.10308211784E+01 0.  0.
     999903    2    3    3    0    0  0.77561051916E-01  0.10835060813E+00  0.24345710836E-01  0.14163723281E+00  0.41386241979E-01 0.  0.
         14    1    1    2    0    0  0.28073545618E-02 -0.12423148533E-01  0.27339126080E-02  0.13026516697E-01  0.00000000000E+00 0. -1.
     999901    1    3    3    0    0 -0.80368406478E-01 -0.95927459596E-01 -0.27079623444E-01  0.88926625050E+00  0.88000000000E+00 0. -1.
        -11    1    4    4    0    0  0.96223478936E-02  0.83559469922E-02  0.15994496655E-01  0.20457186351E-01  0.51100000000E-03 0.  1.
         11    1    4    4    0    0  0.67938704022E-01  0.99994661137E-01  0.83512141801E-02  0.12118004646E+00  0.51100000000E-03 0. -1.
</event>
<event>
 8    1  0.2001339E+004  0.1043930E+01  0.7957747E-01            NaN
         13   -1    0    0    0    0  0.00000000000E+00  0.00000000000E+00  0.74505805969E-08  0.10566000000E+00  0.10566000000E+00 0.  1.
     999900   -1    0    0    0    0 -0.00000000000E+00 -0.00000000000E+00 -0.74505805969E-08  0.93827000000E+00  0.93827000000E+00 0.  1.
     999902    2    1    2    0    0 -0.37539359091E-02  0.66454157721E-02  0.11209638141E-01  0.10303686736E+01  0.10302794252E+01 0.  0.
     999903    2    3    3    0    0 -0.53687266844E-01 -0.11279670681E+00 -0.44219902546E-01  0.13917161789E+00  0.42519639643E-01 0.  0.
         14    1    1    2    0    0  0.37539359091E-02 -0.66454157721E-02 -0.11209638141E-01  0.13561326368E-01  0.00000000000E+00 0. -1.
     999901    1    3    3    0    0  0.49933330935E-01  0.11944212259E+00  0.55429540687E-01  0.89119705574E+00  0.88000000000E+00 0. -1.
        -11    1    4    4    0    0 -0.39111727630E-01 -0.90362396838E-01 -0.15085583291E-01  0.99613884297E-01  0.51100000000E-03 0. -1.
         11    1    4    4    0    0 -0.14575539215E-01 -0.22434309975E-01 -0.29134319255E-01  0.39557733591E-01  0.51100000000E-03 0.  1.
</event>
<event>
 8    1  0.2001339E+004  0.1043930E+01  0.7957747E-01            NaN
         13   -1    0    0    0    0  0.00000000000E+00  0.00000000000E+00  0.74505805969E-08  0.10566000000E+00  0.10566000000E+00 0. -1.
     999900   -1    0    0    0    0 -0.00000000000E+00 -0.00000000000E+00 -0.74505805969E-08  0.93827000000E+00  0.93827000000E+00 0.  1.
     999902    2    1    2    0    0  0.86717712187E-02 -0.11856185188E-01 -0.13488530795E-03  0.10292403119E+01  0.10291354783E+01 0.  0.
     999903    2    3    3    0    0  0.11605149422E+00  0.23558988627E-01  0.59718576856E-01  0.13998946066E+00  0.44808095458E-01 0.  0.
         14    1    1    2    0    0 -0.86717712187E-02  0.11856185188E-01  0.13488530795E-03  0.14689688129E-01  0.00000000000E+00 0.  1.
     999901    1    3    3    0    0 -0.10737972300E+00 -0.35415173815E-01 -0.59853462164E-01  0.88925085121E+00  0.88000000000E+00 0. -1.
        -11    1    4    4    0    0  0.62712511053E-02  0.10895214897E-01  0.17798301027E-01  0.21796213857E-01  0.51100000000E-03 0.  1.
         11    1    4    4    0    0  0.10978024311E+00  0.12663773731E-01  0.41920275829E-01  0.11819324680E+00  0.51100000000E-03 0. -1.
</event>
<event>
 8    1  0.2001339E+004  0.1043930E+01  0.7957747E-01            NaN
         13   -1    0    0    0    0  0.00000000000E+00  0.00000000000E+00  0.74505805969E-08  0.10566000000E+00  0.10566000000E+00 0.  1.
     999900   -1    0    0    0    0 -0.00000000000E+00 -0.00000000000E+00 -0.74505805969E-08  0.93827000000E+00  0.93827000000E+00 0. -1.
     999902    2    1    2    0    0 -0.12845518572E-02 -0.94368524600E-03 -0.13884280261E-01  0.10299545267E+01  0.10298597056E+01 0.  0.
     999903    2    3    3    0    0 -0.79587116495E-01 -0.50497889876E-01  0.91337149755E-01  0.13885494745E+00  0.45321909842E-01 0.  0.
         14    1    1    2    0    0  0.12845518572E-02  0.94368524600E-03  0.13884280261E-01  0.13975473290E-01  0.00000000000E+00 0.  1.
     999901    1    3    3    0    0  0.78302564637E-01  0.49554204630E-01 -0.10522143002E+00  0.89109957926E+00  0.88000000000E+00 0.  1.
        -11    1    4    4    0    0 -0.48846498933E-02 -0.21184915341E-01  0.80277716199E-02  0.23181170824E-01  0.51100000000E-03 0. -1.
         11    1    4    4    0    0 -0.74702466601E-01 -0.29312974535E-01  0.83309378135E-01  0.11567377662E+00  0.51100000000E-03 0.  1.
</event>
<event>
 8    1  0.2001339E+004  0.1043930E+01  0.7957747E-01            NaN
         13   -1    0    0    0    0  0.00000000000E+00  0.00000000000E+00  0.74505805969E-08  0.10566000000E+00  0.10566000000E+00 0.  1.
     999900   -1    0    0    0    0 -0.00000000000E+00 -0.00000000000E+00 -0.74505805969E-08  0.93827000000E+00  0.93827000000E+00 0. -1.
     999902    2    1    2    0    0  0.87263468180E-02  0.85508662929E-02  0.10576285245E-01  0.10277706605E+01  0.10276436184E+01 0.  0.
     999903    2    3    3    0    0  0.67863394163E-01  0.33060174740E-01 -0.10608888797E+00  0.13776579580E+00  0.45012741751E-01 0.  0.
         14    1    1    2    0    0 -0.87263468180E-02 -0.85508662929E-02 -0.10576285245E-01  0.16159339489E-01  0.00000000000E+00 0. -1.
     999901    1    3    3    0    0 -0.59137047345E-01 -0.24509308447E-01  0.11666517322E+00  0.89000486471E+00  0.88000000000E+00 0.  1.
        -11    1    4    4    0    0  0.47622640828E-01  0.41791751714E-01 -0.91609985015E-01  0.11138723853E+00  0.51100000000E-03 0. -1.
         11    1    4    4    0    0  0.20240753335E-01 -0.87315769742E-02 -0.14478902955E-01  0.26378557273E-01  0.51100000000E-03 0.  1.
</event>
<event>
 8    1  0.2001339E+004  0.1043930E+01  0.7957747E-01            NaN
         13   -1    0    0    0    0  0.00000000000E+00  0.00000000000E+00  0.74505805969E-08  0.10566000000E+00  0.10566000000E+00 0. -1.
     999900   -1    0    0    0    0 -0.00000000000E+00 -0.00000000000E+00 -0.74505805969E-08  0.93827000000E+00  0.93827000000E+00 0.  1.
     999902    2    1    2    0    0 -0.10004617264E-02 -0.13897478462E-01 -0.13558721619E-02  0.10299307421E+01  0.10298355958E+01 0.  0.
     999903    2    3    3    0    0 -0.16601515741E-01 -0.11038507848E+00  0.74098857253E-01  0.14131008853E+00  0.44915749999E-01 0.  0.
         14    1    1    2    0    0  0.10004617264E-02  0.13897478462E-01  0.13558721619E-02  0.13999257858E-01  0.00000000000E+00 0. -1.
     999901    1    3    3    0    0  0.15601054015E-01  0.96487600013E-01 -0.75454729415E-01  0.88862065362E+00  0.88000000000E+00 0.  1.
        -11    1    4    4    0    0 -0.40669660794E-02 -0.10664212105E+00  0.61667650706E-01  0.12325681506E+00  0.51100000000E-03 0.  1.
         11    1    4    4    0    0 -0.12534549662E-01 -0.37429574277E-02  0.12431206547E-01  0.18053273464E-01  0.51100000000E-03 0. -1.
</event>
<event>
 8    1  0.2001339E+004  0.1043930E+01  0.7957747E-01            NaN
         13   -1    0    0    0    0  0.00000000000E+00  0.00000000000E+00  0.74505805969E-08  0.10566000000E+00  0.10566000000E+00 0. -1.
     999900   -1    0    0    0    0 -0.00000000000E+00 -0.00000000000E+00 -0.74505805969E-08  0.93827000000E+00  0.93827000000E+00 0. -1.
     999902    2    1    2    0    0 -0.96906943691E-02  0.73435462739E-02  0.72390946143E-02  0.10297793209E+01  0.10296820907E+01 0.  0.
     999903    2    3    3    0    0  0.11092213017E-01 -0.50147800676E-01 -0.11954457741E+00  0.13859399574E+00  0.47744639118E-01 0.  0.
         14    1    1    2    0    0  0.96906943691E-02 -0.73435462739E-02 -0.72390946143E-02  0.14150679138E-01  0.00000000000E+00 0.  1.
     999901    1    3    3    0    0 -0.20782907386E-01  0.57491346950E-01  0.12678367203E+00  0.89118532512E+00  0.88000000000E+00 0.  1.
        -11    1    4    4    0    0  0.26735043364E-01 -0.25262270521E-01 -0.42941936049E-01  0.56543928482E-01  0.51100000000E-03 0.  1.
         11    1    4    4    0    0 -0.15642830347E-01 -0.24885530155E-01 -0.76602641366E-01  0.82050067261E-01  0.51100000000E-03 0. -1.
</event>
<event>
 8    1  0.2001339E+004  0.1043930E+01  0.7957747E-01            NaN
         13   -1    0    0    0    0  0.00000000000E+00  0.00000000000E+00  0.74505805969E-08  0.10566000000E+00  0.10566000000E+00 0.  1.
     999900   -1    0    0    0    0 -0.00000000000E+00 -0.00000000000E+00 -0.74505805969E-08  0.93827000000E+00  0.93827000000E+00 0.  1.
     999902    2    1    2    0    0 -0.19005365877E-02 -0.11069710161E-01 -0.89228932909E-02  0.10295853652E+01  0.10294854325E+01 0.  0.
     999903    2    3    3    0    0  0.10387359839E+00  0.46924647475E-01  0.64461625037E-01  0.13832962152E+00  0.44588519849E-01 0.  0.
         14    1    1    2    0    0  0.19005365877E-02  0.11069710161E-01  0.89228932909E-02  0.14344634783E-01  0.00000000000E+00 0.  1.
     999901    1    3    3    0    0 -0.10577413498E+00 -0.57994357636E-01 -0.73384518328E-01  0.89125574370E+00  0.88000000000E+00 0.  1.
        -11    1    4    4    0    0  0.65858558869E-01  0.88820280099E-02  0.48352705752E-01  0.82185676808E-01  0.51100000000E-03 0.  1.
         11    1    4    4    0    0  0.38015039526E-01  0.38042619465E-01  0.16108919285E-01  0.56143944709E-01  0.51100000000E-03 0. -1.
</event>
<event>
 8    1  0.2001339E+004  0.1043930E+01  0.7957747E-01            NaN
         13   -1    0    0    0    0  0.00000000000E+00  0.00000000000E+00  0.74505805969E-08  0.10566000000E+00  0.10566000000E+00 0. -1.
     999900   -1    0    0    0    0 -0.00000000000E+00 -0.00000000000E+00 -0.74505805969E-08  0.93827000000E+00  0.93827000000E+00 0.  1.
     999902    2    1    2    0    0  0.22421312079E-02  0.44974016571E-02 -0.13004183236E-01  0.10299886028E+01  0.10298942467E+01 0.  0.
     999903    2    3    3    0    0 -0.13071005439E+00 -0.24555293450E-02  0.89014733690E-02  0.13970522955E+00  0.48447569537E-01 0.  0.
         14    1    1    2    0    0 -0.22421312079E-02 -0.44974016571E-02  0.13004183236E-01  0.13941397192E-01  0.00000000000E+00 0. -1.
     999901    1    3    3    0    0  0.13295218559E+00  0.69529310020E-02 -0.21905656605E-01  0.89028337326E+00  0.88000000000E+00 0.  1.
        -11    1    4    4    0    0 -0.12473022450E+00  0.93205561632E-02  0.27067687170E-02  0.12510831063E+00  0.51100000000E-03 0.  1.
         11    1    4    4    0    0 -0.59798298916E-02 -0.11776085508E-01  0.61947046520E-02  0.14596918927E-01  0.51100000000E-03 0. -1.
</event>
<event>
 8    1  0.2001339E+004  0.1043930E+01  0.7957747E-01            NaN
         13   -1    0    0    0    0  0.00000000000E+00  0.00000000000E+00  0.74505805969E-08  0.10566000000E+00  0.10566000000E+00 0. -1.
     999900   -1    0    0    0    0 -0.00000000000E+00 -0.00000000000E+00 -0.74505805969E-08  0.93827000000E+00  0.93827000000E+00 0. -1.
     999902    2    1    2    0    0 -0.11501602416E-01  0.70545804176E-02  0.32026211964E-02  0.10300623850E+01  0.10299690317E+01 0.  0.
     999903    2    3    3    0    0  0.10283776029E+00 -0.50774867894E-01 -0.62348486549E-01  0.13837035147E+00  0.45883855973E-01 0.  0.
         14    1    1    2    0    0  0.11501602416E-01 -0.70545804176E-02 -0.32026211964E-02  0.13867614991E-01  0.00000000000E+00 0.  1.
     999901    1    3    3    0    0 -0.11433936271E+00  0.57829448311E-01  0.65551107745E-01  0.89169203354E+00  0.88000000000E+00 0.  1.
        -11    1    4    4    0    0  0.27246740829E-01  0.42635065072E-02 -0.32991787670E-02  0.27779634178E-01  0.51100000000E-03 0. -1.
         11    1    4    4    0    0  0.75591019461E-01 -0.55038374401E-01 -0.59049307782E-01  0.11059071729E+00  0.51100000000E-03 0.  1.
</event>
<event>
 8    1  0.2001339E+004  0.1043930E+01  0.7957747E-01            NaN
         13   -1    0    0    0    0  0.00000000000E+00  0.00000000000E+00  0.74505805969E-08  0.10566000000E+00  0.10566000000E+00 0.  1.
     999900   -1    0    0    0    0 -0.00000000000E+00 -0.00000000000E+00 -0.74505805969E-08  0.93827000000E+00  0.93827000000E+00 0. -1.
     999902    2    1    2    0    0  0.10600300666E-01  0.63211841085E-02  0.61295029194E-02  0.10301497769E+01  0.10300576044E+01 0.  0.
     999903    2    3    3    0    0 -0.10176943260E+00 -0.79708586904E-01 -0.23336817720E-01  0.13835588675E+00  0.43442699022E-01 0.  0.
         14    1    1    2    0    0 -0.10600300666E-01 -0.63211841085E-02 -0.61295029194E-02  0.13780223104E-01  0.00000000000E+00 0. -1.
     999901    1    3    3    0    0  0.11236973327E+00  0.86029771013E-01  0.29466320640E-01  0.89179389015E+00  0.88000000000E+00 0. -1.
        -11    1    4    4    0    0 -0.49687015076E-01 -0.12304446219E-01 -0.87112034291E-02  0.51926342545E-01  0.51100000000E-03 0. -1.
         11    1    4    4    0    0 -0.52082417524E-01 -0.67404140685E-01 -0.14625614291E-01  0.86429544202E-01  0.51100000000E-03 0.  1.
</event>
<event>
 8    1  0.2001339E+004  0.1043930E+01  0.7957747E-01            NaN
         13   -1    0    0    0    0  0.00000000000E+00  0.00000000000E+00  0.74505805969E-08  0.10566000000E+00  0.10566000000E+00 0.  1.
     999900   -1    0    0    0    0 -0.00000000000E+00 -0.00000000000E+00 -0.74505805969E-08  0.93827000000E+00  0.93827000000E+00 0.  1.
     999902    2    1    2    0    0  0.10902619308E-01  0.11228034502E-02  0.76538912813E-02  0.10305617598E+01  0.10304750510E+01 0.  0.
     999903    2    3    3    0    0 -0.74498695962E-01  0.46314522077E-01 -0.97928444896E-01  0.13899947602E+00  0.45119656002E-01 0.  0.
         14    1    1    2    0    0 -0.10902619308E-01 -0.11228034502E-02 -0.76538912813E-02  0.13368240240E-01  0.00000000000E+00 0. -1.
     999901    1    3    3    0    0  0.85401315269E-01 -0.45191718627E-01  0.10558233618E+00  0.89156228374E+00  0.88000000000E+00 0. -1.
        -11    1    4    4    0    0 -0.67548149125E-01  0.50949425625E-01 -0.99364553934E-01  0.13050736424E+00  0.51100000000E-03 0. -1.
         11    1    4    4    0    0 -0.69505468364E-02 -0.46349035484E-02  0.14361090374E-02  0.84921117748E-02  0.51100000000E-03 0.  1.
</event>
<event>
 8    1  0.2001339E+004  0.1043930E+01  0.7957747E-01            NaN
         13   -1    0    0    0    0  0.00000000000E+00  0.00000000000E+00  0.74505805969E-08  0.10566000000E+00  0.10566000000E+00 0.  1.
     999900   -1    0    0    0    0 -0.00000000000E+00 -0.00000000000E+00 -0.74505805969E-08  0.93827000000E+00  0.93827000000E+00 0.  1.
     999902    2    1    2    0    0 -0.11116623291E-01  0.62471215880E-02  0.42977768147E-02  0.10304735247E+01  0.10303856600E+01 0.  0.
     999903    2    3    3    0    0 -0.44835931721E-01 -0.79277796226E-01 -0.97494718279E-01  0.13984834239E+00  0.41917884372E-01 0.  0.
         14    1    1    2    0    0  0.11116623291E-01 -0.62471215880E-02 -0.42977768147E-02  0.13456475284E-01  0.00000000000E+00 0.  1.
     999901    1    3    3    0    0  0.33719308431E-01  0.85524917814E-01  0.10179249509E+00  0.89062518232E+00  0.88000000000E+00 0. -1.
        -11    1    4    4    0    0 -0.49448881526E-01 -0.49587268916E-01 -0.71983171247E-01  0.10042871694E+00  0.51100000000E-03 0.  1.
         11    1    4    4    0    0  0.46129498045E-02 -0.29690527310E-01 -0.25511547032E-01  0.39419625452E-01  0.51100000000E-03 0. -1.
</event>
<event>
 8    1  0.2001339E+004  0.1043930E+01  0.7957747E-01            NaN
         13   -1    0    0    0    0  0.00000000000E+00  0.00000000000E+00  0.74505805969E-08  0.10566000000E+00  0.10566000000E+00 0. -1.
     999900   -1    0    0    0    0 -0.00000000000E+00 -0.00000000000E+00 -0.74505805969E-08  0.93827000000E+00  0.93827000000E+00 0. -1.
     999902    2    1    2    0    0  0.27929597814E-03 -0.71191788477E-02 -0.12087004323E-01  0.10298994481E+01  0.10298038730E+01 0.  0.
     999903    2    3    3    0    0  0.82187801154E-01  0.12421019483E-01  0.10077752831E+00  0.13870405688E+00  0.46621763154E-01 0.  0.
         14    1    1    2    0    0 -0.27929597814E-03  0.71191788477E-02  0.12087004323E-01  0.14030551921E-01  0.00000000000E+00 0. -1.
     999901    1    3    3    0    0 -0.81908505176E-01 -0.19540198331E-01 -0.11286453263E+00  0.89119539120E+00  0.88000000000E+00 0. -1.
        -11    1    4    4    0    0  0.38315201341E-01  0.31639321044E-02  0.81064895164E-01  0.89720919908E-01  0.51100000000E-03 0. -1.
         11    1    4    4    0    0  0.43872599814E-01  0.92570873787E-02  0.19712633142E-01  0.48983136971E-01  0.51100000000E-03 0.  1.
</event>
<event>
 8    1  0.2001339E+004  0.1043930E+01  0.7957747E-01            NaN
         13   -1    0    0    0    0  0.00000000000E+00  0.00000000000E+00  0.74505805969E-08  0.10566000000E+00  0.10566000000E+00 0. -1.
     999900   -1    0    0    0    0 -0.00000000000E+00 -0.00000000000E+00 -0.74505805969E-08  0.93827000000E+00  0.93827000000E+00 0.  1.
     999902    2    1    2    0    0  0.34294182985E-02 -0.10947131130E-01 -0.79320280185E-02  0.10299830413E+01  0.10298886093E+01 0.  0.
     999903    2    3    3    0    0 -0.75273430443E-02 -0.10585621087E+00 -0.82272619710E-01  0.14169575236E+00  0.45240512929E-01 0.  0.
         14    1    1    2    0    0 -0.34294182985E-02  0.10947131130E-01  0.79320280185E-02  0.13946958748E-01  0.00000000000E+00 0. -1.
     999901    1    3    3    0    0  0.10956761343E-01  0.94909079737E-01  0.74340591692E-01  0.88828728889E+00  0.88000000000E+00 0.  1.
        -11    1    4    4    0    0  0.13598090031E-01 -0.54051092205E-01 -0.58808522326E-01  0.81025502406E-01  0.51100000000E-03 0. -1.
         11    1    4    4    0    0 -0.21125433075E-01 -0.51805118662E-01 -0.23464097384E-01  0.60670249952E-01  0.51100000000E-03 0.  1.
</event>
<event>
 8    1  0.2001339E+004  0.1043930E+01  0.7957747E-01            NaN
         13   -1    0    0    0    0  0.00000000000E+00  0.00000000000E+00  0.74505805969E-08  0.10566000000E+00  0.10566000000E+00 0. -1.
     999900   -1    0    0    0    0 -0.00000000000E+00 -0.00000000000E+00 -0.74505805969E-08  0.93827000000E+00  0.93827000000E+00 0.  1.
     999902    2    1    2    0    0 -0.11582416422E-01 -0.29141486869E-02  0.65110122649E-02  0.10303271358E+01  0.10302373362E+01 0.  0.
     999903    2    3    3    0    0  0.73222493653E-01 -0.73406028464E-01 -0.81153801603E-01  0.13912227865E+00  0.44934288798E-01 0.  0.
         14    1    1    2    0    0  0.11582416422E-01  0.29141486869E-02 -0.65110122649E-02  0.13602864163E-01  0.00000000000E+00 0.  1.
     999901    1    3    3    0    0 -0.84804910074E-01  0.70491879777E-01  0.87664813868E-01  0.89120485719E+00  0.88000000000E+00 0. -1.
        -11    1    4    4    0    0  0.29598850748E-01 -0.50544595587E-01 -0.23040276617E-01  0.62944130594E-01  0.51100000000E-03 0. -1.
         11    1    4    4    0    0  0.43623642905E-01 -0.22861432877E-01 -0.58113524987E-01  0.76178148053E-01  0.51100000000E-03 0.  1.
</event>
<event>
 8    1  0.2001339E+004  0.1043930E+01  0.7957747E-01            NaN
         13   -1    0    0    0    0  0.00000000000E+00  0.00000000000E+00  0.74505805969E-08  0.10566000000E+00  0.10566000000E+00 0.  1.
     999900   -1    0    0    0    0 -0.00000000000E+00 -0.00000000000E+00 -0.74505805969E-08  0.93827000000E+00  0.93827000000E+00 0.  1.
     999902    2    1    2    0    0 -0.70570303179E-02  0.10998877299E-01 -0.44118682750E-02  0.10301371917E+01  0.10300448496E+01 0.  0.
     999903    2    3    3    0    0  0.68627373135E-01  0.65746721341E-01  0.91952551746E-01  0.13996217701E+00  0.45845299768E-01 0.  0.
         14    1    1    2    0    0  0.70570303179E-02 -0.10998877299E-01  0.44118682750E-02  0.13792808286E-01  0.00000000000E+00 0.  1.
     999901    1    3    3    0    0 -0.75684403453E-01 -0.54747844041E-01 -0.96364420021E-01  0.89017501470E+00  0.88000000000E+00 0.  1.
        -11    1    4    4    0    0  0.22538733478E-01  0.51382325386E-01  0.39167007810E-01  0.68428455270E-01  0.51100000000E-03 0.  1.
         11    1    4    4    0    0  0.46088639657E-01  0.14364395955E-01  0.52785543936E-01  0.71533721742E-01  0.51100000000E-03 0. -1.
</event>
<event>
 8    1  0.2001339E+004  0.1043930E+01  0.7957747E-01            NaN
         13   -1    0    0    0    0  0.00000000000E+00  0.00000000000E+00  0.74505805969E-08  0.10566000000E+00  0.10566000000E+00 0.  1.
     999900   -1    0    0    0    0 -0.00000000000E+00 -0.00000000000E+00 -0.74505805969E-08  0.93827000000E+00  0.93827000000E+00 0. -1.
     999902    2    1    2    0    0  0.10111441886E-01 -0.24633573679E-02 -0.10708737651E-01  0.10289972692E+01  0.10288889122E+01 0.  0.
     999903    2    3    3    0    0 -0.18848863125E-01  0.60309378450E-01 -0.11636490483E+00  0.13998526632E+00  0.45415668449E-01 0.  0.
         14    1    1    2    0    0 -0.10111441886E-01  0.24633573679E-02  0.10708737651E-01  0.14932730782E-01  0.00000000000E+00 0.  1.
     999901    1    3    3    0    0  0.28960305011E-01 -0.62772735818E-01  0.10565616718E+00  0.88901200290E+00  0.88000000000E+00 0.  1.
        -11    1    4    4    0    0 -0.18363499154E-01  0.29462468016E-01 -0.98252706595E-01  0.10420705637E+00  0.51100000000E-03 0.  1.
         11    1    4    4    0    0 -0.48536397083E-03  0.30846910435E-01 -0.18112198237E-01  0.35778209954E-01  0.51100000000E-03 0. -1.
</event>
<event>
 8    1  0.2001339E+004  0.1043930E+01  0.7957747E-01            NaN
         13   -1    0    0    0    0  0.00000000000E+00  0.00000000000E+00  0.74505805969E-08  0.10566000000E+00  0.10566000000E+00 0. -1.
     999900   -1    0    0    0    0 -0.00000000000E+00 -0.00000000000E+00 -0.74505805969E-08  0.93827000000E+00  0.93827000000E+00 0. -1.
     999902    2    1    2    0    0 -0.27702803413E-02  0.13977664590E-01 -0.10623167956E-02  0.10296409105E+01  0.10295417556E+01 0.  0.
     999903    2    3    3    0    0 -0.57445788957E-01  0.97271780012E-01 -0.71391661149E-01  0.14123022984E+00  0.45687970886E-01 0.  0.
         14    1    1    2    0    0  0.27702803413E-02 -0.13977664590E-01  0.10623167956E-02  0.14289089458E-01  0.00000000000E+00 0. -1.
     999901    1    3    3    0    0  0.54675508615E-01 -0.83294115422E-01  0.70329344353E-01  0.88841068070E+00  0.88000000000E+00 0.  1.
        -11    1    4    4    0    0 -0.26243146341E-01  0.86216133520E-02 -0.20066801408E-01  0.34146340747E-01  0.51100000000E-03 0. -1.
         11    1    4    4    0    0 -0.31202642616E-01  0.88650166660E-01 -0.51324859741E-01  0.10708388909E+00  0.51100000000E-03 0.  1.
</event>
<event>
 8    1  0.2001339E+004  0.1043930E+01  0.7957747E-01            NaN
         13   -1    0    0    0    0  0.00000000000E+00  0.00000000000E+00  0.74505805969E-08  0.10566000000E+00  0.10566000000E+00 0. -1.
     999900   -1    0    0    0    0 -0.00000000000E+00 -0.00000000000E+00 -0.74505805969E-08  0.93827000000E+00  0.93827000000E+00 0.  1.
     999902    2    1    2    0    0  0.26925412455E-02  0.12938759149E-01  0.26036046173E-02  0.10304600325E+01  0.10303719904E+01 0.  0.
     999903    2    3    3    0    0  0.70562237596E-01 -0.42598447596E-01 -0.10364422048E+00  0.13974162733E+00  0.44631164655E-01 0.  0.
         14    1    1    2    0    0 -0.26925412455E-02 -0.12938759149E-01 -0.26036046173E-02  0.13469967472E-01  0.00000000000E+00 0. -1.
     999901    1    3    3    0    0 -0.67869696351E-01  0.55537206746E-01  0.10624782510E+00  0.89071840520E+00  0.88000000000E+00 0. -1.
        -11    1    4    4    0    0  0.15787302257E-01  0.92509449047E-02 -0.20549316716E-01  0.27520073268E-01  0.51100000000E-03 0. -1.
         11    1    4    4    0    0  0.54774935339E-01 -0.51849392501E-01 -0.83094903765E-01  0.11222155407E+00  0.51100000000E-03 0.  1.
</event>
<event>
 7    1  0.2001339E+004  0.1043930E+01  0.7957747E-01            NaN
         13   -1    0    0    0    0  0.00000000000E+00  0.00000000000E+00  0.74505805969E-08  0.10566000000E+00  0.10566000000E+00 0.  1.
     999900   -1    0    0    0    0 -0.00000000000E+00 -0.00000000000E+00 -0.74505805969E-08  0.93827000000E+00  0.93827000000E+00 0. -1.
     999903    2    1    2    0    0 -0.11766985544E-01 -0.99195039992E-01 -0.37403210012E-01  0.11683187440E+00  0.47671467866E-01 0.  0.
         14    1    1    2    0    0  0.20778115572E-01 -0.13834002098E-01 -0.27883428861E-01  0.37424528131E-01  0.00000000000E+00 0. -1.
     999901    1    1    2    0    0 -0.90111300284E-02  0.11302904209E+00  0.65286638873E-01  0.88967359747E+00  0.88000000000E+00 0.  1.
        -11    1    3    3    0    0 -0.12328852204E-01 -0.72204917550E-01 -0.48270681675E-01  0.87726110968E-01  0.51100000000E-03 0.  1.
         11    1    3    3    0    0  0.56186665967E-03 -0.26990122442E-01  0.10867471663E-01  0.29105763431E-01  0.51100000000E-03 0. -1.
</event>
<event>
 8    1  0.2001339E+004  0.1043930E+01  0.7957747E-01            NaN
         13   -1    0    0    0    0  0.00000000000E+00  0.00000000000E+00  0.74505805969E-08  0.10566000000E+00  0.10566000000E+00 0. -1.
     999900   -1    0    0    0    0 -0.00000000000E+00 -0.00000000000E+00 -0.74505805969E-08  0.93827000000E+00  0.93827000000E+00 0. -1.
     999902    2    1    2    0    0  0.11313441580E-02 -0.13142927545E-01 -0.43514536222E-02  0.10300392969E+01  0.10299456304E+01 0.  0.
     999903    2    3    3    0    0  0.82979255737E-01  0.53606437258E-01  0.87031466696E-01  0.13902560651E+00  0.44659109617E-01 0.  0.
         14    1    1    2    0    0 -0.11313441580E-02  0.13142927545E-01  0.43514536222E-02  0.13890703103E-01  0.00000000000E+00 0. -1.
     999901    1    3    3    0    0 -0.81847911579E-01 -0.66749364804E-01 -0.91382920319E-01  0.89101369039E+00  0.88000000000E+00 0. -1.
        -11    1    4    4    0    0  0.20901357729E-01  0.38198646605E-01  0.26588136149E-01  0.51021500000E-01  0.51100000000E-03 0.  1.
         11    1    4    4    0    0  0.62077898008E-01  0.15407790654E-01  0.60443330548E-01  0.88004106510E-01  0.51100000000E-03 0. -1.
</event>
<event>
 8    1  0.2001339E+004  0.1043930E+01  0.7957747E-01            NaN
         13   -1    0    0    0    0  0.00000000000E+00  0.00000000000E+00  0.74505805969E-08  0.10566000000E+00  0.10566000000E+00 0. -1.
     999900   -1    0    0    0    0 -0.00000000000E+00 -0.00000000000E+00 -0.74505805969E-08  0.93827000000E+00  0.93827000000E+00 0. -1.
     999902    2    1    2    0    0 -0.13754431082E-02  0.16938138548E-01  0.68660064458E-03  0.10269222429E+01  0.10267813931E+01 0.  0.
     999903    2    3    3    0    0  0.60948581983E-01  0.11390289668E+00 -0.23822790075E-01  0.13906687255E+00  0.45645045684E-01 0.  0.
         14    1    1    2    0    0  0.13754431082E-02 -0.16938138548E-01 -0.68660064458E-03  0.17007757103E-01  0.00000000000E+00 0. -1.
     999901    1    3    3    0    0 -0.62324025091E-01 -0.96964758133E-01  0.24509390720E-01  0.88785537035E+00  0.88000000000E+00 0. -1.
        -11    1    4    4    0    0  0.52425491457E-01  0.64115622400E-01 -0.30190197005E-01  0.88153016434E-01  0.51100000000E-03 0.  1.
         11    1    4    4    0    0  0.85230905258E-02  0.49787274281E-01  0.63674069298E-02  0.50913856114E-01  0.51100000000E-03 0. -1.
</event>
<event>
 8    1  0.2001339E+004  0.1043930E+01  0.7957747E-01            NaN
         13   -1    0    0    0    0  0.00000000000E+00  0.00000000000E+00  0.74505805969E-08  0.10566000000E+00  0.10566000000E+00 0. -1.
     999900   -1    0    0    0    0 -0.00000000000E+00 -0.00000000000E+00 -0.74505805969E-08  0.93827000000E+00  0.93827000000E+00 0.  1.
     999902    2    1    2    0    0  0.10578789975E-01  0.79779839685E-02 -0.29749987775E-02  0.10303502488E+01  0.10302607561E+01 0.  0.
     999903    2    3    3    0    0  0.13399786233E+00 -0.95621677220E-02 -0.32122582085E-02  0.14156457122E+00  0.44534784846E-01 0.  0.
         14    1    1    2    0    0 -0.10578789975E-01 -0.79779839685E-02  0.29749987775E-02  0.13579751222E-01  0.00000000000E+00 0. -1.
     999901    1    3    3    0    0 -0.12341907235E+00  0.17540151691E-01  0.23725943099E-03  0.88878567756E+00  0.88000000000E+00 0.  1.
        -11    1    4    4    0    0  0.16695535439E-01 -0.15076828062E-01  0.73152631808E-02  0.23660639138E-01  0.51100000000E-03 0. -1.
         11    1    4    4    0    0  0.11730232689E+00  0.55146603404E-02 -0.10527521389E-01  0.11790393208E+00  0.51100000000E-03 0.  1.
</event>
<event>
 8    1  0.2001339E+004  0.1043930E+01  0.7957747E-01            NaN
         13   -1    0    0    0    0  0.00000000000E+00  0.00000000000E+00  0.74505805969E-08  0.10566000000E+00  0.10566000000E+00 0. -1.
     999900   -1    0    0    0    0 -0.00000000000E+00 -0.00000000000E+00 -0.74505805969E-08  0.93827000000E+00  0.93827000000E+00 0. -1.
     999902    2    1    2    0    0  0.10837027291E-01 -0.47012132823E-02 -0.83421098486E-02  0.10294685560E+01  0.10293669775E+01 0.  0.
     999903    2    3    3    0    0  0.98850725134E-01  0.54656319165E-01 -0.72683676928E-01  0.14075624879E+00  0.42078802241E-01 0.  0.
         14    1    1    2    0    0 -0.10837027291E-01  0.47012132823E-02  0.83421098486E-02  0.14461444035E-01  0.00000000000E+00 0. -1.
     999901    1    3    3    0    0 -0.88013697843E-01 -0.59357532448E-01  0.64341567080E-01  0.88871230717E+00  0.88000000000E+00 0.  1.
        -11    1    4    4    0    0  0.82677930293E-01  0.33120667936E-01 -0.70754738718E-01  0.11375022186E+00  0.51100000000E-03 0.  1.
         11    1    4    4    0    0  0.16172794841E-01  0.21535651229E-01 -0.19289382104E-02  0.27006026928E-01  0.51100000000E-03 0. -1.
</event>
<event>
 8    1  0.2001339E+004  0.1043930E+01  0.7957747E-01            NaN
         13   -1    0    0    0    0  0.00000000000E+00  0.00000000000E+00  0.74505805969E-08  0.10566000000E+00  0.10566000000E+00 0. -1.
     999900   -1    0    0    0    0 -0.00000000000E+00 -0.00000000000E+00 -0.74505805969E-08  0.93827000000E+00  0.93827000000E+00 0.  1.
     999902    2    1    2    0    0 -0.10785611605E-01  0.42093788986E-02 -0.78181882679E-02  0.10299595900E+01  0.10298648380E+01 0.  0.
     999903    2    3    3    0    0 -0.79294732090E-01 -0.82687182643E-01 -0.68994156142E-01  0.14092246418E+00  0.44431099677E-01 0.  0.
         14    1    1    2    0    0  0.10785611605E-01 -0.42093788986E-02  0.78181882679E-02  0.13970410023E-01  0.00000000000E+00 0. -1.
     999901    1    3    3    0    0  0.68509120485E-01  0.86896561542E-01  0.61175967875E-01  0.88903712580E+00  0.88000000000E+00 0. -1.
        -11    1    4    4    0    0 -0.43749438174E-01 -0.15035613076E-01 -0.22236344258E-01  0.51330294448E-01  0.51100000000E-03 0.  1.
         11    1    4    4    0    0 -0.35545293917E-01 -0.67651569567E-01 -0.46757811884E-01  0.89592169734E-01  0.51100000000E-03 0. -1.
</event>
<event>
 8    1  0.2001339E+004  0.1043930E+01  0.7957747E-01            NaN
         13   -1    0    0    0    0  0.00000000000E+00  0.00000000000E+00  0.74505805969E-08  0.10566000000E+00  0.10566000000E+00 0.  1.
     999900   -1    0    0    0    0 -0.00000000000E+00 -0.00000000000E+00 -0.74505805969E-08  0.93827000000E+00  0.93827000000E+00 0.  1.
     999902    2    1    2    0    0  0.90433759424E-02  0.72059570673E-02  0.76431122503E-02  0.10300690610E+01  0.10299757981E+01 0.  0.
     999903    2    3    3    0    0  0.17742013968E-01 -0.23649858121E-01 -0.12835704019E+00  0.13904504946E+00  0.44541005432E-01 0.  0.
         14    1    1    2    0    0 -0.90433759424E-02 -0.72059570673E-02 -0.76431122503E-02  0.13860939022E-01  0.00000000000E+00 0. -1.
     999901    1    3    3    0    0 -0.86986380251E-02  0.30855815188E-01  0.13600015244E+00  0.89102401152E+00  0.88000000000E+00 0. -1.
        -11    1    4    4    0    0 -0.51937075760E-02 -0.53812648132E-02 -0.11981715241E-03  0.74972052476E-02  0.51100000000E-03 0.  1.
         11    1    4    4    0    0  0.22935721544E-01 -0.18268593307E-01 -0.12823722304E+00  0.13154784421E+00  0.51100000000E-03 0. -1.
</event>
<event>
 8    1  0.2001339E+004  0.1043930E+01  0.7957747E-01            NaN
         13   -1    0    0    0    0  0.00000000000E+00  0.00000000000E+00  0.74505805969E-08  0.10566000000E+00  0.10566000000E+00 0. -1.
     999900   -1    0    0    0    0 -0.00000000000E+00 -0.00000000000E+00 -0.74505805969E-08  0.93827000000E+00  0.93827000000E+00 0.  1.
     999902    2    1    2    0    0 -0.13592210098E-01 -0.43880138105E-02  0.75669044863E-03  0.10296270136E+01  0.10295276643E+01 0.  0.
     999903    2    3    3    0    0  0.10667529171E+00 -0.75793854078E-01 -0.10109330346E-01  0.13851471064E+00  0.44269632083E-01 0.  0.
         14    1    1    2    0    0  0.13592210098E-01  0.43880138105E-02 -0.75669044863E-03  0.14302986436E-01  0.00000000000E+00 0. -1.
     999901    1    3    3    0    0 -0.12026750181E+00  0.71405840267E-01  0.10866020795E-01  0.89111230293E+00  0.88000000000E+00 0. -1.
        -11    1    4    4    0    0  0.10206263510E+00 -0.61500242411E-01  0.20577237685E-02  0.11917867531E+00  0.51100000000E-03 0.  1.
         11    1    4    4    0    0  0.46126566178E-02 -0.14293611667E-01 -0.12167054115E-01  0.19336035333E-01  0.51100000000E-03 0. -1.
</event>
<event>
 8    1  0.2001339E+004  0.1043930E+01  0.7957747E-01            NaN
         13   -1    0    0    0    0  0.00000000000E+00  0.00000000000E+00  0.74505805969E-08  0.10566000000E+00  0.10566000000E+00 0. -1.
     999900   -1    0    0    0    0 -0.00000000000E+00 -0.00000000000E+00 -0.74505805969E-08  0.93827000000E+00  0.93827000000E+00 0.  1.
     999902    2    1    2    0    0  0.15500629203E-01 -0.61201254324E-03 -0.15111284936E-02  0.10283438660E+01  0.10282257432E+01 0.  0.
     999903    2    3    3    0    0 -0.46611001479E-01  0.48501726502E-01 -0.11257156082E+00  0.13783590212E+00  0.42442628035E-01 0.  0.
         14    1    1    2    0    0 -0.15500629203E-01  0.61201254324E-03  0.15111284936E-02  0.15586134042E-01  0.00000000000E+00 0. -1.
     999901    1    3    3    0    0  0.62111630682E-01 -0.49113739045E-01  0.11106043233E+00  0.89050796384E+00  0.88000000000E+00 0. -1.
        -11    1    4    4    0    0 -0.38727883794E-02  0.31518941412E-01 -0.32149451909E-01  0.45191708716E-01  0.51100000000E-03 0.  1.
         11    1    4    4    0    0 -0.42738213100E-01  0.16982785089E-01 -0.80422108914E-01  0.92644193404E-01  0.51100000000E-03 0. -1.
</event>
<event>
 8    1  0.2001339E+004  0.1043930E+01  0.7957747E-01            NaN
         13   -1    0    0    0    0  0.00000000000E+00  0.00000000000E+00  0.74505805969E-08  0.10566000000E+00  0.10566000000E+00 0. -1.
     999900   -1    0    0    0    0 -0.00000000000E+00 -0.00000000000E+00 -0.74505805969E-08  0.93827000000E+00  0.93827000000E+00 0. -1.
     999902    2    1    2    0    0 -0.24279574641E-02  0.92618146755E-02 -0.96383845762E-02  0.10303441748E+01  0.10302546015E+01 0.  0.
     999903    2    3    3    0    0  0.95280232693E-01 -0.32943552461E-01  0.84331732720E-01  0.13896402787E+00  0.45117175301E-01 0.  0.
         14    1    1    2    0    0  0.24279574641E-02 -0.92618146755E-02  0.96383845762E-02  0.13585825178E-01  0.00000000000E+00 0. -1.
     999901    1    3    3    0    0 -0.97708190157E-01  0.42205367136E-01 -0.93970117296E-01  0.89138014695E+00  0.88000000000E+00 0. -1.
        -11    1    4    4    0    0  0.30723947310E-01 -0.30475006248E-02  0.52752896444E-01  0.61125914329E-01  0.51100000000E-03 0.  1.
         11    1    4    4    0    0  0.64556285383E-01 -0.29896051836E-01  0.31578836276E-01  0.77838113539E-01  0.51100000000E-03 0. -1.
</event>
<event>
 8    1  0.3078826E+004  0.1043930E+01  0.7957747E-01            NaN
         13   -1    0    0    0    0  0.00000000000E+00  0.00000000000E+00  0.74505805969E-08  0.10566000000E+00  0.10566000000E+00 0.  1.
     999900   -1    0    0    0    0 -0.00000000000E+00 -0.00000000000E+00 -0.74505805969E-08  0.93827000000E+00  0.93827000000E+00 0.  1.
     999902    2    1    2    0    0 -0.10928161976E-02 -0.10591241801E-02  0.13918503958E-01  0.10299285449E+01  0.10298333685E+01 0.  0.
     999903    2    3    3    0    0 -0.19796411953E-01 -0.10288464725E+00  0.83221835959E-01  0.14115342520E+00  0.44958501981E-01 0.  0.
         14    1    1    2    0    0  0.10928161976E-02  0.10591241801E-02 -0.13918503958E-01  0.14001455056E-01  0.00000000000E+00 0. -1.
     999901    1    3    3    0    0  0.18703595756E-01  0.10182552307E+00 -0.69303332002E-01  0.88877511974E+00  0.88000000000E+00 0.  1.
        -11    1    4    4    0    0 -0.21361859376E-01 -0.47092692221E-01  0.63639329675E-01  0.82001683514E-01  0.51100000000E-03 0. -1.
         11    1    4    4    0    0  0.15654474224E-02 -0.55791955029E-01  0.19582506284E-01  0.59151741690E-01  0.51100000000E-03 0.  1.
</event>
<event>
 8    1  0.2001339E+004  0.1043930E+01  0.7957747E-01            NaN
         13   -1    0    0    0    0  0.00000000000E+00  0.00000000000E+00  0.74505805969E-08  0.10566000000E+00  0.10566000000E+00 0.  1.
     999900   -1    0    0    0    0 -0.00000000000E+00 -0.00000000000E+00 -0.74505805969E-08  0.93827000000E+00  0.93827000000E+00 0.  1.
     999902    2    1    2    0    0  0.18420645454E-01  0.24532192194E-02  0.88188526078E-02  0.10233603470E+01  0.10231536000E+01 0.  0.
     999903    2    3    3    0    0 -0.58732755766E-01 -0.99805857568E-01  0.39327136874E-01  0.13356243650E+00  0.53680116852E-01 0.  0.
         14    1    1    2    0    0 -0.18420645454E-01 -0.24532192194E-02 -0.88188526078E-02  0.20569653006E-01  0.00000000000E+00 0. -1.
     999901    1    3    3    0    0  0.77153401219E-01  0.10225907679E+00 -0.30508284266E-01  0.88979791049E+00  0.88000000000E+00 0.  1.
        -11    1    4    4    0    0 -0.12713867830E-01 -0.63813766746E-01  0.37930721916E-02  0.65180424815E-01  0.51100000000E-03 0.  1.
         11    1    4    4    0    0 -0.46018887936E-01 -0.35992090822E-01  0.35534064682E-01  0.68382011688E-01  0.51100000000E-03 0. -1.
</event>
<event>
 8    1  0.2001339E+004  0.1043930E+01  0.7957747E-01            NaN
         13   -1    0    0    0    0  0.00000000000E+00  0.00000000000E+00  0.74505805969E-08  0.10566000000E+00  0.10566000000E+00 0. -1.
     999900   -1    0    0    0    0 -0.00000000000E+00 -0.00000000000E+00 -0.74505805969E-08  0.93827000000E+00  0.93827000000E+00 0.  1.
     999902    2    1    2    0    0 -0.53294892063E-03 -0.11898173662E-01 -0.72801475511E-02  0.10299710918E+01  0.10298764968E+01 0.  0.
     999903    2    3    3    0    0 -0.73886282073E-01  0.10322118742E+00 -0.34284073486E-01  0.13903765384E+00  0.45191539909E-01 0.  0.
         14    1    1    2    0    0  0.53294892063E-03  0.11898173662E-01  0.72801475511E-02  0.13958908245E-01  0.00000000000E+00 0.  1.
     999901    1    3    3    0    0  0.73353333152E-01 -0.11511936108E+00  0.27003925935E-01  0.89093343792E+00  0.88000000000E+00 0.  1.
        -11    1    4    4    0    0 -0.29581609370E-01  0.39116817330E-01 -0.36408518817E-01  0.61082226338E-01  0.51100000000E-03 0. -1.
         11    1    4    4    0    0 -0.44304672703E-01  0.64104370090E-01  0.21244453310E-02  0.77955427501E-01  0.51100000000E-03 0.  1.
</event>
<event>
 8    1  0.2001339E+004  0.1043930E+01  0.7957747E-01            NaN
         13   -1    0    0    0    0  0.00000000000E+00  0.00000000000E+00  0.74505805969E-08  0.10566000000E+00  0.10566000000E+00 0.  1.
     999900   -1    0    0    0    0 -0.00000000000E+00 -0.00000000000E+00 -0.74505805969E-08  0.93827000000E+00  0.93827000000E+00 0.  1.
     999902    2    1    2    0    0 -0.10607394382E-01  0.14216274000E-02  0.11769548954E-02  0.10331632427E+01  0.10331071401E+01 0.  0.
     999903    2    3    3    0    0 -0.24527096314E-01 -0.13127683073E+00  0.22903303211E-01  0.14284045117E+00  0.45206730172E-01 0.  0.
         14    1    1    2    0    0  0.10607394382E-01 -0.14216274000E-02 -0.11769548954E-02  0.10766757305E-01  0.00000000000E+00 0.  1.
     999901    1    3    3    0    0  0.13919701932E-01  0.13269845813E+00 -0.21726348316E-01  0.89032279152E+00  0.88000000000E+00 0.  1.
        -11    1    4    4    0    0 -0.10687306401E-02 -0.85247314084E-01 -0.24482744836E-02  0.85290690656E-01  0.51100000000E-03 0.  1.
         11    1    4    4    0    0 -0.23458365674E-01 -0.46029516648E-01  0.25351577695E-01  0.57549760517E-01  0.51100000000E-03 0. -1.
</event>
<event>
 8    1  0.2001339E+004  0.1043930E+01  0.7957747E-01            NaN
         13   -1    0    0    0    0  0.00000000000E+00  0.00000000000E+00  0.74505805969E-08  0.10566000000E+00  0.10566000000E+00 0. -1.
     999900   -1    0    0    0    0 -0.00000000000E+00 -0.00000000000E+00 -0.74505805969E-08  0.93827000000E+00  0.93827000000E+00 0. -1.
     999902    2    1    2    0    0 -0.28175449132E-02 -0.11661021659E-01  0.49396303608E-04  0.10319333161E+01  0.10318635803E+01 0.  0.
     999903    2    3    3    0    0  0.83248834572E-01 -0.63476430577E-01  0.84792738268E-01  0.14217284701E+00  0.45427791804E-01 0.  0.
         14    1    1    2    0    0  0.28175449132E-02  0.11661021659E-01 -0.49396303608E-04  0.11996683936E-01  0.00000000000E+00 0. -1.
     999901    1    3    3    0    0 -0.86066379485E-01  0.51815408918E-01 -0.84743341964E-01  0.88976046905E+00  0.88000000000E+00 0.  1.
        -11    1    4    4    0    0  0.67211324875E-01 -0.69361338576E-01  0.76309519537E-01  0.12309249113E+00  0.51100000000E-03 0.  1.
         11    1    4    4    0    0  0.16037509697E-01  0.58849079985E-02  0.84832187309E-02  0.19080355879E-01  0.51100000000E-03 0. -1.
</event>
<event>
 8    1  0.2765372E+004  0.1043930E+01  0.7957747E-01            NaN
         13   -1    0    0    0    0  0.00000000000E+00  0.00000000000E+00  0.74505805969E-08  0.10566000000E+00  0.10566000000E+00 0. -1.
     999900   -1    0    0    0    0 -0.00000000000E+00 -0.00000000000E+00 -0.74505805969E-08  0.93827000000E+00  0.93827000000E+00 0.  1.
     999902    2    1    2    0    0 -0.14553787174E-01 -0.52526830482E-03  0.87993851930E-02  0.10269147772E+01  0.10267738026E+01 0.  0.
     999903    2    3    3    0    0 -0.54847359781E-01  0.99398346101E-01  0.66246820488E-01  0.13848441495E+00  0.43600778393E-01 0.  0.
         14    1    1    2    0    0  0.14553787174E-01  0.52526830482E-03 -0.87993851930E-02  0.17015222822E-01  0.00000000000E+00 0. -1.
     999901    1    3    3    0    0  0.40293572607E-01 -0.99923614405E-01 -0.57447435295E-01  0.88843036223E+00  0.88000000000E+00 0.  1.
        -11    1    4    4    0    0 -0.20417566378E-01  0.46833141618E-01  0.54228023845E-01  0.74506106204E-01  0.51100000000E-03 0.  1.
         11    1    4    4    0    0 -0.34429793403E-01  0.52565204482E-01  0.12018796643E-01  0.63978308744E-01  0.51100000000E-03 0. -1.
</event>
<event>
 8    1  0.2001339E+004  0.1043930E+01  0.7957747E-01            NaN
         13   -1    0    0    0    0  0.00000000000E+00  0.00000000000E+00  0.74505805969E-08  0.10566000000E+00  0.10566000000E+00 0. -1.
     999900   -1    0    0    0    0 -0.00000000000E+00 -0.00000000000E+00 -0.74505805969E-08  0.93827000000E+00  0.93827000000E+00 0. -1.
     999902    2    1    2    0    0 -0.12918973678E-01  0.77031262210E-03  0.15630555660E-02  0.10308940342E+01  0.10308116090E+01 0.  0.
     999903    2    3    3    0    0 -0.63789898981E-01 -0.60300835550E-01 -0.10122486211E+00  0.14135320194E+00  0.45043456902E-01 0.  0.
         14    1    1    2    0    0  0.12918973678E-01 -0.77031262210E-03 -0.15630555660E-02  0.13035965831E-01  0.00000000000E+00 0.  1.
     999901    1    3    3    0    0  0.50870925303E-01  0.61071148172E-01  0.10278791768E+00  0.88954083223E+00  0.88000000000E+00 0. -1.
        -11    1    4    4    0    0 -0.26739044166E-01 -0.42668487159E-01 -0.28534234980E-01  0.57879529768E-01  0.51100000000E-03 0.  1.
         11    1    4    4    0    0 -0.37050854815E-01 -0.17632348391E-01 -0.72690627131E-01  0.83473672173E-01  0.51100000000E-03 0. -1.
</event>
<event>
 8    1  0.2001339E+004  0.1043930E+01  0.7957747E-01            NaN
         13   -1    0    0    0    0  0.00000000000E+00  0.00000000000E+00  0.74505805969E-08  0.10566000000E+00  0.10566000000E+00 0. -1.
     999900   -1    0    0    0    0 -0.00000000000E+00 -0.00000000000E+00 -0.74505805969E-08  0.93827000000E+00  0.93827000000E+00 0. -1.
     999902    2    1    2    0    0  0.45613352480E-02 -0.26061748165E-03 -0.82042782189E-02  0.10345393727E+01  0.10344967519E+01 0.  0.
     999903    2    3    3    0    0  0.39089568946E-03 -0.12243585217E+00  0.59506862484E-01  0.14351244876E+00  0.45431988424E-01 0.  0.
         14    1    1    2    0    0 -0.45613352480E-02  0.26061748165E-03  0.82042782189E-02  0.93906273385E-02  0.00000000000E+00 0. -1.
     999901    1    3    3    0    0  0.41704395585E-02  0.12217523468E+00 -0.67711140703E-01  0.89102692390E+00  0.88000000000E+00 0. -1.
        -11    1    4    4    0    0 -0.17814616868E-01 -0.63781056836E-01  0.45985033768E-01  0.80624241001E-01  0.51100000000E-03 0. -1.
         11    1    4    4    0    0  0.18205512558E-01 -0.58654795330E-01  0.13521828716E-01  0.62888207762E-01  0.51100000000E-03 0.  1.
</event>
<event>
 8    1  0.2001339E+004  0.1043930E+01  0.7957747E-01            NaN
         13   -1    0    0    0    0  0.00000000000E+00  0.00000000000E+00  0.74505805969E-08  0.10566000000E+00  0.10566000000E+00 0.  1.
     999900   -1    0    0    0    0 -0.00000000000E+00 -0.00000000000E+00 -0.74505805969E-08  0.93827000000E+00  0.93827000000E+00 0. -1.
     999902    2    1    2    0    0  0.51727480044E-02  0.70338476051E-02  0.10266134569E-01  0.10304531364E+01  0.10303650035E+01 0.  0.
     999903    2    3    3    0    0 -0.51325613881E-01  0.11599340837E+00  0.43311469641E-01  0.14132083748E+00  0.44798507554E-01 0.  0.
         14    1    1    2    0    0 -0.51727480044E-02 -0.70338476051E-02 -0.10266134569E-01  0.13476863620E-01  0.00000000000E+00 0. -1.
     999901    1    3    3    0    0  0.56498361885E-01 -0.10895956076E+00 -0.33045335072E-01  0.88913229890E+00  0.88000000000E+00 0. -1.
        -11    1    4    4    0    0 -0.53840755674E-01  0.72459172024E-01  0.35570683509E-01  0.97029342099E-01  0.51100000000E-03 0.  1.
         11    1    4    4    0    0  0.25151417935E-02  0.43534236342E-01  0.77407861322E-02  0.44291495381E-01  0.51100000000E-03 0. -1.
</event>
<event>
 8    1  0.2001339E+004  0.1043930E+01  0.7957747E-01            NaN
         13   -1    0    0    0    0  0.00000000000E+00  0.00000000000E+00  0.74505805969E-08  0.10566000000E+00  0.10566000000E+00 0. -1.
     999900   -1    0    0    0    0 -0.00000000000E+00 -0.00000000000E+00 -0.74505805969E-08  0.93827000000E+00  0.93827000000E+00 0. -1.
     999902    2    1    2    0    0  0.13567132538E-01  0.18498943733E-02  0.27402355680E-02  0.10299658285E+01  0.10298711618E+01 0.  0.
     999903    2    3    3    0    0 -0.82402025028E-01 -0.34541657889E-01 -0.95839724293E-01  0.13853303083E+00  0.44976972120E-01 0.  0.
         14    1    1    2    0    0 -0.13567132538E-01 -0.18498943733E-02 -0.27402355680E-02  0.13964171493E-01  0.00000000000E+00 0.  1.
     999901    1    3    3    0    0  0.95969157567E-01  0.36391552263E-01  0.98579959861E-01  0.89143279767E+00  0.88000000000E+00 0.  1.
        -11    1    4    4    0    0 -0.31884851451E-01  0.54467918891E-02 -0.49636926601E-01  0.59248602493E-01  0.51100000000E-03 0.  1.
         11    1    4    4    0    0 -0.50517173577E-01 -0.39988449778E-01 -0.46202797692E-01  0.79284428342E-01  0.51100000000E-03 0. -1.
</event>
<event>
 8    1  0.2001339E+004  0.1043930E+01  0.7957747E-01            NaN
         13   -1    0    0    0    0  0.00000000000E+00  0.00000000000E+00  0.74505805969E-08  0.10566000000E+00  0.10566000000E+00 0. -1.
     999900   -1    0    0    0    0 -0.00000000000E+00 -0.00000000000E+00 -0.74505805969E-08  0.93827000000E+00  0.93827000000E+00 0. -1.
     999902    2    1    2    0    0  0.28578589686E-02 -0.14025515306E-01 -0.79737206461E-03  0.10295940926E+01  0.10294942823E+01 0.  0.
     999903    2    3    3    0    0 -0.71935118735E-01 -0.10292378847E+00  0.44380979395E-01  0.14080954287E+00  0.45713110698E-01 0.  0.
         14    1    1    2    0    0 -0.28578589686E-02  0.14025515306E-01  0.79737206461E-03  0.14335907355E-01  0.00000000000E+00 0.  1.
     999901    1    3    3    0    0  0.74792977704E-01  0.88898273164E-01 -0.45178351460E-01  0.88878454978E+00  0.88000000000E+00 0. -1.
        -11    1    4    4    0    0 -0.49459555305E-01 -0.71443860297E-01  0.52165501810E-01  0.10135074487E+00  0.51100000000E-03 0. -1.
         11    1    4    4    0    0 -0.22475563430E-01 -0.31479928173E-01 -0.77845224147E-02  0.39458797999E-01  0.51100000000E-03 0.  1.
</event>
<event>
 8    1  0.2001339E+004  0.1043930E+01  0.7957747E-01            NaN
         13   -1    0    0    0    0  0.00000000000E+00  0.00000000000E+00  0.74505805969E-08  0.10566000000E+00  0.10566000000E+00 0. -1.
     999900   -1    0    0    0    0 -0.00000000000E+00 -0.00000000000E+00 -0.74505805969E-08  0.93827000000E+00  0.93827000000E+00 0.  1.
     999902    2    1    2    0    0 -0.15425046160E-01 -0.18301443633E-02  0.87081103236E-03  0.10283723720E+01  0.10282546843E+01 0.  0.
     999903    2    3    3    0    0  0.57276604797E-01  0.85423108892E-01  0.79848661163E-01  0.13756590532E+00  0.44394285964E-01 0.  0.
         14    1    1    2    0    0  0.15425046160E-01  0.18301443633E-02 -0.87081103236E-03  0.15557628010E-01  0.00000000000E+00 0.  1.
     999901    1    3    3    0    0 -0.72701650957E-01 -0.87253253255E-01 -0.78977850131E-01  0.89080646667E+00  0.88000000000E+00 0.  1.
        -11    1    4    4    0    0  0.24342393448E-01  0.64211052706E-02  0.27250173751E-01  0.37102773510E-01  0.51100000000E-03 0.  1.
         11    1    4    4    0    0  0.32934211349E-01  0.79002003622E-01  0.52598487412E-01  0.10046313181E+00  0.51100000000E-03 0. -1.
</event>
<event>
 8    1  0.2001339E+004  0.1043930E+01  0.7957747E-01            NaN
         13   -1    0    0    0    0  0.00000000000E+00  0.00000000000E+00  0.74505805969E-08  0.10566000000E+00  0.10566000000E+00 0. -1.
     999900   -1    0    0    0    0 -0.00000000000E+00 -0.00000000000E+00 -0.74505805969E-08  0.93827000000E+00  0.93827000000E+00 0. -1.
     999902    2    1    2    0    0  0.14598301534E-01  0.28072890668E-02 -0.74025653675E-02  0.10273230962E+01  0.10271888603E+01 0.  0.
     999903    2    3    3    0    0  0.67170717631E-01  0.71208084276E-01  0.88413583104E-01  0.13792821089E+00  0.40307978228E-01 0.  0.
         14    1    1    2    0    0 -0.14598301534E-01 -0.28072890668E-02  0.74025653675E-02  0.16606903793E-01  0.00000000000E+00 0.  1.
     999901    1    3    3    0    0 -0.52572416097E-01 -0.68400795209E-01 -0.95816148472E-01  0.88939488532E+00  0.88000000000E+00 0. -1.
        -11    1    4    4    0    0  0.11841820287E-01 -0.22970274724E-02  0.19668940867E-01  0.23078851764E-01  0.51100000000E-03 0.  1.
         11    1    4    4    0    0  0.55328897343E-01  0.73505111748E-01  0.68744642237E-01  0.11484935913E+00  0.51100000000E-03 0. -1.
</event>
<event>
 8    1  0.2001339E+004  0.1043930E+01  0.7957747E-01            NaN
         13   -1    0    0    0    0  0.00000000000E+00  0.00000000000E+00  0.74505805969E-08  0.10566000000E+00  0.10566000000E+00 0.  1.
     999900   -1    0    0    0    0 -0.00000000000E+00 -0.00000000000E+00 -0.74505805969E-08  0.93827000000E+00  0.93827000000E+00 0. -1.
     999902    2    1    2    0    0  0.12142922596E-01 -0.55731281896E-02 -0.42675718972E-02  0.10299042203E+01  0.10298087106E+01 0.  0.
     999903    2    3    3    0    0  0.71599426849E-01  0.66051326676E-01 -0.91116619241E-01  0.14074287639E+00  0.44911727559E-01 0.  0.
         14    1    1    2    0    0 -0.12142922596E-01  0.55731281896E-02  0.42675718972E-02  0.14025779724E-01  0.00000000000E+00 0. -1.
     999901    1    3    3    0    0 -0.59456504254E-01 -0.71624454865E-01  0.86849047344E-01  0.88916134388E+00  0.88000000000E+00 0.  1.
        -11    1    4    4    0    0  0.70088502878E-01  0.50490661638E-01 -0.57798821234E-01  0.10393589373E+00  0.51100000000E-03 0. -1.
         11    1    4    4    0    0  0.15109239715E-02  0.15560665037E-01 -0.33317798007E-01  0.36806982662E-01  0.51100000000E-03 0.  1.
</event>
<event>
 8    1  0.2001339E+004  0.1043930E+01  0.7957747E-01            NaN
         13   -1    0    0    0    0  0.00000000000E+00  0.00000000000E+00  0.74505805969E-08  0.10566000000E+00  0.10566000000E+00 0.  1.
     999900   -1    0    0    0    0 -0.00000000000E+00 -0.00000000000E+00 -0.74505805969E-08  0.93827000000E+00  0.93827000000E+00 0. -1.
     999902    2    1    2    0    0  0.21735922603E-02  0.80427059991E-02 -0.11150716953E-01  0.10300106569E+01  0.10299166011E+01 0.  0.
     999903    2    3    3    0    0 -0.33303013823E-01 -0.11881754675E+00 -0.47059158725E-01  0.13948186486E+00  0.44876787526E-01 0.  0.
         14    1    1    2    0    0 -0.21735922603E-02 -0.80427059991E-02  0.11150716953E-01  0.13919343076E-01  0.00000000000E+00 0.  1.
     999901    1    3    3    0    0  0.35476606083E-01  0.12686025275E+00  0.35908441772E-01  0.89052879207E+00  0.88000000000E+00 0.  1.
        -11    1    4    4    0    0  0.20126354902E-02 -0.60658595981E-01 -0.85398126861E-02  0.61291969210E-01  0.51100000000E-03 0. -1.
         11    1    4    4    0    0 -0.35315649313E-01 -0.58158950772E-01 -0.38519346039E-01  0.78189895648E-01  0.51100000000E-03 0.  1.
</event>
<event>
 8    1  0.2001339E+004  0.1043930E+01  0.7957747E-01            NaN
         13   -1    0    0    0    0  0.00000000000E+00  0.00000000000E+00  0.74505805969E-08  0.10566000000E+00  0.10566000000E+00 0. -1.
     999900   -1    0    0    0    0 -0.00000000000E+00 -0.00000000000E+00 -0.74505805969E-08  0.93827000000E+00  0.93827000000E+00 0.  1.
     999902    2    1    2    0    0 -0.28607517338E-02 -0.11660886224E-01  0.80702851960E-02  0.10294631527E+01  0.10293614978E+01 0.  0.
     999903    2    3    3    0    0  0.29263173927E-01 -0.98369811079E-01 -0.83552092982E-01  0.13988738614E+00  0.45327425239E-01 0.  0.
         14    1    1    2    0    0  0.28607517338E-02  0.11660886224E-01 -0.80702851960E-02  0.14466847312E-01  0.00000000000E+00 0.  1.
     999901    1    3    3    0    0 -0.32123925661E-01  0.86708924855E-01  0.91622378178E-01  0.88957576655E+00  0.88000000000E+00 0. -1.
        -11    1    4    4    0    0  0.14376873539E-01 -0.75331273205E-01 -0.35400021788E-01  0.84468443095E-01  0.51100000000E-03 0. -1.
         11    1    4    4    0    0  0.14886300388E-01 -0.23038537875E-01 -0.48152071195E-01  0.55418943043E-01  0.51100000000E-03 0.  1.
</event>
<event>
 8    1  0.2001339E+004  0.1043930E+01  0.7957747E-01            NaN
         13   -1    0    0    0    0  0.00000000000E+00  0.00000000000E+00  0.74505805969E-08  0.10566000000E+00  0.10566000000E+00 0.  1.
     999900   -1    0    0    0    0 -0.00000000000E+00 -0.00000000000E+00 -0.74505805969E-08  0.93827000000E+00  0.93827000000E+00 0.  1.
     999902    2    1    2    0    0  0.85887331816E-02 -0.95723887953E-02  0.83739232910E-02  0.10285833536E+01  0.10284688599E+01 0.  0.
     999903    2    3    3    0    0 -0.91204421397E-01 -0.89155542601E-01 -0.31848321146E-01  0.13846539454E+00  0.43490144469E-01 0.  0.
         14    1    1    2    0    0 -0.85887331816E-02  0.95723887953E-02 -0.83739232910E-02  0.15346646415E-01  0.00000000000E+00 0. -1.
     999901    1    3    3    0    0  0.99793154578E-01  0.79583153805E-01  0.40222244437E-01  0.89011795905E+00  0.88000000000E+00 0. -1.
        -11    1    4    4    0    0 -0.53700112841E-01 -0.22414451658E-01 -0.13392929464E-01  0.59713829578E-01  0.51100000000E-03 0. -1.
         11    1    4    4    0    0 -0.37504308556E-01 -0.66741090943E-01 -0.18455391682E-01  0.78751564960E-01  0.51100000000E-03 0.  1.
</event>
<event>
 8    1  0.2001339E+004  0.1043930E+01  0.7957747E-01            NaN
         13   -1    0    0    0    0  0.00000000000E+00  0.00000000000E+00  0.74505805969E-08  0.10566000000E+00  0.10566000000E+00 0. -1.
     999900   -1    0    0    0    0 -0.00000000000E+00 -0.00000000000E+00 -0.74505805969E-08  0.93827000000E+00  0.93827000000E+00 0. -1.
     999902    2    1    2    0    0 -0.10851391335E-01  0.14327695614E-02 -0.87804093307E-02  0.10298978544E+01  0.10298022574E+01 0.  0.
     999903    2    3    3    0    0 -0.10961774743E+00  0.44375789025E-01 -0.62581865321E-01  0.14170108976E+00  0.46663130739E-01 0.  0.
         14    1    1    2    0    0  0.10851391335E-01 -0.14327695614E-02  0.87804093307E-02  0.14032145614E-01  0.00000000000E+00 0. -1.
     999901    1    3    3    0    0  0.98766356094E-01 -0.42943019464E-01  0.53801455990E-01  0.88819676462E+00  0.88000000000E+00 0.  1.
        -11    1    4    4    0    0 -0.21112168647E-01  0.27364529284E-01 -0.30302712941E-01  0.45967996046E-01  0.51100000000E-03 0.  1.
         11    1    4    4    0    0 -0.88505578782E-01  0.17011259742E-01 -0.32279152380E-01  0.95733093719E-01  0.51100000000E-03 0. -1.
</event>
<event>
 8    1  0.2001339E+004  0.1043930E+01  0.7957747E-01            NaN
         13   -1    0    0    0    0  0.00000000000E+00  0.00000000000E+00  0.74505805969E-08  0.10566000000E+00  0.10566000000E+00 0. -1.
     999900   -1    0    0    0    0 -0.00000000000E+00 -0.00000000000E+00 -0.74505805969E-08  0.93827000000E+00  0.93827000000E+00 0.  1.
     999902    2    1    2    0    0 -0.51624949831E-02  0.13114899918E-01 -0.43782326976E-03  0.10298288070E+01  0.10297322604E+01 0.  0.
     999903    2    3    3    0    0  0.80044631154E-02 -0.22235247763E-03 -0.13041763706E+00  0.14008389802E+00  0.50503639053E-01 0.  0.
         14    1    1    2    0    0  0.51624949831E-02 -0.13114899918E-01  0.43782326976E-03  0.14101192982E-01  0.00000000000E+00 0.  1.
     999901    1    3    3    0    0 -0.13166958099E-01  0.13337252395E-01  0.12997981379E+00  0.88974490899E+00  0.88000000000E+00 0. -1.
        -11    1    4    4    0    0  0.24460051887E-01 -0.26518008173E-03 -0.11484432116E+00  0.11742164912E+00  0.51100000000E-03 0. -1.
         11    1    4    4    0    0 -0.16455588772E-01  0.42827604103E-04 -0.15573315905E-01  0.22662248902E-01  0.51100000000E-03 0.  1.
</event>
<event>
 8    1  0.2001339E+004  0.1043930E+01  0.7957747E-01            NaN
         13   -1    0    0    0    0  0.00000000000E+00  0.00000000000E+00  0.74505805969E-08  0.10566000000E+00  0.10566000000E+00 0.  1.
     999900   -1    0    0    0    0 -0.00000000000E+00 -0.00000000000E+00 -0.74505805969E-08  0.93827000000E+00  0.93827000000E+00 0. -1.
     999902    2    1    2    0    0  0.52255066595E-02  0.12668459820E-01  0.47602531509E-02  0.10294229050E+01  0.10293206797E+01 0.  0.
     999903    2    3    3    0    0  0.36066006951E-01 -0.10206696721E+00  0.72691166777E-01  0.13884446173E+00  0.47700693623E-01 0.  0.
         14    1    1    2    0    0 -0.52255066595E-02 -0.12668459820E-01 -0.47602531509E-02  0.14507094958E-01  0.00000000000E+00 0. -1.
     999901    1    3    3    0    0 -0.30840500292E-01  0.11473542703E+00 -0.67930913626E-01  0.89057844332E+00  0.88000000000E+00 0.  1.
        -11    1    4    4    0    0  0.13563105078E-01 -0.87925428255E-01  0.67703160354E-01  0.11179811177E+00  0.51100000000E-03 0.  1.
         11    1    4    4    0    0  0.22502901873E-01 -0.14141538952E-01  0.49880064237E-02  0.27046349952E-01  0.51100000000E-03 0. -1.
</event>
<event>
 8    1  0.2001339E+004  0.1043930E+01  0.7957747E-01            NaN
         13   -1    0    0    0    0  0.00000000000E+00  0.00000000000E+00  0.74505805969E-08  0.10566000000E+00  0.10566000000E+00 0. -1.
     999900   -1    0    0    0    0 -0.00000000000E+00 -0.00000000000E+00 -0.74505805969E-08  0.93827000000E+00  0.93827000000E+00 0. -1.
     999902    2    1    2    0    0 -0.27759054731E-02 -0.50413009301E-02 -0.12171047900E-01  0.10304669107E+01  0.10303789591E+01 0.  0.
     999903    2    3    3    0    0  0.96592148693E-01  0.90583561336E-01 -0.79175397786E-02  0.13971654343E+00  0.43847466281E-01 0.  0.
         14    1    1    2    0    0  0.27759054731E-02  0.50413009301E-02  0.12171047900E-01  0.13463089291E-01  0.00000000000E+00 0. -1.
     999901    1    3    3    0    0 -0.99368054166E-01 -0.95624862266E-01 -0.42535081214E-02  0.89075036728E+00  0.88000000000E+00 0.  1.
        -11    1    4    4    0    0  0.36517050506E-01  0.49719285529E-01 -0.22395610857E-01  0.65630228080E-01  0.51100000000E-03 0.  1.
         11    1    4    4    0    0  0.60075098187E-01  0.40864275807E-01  0.14478071078E-01  0.74086315353E-01  0.51100000000E-03 0. -1.
</event>
<event>
 8    1  0.2001339E+004  0.1043930E+01  0.7957747E-01            NaN
         13   -1    0    0    0    0  0.00000000000E+00  0.00000000000E+00  0.74505805969E-08  0.10566000000E+00  0.10566000000E+00 0.  1.
     999900   -1    0    0    0    0 -0.00000000000E+00 -0.00000000000E+00 -0.74505805969E-08  0.93827000000E+00  0.93827000000E+00 0.  1.
     999902    2    1    2    0    0  0.36635584944E-02  0.12409702960E-01  0.51541793627E-02  0.10300020442E+01  0.10299078712E+01 0.  0.
     999903    2    3    3    0    0 -0.23099608955E-01  0.13108561772E+00 -0.16412568656E-01  0.14137086957E+00  0.44713747839E-01 0.  0.
         14    1    1    2    0    0 -0.36635584944E-02 -0.12409702960E-01 -0.51541793627E-02  0.13927955819E-01  0.00000000000E+00 0. -1.
     999901    1    3    3    0    0  0.26763167450E-01 -0.11867591476E+00  0.21566748019E-01  0.88863117461E+00  0.88000000000E+00 0.  1.
        -11    1    4    4    0    0 -0.46142412003E-02  0.10460094913E+00 -0.25599622053E-01  0.10778799354E+00  0.51100000000E-03 0.  1.
         11    1    4    4    0    0 -0.18485367755E-01  0.26484668589E-01  0.91870533966E-02  0.33582876030E-01  0.51100000000E-03 0. -1.
</event>
<event>
 8    1  0.2001339E+004  0.1043930E+01  0.7957747E-01            NaN
         13   -1    0    0    0    0  0.00000000000E+00  0.00000000000E+00  0.74505805969E-08  0.10566000000E+00  0.10566000000E+00 0. -1.
     999900   -1    0    0    0    0 -0.00000000000E+00 -0.00000000000E+00 -0.74505805969E-08  0.93827000000E+00  0.93827000000E+00 0.  1.
     999902    2    1    2    0    0  0.33218513697E-02 -0.98445477204E-02 -0.89292710861E-02  0.10302303030E+01  0.10301392117E+01 0.  0.
     999903    2    3    3    0    0 -0.12637122674E+00 -0.35316895385E-01 -0.30634903494E-02  0.14034067927E+00  0.49690554810E-01 0.  0.
         14    1    1    2    0    0 -0.33218513697E-02  0.98445477204E-02  0.89292710861E-02  0.13699697021E-01  0.00000000000E+00 0.  1.
     999901    1    3    3    0    0  0.12969307811E+00  0.25472347665E-01 -0.58657807366E-02  0.88988962371E+00  0.88000000000E+00 0.  1.
        -11    1    4    4    0    0 -0.51949455638E-01 -0.35172619963E-02 -0.23099982032E-01  0.56964790563E-01  0.51100000000E-03 0. -1.
         11    1    4    4    0    0 -0.74421771100E-01 -0.31799633389E-01  0.20036491682E-01  0.83375888705E-01  0.51100000000E-03 0.  1.
</event>
<event>
 8    1  0.2001339E+004  0.1043930E+01  0.7957747E-01            NaN
         13   -1    0    0    0    0  0.00000000000E+00  0.00000000000E+00  0.74505805969E-08  0.10566000000E+00  0.10566000000E+00 0.  1.
     999900   -1    0    0    0    0 -0.00000000000E+00 -0.00000000000E+00 -0.74505805969E-08  0.93827000000E+00  0.93827000000E+00 0. -1.
     999902    2    1    2    0    0 -0.19288694534E-03 -0.12625082501E-01 -0.61164966374E-02  0.10298999806E+01  0.10298044128E+01 0.  0.
     999903    2    3    3    0    0 -0.85064256306E-01  0.19291551298E-01  0.98534666544E-01  0.13907245138E+00  0.44988604872E-01 0.  0.
         14    1    1    2    0    0  0.19288694534E-03  0.12625082501E-01  0.61164966374E-02  0.14030019410E-01  0.00000000000E+00 0. -1.
     999901    1    3    3    0    0  0.84871369361E-01 -0.31916633800E-01 -0.10465116318E+00  0.89082752921E+00  0.88000000000E+00 0. -1.
        -11    1    4    4    0    0 -0.58565624708E-01  0.32475489215E-01  0.56261181947E-01  0.87465258888E-01  0.51100000000E-03 0. -1.
         11    1    4    4    0    0 -0.26498631598E-01 -0.13183937917E-01  0.42273484597E-01  0.51607192488E-01  0.51100000000E-03 0.  1.
</event>
<event>
 8    1  0.2001339E+004  0.1043930E+01  0.7957747E-01            NaN
         13   -1    0    0    0    0  0.00000000000E+00  0.00000000000E+00  0.74505805969E-08  0.10566000000E+00  0.10566000000E+00 0. -1.
     999900   -1    0    0    0    0 -0.00000000000E+00 -0.00000000000E+00 -0.74505805969E-08  0.93827000000E+00  0.93827000000E+00 0. -1.
     999902    2    1    2    0    0 -0.37326903852E-02 -0.10351531817E-01 -0.19011661378E-01  0.10219634241E+01  0.10217273167E+01 0.  0.
     999903    2    3    3    0    0  0.10292472156E+00  0.63262322836E-01  0.30772730740E-01  0.13107999243E+00  0.40489303021E-01 0.  0.
         14    1    1    2    0    0  0.37326903852E-02  0.10351531817E-01  0.19011661378E-01  0.21966575901E-01  0.00000000000E+00 0. -1.
     999901    1    3    3    0    0 -0.10665741195E+00 -0.73613854654E-01 -0.49784392118E-01  0.89088343167E+00  0.88000000000E+00 0.  1.
        -11    1    4    4    0    0  0.76177260627E-01  0.42442181269E-01  0.29986856298E-02  0.87255756395E-01  0.51100000000E-03 0. -1.
         11    1    4    4    0    0  0.26747460936E-01  0.20820141568E-01  0.27774045110E-01  0.43824236037E-01  0.51100000000E-03 0.  1.
</event>
<event>
 8    1  0.2001339E+004  0.1043930E+01  0.7957747E-01            NaN
         13   -1    0    0    0    0  0.00000000000E+00  0.00000000000E+00  0.74505805969E-08  0.10566000000E+00  0.10566000000E+00 0.  1.
     999900   -1    0    0    0    0 -0.00000000000E+00 -0.00000000000E+00 -0.74505805969E-08  0.93827000000E+00  0.93827000000E+00 0. -1.
     999902    2    1    2    0    0  0.10885493269E-01  0.84462188688E-02  0.60791785282E-03  0.10301386208E+01  0.10300462979E+01 0.  0.
     999903    2    3    3    0    0 -0.10980167743E+00  0.55092080292E-01 -0.46396791203E-01  0.13943627305E+00  0.46885673002E-01 0.  0.
         14    1    1    2    0    0 -0.10885493269E-01 -0.84462188688E-02 -0.60791785282E-03  0.13791379228E-01  0.00000000000E+00 0.  1.
     999901    1    3    3    0    0  0.12068717069E+00 -0.46645861424E-01  0.47004709056E-01  0.89070234772E+00  0.88000000000E+00 0.  1.
        -11    1    4    4    0    0 -0.43419344457E-01  0.30628660406E-01 -0.43426394338E-01  0.68625557612E-01  0.51100000000E-03 0. -1.
         11    1    4    4    0    0 -0.66382332968E-01  0.24463419886E-01 -0.29703968645E-02  0.70810715441E-01  0.51100000000E-03 0.  1.
</event>
<event>
 8    1  0.2001339E+004  0.1043930E+01  0.7957747E-01            NaN
         13   -1    0    0    0    0  0.00000000000E+00  0.00000000000E+00  0.74505805969E-08  0.10566000000E+00  0.10566000000E+00 0. -1.
     999900   -1    0    0    0    0 -0.00000000000E+00 -0.00000000000E+00 -0.74505805969E-08  0.93827000000E+00  0.93827000000E+00 0.  1.
     999902    2    1    2    0    0 -0.29009726102E-02 -0.12727914056E-01 -0.11493009858E-01  0.10265373374E+01  0.10263899845E+01 0.  0.
     999903    2    3    3    0    0 -0.62924465214E-01 -0.42098424410E-01  0.10028877289E+00  0.13695282001E+00  0.54465321825E-01 0.  0.
         14    1    1    2    0    0  0.29009726102E-02  0.12727914056E-01  0.11493009858E-01  0.17392662646E-01  0.00000000000E+00 0. -1.
     999901    1    3    3    0    0  0.60023492604E-01  0.29370510353E-01 -0.11178178275E+00  0.88958451734E+00  0.88000000000E+00 0.  1.
        -11    1    4    4    0    0 -0.43705637543E-01  0.31128252656E-03  0.31465502664E-01  0.53857391588E-01  0.51100000000E-03 0.  1.
         11    1    4    4    0    0 -0.19218827671E-01 -0.42409706936E-01  0.68823270224E-01  0.83095428423E-01  0.51100000000E-03 0. -1.
</event>
<event>
 7    1  0.2001339E+004  0.1043930E+01  0.7957747E-01            NaN
         13   -1    0    0    0    0  0.00000000000E+00  0.00000000000E+00  0.74505805969E-08  0.10566000000E+00  0.10566000000E+00 0. -1.
     999900   -1    0    0    0    0 -0.00000000000E+00 -0.00000000000E+00 -0.74505805969E-08  0.93827000000E+00  0.93827000000E+00 0. -1.
     999902    2    1    2    0    0 -0.10040179360E-01 -0.27069106839E-02  0.83808512893E-02  0.10305744305E+01  0.10304878872E+01 0.  0.
         14    1    1    2    0    0  0.10040179360E-01  0.27069106839E-02 -0.83808512893E-02  0.13355569451E-01  0.00000000000E+00 0.  1.
     999901    1    3    3    0    0  0.10980125686E+00 -0.14872361028E-01  0.49853484240E-01  0.88834839619E+00  0.88000000000E+00 0.  1.
        -11    1    3    3    0    0 -0.23768802394E-01  0.10160332106E-01 -0.38135133875E-01  0.46073179535E-01  0.51100000000E-03 0. -1.
         11    1    3    3    0    0 -0.96072633824E-01  0.20051182381E-02 -0.33374990759E-02  0.96152854820E-01  0.51100000000E-03 0.  1.
</event>
<event>
 8    1  0.2001339E+004  0.1043930E+01  0.7957747E-01            NaN
         13   -1    0    0    0    0  0.00000000000E+00  0.00000000000E+00  0.74505805969E-08  0.10566000000E+00  0.10566000000E+00 0.  1.
     999900   -1    0    0    0    0 -0.00000000000E+00 -0.00000000000E+00 -0.74505805969E-08  0.93827000000E+00  0.93827000000E+00 0. -1.
     999902    2    1    2    0    0  0.60153463170E-02  0.11545006413E-01 -0.40447886248E-02  0.10302979833E+01  0.10302077958E+01 0.  0.
     999903    2    3    3    0    0  0.89397339746E-01  0.72675846235E-01  0.68138575838E-01  0.14130980873E+00  0.45298273121E-01 0.  0.
         14    1    1    2    0    0 -0.60153463170E-02 -0.11545006413E-01  0.40447886248E-02  0.13632016704E-01  0.00000000000E+00 0.  1.
     999901    1    3    3    0    0 -0.83381993429E-01 -0.61130839822E-01 -0.72183364463E-01  0.88898817456E+00  0.88000000000E+00 0. -1.
        -11    1    4    4    0    0  0.46725884863E-01  0.39509340499E-01  0.10131547629E-01  0.62025846881E-01  0.51100000000E-03 0.  1.
         11    1    4    4    0    0  0.42671454883E-01  0.33166505735E-01  0.58007028209E-01  0.79283961854E-01  0.51100000000E-03 0. -1.
</event>
<event>
 8    1  0.2001339E+004  0.1043930E+01  0.7957747E-01            NaN
         13   -1    0    0    0    0  0.00000000000E+00  0.00000000000E+00  0.74505805969E-08  0.10566000000E+00  0.10566000000E+00 0. -1.
     999900   -1    0    0    0    0 -0.00000000000E+00 -0.00000000000E+00 -0.74505805969E-08  0.93827000000E+00  0.93827000000E+00 0.  1.
     999902    2    1    2    0    0  0.72678111269E-02  0.10198809766E-01  0.45390455196E-02  0.10306093494E+01  0.10305232609E+01 0.  0.
     999903    2    3    3    0    0  0.72244921048E-01 -0.48170287375E-01 -0.10063115340E+00  0.14005348528E+00  0.44143453645E-01 0.  0.
         14    1    1    2    0    0 -0.72678111269E-02 -0.10198809766E-01 -0.45390455196E-02  0.13320650639E-01  0.00000000000E+00 0. -1.
     999901    1    3    3    0    0 -0.64977109921E-01  0.58369097141E-01  0.10517019892E+00  0.89055586409E+00  0.88000000000E+00 0. -1.
        -11    1    4    4    0    0  0.62442893400E-01 -0.22395028041E-01 -0.86656953792E-01  0.10913450865E+00  0.51100000000E-03 0.  1.
         11    1    4    4    0    0  0.98020276480E-02 -0.25775259334E-01 -0.13974199612E-01  0.30918976625E-01  0.51100000000E-03 0. -1.
</event>
<event>
 8    1  0.2001339E+004  0.1043930E+01  0.7957747E-01            NaN
         13   -1    0    0    0    0  0.00000000000E+00  0.00000000000E+00  0.74505805969E-08  0.10566000000E+00  0.10566000000E+00 0.  1.
     999900   -1    0    0    0    0 -0.00000000000E+00 -0.00000000000E+00 -0.74505805969E-08  0.93827000000E+00  0.93827000000E+00 0.  1.
     999902    2    1    2    0    0  0.10508576474E-01 -0.70984466766E-02  0.53276295996E-02  0.10301749369E+01  0.10300831029E+01 0.  0.
     999903    2    3    3    0    0 -0.80999457958E-01  0.17087505095E-01 -0.10144284971E+00  0.13868258363E+00  0.45708995005E-01 0.  0.
         14    1    1    2    0    0 -0.10508576474E-01  0.70984466766E-02 -0.53276295996E-02  0.13755063136E-01  0.00000000000E+00 0.  1.
     999901    1    3    3    0    0  0.91508034431E-01 -0.24185951771E-01  0.10677047931E+00  0.89149235324E+00  0.88000000000E+00 0. -1.
        -11    1    4    4    0    0 -0.34940511425E-01  0.30707971798E-01 -0.48891300798E-01  0.67486585966E-01  0.51100000000E-03 0. -1.
         11    1    4    4    0    0 -0.46058946532E-01 -0.13620466704E-01 -0.52551548911E-01  0.71195997660E-01  0.51100000000E-03 0.  1.
</event>
<event>
 8    1  0.2001339E+004  0.1043930E+01  0.7957747E-01            NaN
         13   -1    0    0    0    0  0.00000000000E+00  0.00000000000E+00  0.74505805969E-08  0.10566000000E+00  0.10566000000E+00 0.  1.
     999900   -1    0    0    0    0 -0.00000000000E+00 -0.00000000000E+00 -0.74505805969E-08  0.93827000000E+00  0.93827000000E+00 0. -1.
     999902    2    1    2    0    0  0.32381373445E-02 -0.85269120956E-02 -0.99233411952E-02  0.10304516298E+01  0.10303634771E+01 0.  0.
     999903    2    3    3    0    0 -0.11693560575E+00 -0.27380327589E-01  0.55429301515E-01  0.13968333908E+00  0.44893312640E-01 0.  0.
         14    1    1    2    0    0 -0.32381373445E-02  0.85269120956E-02  0.99233411952E-02  0.13478370221E-01  0.00000000000E+00 0.  1.
     999901    1    3    3    0    0  0.12017374309E+00  0.18853415494E-01 -0.65352642711E-01  0.89076829070E+00  0.88000000000E+00 0.  1.
        -11    1    4    4    0    0 -0.39654532847E-01 -0.14726296962E-01 -0.23412081037E-02  0.42368480902E-01  0.51100000000E-03 0. -1.
         11    1    4    4    0    0 -0.77281072900E-01 -0.12654030627E-01  0.57770509619E-01  0.97314858179E-01  0.51100000000E-03 0.  1.
</event>
<event>
 8    1  0.2001339E+004  0.1043930E+01  0.7957747E-01            NaN
         13   -1    0    0    0    0  0.00000000000E+00  0.00000000000E+00  0.74505805969E-08  0.10566000000E+00  0.10566000000E+00 0.  1.
     999900   -1    0    0    0    0 -0.00000000000E+00 -0.00000000000E+00 -0.74505805969E-08  0.93827000000E+00  0.93827000000E+00 0. -1.
     999902    2    1    2    0    0  0.95127070927E-02  0.10983270187E-01 -0.49585586781E-02  0.10285771135E+01  0.10284625259E+01 0.  0.
     999903    2    3    3    0    0 -0.11398202277E+00  0.61082116147E-01 -0.21902890031E-01  0.13838165571E+00  0.44122778898E-01 0.  0.
         14    1    1    2    0    0 -0.95127070927E-02 -0.10983270187E-01  0.49585586781E-02  0.15352886517E-01  0.00000000000E+00 0.  1.
     999901    1    3    3    0    0  0.12349472987E+00 -0.50098845960E-01  0.16944331353E-01  0.89019545777E+00  0.88000000000E+00 0. -1.
        -11    1    4    4    0    0 -0.18643132877E-01 -0.65252339576E-02 -0.30560321459E-02  0.19993637366E-01  0.51100000000E-03 0.  1.
         11    1    4    4    0    0 -0.95338889896E-01  0.67607350104E-01 -0.18846857885E-01  0.11838801835E+00  0.51100000000E-03 0. -1.
</event>
<event>
 8    1  0.2001339E+004  0.1043930E+01  0.7957747E-01            NaN
         13   -1    0    0    0    0  0.00000000000E+00  0.00000000000E+00  0.74505805969E-08  0.10566000000E+00  0.10566000000E+00 0.  1.
     999900   -1    0    0    0    0 -0.00000000000E+00 -0.00000000000E+00 -0.74505805969E-08  0.93827000000E+00  0.93827000000E+00 0. -1.
     999902    2    1    2    0    0  0.14747167941E-01 -0.13769894363E-01 -0.17699340505E-02  0.10236760715E+01  0.10234756850E+01 0.  0.
     999903    2    3    3    0    0 -0.27365519428E-01 -0.55956830134E-02  0.12170107363E+00  0.13402142732E+00  0.48686839458E-01 0.  0.
         14    1    1    2    0    0 -0.14747167941E-01  0.13769894363E-01  0.17699340505E-02  0.20253928498E-01  0.00000000000E+00 0.  1.
     999901    1    3    3    0    0  0.42112687369E-01 -0.81742113498E-02 -0.12347100768E+00  0.88965464418E+00  0.88000000000E+00 0. -1.
        -11    1    4    4    0    0 -0.32183859774E-01 -0.21942916755E-01  0.80444836585E-01  0.89380788091E-01  0.51100000000E-03 0. -1.
         11    1    4    4    0    0  0.48183403457E-02  0.16347233742E-01  0.41256237049E-01  0.44640639233E-01  0.51100000000E-03 0.  1.
</event>
<event>
 8    1  0.2001339E+004  0.1043930E+01  0.7957747E-01            NaN
         13   -1    0    0    0    0  0.00000000000E+00  0.00000000000E+00  0.74505805969E-08  0.10566000000E+00  0.10566000000E+00 0.  1.
     999900   -1    0    0    0    0 -0.00000000000E+00 -0.00000000000E+00 -0.74505805969E-08  0.93827000000E+00  0.93827000000E+00 0.  1.
     999902    2    1    2    0    0  0.11054648780E-01  0.48491060339E-02 -0.70008322352E-02  0.10299754043E+01  0.10298808682E+01 0.  0.
     999903    2    3    3    0    0  0.96138808452E-01 -0.72197672784E-01  0.56719908276E-01  0.14023619919E+00  0.44652761639E-01 0.  0.
         14    1    1    2    0    0 -0.11054648780E-01 -0.48491060339E-02  0.70008322352E-02  0.13954595694E-01  0.00000000000E+00 0. -1.
     999901    1    3    3    0    0 -0.85084159672E-01  0.77046778817E-01 -0.63720740511E-01  0.88973920512E+00  0.88000000000E+00 0.  1.
        -11    1    4    4    0    0  0.12054667529E-01 -0.33660755285E-01  0.15873606079E-01  0.39122805964E-01  0.51100000000E-03 0. -1.
         11    1    4    4    0    0  0.84084140923E-01 -0.38536917499E-01  0.40846302196E-01  0.10111339322E+00  0.51100000000E-03 0.  1.
</event>
<event>
 8    1  0.2001339E+004  0.1043930E+01  0.7957747E-01            NaN
         13   -1    0    0    0    0  0.00000000000E+00  0.00000000000E+00  0.74505805969E-08  0.10566000000E+00  0.10566000000E+00 0. -1.
     999900   -1    0    0    0    0 -0.00000000000E+00 -0.00000000000E+00 -0.74505805969E-08  0.93827000000E+00  0.93827000000E+00 0.  1.
     999902    2    1    2    0    0  0.12127008961E-01  0.43643073018E-02  0.58742407052E-02  0.10297660236E+01  0.10296686093E+01 0.  0.
     999903    2    3    3    0    0  0.76426107239E-01 -0.26398283969E-01  0.10639280237E+00  0.14118024138E+00  0.45547918673E-01 0.  0.
         14    1    1    2    0    0 -0.12127008961E-01 -0.43643073018E-02 -0.58742407052E-02  0.14163976434E-01  0.00000000000E+00 0.  1.
     999901    1    3    3    0    0 -0.64299098278E-01  0.30762591270E-01 -0.10051856167E+00  0.88858578218E+00  0.88000000000E+00 0.  1.
        -11    1    4    4    0    0  0.38947896913E-02 -0.19556787013E-01  0.22637027479E-01  0.30171732451E-01  0.51100000000E-03 0.  1.
         11    1    4    4    0    0  0.72531317548E-01 -0.68414969558E-02  0.83755774894E-01  0.11100850893E+00  0.51100000000E-03 0. -1.
</event>
<event>
 8    1  0.2001339E+004  0.1043930E+01  0.7957747E-01            NaN
         13   -1    0    0    0    0  0.00000000000E+00  0.00000000000E+00  0.74505805969E-08  0.10566000000E+00  0.10566000000E+00 0. -1.
     999900   -1    0    0    0    0 -0.00000000000E+00 -0.00000000000E+00 -0.74505805969E-08  0.93827000000E+00  0.93827000000E+00 0.  1.
     999902    2    1    2    0    0 -0.58742465627E-02  0.12415192832E-01  0.23035139679E-03  0.10301933029E+01  0.10301017156E+01 0.  0.
     999903    2    3    3    0    0 -0.61216553900E-01  0.11805894148E+00  0.21556181817E-01  0.14189258598E+00  0.44536017414E-01 0.  0.
         14    1    1    2    0    0  0.58742465627E-02 -0.12415192832E-01 -0.23035139679E-03  0.13736697110E-01  0.00000000000E+00 0. -1.
     999901    1    3    3    0    0  0.55342307337E-01 -0.10564374865E+00 -0.21325830420E-01  0.88830071690E+00  0.88000000000E+00 0.  1.
        -11    1    4    4    0    0 -0.55801184210E-01  0.60036961929E-01  0.12143702730E-01  0.82860965441E-01  0.51100000000E-03 0.  1.
         11    1    4    4    0    0 -0.54153696902E-02  0.58021979556E-01  0.94124790867E-02  0.59031620544E-01  0.51100000000E-03 0. -1.
</event>
<event>
 8    1  0.2001339E+004  0.1043930E+01  0.7957747E-01            NaN
         13   -1    0    0    0    0  0.00000000000E+00  0.00000000000E+00  0.74505805969E-08  0.10566000000E+00  0.10566000000E+00 0.  1.
     999900   -1    0    0    0    0 -0.00000000000E+00 -0.00000000000E+00 -0.74505805969E-08  0.93827000000E+00  0.93827000000E+00 0. -1.
     999902    2    1    2    0    0 -0.56147585011E-02  0.99943904783E-02 -0.81241003015E-02  0.10298795780E+01  0.10297837301E+01 0.  0.
     999903    2    3    3    0    0  0.30220055330E-02  0.11195772848E+00 -0.74375680212E-01  0.14147629800E+00  0.44046970431E-01 0.  0.
         14    1    1    2    0    0  0.56147585011E-02 -0.99943904783E-02  0.81241003015E-02  0.14050422049E-01  0.00000000000E+00 0. -1.
     999901    1    3    3    0    0 -0.86367640342E-02 -0.10196333800E+00  0.66251579910E-01  0.88840327995E+00  0.88000000000E+00 0.  1.
        -11    1    4    4    0    0  0.35524188077E-02  0.88795977019E-01 -0.77724286902E-01  0.11806214935E+00  0.51100000000E-03 0. -1.
         11    1    4    4    0    0 -0.53041327467E-03  0.23161751463E-01  0.33486066906E-02  0.23414148646E-01  0.51100000000E-03 0.  1.
</event>
<event>
 8    1  0.2001339E+004  0.1043930E+01  0.7957747E-01            NaN
         13   -1    0    0    0    0  0.00000000000E+00  0.00000000000E+00  0.74505805969E-08  0.10566000000E+00  0.10566000000E+00 0.  1.
     999900   -1    0    0    0    0 -0.00000000000E+00 -0.00000000000E+00 -0.74505805969E-08  0.93827000000E+00  0.93827000000E+00 0. -1.
     999902    2    1    2    0    0  0.54158548793E-02 -0.52889027667E-03  0.11902499061E-01  0.10308425750E+01  0.10307594937E+01 0.  0.
     999903    2    3    3    0    0 -0.90706116128E-01  0.86729017191E-01  0.46675379240E-01  0.14063893037E+00  0.43025524792E-01 0.  0.
         14    1    1    2    0    0 -0.54158548793E-02  0.52889027667E-03 -0.11902499061E-01  0.13087424991E-01  0.00000000000E+00 0. -1.
     999901    1    3    3    0    0  0.96121971007E-01 -0.87257907468E-01 -0.34772880179E-01  0.89020364464E+00  0.88000000000E+00 0. -1.
        -11    1    4    4    0    0 -0.74208817889E-01  0.54150427960E-01  0.16657463418E-01  0.93364606299E-01  0.51100000000E-03 0.  1.
         11    1    4    4    0    0 -0.16497298238E-01  0.32578589231E-01  0.30017915822E-01  0.47274324075E-01  0.51100000000E-03 0. -1.
</event>
<event>
 8    1  0.2001339E+004  0.1043930E+01  0.7957747E-01            NaN
         13   -1    0    0    0    0  0.00000000000E+00  0.00000000000E+00  0.74505805969E-08  0.10566000000E+00  0.10566000000E+00 0.  1.
     999900   -1    0    0    0    0 -0.00000000000E+00 -0.00000000000E+00 -0.74505805969E-08  0.93827000000E+00  0.93827000000E+00 0.  1.
     999902    2    1    2    0    0 -0.88260942683E-02 -0.98749242603E-02  0.39857796392E-02  0.10300988573E+01  0.10300059977E+01 0.  0.
     999903    2    3    3    0    0 -0.17920958468E-02 -0.53626278785E-01  0.12246385009E+00  0.14105402640E+00  0.44942790330E-01 0.  0.
         14    1    1    2    0    0  0.88260942683E-02  0.98749242603E-02 -0.39857796392E-02  0.13831142705E-01  0.00000000000E+00 0. -1.
     999901    1    3    3    0    0 -0.70339984215E-02  0.43751354524E-01 -0.11847807045E+00  0.88904483089E+00  0.88000000000E+00 0.  1.
        -11    1    4    4    0    0  0.15052007277E-01 -0.42655780537E-01  0.10534116704E+00  0.11464336497E+00  0.51100000000E-03 0. -1.
         11    1    4    4    0    0 -0.16844103124E-01 -0.10970498247E-01  0.17122683047E-01  0.26410661438E-01  0.51100000000E-03 0.  1.
</event>
<event>
 8    1  0.2001339E+004  0.1043930E+01  0.7957747E-01            NaN
         13   -1    0    0    0    0  0.00000000000E+00  0.00000000000E+00  0.74505805969E-08  0.10566000000E+00  0.10566000000E+00 0. -1.
     999900   -1    0    0    0    0 -0.00000000000E+00 -0.00000000000E+00 -0.74505805969E-08  0.93827000000E+00  0.93827000000E+00 0.  1.
     999902    2    1    2    0    0  0.12407813640E-01  0.21512791335E-01  0.88583654415E-02  0.10175628866E+01  0.10172212166E+01 0.  0.
     999903    2    3    3    0    0 -0.43125606017E-01  0.24645000827E-01  0.11129830478E+00  0.12987616675E+00  0.44869946318E-01 0.  0.
         14    1    1    2    0    0 -0.12407813640E-01 -0.21512791335E-01 -0.88583654415E-02  0.26367113392E-01  0.00000000000E+00 0.  1.
     999901    1    3    3    0    0  0.55533419657E-01 -0.31322094917E-02 -0.10243993934E+00  0.88768671986E+00  0.88000000000E+00 0.  1.
        -11    1    4    4    0    0 -0.44438193640E-01  0.28516547906E-01  0.11351684961E+00  0.12519697610E+00  0.51100000000E-03 0.  1.
         11    1    4    4    0    0  0.13125876231E-02 -0.38715470797E-02 -0.22185448223E-02  0.46791906551E-02  0.51100000000E-03 0. -1.
</event>
<event>
 7    1  0.2001339E+004  0.1043930E+01  0.7957747E-01            NaN
         13   -1    0    0    0    0  0.00000000000E+00  0.00000000000E+00  0.74505805969E-08  0.10566000000E+00  0.10566000000E+00 0.  1.
     999900   -1    0    0    0    0 -0.00000000000E+00 -0.00000000000E+00 -0.74505805969E-08  0.93827000000E+00  0.93827000000E+00 0.  1.
     999902    2    1    2    0    0  0.12000859552E-01  0.63758769134E-02  0.24970833135E-02  0.10301130589E+01  0.10300203912E+01 0.  0.
         14    1    1    2    0    0 -0.12000859552E-01 -0.63758769134E-02 -0.24970833135E-02  0.13816941104E-01  0.00000000000E+00 0.  1.
     999901    1    3    3    0    0 -0.68158591417E-01 -0.58971631344E-03  0.87764517546E-01  0.88698847337E+00  0.88000000000E+00 0. -1.
        -11    1    3    3    0    0  0.25069938102E-02 -0.26837761091E-01 -0.71139817904E-02  0.27882257732E-01  0.51100000000E-03 0.  1.
         11    1    3    3    0    0  0.77652457159E-01  0.33803354318E-01 -0.78153452442E-01  0.11524232779E+00  0.51100000000E-03 0. -1.
</event>
<event>
 8    1  0.2001339E+004  0.1043930E+01  0.7957747E-01            NaN
         13   -1    0    0    0    0  0.00000000000E+00  0.00000000000E+00  0.74505805969E-08  0.10566000000E+00  0.10566000000E+00 0.  1.
     999900   -1    0    0    0    0 -0.00000000000E+00 -0.00000000000E+00 -0.74505805969E-08  0.93827000000E+00  0.93827000000E+00 0.  1.
     999902    2    1    2    0    0  0.86919041738E-02 -0.34969603118E-02  0.80011004370E-02  0.10316094668E+01  0.10315358920E+01 0.  0.
     999903    2    3    3    0    0 -0.13024155071E+00 -0.24095367982E-01 -0.75752528144E-02  0.14033542251E+00  0.45751481588E-01 0.  0.
         14    1    1    2    0    0 -0.86919041738E-02  0.34969603118E-02 -0.80011004370E-02  0.12320533178E-01  0.00000000000E+00 0.  1.
     999901    1    3    3    0    0  0.13893345488E+00  0.20598407670E-01  0.15576353251E-01  0.89127404431E+00  0.88000000000E+00 0. -1.
        -11    1    4    4    0    0 -0.60242010003E-01 -0.34178217165E-01 -0.69162431327E-02  0.69608518429E-01  0.51100000000E-03 0.  1.
         11    1    4    4    0    0 -0.69999540702E-01  0.10082849183E-01 -0.65900968164E-03  0.70726904081E-01  0.51100000000E-03 0. -1.
</event>
<event>
 8    1  0.2001339E+004  0.1043930E+01  0.7957747E-01            NaN
         13   -1    0    0    0    0  0.00000000000E+00  0.00000000000E+00  0.74505805969E-08  0.10566000000E+00  0.10566000000E+00 0.  1.
     999900   -1    0    0    0    0 -0.00000000000E+00 -0.00000000000E+00 -0.74505805969E-08  0.93827000000E+00  0.93827000000E+00 0. -1.
     999902    2    1    2    0    0 -0.61959168458E-02 -0.12366873297E-01 -0.29565640513E-02  0.10297853822E+01  0.10296882360E+01 0.  0.
     999903    2    3    3    0    0  0.17811329499E-01 -0.69506573140E-01 -0.11257403195E+00  0.14082121960E+00  0.44825172102E-01 0.  0.
         14    1    1    2    0    0  0.61959168458E-02  0.12366873297E-01  0.29565640513E-02  0.14144617764E-01  0.00000000000E+00 0. -1.
     999901    1    3    3    0    0 -0.24007246345E-01  0.57139699843E-01  0.10961746790E+00  0.88896416263E+00  0.88000000000E+00 0. -1.
        -11    1    4    4    0    0  0.24389797911E-01 -0.62536638217E-01 -0.69240602446E-01  0.96437624970E-01  0.51100000000E-03 0.  1.
         11    1    4    4    0    0 -0.65784684114E-02 -0.69699349226E-02 -0.43333429500E-01  0.44383594635E-01  0.51100000000E-03 0. -1.
</event>
<event>
 8    1  0.2001339E+004  0.1043930E+01  0.7957747E-01            NaN
         13   -1    0    0    0    0  0.00000000000E+00  0.00000000000E+00  0.74505805969E-08  0.10566000000E+00  0.10566000000E+00 0.  1.
     999900   -1    0    0    0    0 -0.00000000000E+00 -0.00000000000E+00 -0.74505805969E-08  0.93827000000E+00  0.93827000000E+00 0.  1.
     999902    2    1    2    0    0 -0.42860536173E-02  0.12033423929E-01 -0.96733263608E-02  0.10279066798E+01  0.10277817840E+01 0.  0.
     999903    2    3    3    0    0  0.68972498117E-01  0.52032637976E-01 -0.94134728577E-01  0.13993118409E+00  0.57050751498E-01 0.  0.
         14    1    1    2    0    0  0.42860536173E-02 -0.12033423929E-01  0.96733263608E-02  0.16023320191E-01  0.00000000000E+00 0.  1.
     999901    1    3    3    0    0 -0.73258551734E-01 -0.39999214048E-01  0.84461402216E-01  0.88797549572E+00  0.88000000000E+00 0. -1.
        -11    1    4    4    0    0 -0.40234053096E-02 -0.52794453410E-04 -0.28539602256E-01  0.28826387139E-01  0.51100000000E-03 0. -1.
         11    1    4    4    0    0  0.72995903426E-01  0.52085432430E-01 -0.65595126321E-01  0.11110479696E+00  0.51100000000E-03 0.  1.
</event>
<event>
 8    1  0.2001339E+004  0.1043930E+01  0.7957747E-01            NaN
         13   -1    0    0    0    0  0.00000000000E+00  0.00000000000E+00  0.74505805969E-08  0.10566000000E+00  0.10566000000E+00 0.  1.
     999900   -1    0    0    0    0 -0.00000000000E+00 -0.00000000000E+00 -0.74505805969E-08  0.93827000000E+00  0.93827000000E+00 0. -1.
     999902    2    1    2    0    0 -0.13452882128E-01 -0.45746543394E-02  0.11780257946E-02  0.10296718359E+01  0.10295731127E+01 0.  0.
     999903    2    3    3    0    0 -0.75544975290E-01 -0.12612251053E-02 -0.10952068720E+00  0.14055957528E+00  0.45316435188E-01 0.  0.
         14    1    1    2    0    0  0.13452882128E-01  0.45746543394E-02 -0.11780257946E-02  0.14258164140E-01  0.00000000000E+00 0.  1.
     999901    1    3    3    0    0  0.62092093162E-01 -0.33134292342E-02  0.11069871300E+00  0.88911226058E+00  0.88000000000E+00 0.  1.
        -11    1    4    4    0    0 -0.38949259345E-01 -0.98068799948E-02 -0.89216287695E-01  0.97841845904E-01  0.51100000000E-03 0.  1.
         11    1    4    4    0    0 -0.36595715945E-01  0.85456548895E-02 -0.20304399508E-01  0.42717729380E-01  0.51100000000E-03 0. -1.
</event>
<event>
 8    1  0.2001339E+004  0.1043930E+01  0.7957747E-01            NaN
         13   -1    0    0    0    0  0.00000000000E+00  0.00000000000E+00  0.74505805969E-08  0.10566000000E+00  0.10566000000E+00 0.  1.
     999900   -1    0    0    0    0 -0.00000000000E+00 -0.00000000000E+00 -0.74505805969E-08  0.93827000000E+00  0.93827000000E+00 0. -1.
     999902    2    1    2    0    0  0.87889869538E-02  0.39391235985E-02  0.11044707381E-01  0.10292756987E+01  0.10291713732E+01 0.  0.
     999903    2    3    3    0    0 -0.15095973514E-01  0.59616633870E-01 -0.11523212764E+00  0.13819976725E+00  0.45151976466E-01 0.  0.
         14    1    1    2    0    0 -0.87889869538E-02 -0.39391235985E-02 -0.11044707381E-01  0.14654301332E-01  0.00000000000E+00 0. -1.
     999901    1    3    3    0    0  0.23884960468E-01 -0.55677510272E-01  0.12627683502E+00  0.89107593142E+00  0.88000000000E+00 0.  1.
        -11    1    4    4    0    0 -0.44783290126E-02 -0.42452434506E-02 -0.32822769126E-01  0.33401688832E-01  0.51100000000E-03 0. -1.
         11    1    4    4    0    0 -0.10617644501E-01  0.63861877321E-01 -0.82409358509E-01  0.10479807842E+00  0.51100000000E-03 0.  1.
</event>
<event>
 8    1  0.2001339E+004  0.1043930E+01  0.7957747E-01            NaN
         13   -1    0    0    0    0  0.00000000000E+00  0.00000000000E+00  0.74505805969E-08  0.10566000000E+00  0.10566000000E+00 0. -1.
     999900   -1    0    0    0    0 -0.00000000000E+00 -0.00000000000E+00 -0.74505805969E-08  0.93827000000E+00  0.93827000000E+00 0.  1.
     999902    2    1    2    0    0 -0.13766419872E-02  0.12599528682E-01 -0.62191534861E-02  0.10298118862E+01  0.10297151062E+01 0.  0.
     999903    2    3    3    0    0  0.95381934468E-01  0.48483959224E-01  0.77941583984E-01  0.13979337845E+00  0.44932064488E-01 0.  0.
         14    1    1    2    0    0  0.13766419872E-02 -0.12599528682E-01  0.62191534861E-02  0.14118113764E-01  0.00000000000E+00 0.  1.
     999901    1    3    3    0    0 -0.96758576455E-01 -0.35884430541E-01 -0.84160737470E-01  0.89001850779E+00  0.88000000000E+00 0.  1.
        -11    1    4    4    0    0  0.44439450870E-01  0.14297802948E-02  0.44102486729E-01  0.62627466195E-01  0.51100000000E-03 0.  1.
         11    1    4    4    0    0  0.50942483598E-01  0.47054178929E-01  0.33839097255E-01  0.77165912253E-01  0.51100000000E-03 0. -1.
</event>
<event>
 8    1  0.2001339E+004  0.1043930E+01  0.7957747E-01            NaN
         13   -1    0    0    0    0  0.00000000000E+00  0.00000000000E+00  0.74505805969E-08  0.10566000000E+00  0.10566000000E+00 0.  1.
     999900   -1    0    0    0    0 -0.00000000000E+00 -0.00000000000E+00 -0.74505805969E-08  0.93827000000E+00  0.93827000000E+00 0. -1.
     999902    2    1    2    0    0 -0.95384838887E-02 -0.64031930697E-02 -0.68153902672E-02  0.10305721147E+01  0.10304855411E+01 0.  0.
     999903    2    3    3    0    0  0.11950710906E+00  0.35513278766E-01  0.41904961127E-01  0.13884153409E+00  0.44472505418E-01 0.  0.
         14    1    1    2    0    0  0.95384838887E-02  0.64031930697E-02  0.68153902672E-02  0.13357885345E-01  0.00000000000E+00 0.  1.
     999901    1    3    3    0    0 -0.12904559295E+00 -0.41916471836E-01 -0.48720351394E-01  0.89173058056E+00  0.88000000000E+00 0. -1.
        -11    1    4    4    0    0 -0.14260306785E-02  0.77670735457E-02  0.51272678602E-02  0.94292625200E-02  0.51100000000E-03 0.  1.
         11    1    4    4    0    0  0.12093313974E+00  0.27746205220E-01  0.36777693267E-01  0.12941227157E+00  0.51100000000E-03 0. -1.
</event>
<event>
 8    1  0.2145847E+004  0.1043930E+01  0.7957747E-01            NaN
         13   -1    0    0    0    0  0.00000000000E+00  0.00000000000E+00  0.74505805969E-08  0.10566000000E+00  0.10566000000E+00 0.  1.
     999900   -1    0    0    0    0 -0.00000000000E+00 -0.00000000000E+00 -0.74505805969E-08  0.93827000000E+00  0.93827000000E+00 0.  1.
     999902    2    1    2    0    0  0.93040186163E-02 -0.12714903160E-01 -0.94407378059E-02  0.10255626089E+01  0.10253981196E+01 0.  0.
     999903    2    3    3    0    0  0.88283476268E-01 -0.50424713739E-01  0.80286519213E-01  0.13668085908E+00  0.43578757829E-01 0.  0.
         14    1    1    2    0    0 -0.93040186163E-02  0.12714903160E-01  0.94407378059E-02  0.18367391081E-01  0.00000000000E+00 0.  1.
     999901    1    3    3    0    0 -0.78979457652E-01  0.37709810578E-01 -0.89727257019E-01  0.88888174984E+00  0.88000000000E+00 0.  1.
        -11    1    4    4    0    0  0.29110286001E-01 -0.44766782360E-02  0.45202260080E-01  0.53953265299E-01  0.51100000000E-03 0. -1.
         11    1    4    4    0    0  0.59173190267E-01 -0.45948035503E-01  0.35084259134E-01  0.82727593781E-01  0.51100000000E-03 0.  1.
</event>
<event>
 8    1  0.2001339E+004  0.1043930E+01  0.7957747E-01            NaN
         13   -1    0    0    0    0  0.00000000000E+00  0.00000000000E+00  0.74505805969E-08  0.10566000000E+00  0.10566000000E+00 0. -1.
     999900   -1    0    0    0    0 -0.00000000000E+00 -0.00000000000E+00 -0.74505805969E-08  0.93827000000E+00  0.93827000000E+00 0. -1.
     999902    2    1    2    0    0  0.92158851131E-03 -0.11068703330E-01  0.13578853797E-01  0.10263871727E+01  0.10262372423E+01 0.  0.
     999903    2    3    3    0    0 -0.84811696284E-02  0.48589628697E-01  0.12022380022E+00  0.13789368763E+00  0.46130518027E-01 0.  0.
         14    1    1    2    0    0 -0.92158851131E-03  0.11068703330E-01 -0.13578853797E-01  0.17542827287E-01  0.00000000000E+00 0.  1.
     999901    1    3    3    0    0  0.94027581398E-02 -0.59658332027E-01 -0.10664494642E+00  0.88849348508E+00  0.88000000000E+00 0. -1.
        -11    1    4    4    0    0  0.34856703840E-02  0.19283123372E-01  0.96131107987E-01  0.98109325698E-01  0.51100000000E-03 0. -1.
         11    1    4    4    0    0 -0.11966840012E-01  0.29306505325E-01  0.24092692231E-01  0.39784361930E-01  0.51100000000E-03 0.  1.
</event>
<event>
 7    1  0.2001339E+004  0.1043930E+01  0.7957747E-01            NaN
         13   -1    0    0    0    0  0.00000000000E+00  0.00000000000E+00  0.74505805969E-08  0.10566000000E+00  0.10566000000E+00 0.  1.
     999900   -1    0    0    0    0 -0.00000000000E+00 -0.00000000000E+00 -0.74505805969E-08  0.93827000000E+00  0.93827000000E+00 0. -1.
     999903    2    1    2    0    0  0.26209132555E-01 -0.51991931826E-01 -0.83687146645E-01  0.11140336936E+00  0.44912053911E-01 0.  0.
         14    1    1    2    0    0 -0.44929260489E-01 -0.81397117586E-03 -0.91913030190E-02  0.45866993017E-01  0.00000000000E+00 0. -1.
     999901    1    1    2    0    0  0.18720127934E-01  0.52805903002E-01  0.92878449664E-01  0.88665963763E+00  0.88000000000E+00 0.  1.
        -11    1    3    3    0    0  0.15007587104E-01 -0.90218271167E-02 -0.56911953324E-01  0.59547061954E-01  0.51100000000E-03 0.  1.
         11    1    3    3    0    0  0.11201545452E-01 -0.42970104709E-01 -0.26775193321E-01  0.51856307404E-01  0.51100000000E-03 0. -1.
</event>
<event>
 7    1  0.2001339E+004  0.1043930E+01  0.7957747E-01            NaN
         13   -1    0    0    0    0  0.00000000000E+00  0.00000000000E+00  0.74505805969E-08  0.10566000000E+00  0.10566000000E+00 0.  1.
     999900   -1    0    0    0    0 -0.00000000000E+00 -0.00000000000E+00 -0.74505805969E-08  0.93827000000E+00  0.93827000000E+00 0. -1.
     999903    2    1    2    0    0 -0.70857705676E-01 -0.54418035232E-01  0.21930706858E-01  0.10196818195E+00  0.43982010127E-01 0.  0.
         14    1    1    2    0    0 -0.13728323469E-01  0.55391954043E-01 -0.92627089679E-02  0.57814645337E-01  0.00000000000E+00 0.  1.
     999901    1    1    2    0    0  0.84586029146E-01 -0.97391881123E-03 -0.12667997891E-01  0.88414717271E+00  0.88000000000E+00 0. -1.
        -11    1    3    3    0    0 -0.65819210682E-01 -0.47391182830E-01  0.33298657026E-01  0.87676418641E-01  0.51100000000E-03 0. -1.
         11    1    3    3    0    0 -0.50384949938E-02 -0.70268524018E-02 -0.11367950168E-01  0.14291763310E-01  0.51100000000E-03 0.  1.
</event>
<event>
 8    1  0.2001339E+004  0.1043930E+01  0.7957747E-01            NaN
         13   -1    0    0    0    0  0.00000000000E+00  0.00000000000E+00  0.74505805969E-08  0.10566000000E+00  0.10566000000E+00 0. -1.
     999900   -1    0    0    0    0 -0.00000000000E+00 -0.00000000000E+00 -0.74505805969E-08  0.93827000000E+00  0.93827000000E+00 0. -1.
     999902    2    1    2    0    0  0.10683944752E-01 -0.75837044405E-02 -0.54489936507E-02  0.10297401874E+01  0.10296424150E+01 0.  0.
     999903    2    3    3    0    0 -0.57457835910E-01  0.10548117218E+00  0.51391646254E-01  0.13808003529E+00  0.44691321849E-01 0.  0.
         14    1    1    2    0    0 -0.10683944752E-01  0.75837044405E-02  0.54489936507E-02  0.14189812553E-01  0.00000000000E+00 0.  1.
     999901    1    3    3    0    0  0.68141780662E-01 -0.11306487662E+00 -0.56840639905E-01  0.89166015216E+00  0.88000000000E+00 0.  1.
        -11    1    4    4    0    0 -0.24137593129E-01  0.20975132417E-01  0.31903570834E-01  0.45173870046E-01  0.51100000000E-03 0.  1.
         11    1    4    4    0    0 -0.33320242781E-01  0.84506039766E-01  0.19488075421E-01  0.92906165245E-01  0.51100000000E-03 0. -1.
</event>
<event>
 8    1  0.2001339E+004  0.1043930E+01  0.7957747E-01            NaN
         13   -1    0    0    0    0  0.00000000000E+00  0.00000000000E+00  0.74505805969E-08  0.10566000000E+00  0.10566000000E+00 0.  1.
     999900   -1    0    0    0    0 -0.00000000000E+00 -0.00000000000E+00 -0.74505805969E-08  0.93827000000E+00  0.93827000000E+00 0. -1.
     999902    2    1    2    0    0  0.11646132198E-01  0.53329459460E-02 -0.13558199794E-01  0.10252779897E+01  0.10251083156E+01 0.  0.
     999903    2    3    3    0    0 -0.97587518796E-01 -0.67389780484E-01 -0.48865777520E-01  0.13484707686E+00  0.41607254008E-01 0.  0.
         14    1    1    2    0    0 -0.11646132198E-01 -0.53329459460E-02  0.13558199794E-01  0.18652010329E-01  0.00000000000E+00 0.  1.
     999901    1    3    3    0    0  0.10923365099E+00  0.72722726430E-01  0.35307577726E-01  0.89043091281E+00  0.88000000000E+00 0. -1.
        -11    1    4    4    0    0 -0.16281676628E-01 -0.33345274092E-01 -0.94942384796E-02  0.38306683273E-01  0.51100000000E-03 0. -1.
         11    1    4    4    0    0 -0.81305842168E-01 -0.34044506392E-01 -0.39371539040E-01  0.96540393585E-01  0.51100000000E-03 0.  1.
</event>
<event>
 8    1  0.2001339E+004  0.1043930E+01  0.7957747E-01            NaN
         13   -1    0    0    0    0  0.00000000000E+00  0.00000000000E+00  0.74505805969E-08  0.10566000000E+00  0.10566000000E+00 0. -1.
     999900   -1    0    0    0    0 -0.00000000000E+00 -0.00000000000E+00 -0.74505805969E-08  0.93827000000E+00  0.93827000000E+00 0.  1.
     999902    2    1    2    0    0 -0.32771026789E-02  0.13204384171E-01 -0.24945948695E-02  0.10300982190E+01  0.10300053507E+01 0.  0.
     999903    2    3    3    0    0  0.10239577046E+00  0.84061080317E-01 -0.16321691175E-01  0.14084087932E+00  0.44928795348E-01 0.  0.
         14    1    1    2    0    0  0.32771026789E-02 -0.13204384171E-01  0.24945948695E-02  0.13831781044E-01  0.00000000000E+00 0. -1.
     999901    1    3    3    0    0 -0.10567287314E+00 -0.70856696146E-01  0.13827096305E-01  0.88925733964E+00  0.88000000000E+00 0.  1.
        -11    1    4    4    0    0  0.71229983529E-01  0.75827127108E-01  0.14109425889E-02  0.10404669932E+00  0.51100000000E-03 0. -1.
         11    1    4    4    0    0  0.31165786935E-01  0.82339532091E-02 -0.17732633763E-01  0.36794180001E-01  0.51100000000E-03 0.  1.
</event>
<event>
 8    1  0.2001339E+004  0.1043930E+01  0.7957747E-01            NaN
         13   -1    0    0    0    0  0.00000000000E+00  0.00000000000E+00  0.74505805969E-08  0.10566000000E+00  0.10566000000E+00 0. -1.
     999900   -1    0    0    0    0 -0.00000000000E+00 -0.00000000000E+00 -0.74505805969E-08  0.93827000000E+00  0.93827000000E+00 0. -1.
     999902    2    1    2    0    0  0.11748855763E-01  0.49109756151E-02 -0.33804192381E-02  0.10307550037E+01  0.10306707996E+01 0.  0.
     999903    2    3    3    0    0 -0.86256968718E-01 -0.81398961020E-01  0.56723813547E-01  0.13908967097E+00  0.45412443670E-01 0.  0.
         14    1    1    2    0    0 -0.11748855763E-01 -0.49109756151E-02  0.33804192381E-02  0.13174996299E-01  0.00000000000E+00 0.  1.
     999901    1    3    3    0    0  0.98005824482E-01  0.86309936635E-01 -0.60104232785E-01  0.89166533273E+00  0.88000000000E+00 0.  1.
        -11    1    4    4    0    0 -0.54697909163E-01 -0.27937864088E-01  0.12021495598E-01  0.62587243062E-01  0.51100000000E-03 0. -1.
         11    1    4    4    0    0 -0.31559059555E-01 -0.53461096931E-01  0.44702317948E-01  0.76502427910E-01  0.51100000000E-03 0.  1.
</event>
<event>
 8    1  0.2001339E+004  0.1043930E+01  0.7957747E-01            NaN
         13   -1    0    0    0    0  0.00000000000E+00  0.00000000000E+00  0.74505805969E-08  0.10566000000E+00  0.10566000000E+00 0.  1.
     999900   -1    0    0    0    0 -0.00000000000E+00 -0.00000000000E+00 -0.74505805969E-08  0.93827000000E+00  0.93827000000E+00 0. -1.
     999902    2    1    2    0    0 -0.66198051693E-02 -0.74530989799E-02 -0.49831319303E-02  0.10327854000E+01  0.10327252686E+01 0.  0.
     999903    2    3    3    0    0  0.11170259392E+00  0.71126055679E-01 -0.20366691385E-01  0.14126337137E+00  0.44767763923E-01 0.  0.
         14    1    1    2    0    0  0.66198051693E-02  0.74530989799E-02  0.49831319303E-02  0.11144599980E-01  0.00000000000E+00 0.  1.
     999901    1    3    3    0    0 -0.11832239909E+00 -0.78579154659E-01  0.15383559455E-01  0.89152202865E+00  0.88000000000E+00 0.  1.
        -11    1    4    4    0    0  0.25962259439E-01 -0.32585898243E-02 -0.16828386167E-02  0.26224995513E-01  0.51100000000E-03 0. -1.
         11    1    4    4    0    0  0.85740334481E-01  0.74384645503E-01 -0.18683852768E-01  0.11503837585E+00  0.51100000000E-03 0.  1.
</event>
<event>
 8    1  0.2001339E+004  0.1043930E+01  0.7957747E-01            NaN
         13   -1    0    0    0    0  0.00000000000E+00  0.00000000000E+00  0.74505805969E-08  0.10566000000E+00  0.10566000000E+00 0.  1.
     999900   -1    0    0    0    0 -0.00000000000E+00 -0.00000000000E+00 -0.74505805969E-08  0.93827000000E+00  0.93827000000E+00 0.  1.
     999902    2    1    2    0    0  0.78123937670E-03 -0.11857672675E-02  0.14097899260E-01  0.10297607678E+01  0.10296632807E+01 0.  0.
     999903    2    3    3    0    0  0.11574450017E+00 -0.56154855864E-01  0.35027779693E-01  0.14033611556E+00  0.43784961144E-01 0.  0.
         14    1    1    2    0    0 -0.78123937670E-03  0.11857672675E-02 -0.14097899260E-01  0.14169232249E-01  0.00000000000E+00 0. -1.
     999901    1    3    3    0    0 -0.11496326080E+00  0.54969088596E-01 -0.20929880433E-01  0.88942465219E+00  0.88000000000E+00 0. -1.
        -11    1    4    4    0    0  0.13929747387E-01 -0.15446720818E-01 -0.83448367802E-02  0.22417325179E-01  0.51100000000E-03 0.  1.
         11    1    4    4    0    0  0.10181475279E+00 -0.40708135045E-01  0.43372616473E-01  0.11791879038E+00  0.51100000000E-03 0. -1.
</event>
<event>
 8    1  0.2001339E+004  0.1043930E+01  0.7957747E-01            NaN
         13   -1    0    0    0    0  0.00000000000E+00  0.00000000000E+00  0.74505805969E-08  0.10566000000E+00  0.10566000000E+00 0. -1.
     999900   -1    0    0    0    0 -0.00000000000E+00 -0.00000000000E+00 -0.74505805969E-08  0.93827000000E+00  0.93827000000E+00 0.  1.
     999902    2    1    2    0    0  0.56536988351E-02 -0.90973270598E-02  0.89446881032E-02  0.10299753192E+01  0.10298807820E+01 0.  0.
     999903    2    3    3    0    0 -0.12793139029E+00 -0.25859143249E-01 -0.17882027837E-01  0.13933195221E+00  0.45370586023E-01 0.  0.
         14    1    1    2    0    0 -0.56536988351E-02  0.90973270598E-02 -0.89446881032E-02  0.13954680771E-01  0.00000000000E+00 0.  1.
     999901    1    3    3    0    0  0.13358508913E+00  0.16761816189E-01  0.26826715940E-01  0.89064336701E+00  0.88000000000E+00 0.  1.
        -11    1    4    4    0    0 -0.17299609396E-01 -0.12652404213E-01 -0.17875762994E-01  0.27913506431E-01  0.51100000000E-03 0. -1.
         11    1    4    4    0    0 -0.11063178090E+00 -0.13206739036E-01 -0.62648430967E-05  0.11141844578E+00  0.51100000000E-03 0.  1.
</event>
<event>
 8    1  0.2001339E+004  0.1043930E+01  0.7957747E-01            NaN
         13   -1    0    0    0    0  0.00000000000E+00  0.00000000000E+00  0.74505805969E-08  0.10566000000E+00  0.10566000000E+00 0.  1.
     999900   -1    0    0    0    0 -0.00000000000E+00 -0.00000000000E+00 -0.74505805969E-08  0.93827000000E+00  0.93827000000E+00 0. -1.
     999902    2    1    2    0    0  0.10528885627E-01 -0.24130007388E-02  0.81169869689E-02  0.10304183205E+01  0.10303297287E+01 0.  0.
     999903    2    3    3    0    0 -0.37287245555E-02  0.13080362548E+00 -0.16364057282E-01  0.13994133009E+00  0.46822021204E-01 0.  0.
         14    1    1    2    0    0 -0.10528885627E-01  0.24130007388E-02 -0.81169869689E-02  0.13511679487E-01  0.00000000000E+00 0. -1.
     999901    1    3    3    0    0  0.14257610182E-01 -0.13321662622E+00  0.24481044251E-01  0.89047699043E+00  0.88000000000E+00 0.  1.
        -11    1    4    4    0    0  0.17707114424E-01  0.38421407312E-01  0.53613051953E-02  0.42646818820E-01  0.51100000000E-03 0.  1.
         11    1    4    4    0    0 -0.21435838980E-01  0.92382218171E-01 -0.21725362477E-01  0.97294511267E-01  0.51100000000E-03 0. -1.
</event>
<event>
 8    1  0.2001339E+004  0.1043930E+01  0.7957747E-01            NaN
         13   -1    0    0    0    0  0.00000000000E+00  0.00000000000E+00  0.74505805969E-08  0.10566000000E+00  0.10566000000E+00 0.  1.
     999900   -1    0    0    0    0 -0.00000000000E+00 -0.00000000000E+00 -0.74505805969E-08  0.93827000000E+00  0.93827000000E+00 0. -1.
     999902    2    1    2    0    0  0.96486119794E-02  0.73391797499E-02 -0.11502382895E-02  0.10317528772E+01  0.10316810152E+01 0.  0.
     999903    2    3    3    0    0  0.16734629711E-01  0.11499524230E+00 -0.69520510630E-01  0.14253156973E+00  0.44476886009E-01 0.  0.
         14    1    1    2    0    0 -0.96486119794E-02 -0.73391797499E-02  0.11502382895E-02  0.12177122840E-01  0.00000000000E+00 0. -1.
     999901    1    3    3    0    0 -0.70860177317E-02 -0.10765606255E+00  0.68370272341E-01  0.88922130743E+00  0.88000000000E+00 0.  1.
        -11    1    4    4    0    0 -0.40643087905E-02  0.51819577723E-01 -0.92995899788E-02  0.52806540657E-01  0.51100000000E-03 0.  1.
         11    1    4    4    0    0  0.20798938502E-01  0.63175664572E-01 -0.60220920651E-01  0.89725029072E-01  0.51100000000E-03 0. -1.
</event>
<event>
 8    1  0.2001339E+004  0.1043930E+01  0.7957747E-01            NaN
         13   -1    0    0    0    0  0.00000000000E+00  0.00000000000E+00  0.74505805969E-08  0.10566000000E+00  0.10566000000E+00 0.  1.
     999900   -1    0    0    0    0 -0.00000000000E+00 -0.00000000000E+00 -0.74505805969E-08  0.93827000000E+00  0.93827000000E+00 0.  1.
     999902    2    1    2    0    0  0.48576271144E-02 -0.10582001884E-01 -0.75894901174E-02  0.10300312351E+01  0.10299374591E+01 0.  0.
     999903    2    3    3    0    0  0.46271791087E-01 -0.12504247771E+00 -0.20408831355E-01  0.14156026259E+00  0.42966122323E-01 0.  0.
         14    1    1    2    0    0 -0.48576271144E-02  0.10582001884E-01  0.75894901174E-02  0.13898764884E-01  0.00000000000E+00 0.  1.
     999901    1    3    3    0    0 -0.41414163973E-01  0.11446047582E+00  0.12819341238E-01  0.88847097252E+00  0.88000000000E+00 0. -1.
        -11    1    4    4    0    0 -0.37396901223E-02 -0.29028609630E-01  0.65456283229E-02  0.29995863555E-01  0.51100000000E-03 0.  1.
         11    1    4    4    0    0  0.50011481209E-01 -0.96013868076E-01 -0.26954459678E-01  0.11156439904E+00  0.51100000000E-03 0. -1.
</event>
<event>
 8    1  0.2001339E+004  0.1043930E+01  0.7957747E-01            NaN
         13   -1    0    0    0    0  0.00000000000E+00  0.00000000000E+00  0.74505805969E-08  0.10566000000E+00  0.10566000000E+00 0. -1.
     999900   -1    0    0    0    0 -0.00000000000E+00 -0.00000000000E+00 -0.74505805969E-08  0.93827000000E+00  0.93827000000E+00 0. -1.
     999902    2    1    2    0    0  0.46539019158E-02  0.26197417648E-02  0.11963265783E-01  0.10308287948E+01  0.10307455373E+01 0.  0.
     999903    2    3    3    0    0  0.83985507539E-01 -0.83511491943E-01  0.63314799480E-01  0.14158806636E+00  0.44840628223E-01 0.  0.
         14    1    1    2    0    0 -0.46539019158E-02 -0.26197417648E-02 -0.11963265783E-01  0.13101205218E-01  0.00000000000E+00 0.  1.
     999901    1    3    3    0    0 -0.79331605624E-01  0.86131233707E-01 -0.51351533697E-01  0.88924072842E+00  0.88000000000E+00 0. -1.
        -11    1    4    4    0    0  0.65758864410E-01 -0.41558874939E-01  0.24394567509E-01  0.81527445561E-01  0.51100000000E-03 0.  1.
         11    1    4    4    0    0  0.18226643129E-01 -0.41952617004E-01  0.38920231971E-01  0.60060620800E-01  0.51100000000E-03 0. -1.
</event>
<event>
 8    1  0.2001339E+004  0.1043930E+01  0.7957747E-01            NaN
         13   -1    0    0    0    0  0.00000000000E+00  0.00000000000E+00  0.74505805969E-08  0.10566000000E+00  0.10566000000E+00 0. -1.
     999900   -1    0    0    0    0 -0.00000000000E+00 -0.00000000000E+00 -0.74505805969E-08  0.93827000000E+00  0.93827000000E+00 0.  1.
     999902    2    1    2    0    0 -0.84551496496E-02  0.10789196197E-01 -0.29788704773E-03  0.10302192361E+01  0.10301279966E+01 0.  0.
     999903    2    3    3    0    0 -0.10647802014E+00 -0.11993611738E-01 -0.80052699418E-01  0.14090018785E+00  0.44305899804E-01 0.  0.
         14    1    1    2    0    0  0.84551496496E-02 -0.10789196197E-01  0.29788704773E-03  0.13710763905E-01  0.00000000000E+00 0.  1.
     999901    1    3    3    0    0  0.98022870486E-01  0.22782807935E-01  0.79754812370E-01  0.88931904825E+00  0.88000000000E+00 0. -1.
        -11    1    4    4    0    0 -0.69533690945E-01 -0.22788024208E-01 -0.33453350558E-01  0.80458784532E-01  0.51100000000E-03 0. -1.
         11    1    4    4    0    0 -0.36944329190E-01  0.10794412469E-01 -0.46599348860E-01  0.60441403318E-01  0.51100000000E-03 0.  1.
</event>
<event>
 8    1  0.2001339E+004  0.1043930E+01  0.7957747E-01            NaN
         13   -1    0    0    0    0  0.00000000000E+00  0.00000000000E+00  0.74505805969E-08  0.10566000000E+00  0.10566000000E+00 0.  1.
     999900   -1    0    0    0    0 -0.00000000000E+00 -0.00000000000E+00 -0.74505805969E-08  0.93827000000E+00  0.93827000000E+00 0. -1.
     999902    2    1    2    0    0  0.11956927190E-01  0.66366584808E-02  0.29778405304E-02  0.10299342550E+01  0.10298391567E+01 0.  0.
     999903    2    3    3    0    0 -0.10095763856E+00 -0.73196761136E-01 -0.39670588231E-01  0.13811478756E+00  0.44178369686E-01 0.  0.
         14    1    1    2    0    0 -0.11956927190E-01 -0.66366584808E-02 -0.29778405304E-02  0.13995744990E-01  0.00000000000E+00 0. -1.
     999901    1    3    3    0    0  0.11291456575E+00  0.79833419616E-01  0.42648428761E-01  0.89181946745E+00  0.88000000000E+00 0. -1.
        -11    1    4    4    0    0 -0.83024166386E-01 -0.55623223910E-01 -0.11850815300E-01  0.10063626676E+00  0.51100000000E-03 0.  1.
         11    1    4    4    0    0 -0.17933472173E-01 -0.17573537226E-01 -0.27819772931E-01  0.37478520805E-01  0.51100000000E-03 0. -1.
</event>
<event>
 8    1  0.2001339E+004  0.1043930E+01  0.7957747E-01            NaN
         13   -1    0    0    0    0  0.00000000000E+00  0.00000000000E+00  0.74505805969E-08  0.10566000000E+00  0.10566000000E+00 0.  1.
     999900   -1    0    0    0    0 -0.00000000000E+00 -0.00000000000E+00 -0.74505805969E-08  0.93827000000E+00  0.93827000000E+00 0.  1.
     999902    2    1    2    0    0 -0.28775367239E-02  0.36367890419E-02  0.13427090721E-01  0.10297246060E+01  0.10296266173E+01 0.  0.
     999903    2    3    3    0    0  0.45588820381E-01 -0.12159113728E+00 -0.20671852709E-01  0.13888581073E+00  0.44712388859E-01 0.  0.
         14    1    1    2    0    0  0.28775367239E-02 -0.36367890419E-02 -0.13427090721E-01  0.14205393953E-01  0.00000000000E+00 0. -1.
     999901    1    3    3    0    0 -0.48466357105E-01  0.12522792633E+00  0.34098943430E-01  0.89083879532E+00  0.88000000000E+00 0. -1.
        -11    1    4    4    0    0  0.45348764903E-01 -0.88964764179E-01 -0.31167124023E-01  0.10460827159E+00  0.51100000000E-03 0. -1.
         11    1    4    4    0    0  0.24005547809E-03 -0.32626373105E-01  0.10495271313E-01  0.34277539141E-01  0.51100000000E-03 0.  1.
</event>
<event>
 8    1  0.2001339E+004  0.1043930E+01  0.7957747E-01            NaN
         13   -1    0    0    0    0  0.00000000000E+00  0.00000000000E+00  0.74505805969E-08  0.10566000000E+00  0.10566000000E+00 0.  1.
     999900   -1    0    0    0    0 -0.00000000000E+00 -0.00000000000E+00 -0.74505805969E-08  0.93827000000E+00  0.93827000000E+00 0.  1.
     999902    2    1    2    0    0  0.53959918577E-02 -0.14241439064E-01 -0.13340795994E-02  0.10286422571E+01  0.10285286471E+01 0.  0.
     999903    2    3    3    0    0  0.11412326876E-01 -0.30938194380E-01  0.12723420460E+00  0.13912284661E+00  0.45598361305E-01 0.  0.
         14    1    1    2    0    0 -0.53959918577E-02  0.14241439064E-01  0.13340795994E-02  0.15287742905E-01  0.00000000000E+00 0. -1.
     999901    1    3    3    0    0 -0.60163350182E-02  0.16696755315E-01 -0.12856828420E+00  0.88951941048E+00  0.88000000000E+00 0.  1.
        -11    1    4    4    0    0 -0.43860929964E-02  0.10094979264E-01  0.15244405451E-01  0.18809557057E-01  0.51100000000E-03 0.  1.
         11    1    4    4    0    0  0.15798419872E-01 -0.41033173644E-01  0.11198979915E+00  0.12031328956E+00  0.51100000000E-03 0. -1.
</event>
<event>
 8    1  0.2001339E+004  0.1043930E+01  0.7957747E-01            NaN
         13   -1    0    0    0    0  0.00000000000E+00  0.00000000000E+00  0.74505805969E-08  0.10566000000E+00  0.10566000000E+00 0. -1.
     999900   -1    0    0    0    0 -0.00000000000E+00 -0.00000000000E+00 -0.74505805969E-08  0.93827000000E+00  0.93827000000E+00 0. -1.
     999902    2    1    2    0    0  0.11778460295E-01 -0.84080726153E-02 -0.36624734536E-02  0.10290021226E+01  0.10288938365E+01 0.  0.
     999903    2    3    3    0    0  0.10760410437E+00 -0.49759995428E-01  0.60349060319E-01  0.14052589216E+00  0.45285945551E-01 0.  0.
         14    1    1    2    0    0 -0.11778460295E-01  0.84080726153E-02  0.36624734536E-02  0.14927877405E-01  0.00000000000E+00 0.  1.
     999901    1    3    3    0    0 -0.95825644078E-01  0.41351922813E-01 -0.64011533772E-01  0.88847623043E+00  0.88000000000E+00 0. -1.
        -11    1    4    4    0    0  0.58214036568E-01 -0.11177753607E-01  0.99689114895E-02  0.60112033292E-01  0.51100000000E-03 0.  1.
         11    1    4    4    0    0  0.49390067805E-01 -0.38582241822E-01  0.50380148829E-01  0.80413858873E-01  0.51100000000E-03 0. -1.
</event>
<event>
 8    1  0.2001339E+004  0.1043930E+01  0.7957747E-01            NaN
         13   -1    0    0    0    0  0.00000000000E+00  0.00000000000E+00  0.74505805969E-08  0.10566000000E+00  0.10566000000E+00 0. -1.
     999900   -1    0    0    0    0 -0.00000000000E+00 -0.00000000000E+00 -0.74505805969E-08  0.93827000000E+00  0.93827000000E+00 0.  1.
     999902    2    1    2    0    0  0.86995962386E-02  0.49107737260E-02 -0.95587515461E-02  0.10301036337E+01  0.10300108387E+01 0.  0.
     999903    2    3    3    0    0  0.25478886913E-01  0.19321731564E-01  0.12749668507E+00  0.13922013236E+00  0.45873059192E-01 0.  0.
         14    1    1    2    0    0 -0.86995962386E-02 -0.49107737260E-02  0.95587515461E-02  0.13826366277E-01  0.00000000000E+00 0. -1.
     999901    1    3    3    0    0 -0.16779290675E-01 -0.14410957838E-01 -0.13705543662E+00  0.89088350137E+00  0.88000000000E+00 0.  1.
        -11    1    4    4    0    0  0.23412835358E-01  0.33510395416E-01  0.84041731699E-01  0.93457911641E-01  0.51100000000E-03 0.  1.
         11    1    4    4    0    0  0.20660515556E-02 -0.14188663853E-01  0.43454953375E-01  0.45762220715E-01  0.51100000000E-03 0. -1.
</event>
<event>
 8    1  0.2001339E+004  0.1043930E+01  0.7957747E-01            NaN
         13   -1    0    0    0    0  0.00000000000E+00  0.00000000000E+00  0.74505805969E-08  0.10566000000E+00  0.10566000000E+00 0. -1.
     999900   -1    0    0    0    0 -0.00000000000E+00 -0.00000000000E+00 -0.74505805969E-08  0.93827000000E+00  0.93827000000E+00 0. -1.
     999902    2    1    2    0    0  0.23842154128E-03 -0.11113914547E-01  0.93687218264E-02  0.10293921566E+01  0.10292894944E+01 0.  0.
     999903    2    3    3    0    0  0.56095611312E-01 -0.40048694311E-01  0.11453854533E+00  0.14090021017E+00  0.44532856827E-01 0.  0.
         14    1    1    2    0    0 -0.23842154128E-03  0.11113914547E-01 -0.93687218264E-02  0.14537843376E-01  0.00000000000E+00 0.  1.
     999901    1    3    3    0    0 -0.55857189771E-01  0.28934779764E-01 -0.10516982350E+00  0.88849194645E+00  0.88000000000E+00 0. -1.
        -11    1    4    4    0    0  0.39188763041E-02 -0.21107612217E-01  0.57177393483E-01  0.61077036040E-01  0.51100000000E-03 0. -1.
         11    1    4    4    0    0  0.52176735008E-01 -0.18941082094E-01  0.57361151844E-01  0.79823174134E-01  0.51100000000E-03 0.  1.
</event>
<event>
 7    1  0.3415056E+004  0.1043930E+01  0.7957747E-01            NaN
         13   -1    0    0    0    0  0.00000000000E+00  0.00000000000E+00  0.74505805969E-08  0.10566000000E+00  0.10566000000E+00 0. -1.
     999900   -1    0    0    0    0 -0.00000000000E+00 -0.00000000000E+00 -0.74505805969E-08  0.93827000000E+00  0.93827000000E+00 0.  1.
     999903    2    1    2    0    0 -0.49401921427E-01  0.68292822493E-01 -0.72970867292E-01  0.11996852427E+00  0.44308463047E-01 0.  0.
         14    1    1    2    0    0  0.30878117181E-01  0.15578541790E-01 -0.97090425795E-02  0.35922341137E-01  0.00000000000E+00 0. -1.
     999901    1    1    2    0    0  0.18523804246E-01 -0.83871364283E-01  0.82679909871E-01  0.88803913459E+00  0.88000000000E+00 0. -1.
        -11    1    3    3    0    0 -0.37053027549E-01  0.17027886249E-01 -0.20763816976E-01  0.45763227345E-01  0.51100000000E-03 0. -1.
         11    1    3    3    0    0 -0.12348893879E-01  0.51264936244E-01 -0.52207050315E-01  0.74205296925E-01  0.51100000000E-03 0.  1.
</event>
<event>
 8    1  0.2001339E+004  0.1043930E+01  0.7957747E-01            NaN
         13   -1    0    0    0    0  0.00000000000E+00  0.00000000000E+00  0.74505805969E-08  0.10566000000E+00  0.10566000000E+00 0.  1.
     999900   -1    0    0    0    0 -0.00000000000E+00 -0.00000000000E+00 -0.74505805969E-08  0.93827000000E+00  0.93827000000E+00 0.  1.
     999902    2    1    2    0    0  0.11451006066E-01  0.44937642141E-02  0.79646821913E-02  0.10292754574E+01  0.10291711284E+01 0.  0.
     999903    2    3    3    0    0  0.10350765796E-01 -0.30731415352E-01  0.12845967129E+00  0.14036541346E+00  0.46357350053E-01 0.  0.
         14    1    1    2    0    0 -0.11451006066E-01 -0.44937642141E-02 -0.79646821913E-02  0.14654542611E-01  0.00000000000E+00 0. -1.
     999901    1    3    3    0    0  0.11002402695E-02  0.35225179566E-01 -0.12049498910E+00  0.88891004393E+00  0.88000000000E+00 0.  1.
        -11    1    4    4    0    0  0.43634686324E-02 -0.36345995203E-01  0.52746386596E-01  0.64206803733E-01  0.51100000000E-03 0. -1.
         11    1    4    4    0    0  0.59872971639E-02  0.56145798508E-02  0.75713284698E-01  0.76158609724E-01  0.51100000000E-03 0.  1.
</event>
<event>
 8    1  0.2001339E+004  0.1043930E+01  0.7957747E-01            NaN
         13   -1    0    0    0    0  0.00000000000E+00  0.00000000000E+00  0.74505805969E-08  0.10566000000E+00  0.10566000000E+00 0. -1.
     999900   -1    0    0    0    0 -0.00000000000E+00 -0.00000000000E+00 -0.74505805969E-08  0.93827000000E+00  0.93827000000E+00 0. -1.
     999902    2    1    2    0    0 -0.16204692319E-02  0.67754245652E-02  0.11926549477E-01  0.10301178720E+01  0.10300252692E+01 0.  0.
     999903    2    3    3    0    0 -0.10802276568E+00 -0.41419447922E-01 -0.63341633579E-01  0.13921412082E+00  0.44541220450E-01 0.  0.
         14    1    1    2    0    0  0.16204692319E-02 -0.67754245652E-02 -0.11926549477E-01  0.13812128040E-01  0.00000000000E+00 0.  1.
     999901    1    3    3    0    0  0.10640229645E+00  0.48194872487E-01  0.75268183056E-01  0.89090375114E+00  0.88000000000E+00 0.  1.
        -11    1    4    4    0    0 -0.48976891440E-01  0.26599903098E-02 -0.35030990742E-01  0.60276387391E-01  0.51100000000E-03 0. -1.
         11    1    4    4    0    0 -0.59045874237E-01 -0.44079438232E-01 -0.28310642837E-01  0.78937733424E-01  0.51100000000E-03 0.  1.
</event>
<event>
 8    1  0.2001339E+004  0.1043930E+01  0.7957747E-01            NaN
         13   -1    0    0    0    0  0.00000000000E+00  0.00000000000E+00  0.74505805969E-08  0.10566000000E+00  0.10566000000E+00 0.  1.
     999900   -1    0    0    0    0 -0.00000000000E+00 -0.00000000000E+00 -0.74505805969E-08  0.93827000000E+00  0.93827000000E+00 0.  1.
     999902    2    1    2    0    0  0.85932150700E-02  0.65805585892E-02  0.79959566397E-02  0.10304733132E+01  0.10303854458E+01 0.  0.
     999903    2    3    3    0    0  0.10097643329E+00 -0.26552019997E-01 -0.82188748707E-01  0.14043639946E+00  0.45454835094E-01 0.  0.
         14    1    1    2    0    0 -0.85932150700E-02 -0.65805585892E-02 -0.79959566397E-02  0.13456686783E-01  0.00000000000E+00 0. -1.
     999901    1    3    3    0    0 -0.92383218220E-01  0.33132578586E-01  0.90184705347E-01  0.89003691376E+00  0.88000000000E+00 0. -1.
        -11    1    4    4    0    0  0.49465375885E-01 -0.26429648727E-01 -0.19684470629E-01  0.59439795156E-01  0.51100000000E-03 0.  1.
         11    1    4    4    0    0  0.51511057405E-01 -0.12237127060E-03 -0.62504278078E-01  0.80996604304E-01  0.51100000000E-03 0. -1.
</event>
<event>
 8    1  0.2001339E+004  0.1043930E+01  0.7957747E-01            NaN
         13   -1    0    0    0    0  0.00000000000E+00  0.00000000000E+00  0.74505805969E-08  0.10566000000E+00  0.10566000000E+00 0. -1.
     999900   -1    0    0    0    0 -0.00000000000E+00 -0.00000000000E+00 -0.74505805969E-08  0.93827000000E+00  0.93827000000E+00 0. -1.
     999902    2    1    2    0    0  0.77642120870E-02 -0.11931363013E-01  0.99873288447E-03  0.10296598255E+01  0.10295609348E+01 0.  0.
     999903    2    3    3    0    0 -0.10667930855E+00 -0.42052228944E-01 -0.64848590383E-01  0.13930009149E+00  0.45280359789E-01 0.  0.
         14    1    1    2    0    0 -0.77642120870E-02  0.11931363013E-01 -0.99873288447E-03  0.14270174493E-01  0.00000000000E+00 0.  1.
     999901    1    3    3    0    0  0.11444352064E+00  0.30120865932E-01  0.65847323267E-01  0.89035973402E+00  0.88000000000E+00 0.  1.
        -11    1    4    4    0    0 -0.43870098989E-01 -0.30124890160E-01 -0.81371400100E-02  0.53838357711E-01  0.51100000000E-03 0. -1.
         11    1    4    4    0    0 -0.62809209560E-01 -0.11927338784E-01 -0.56711450373E-01  0.85461733778E-01  0.51100000000E-03 0.  1.
</event>
<event>
 8    1  0.2001339E+004  0.1043930E+01  0.7957747E-01            NaN
         13   -1    0    0    0    0  0.00000000000E+00  0.00000000000E+00  0.74505805969E-08  0.10566000000E+00  0.10566000000E+00 0.  1.
     999900   -1    0    0    0    0 -0.00000000000E+00 -0.00000000000E+00 -0.74505805969E-08  0.93827000000E+00  0.93827000000E+00 0.  1.
     999902    2    1    2    0    0 -0.10057886259E-01 -0.84574959548E-02  0.49200947053E-02  0.10298979778E+01  0.10298023826E+01 0.  0.
     999903    2    3    3    0    0  0.50107491127E-01  0.93809796499E-01  0.77467209494E-01  0.13897623291E+00  0.44745795108E-01 0.  0.
         14    1    1    2    0    0  0.10057886259E-01  0.84574959548E-02 -0.49200947053E-02  0.14032022154E-01  0.00000000000E+00 0. -1.
     999901    1    3    3    0    0 -0.60165377386E-01 -0.10226729245E+00 -0.72547114789E-01  0.89092174494E+00  0.88000000000E+00 0. -1.
        -11    1    4    4    0    0  0.27252560513E-01  0.50825186949E-01  0.68373145742E-01  0.89448587818E-01  0.51100000000E-03 0. -1.
         11    1    4    4    0    0  0.22854930614E-01  0.42984609550E-01  0.90940637520E-02  0.49527645089E-01  0.51100000000E-03 0.  1.
</event>
<event>
 8    1  0.2001339E+004  0.1043930E+01  0.7957747E-01            NaN
         13   -1    0    0    0    0  0.00000000000E+00  0.00000000000E+00  0.74505805969E-08  0.10566000000E+00  0.10566000000E+00 0. -1.
     999900   -1    0    0    0    0 -0.00000000000E+00 -0.00000000000E+00 -0.74505805969E-08  0.93827000000E+00  0.93827000000E+00 0.  1.
     999902    2    1    2    0    0 -0.75201214583E-02 -0.95691993488E-02  0.17817859698E-02  0.10316297332E+01  0.10315564017E+01 0.  0.
     999903    2    3    3    0    0  0.39615853396E-01  0.71240978398E-01  0.10570089402E+00  0.14059030308E+00  0.44139115077E-01 0.  0.
         14    1    1    2    0    0  0.75201214583E-02  0.95691993488E-02 -0.17817859698E-02  0.12300266833E-01  0.00000000000E+00 0.  1.
     999901    1    3    3    0    0 -0.47135974854E-01 -0.80810177747E-01 -0.10391910805E+00  0.89103943009E+00  0.88000000000E+00 0.  1.
        -11    1    4    4    0    0  0.16290323827E-01  0.49539852493E-01  0.34350247763E-01  0.62448156720E-01  0.51100000000E-03 0.  1.
         11    1    4    4    0    0  0.23325529568E-01  0.21701125906E-01  0.71350646257E-01  0.78142146359E-01  0.51100000000E-03 0. -1.
</event>
<event>
 8    1  0.2001339E+004  0.1043930E+01  0.7957747E-01            NaN
         13   -1    0    0    0    0  0.00000000000E+00  0.00000000000E+00  0.74505805969E-08  0.10566000000E+00  0.10566000000E+00 0. -1.
     999900   -1    0    0    0    0 -0.00000000000E+00 -0.00000000000E+00 -0.74505805969E-08  0.93827000000E+00  0.93827000000E+00 0. -1.
     999902    2    1    2    0    0  0.19947039752E-02 -0.71733446896E-02 -0.12901122232E-01  0.10290345419E+01  0.10289267290E+01 0.  0.
     999903    2    3    3    0    0  0.52354425631E-01  0.73259073519E-01 -0.97284718635E-01  0.13991921369E+00  0.44779371861E-01 0.  0.
         14    1    1    2    0    0 -0.19947039752E-02  0.71733446896E-02  0.12901122232E-01  0.14895458127E-01  0.00000000000E+00 0. -1.
     999901    1    3    3    0    0 -0.50359721656E-01 -0.80432418208E-01  0.84383596404E-01  0.88911532818E+00  0.88000000000E+00 0.  1.
        -11    1    4    4    0    0  0.40457559618E-01  0.21303450423E-01 -0.32893405056E-01  0.56328397344E-01  0.51100000000E-03 0. -1.
         11    1    4    4    0    0  0.11896866012E-01  0.51955623096E-01 -0.64391313579E-01  0.83590816348E-01  0.51100000000E-03 0.  1.
</event>
<event>
 8    1  0.2001339E+004  0.1043930E+01  0.7957747E-01            NaN
         13   -1    0    0    0    0  0.00000000000E+00  0.00000000000E+00  0.74505805969E-08  0.10566000000E+00  0.10566000000E+00 0.  1.
     999900   -1    0    0    0    0 -0.00000000000E+00 -0.00000000000E+00 -0.74505805969E-08  0.93827000000E+00  0.93827000000E+00 0.  1.
     999902    2    1    2    0    0 -0.20716077966E-02 -0.79991127154E-02 -0.12385124864E-01  0.10290414581E+01  0.10289337460E+01 0.  0.
     999903    2    3    3    0    0  0.79137102514E-01 -0.77925514661E-01  0.71785433040E-01  0.13855325537E+00  0.41337505331E-01 0.  0.
         14    1    1    2    0    0  0.20716077966E-02  0.79991127154E-02  0.12385124864E-01  0.14888541937E-01  0.00000000000E+00 0.  1.
     999901    1    3    3    0    0 -0.81208710311E-01  0.69926401946E-01 -0.84170557905E-01  0.89048820269E+00  0.88000000000E+00 0.  1.
        -11    1    4    4    0    0  0.23352546716E-01 -0.25216067616E-01  0.46339168629E-01  0.57695503935E-01  0.51100000000E-03 0.  1.
         11    1    4    4    0    0  0.55784555798E-01 -0.52709447045E-01  0.25446264411E-01  0.80857751434E-01  0.51100000000E-03 0. -1.
</event>
<event>
 8    1  0.2001339E+004  0.1043930E+01  0.7957747E-01            NaN
         13   -1    0    0    0    0  0.00000000000E+00  0.00000000000E+00  0.74505805969E-08  0.10566000000E+00  0.10566000000E+00 0.  1.
     999900   -1    0    0    0    0 -0.00000000000E+00 -0.00000000000E+00 -0.74505805969E-08  0.93827000000E+00  0.93827000000E+00 0. -1.
     999902    2    1    2    0    0 -0.82052946282E-02  0.90376963996E-02 -0.12803946612E-01  0.10262396675E+01  0.10260871831E+01 0.  0.
     999903    2    3    3    0    0  0.99246365220E-02  0.11322165194E+00 -0.65139357924E-01  0.13836468400E+00  0.44542215363E-01 0.  0.
         14    1    1    2    0    0  0.82052946282E-02 -0.90376963996E-02  0.12803946612E-01  0.17690332529E-01  0.00000000000E+00 0.  1.
     999901    1    3    3    0    0 -0.18129931150E-01 -0.10418395554E+00  0.52335411312E-01  0.88787498347E+00  0.88000000000E+00 0.  1.
        -11    1    4    4    0    0 -0.70631506768E-03  0.97508150056E-01 -0.36732306829E-01  0.10420106379E+00  0.51100000000E-03 0. -1.
         11    1    4    4    0    0  0.10630951590E-01  0.15713501885E-01 -0.28407051094E-01  0.34163620213E-01  0.51100000000E-03 0.  1.
</event>
<event>
 8    1  0.2001339E+004  0.1043930E+01  0.7957747E-01            NaN
         13   -1    0    0    0    0  0.00000000000E+00  0.00000000000E+00  0.74505805969E-08  0.10566000000E+00  0.10566000000E+00 0.  1.
     999900   -1    0    0    0    0 -0.00000000000E+00 -0.00000000000E+00 -0.74505805969E-08  0.93827000000E+00  0.93827000000E+00 0.  1.
     999902    2    1    2    0    0  0.80870648416E-02  0.95253732505E-02 -0.63257036190E-02  0.10299247196E+01  0.10298294908E+01 0.  0.
     999903    2    3    3    0    0  0.90388595694E-01  0.19791166675E-01 -0.96103687351E-01  0.14147718885E+00  0.47096578786E-01 0.  0.
         14    1    1    2    0    0 -0.80870648416E-02 -0.95253732505E-02  0.63257036190E-02  0.14005280418E-01  0.00000000000E+00 0.  1.
     999901    1    3    3    0    0 -0.82301530853E-01 -0.10265793424E-01  0.89777983732E-01  0.88844753073E+00  0.88000000000E+00 0. -1.
        -11    1    4    4    0    0  0.35958314917E-01 -0.14356772062E-01 -0.45070890922E-01  0.59420229259E-01  0.51100000000E-03 0. -1.
         11    1    4    4    0    0  0.54430280777E-01  0.34147938736E-01 -0.51032796429E-01  0.82056959594E-01  0.51100000000E-03 0.  1.
</event>
<event>
 8    1  0.2001339E+004  0.1043930E+01  0.7957747E-01            NaN
         13   -1    0    0    0    0  0.00000000000E+00  0.00000000000E+00  0.74505805969E-08  0.10566000000E+00  0.10566000000E+00 0.  1.
     999900   -1    0    0    0    0 -0.00000000000E+00 -0.00000000000E+00 -0.74505805969E-08  0.93827000000E+00  0.93827000000E+00 0. -1.
     999902    2    1    2    0    0  0.30046266593E-03 -0.89568981253E-02  0.16690560108E-01  0.10249855787E+01  0.10248104924E+01 0.  0.
     999903    2    3    3    0    0 -0.10934722535E+00 -0.62021701711E-01 -0.22966342968E-01  0.13570994155E+00  0.45675246568E-01 0.  0.
         14    1    1    2    0    0 -0.30046266593E-03  0.89568981253E-02 -0.16690560108E-01  0.18944421304E-01  0.00000000000E+00 0. -1.
     999901    1    3    3    0    0  0.10964768802E+00  0.53064803586E-01  0.39656903076E-01  0.88927563715E+00  0.88000000000E+00 0. -1.
        -11    1    4    4    0    0 -0.15358786069E-01  0.60596368479E-02  0.29869387870E-02  0.16786733826E-01  0.51100000000E-03 0. -1.
         11    1    4    4    0    0 -0.93988439285E-01 -0.68081338559E-01 -0.25953281755E-01  0.11892320772E+00  0.51100000000E-03 0.  1.
</event>
<event>
 7    1  0.2001339E+004  0.1043930E+01  0.7957747E-01            NaN
         13   -1    0    0    0    0  0.00000000000E+00  0.00000000000E+00  0.74505805969E-08  0.10566000000E+00  0.10566000000E+00 0. -1.
     999900   -1    0    0    0    0 -0.00000000000E+00 -0.00000000000E+00 -0.74505805969E-08  0.93827000000E+00  0.93827000000E+00 0. -1.
     999903    2    1    2    0    0  0.63802619219E-01  0.43311316962E-01  0.93516035277E-01  0.12870853663E+00  0.43289654093E-01 0.  0.
         14    1    1    2    0    0 -0.20130911919E-01 -0.20330287788E-01  0.19876674550E-02  0.28679697316E-01  0.00000000000E+00 0. -1.
     999901    1    1    2    0    0 -0.43671707300E-01 -0.22981029175E-01 -0.95503702732E-01  0.88654176605E+00  0.88000000000E+00 0. -1.
        -11    1    3    3    0    0  0.12993708435E-01 -0.48663093862E-02  0.34306999991E-01  0.37010117473E-01  0.51100000000E-03 0. -1.
         11    1    3    3    0    0  0.50808910784E-01  0.48177626349E-01  0.59209035286E-01  0.91698419158E-01  0.51100000000E-03 0.  1.
</event>
<event>
 7    1  0.2414789E+004  0.1043930E+01  0.7957747E-01            NaN
         13   -1    0    0    0    0  0.00000000000E+00  0.00000000000E+00  0.74505805969E-08  0.10566000000E+00  0.10566000000E+00 0.  1.
     999900   -1    0    0    0    0 -0.00000000000E+00 -0.00000000000E+00 -0.74505805969E-08  0.93827000000E+00  0.93827000000E+00 0. -1.
     999903    2    1    2    0    0  0.52910533939E-01 -0.11413912093E-01 -0.43614084445E-01  0.81790969073E-01  0.43101882428E-01 0.  0.
         14    1    1    2    0    0  0.58467122273E-01 -0.42405875471E-01 -0.27502964751E-02  0.72278812885E-01  0.00000000000E+00 0.  1.
     999901    1    1    2    0    0 -0.11137765621E+00  0.53819787563E-01  0.46364380921E-01  0.88986021804E+00  0.88000000000E+00 0.  1.
        -11    1    3    3    0    0  0.17982224658E-01  0.53922801594E-02  0.51716260101E-02  0.19479320460E-01  0.51100000000E-03 0. -1.
         11    1    3    3    0    0  0.34928309281E-01 -0.16806192252E-01 -0.48785710456E-01  0.62311648613E-01  0.51100000000E-03 0.  1.
</event>
<event>
 8    1  0.2001339E+004  0.1043930E+01  0.7957747E-01            NaN
         13   -1    0    0    0    0  0.00000000000E+00  0.00000000000E+00  0.74505805969E-08  0.10566000000E+00  0.10566000000E+00 0. -1.
     999900   -1    0    0    0    0 -0.00000000000E+00 -0.00000000000E+00 -0.74505805969E-08  0.93827000000E+00  0.93827000000E+00 0.  1.
     999902    2    1    2    0    0  0.55939307405E-02 -0.75865752844E-02  0.10015207008E-01  0.10301767256E+01  0.10300849156E+01 0.  0.
     999903    2    3    3    0    0 -0.11509073784E+00 -0.25535455940E-01 -0.57058015482E-01  0.13923016786E+00  0.47238597194E-01 0.  0.
         14    1    1    2    0    0 -0.55939307405E-02  0.75865752844E-02 -0.10015207008E-01  0.13753274414E-01  0.00000000000E+00 0.  1.
     999901    1    3    3    0    0  0.12068466858E+00  0.17948880656E-01  0.67073222490E-01  0.89094655773E+00  0.88000000000E+00 0. -1.
        -11    1    4    4    0    0 -0.42225922138E-01 -0.95486524823E-02 -0.47088652385E-01  0.63967238248E-01  0.51100000000E-03 0.  1.
         11    1    4    4    0    0 -0.72864815704E-01 -0.15986803458E-01 -0.99693630963E-02  0.75262929613E-01  0.51100000000E-03 0. -1.
</event>
<event>
 8    1  0.2001339E+004  0.1043930E+01  0.7957747E-01            NaN
         13   -1    0    0    0    0  0.00000000000E+00  0.00000000000E+00  0.74505805969E-08  0.10566000000E+00  0.10566000000E+00 0. -1.
     999900   -1    0    0    0    0 -0.00000000000E+00 -0.00000000000E+00 -0.74505805969E-08  0.93827000000E+00  0.93827000000E+00 0. -1.
     999902    2    1    2    0    0  0.26849644103E-02  0.93385402694E-02  0.95688826942E-02  0.10302925191E+01  0.10302022588E+01 0.  0.
     999903    2    3    3    0    0 -0.11013152104E-01 -0.12612468501E+00 -0.34480748660E-01  0.13873304618E+00  0.45046757778E-01 0.  0.
         14    1    1    2    0    0 -0.26849644103E-02 -0.93385402694E-02 -0.95688826942E-02  0.13637480862E-01  0.00000000000E+00 0.  1.
     999901    1    3    3    0    0  0.13698116514E-01  0.13546322528E+00  0.44049631354E-01  0.89155947296E+00  0.88000000000E+00 0.  1.
        -11    1    4    4    0    0 -0.96443592188E-02 -0.10809051040E+00 -0.10981510784E-01  0.10907532628E+00  0.51100000000E-03 0. -1.
         11    1    4    4    0    0 -0.13687928848E-02 -0.18034174607E-01 -0.23499237876E-01  0.29657719897E-01  0.51100000000E-03 0.  1.
</event>
<event>
 8    1  0.2020804E+004  0.1043930E+01  0.7957747E-01            NaN
         13   -1    0    0    0    0  0.00000000000E+00  0.00000000000E+00  0.74505805969E-08  0.10566000000E+00  0.10566000000E+00 0. -1.
     999900   -1    0    0    0    0 -0.00000000000E+00 -0.00000000000E+00 -0.74505805969E-08  0.93827000000E+00  0.93827000000E+00 0.  1.
     999902    2    1    2    0    0 -0.34786227878E-02 -0.13576338901E-02 -0.13048980587E-01  0.10303572375E+01  0.10302678375E+01 0.  0.
     999903    2    3    3    0    0  0.10077263411E+00 -0.10655521956E-01  0.84166422653E-01  0.13883852775E+00  0.43857566635E-01 0.  0.
         14    1    1    2    0    0  0.34786227878E-02  0.13576338901E-02  0.13048980587E-01  0.13572762454E-01  0.00000000000E+00 0. -1.
     999901    1    3    3    0    0 -0.10425125690E+00  0.92978880664E-02 -0.97215403240E-01  0.89151870980E+00  0.88000000000E+00 0.  1.
        -11    1    4    4    0    0  0.73453114231E-01 -0.22834199688E-01  0.43551657398E-01  0.88395523918E-01  0.51100000000E-03 0. -1.
         11    1    4    4    0    0  0.27319519884E-01  0.12178677731E-01  0.40614765254E-01  0.50443003832E-01  0.51100000000E-03 0.  1.
</event>
<event>
 8    1  0.2001339E+004  0.1043930E+01  0.7957747E-01            NaN
         13   -1    0    0    0    0  0.00000000000E+00  0.00000000000E+00  0.74505805969E-08  0.10566000000E+00  0.10566000000E+00 0.  1.
     999900   -1    0    0    0    0 -0.00000000000E+00 -0.00000000000E+00 -0.74505805969E-08  0.93827000000E+00  0.93827000000E+00 0.  1.
     999902    2    1    2    0    0  0.13378933764E-01  0.36762470132E-02 -0.57095487442E-03  0.10300434363E+01  0.10299498260E+01 0.  0.
     999903    2    3    3    0    0  0.91565155872E-01  0.22956908632E-01 -0.94564467751E-01  0.14138174047E+00  0.46207797554E-01 0.  0.
         14    1    1    2    0    0 -0.13378933764E-01 -0.36762470132E-02  0.57095487442E-03  0.13886563658E-01  0.00000000000E+00 0.  1.
     999901    1    3    3    0    0 -0.78186222108E-01 -0.19280661618E-01  0.93993512876E-01  0.88866169587E+00  0.88000000000E+00 0. -1.
        -11    1    4    4    0    0  0.56571451216E-01  0.35500378558E-01 -0.50521087336E-01  0.83745133334E-01  0.51100000000E-03 0. -1.
         11    1    4    4    0    0  0.34993704655E-01 -0.12543469926E-01 -0.44043380415E-01  0.57636607141E-01  0.51100000000E-03 0.  1.
</event>
<event>
 8    1  0.2001339E+004  0.1043930E+01  0.7957747E-01            NaN
         13   -1    0    0    0    0  0.00000000000E+00  0.00000000000E+00  0.74505805969E-08  0.10566000000E+00  0.10566000000E+00 0.  1.
     999900   -1    0    0    0    0 -0.00000000000E+00 -0.00000000000E+00 -0.74505805969E-08  0.93827000000E+00  0.93827000000E+00 0. -1.
     999902    2    1    2    0    0 -0.12583047646E-01  0.60481204444E-02  0.66802219922E-02  0.10284529778E+01  0.10283365157E+01 0.  0.
     999903    2    3    3    0    0 -0.92167630104E-01  0.77931966192E-01  0.56580813992E-01  0.14053909569E+00  0.44515003212E-01 0.  0.
         14    1    1    2    0    0  0.12583047646E-01 -0.60481204444E-02 -0.66802219922E-02  0.15477022156E-01  0.00000000000E+00 0. -1.
     999901    1    3    3    0    0  0.79584582458E-01 -0.71883845748E-01 -0.49900592000E-01  0.88791388216E+00  0.88000000000E+00 0. -1.
        -11    1    4    4    0    0 -0.51782549494E-01  0.69474448694E-01  0.31215708945E-01  0.92102188136E-01  0.51100000000E-03 0.  1.
         11    1    4    4    0    0 -0.40385080610E-01  0.84575174980E-02  0.25365105047E-01  0.48436907551E-01  0.51100000000E-03 0. -1.
</event>
<event>
 8    1  0.2001339E+004  0.1043930E+01  0.7957747E-01            NaN
         13   -1    0    0    0    0  0.00000000000E+00  0.00000000000E+00  0.74505805969E-08  0.10566000000E+00  0.10566000000E+00 0. -1.
     999900   -1    0    0    0    0 -0.00000000000E+00 -0.00000000000E+00 -0.74505805969E-08  0.93827000000E+00  0.93827000000E+00 0.  1.
     999902    2    1    2    0    0 -0.47455113899E-02  0.61016221145E-02 -0.24770573584E-01  0.10179813779E+01  0.10176506055E+01 0.  0.
     999903    2    3    3    0    0 -0.10578431359E+00  0.45465471014E-01 -0.45792298441E-01  0.13107649857E+00  0.42739721866E-01 0.  0.
         14    1    1    2    0    0  0.47455113899E-02 -0.61016221145E-02  0.24770573584E-01  0.25948622053E-01  0.00000000000E+00 0. -1.
     999901    1    3    3    0    0  0.10103880220E+00 -0.39363848899E-01  0.21021724857E-01  0.88690487938E+00  0.88000000000E+00 0. -1.
        -11    1    4    4    0    0 -0.63172229355E-01  0.65495039086E-02 -0.13450874264E-01  0.64921596581E-01  0.51100000000E-03 0.  1.
         11    1    4    4    0    0 -0.42612084231E-01  0.38915967105E-01 -0.32341424177E-01  0.66154901988E-01  0.51100000000E-03 0. -1.
</event>
<event>
 8    1  0.2001339E+004  0.1043930E+01  0.7957747E-01            NaN
         13   -1    0    0    0    0  0.00000000000E+00  0.00000000000E+00  0.74505805969E-08  0.10566000000E+00  0.10566000000E+00 0. -1.
     999900   -1    0    0    0    0 -0.00000000000E+00 -0.00000000000E+00 -0.74505805969E-08  0.93827000000E+00  0.93827000000E+00 0. -1.
     999902    2    1    2    0    0  0.75978874792E-02  0.11660007784E-01 -0.36836519889E-02  0.10295337169E+01  0.10294330582E+01 0.  0.
     999903    2    3    3    0    0  0.53908336799E-01  0.12146266210E-01 -0.12113721572E+00  0.14052289929E+00  0.44931276789E-01 0.  0.
         14    1    1    2    0    0 -0.75978874792E-02 -0.11660007784E-01  0.36836519889E-02  0.14396283119E-01  0.00000000000E+00 0. -1.
     999901    1    3    3    0    0 -0.46310449320E-01 -0.48625842564E-03  0.11745356373E+00  0.88901081759E+00  0.88000000000E+00 0.  1.
        -11    1    4    4    0    0  0.58923318976E-01  0.17863376773E-02 -0.92909292344E-01  0.11003429577E+00  0.51100000000E-03 0. -1.
         11    1    4    4    0    0 -0.50149821771E-02  0.10359928533E-01 -0.28227923371E-01  0.30488603515E-01  0.51100000000E-03 0.  1.
</event>
<event>
 8    1  0.2001339E+004  0.1043930E+01  0.7957747E-01            NaN
         13   -1    0    0    0    0  0.00000000000E+00  0.00000000000E+00  0.74505805969E-08  0.10566000000E+00  0.10566000000E+00 0. -1.
     999900   -1    0    0    0    0 -0.00000000000E+00 -0.00000000000E+00 -0.74505805969E-08  0.93827000000E+00  0.93827000000E+00 0. -1.
     999902    2    1    2    0    0  0.24019672296E-02 -0.10539435575E-01 -0.10078035919E-01  0.10291510976E+01  0.10290449775E+01 0.  0.
     999903    2    3    3    0    0 -0.47708730254E-02 -0.12820217169E+00 -0.36987831702E-01  0.14088306021E+00  0.44959747580E-01 0.  0.
         14    1    1    2    0    0 -0.24019672296E-02  0.10539435575E-01  0.10078035919E-01  0.14778902422E-01  0.00000000000E+00 0. -1.
     999901    1    3    3    0    0  0.71728402550E-02  0.11766273612E+00  0.26909795783E-01  0.88826803737E+00  0.88000000000E+00 0.  1.
        -11    1    4    4    0    0 -0.47432932093E-02 -0.11005734304E+00 -0.13182531482E-01  0.11094664414E+00  0.51100000000E-03 0.  1.
         11    1    4    4    0    0 -0.27579816094E-04 -0.18144828650E-01 -0.23805300220E-01  0.29936416067E-01  0.51100000000E-03 0. -1.
</event>
<event>
 8    1  0.2001339E+004  0.1043930E+01  0.7957747E-01            NaN
         13   -1    0    0    0    0  0.00000000000E+00  0.00000000000E+00  0.74505805969E-08  0.10566000000E+00  0.10566000000E+00 0.  1.
     999900   -1    0    0    0    0 -0.00000000000E+00 -0.00000000000E+00 -0.74505805969E-08  0.93827000000E+00  0.93827000000E+00 0.  1.
     999902    2    1    2    0    0  0.32904664327E-02 -0.11902701570E-01 -0.86093734431E-03  0.10315508770E+01  0.10314765965E+01 0.  0.
     999903    2    3    3    0    0 -0.59851667448E-01  0.79399497358E-01  0.88042007157E-01  0.14013248242E+00  0.44712585777E-01 0.  0.
         14    1    1    2    0    0 -0.32904664327E-02  0.11902701570E-01  0.86093734431E-03  0.12379123035E-01  0.00000000000E+00 0.  1.
     999901    1    3    3    0    0  0.63142133881E-01 -0.91302198928E-01 -0.88902944501E-01  0.89141839455E+00  0.88000000000E+00 0. -1.
        -11    1    4    4    0    0 -0.41513618633E-02  0.24043418596E-01  0.33483621226E-02  0.24633157187E-01  0.51100000000E-03 0.  1.
         11    1    4    4    0    0 -0.55700305585E-01  0.55356078762E-01  0.84693645034E-01  0.11549932523E+00  0.51100000000E-03 0. -1.
</event>
<event>
 8    1  0.2001339E+004  0.1043930E+01  0.7957747E-01            NaN
         13   -1    0    0    0    0  0.00000000000E+00  0.00000000000E+00  0.74505805969E-08  0.10566000000E+00  0.10566000000E+00 0.  1.
     999900   -1    0    0    0    0 -0.00000000000E+00 -0.00000000000E+00 -0.74505805969E-08  0.93827000000E+00  0.93827000000E+00 0.  1.
     999902    2    1    2    0    0 -0.13272711014E-01  0.59155162853E-02 -0.16245560936E-02  0.10293081884E+01  0.10292043283E+01 0.  0.
     999903    2    3    3    0    0 -0.11640347748E+00 -0.64011287016E-01 -0.44016465096E-02  0.14052619884E+00  0.45618237950E-01 0.  0.
         14    1    1    2    0    0  0.13272711014E-01 -0.59155162853E-02  0.16245560936E-02  0.14621811552E-01  0.00000000000E+00 0.  1.
     999901    1    3    3    0    0  0.10313076647E+00  0.69926803301E-01  0.27770904160E-02  0.88878198960E+00  0.88000000000E+00 0. -1.
        -11    1    4    4    0    0 -0.81016399211E-01 -0.59253637075E-01  0.12262567724E-01  0.10112013714E+00  0.51100000000E-03 0.  1.
         11    1    4    4    0    0 -0.35387078273E-01 -0.47576499404E-02 -0.16664214234E-01  0.39406061700E-01  0.51100000000E-03 0. -1.
</event>
<event>
 8    1  0.2001339E+004  0.1043930E+01  0.7957747E-01            NaN
         13   -1    0    0    0    0  0.00000000000E+00  0.00000000000E+00  0.74505805969E-08  0.10566000000E+00  0.10566000000E+00 0.  1.
     999900   -1    0    0    0    0 -0.00000000000E+00 -0.00000000000E+00 -0.74505805969E-08  0.93827000000E+00  0.93827000000E+00 0.  1.
     999902    2    1    2    0    0 -0.51334879860E-02  0.10964966876E-01  0.13182490876E-01  0.10260313614E+01  0.10258752328E+01 0.  0.
     999903    2    3    3    0    0  0.10404539438E+00  0.18407338470E-01 -0.71454332159E-01  0.13522340845E+00  0.44892921589E-01 0.  0.
         14    1    1    2    0    0  0.51334879860E-02 -0.10964966876E-01 -0.13182490876E-01  0.17898638584E-01  0.00000000000E+00 0.  1.
     999901    1    3    3    0    0 -0.10917888236E+00 -0.74423715943E-02  0.84636823035E-01  0.89080795296E+00  0.88000000000E+00 0. -1.
        -11    1    4    4    0    0  0.96829671433E-01  0.18444905825E-01 -0.46029666626E-01  0.10878966473E+00  0.51100000000E-03 0. -1.
         11    1    4    4    0    0  0.72157229433E-02 -0.37567354564E-04 -0.25424665533E-01  0.26433743726E-01  0.51100000000E-03 0.  1.
</event>
<event>
 8    1  0.2001339E+004  0.1043930E+01  0.7957747E-01            NaN
         13   -1    0    0    0    0  0.00000000000E+00  0.00000000000E+00  0.74505805969E-08  0.10566000000E+00  0.10566000000E+00 0. -1.
     999900   -1    0    0    0    0 -0.00000000000E+00 -0.00000000000E+00 -0.74505805969E-08  0.93827000000E+00  0.93827000000E+00 0.  1.
     999902    2    1    2    0    0 -0.23765247421E-02 -0.45474049539E-02 -0.12428112234E-01  0.10304843786E+01  0.10303966565E+01 0.  0.
     999903    2    3    3    0    0  0.51310366742E-01 -0.92645134709E-01  0.79720552271E-01  0.13967863731E+00  0.44032721320E-01 0.  0.
         14    1    1    2    0    0  0.23765247421E-02  0.45474049539E-02  0.12428112234E-01  0.13445621420E-01  0.00000000000E+00 0. -1.
     999901    1    3    3    0    0 -0.53686891484E-01  0.88097729755E-01 -0.92148664504E-01  0.89080574127E+00  0.88000000000E+00 0.  1.
        -11    1    4    4    0    0  0.30829578654E-01 -0.81669353718E-01  0.76768717673E-01  0.11624991781E+00  0.51100000000E-03 0. -1.
         11    1    4    4    0    0  0.20480788087E-01 -0.10975780991E-01  0.29518345973E-02  0.23428719503E-01  0.51100000000E-03 0.  1.
</event>
<event>
 8    1  0.2001339E+004  0.1043930E+01  0.7957747E-01            NaN
         13   -1    0    0    0    0  0.00000000000E+00  0.00000000000E+00  0.74505805969E-08  0.10566000000E+00  0.10566000000E+00 0.  1.
     999900   -1    0    0    0    0 -0.00000000000E+00 -0.00000000000E+00 -0.74505805969E-08  0.93827000000E+00  0.93827000000E+00 0. -1.
     999902    2    1    2    0    0  0.55540148681E-02 -0.84342606770E-02  0.88749425325E-02  0.10304857284E+01  0.10303980240E+01 0.  0.
     999903    2    3    3    0    0 -0.68236266730E-01  0.51295015667E-01 -0.10000502912E+00  0.13870804289E+00  0.44176335113E-01 0.  0.
         14    1    1    2    0    0 -0.55540148681E-02  0.84342606770E-02 -0.88749425325E-02  0.13444271616E-01  0.00000000000E+00 0. -1.
     999901    1    3    3    0    0  0.73790281598E-01 -0.59729276344E-01  0.10887997166E+00  0.89177768549E+00  0.88000000000E+00 0. -1.
        -11    1    4    4    0    0 -0.70121331828E-01  0.35328852321E-01 -0.91292853317E-01  0.12041501223E+00  0.51100000000E-03 0.  1.
         11    1    4    4    0    0  0.18850650980E-02  0.15966163346E-01 -0.87121758056E-02  0.18293030659E-01  0.51100000000E-03 0. -1.
</event>
<event>
 7    1  0.2001339E+004  0.1043930E+01  0.7957747E-01            NaN
         13   -1    0    0    0    0  0.00000000000E+00  0.00000000000E+00  0.74505805969E-08  0.10566000000E+00  0.10566000000E+00 0. -1.
     999900   -1    0    0    0    0 -0.00000000000E+00 -0.00000000000E+00 -0.74505805969E-08  0.93827000000E+00  0.93827000000E+00 0. -1.
     999902    2    1    2    0    0 -0.68613851033E-02 -0.12361517576E-01  0.24267902046E-02  0.10295851391E+01  0.10294852032E+01 0.  0.
         14    1    1    2    0    0  0.68613851033E-02  0.12361517576E-01 -0.24267902046E-02  0.14344860858E-01  0.00000000000E+00 0.  1.
     999901    1    3    3    0    0  0.10989822521E-01  0.10711625487E+00 -0.37040108605E-01  0.88733682325E+00  0.88000000000E+00 0. -1.
        -11    1    3    3    0    0 -0.36014776274E-01 -0.10874505475E+00  0.26845646550E-01  0.11765840770E+00  0.51100000000E-03 0.  1.
         11    1    3    3    0    0  0.18163568650E-01 -0.10732717697E-01  0.12621252260E-01  0.24589908191E-01  0.51100000000E-03 0. -1.
</event>
<event>
 8    1  0.2001339E+004  0.1043930E+01  0.7957747E-01            NaN
         13   -1    0    0    0    0  0.00000000000E+00  0.00000000000E+00  0.74505805969E-08  0.10566000000E+00  0.10566000000E+00 0.  1.
     999900   -1    0    0    0    0 -0.00000000000E+00 -0.00000000000E+00 -0.74505805969E-08  0.93827000000E+00  0.93827000000E+00 0.  1.
     999902    2    1    2    0    0  0.14172738164E-01  0.25573399310E-02 -0.22948001788E-03  0.10295265575E+01  0.10294257979E+01 0.  0.
     999903    2    3    3    0    0 -0.52439061994E-01 -0.11520604578E+00  0.34247095892E-01  0.13851927290E+00  0.44636724572E-01 0.  0.
         14    1    1    2    0    0 -0.14172738164E-01 -0.25573399310E-02  0.22948001788E-03  0.14403442493E-01  0.00000000000E+00 0. -1.
     999901    1    3    3    0    0  0.66611800158E-01  0.11776338571E+00 -0.34476575910E-01  0.89100728461E+00  0.88000000000E+00 0.  1.
        -11    1    4    4    0    0 -0.31214603591E-01 -0.22350283732E-01  0.41128056795E-02  0.38614284298E-01  0.51100000000E-03 0. -1.
         11    1    4    4    0    0 -0.21224458404E-01 -0.92855762049E-01  0.30134290213E-01  0.99904988603E-01  0.51100000000E-03 0.  1.
</event>
<event>
 8    1  0.2001339E+004  0.1043930E+01  0.7957747E-01            NaN
         13   -1    0    0    0    0  0.00000000000E+00  0.00000000000E+00  0.74505805969E-08  0.10566000000E+00  0.10566000000E+00 0.  1.
     999900   -1    0    0    0    0 -0.00000000000E+00 -0.00000000000E+00 -0.74505805969E-08  0.93827000000E+00  0.93827000000E+00 0. -1.
     999902    2    1    2    0    0 -0.90057240317E-02  0.87836378250E-02  0.65143199341E-02  0.10297634294E+01  0.10296659792E+01 0.  0.
     999903    2    3    3    0    0  0.70536151637E-01  0.67245404483E-01  0.89170630228E-01  0.14039469046E+00  0.47560221848E-01 0.  0.
         14    1    1    2    0    0  0.90057240317E-02 -0.87836378250E-02 -0.65143199341E-02  0.14166570615E-01  0.00000000000E+00 0. -1.
     999901    1    3    3    0    0 -0.79541875669E-01 -0.58461766658E-01 -0.82656310294E-01  0.88936873893E+00  0.88000000000E+00 0. -1.
        -11    1    4    4    0    0  0.29912804977E-01  0.16684782125E-01  0.57637129863E-02  0.34736714936E-01  0.51100000000E-03 0.  1.
         11    1    4    4    0    0  0.40623346660E-01  0.50560622358E-01  0.83406917242E-01  0.10565797552E+00  0.51100000000E-03 0. -1.
</event>
<event>
 8    1  0.2001339E+004  0.1043930E+01  0.7957747E-01            NaN
         13   -1    0    0    0    0  0.00000000000E+00  0.00000000000E+00  0.74505805969E-08  0.10566000000E+00  0.10566000000E+00 0.  1.
     999900   -1    0    0    0    0 -0.00000000000E+00 -0.00000000000E+00 -0.74505805969E-08  0.93827000000E+00  0.93827000000E+00 0. -1.
     999902    2    1    2    0    0  0.44567066340E-02 -0.44687552256E-02 -0.10011144839E-01  0.10320955153E+01  0.10320276632E+01 0.  0.
     999903    2    3    3    0    0  0.82522036010E-01  0.38747912815E-01 -0.10083601161E+00  0.14293240738E+00  0.44164291772E-01 0.  0.
         14    1    1    2    0    0 -0.44567066340E-02  0.44687552256E-02  0.10011144839E-01  0.11834484707E-01  0.00000000000E+00 0.  1.
     999901    1    3    3    0    0 -0.78065329376E-01 -0.43216668041E-01  0.90824866770E-01  0.88916310791E+00  0.88000000000E+00 0.  1.
        -11    1    4    4    0    0  0.49269671048E-01  0.44988455447E-01 -0.58496100386E-01  0.88732837721E-01  0.51100000000E-03 0.  1.
         11    1    4    4    0    0  0.33252364962E-01 -0.62405426320E-02 -0.42339911224E-01  0.54199569660E-01  0.51100000000E-03 0. -1.
</event>
<event>
 8    1  0.2001339E+004  0.1043930E+01  0.7957747E-01            NaN
         13   -1    0    0    0    0  0.00000000000E+00  0.00000000000E+00  0.74505805969E-08  0.10566000000E+00  0.10566000000E+00 0. -1.
     999900   -1    0    0    0    0 -0.00000000000E+00 -0.00000000000E+00 -0.74505805969E-08  0.93827000000E+00  0.93827000000E+00 0.  1.
     999902    2    1    2    0    0 -0.66841972593E-02 -0.82051916242E-02 -0.32411984218E-03  0.10333418596E+01  0.10332876125E+01 0.  0.
     999903    2    3    3    0    0  0.79072508837E-01  0.90908557986E-01  0.60046707995E-01  0.14158943612E+00  0.43876345687E-01 0.  0.
         14    1    1    2    0    0  0.66841972593E-02  0.82051916242E-02  0.32411984218E-03  0.10588140359E-01  0.00000000000E+00 0. -1.
     999901    1    3    3    0    0 -0.85756706096E-01 -0.99113749610E-01 -0.60370827838E-01  0.89175242352E+00  0.88000000000E+00 0.  1.
        -11    1    4    4    0    0  0.63791839142E-01  0.91597437963E-01  0.58980614551E-01  0.12624762729E+00  0.51100000000E-03 0. -1.
         11    1    4    4    0    0  0.15280669695E-01 -0.68887997696E-03  0.10660934443E-02  0.15341808830E-01  0.51100000000E-03 0.  1.
</event>
<event>
 7    1  0.2001339E+004  0.1043930E+01  0.7957747E-01            NaN
         13   -1    0    0    0    0  0.00000000000E+00  0.00000000000E+00  0.74505805969E-08  0.10566000000E+00  0.10566000000E+00 0.  1.
     999900   -1    0    0    0    0 -0.00000000000E+00 -0.00000000000E+00 -0.74505805969E-08  0.93827000000E+00  0.93827000000E+00 0.  1.
     999903    2    1    2    0    0  0.10476535849E+00  0.25971210920E-01 -0.20706606090E-01  0.11883477157E+00  0.45195743844E-01 0.  0.
         14    1    1    2    0    0 -0.53694617035E-02 -0.37902328062E-01 -0.73272580561E-02  0.38975714261E-01  0.00000000000E+00 0. -1.
     999901    1    1    2    0    0 -0.99395896788E-01  0.11931117142E-01  0.28033864146E-01  0.88611951417E+00  0.88000000000E+00 0.  1.
        -11    1    3    3    0    0  0.73727884154E-01  0.16098532130E-01 -0.35091046196E-01  0.83226235543E-01  0.51100000000E-03 0. -1.
         11    1    3    3    0    0  0.31037474338E-01  0.98726787905E-02  0.14384440106E-01  0.35608536026E-01  0.51100000000E-03 0.  1.
</event>
<event>
 7    1  0.2001339E+004  0.1043930E+01  0.7957747E-01            NaN
         13   -1    0    0    0    0  0.00000000000E+00  0.00000000000E+00  0.74505805969E-08  0.10566000000E+00  0.10566000000E+00 0.  1.
     999900   -1    0    0    0    0 -0.00000000000E+00 -0.00000000000E+00 -0.74505805969E-08  0.93827000000E+00  0.93827000000E+00 0. -1.
     999903    2    1    2    0    0 -0.19701663403E-01 -0.81533719643E-01 -0.40622952491E-01  0.10307296497E+00  0.44021686245E-01 0.  0.
         14    1    1    2    0    0 -0.16615883026E-01 -0.42729025456E-01 -0.18464749353E-01  0.49424732208E-01  0.00000000000E+00 0.  1.
     999901    1    1    2    0    0  0.36317546429E-01  0.12426274510E+00  0.59087701844E-01  0.89143230282E+00  0.88000000000E+00 0. -1.
        -11    1    3    3    0    0 -0.22575733513E-01 -0.19713801088E-01 -0.25520308731E-01  0.39368070511E-01  0.51100000000E-03 0. -1.
         11    1    3    3    0    0  0.28740701103E-02 -0.61819918555E-01 -0.15102643760E-01  0.63704894464E-01  0.51100000000E-03 0.  1.
</event>
<event>
 8    1  0.2001339E+004  0.1043930E+01  0.7957747E-01            NaN
         13   -1    0    0    0    0  0.00000000000E+00  0.00000000000E+00  0.74505805969E-08  0.10566000000E+00  0.10566000000E+00 0. -1.
     999900   -1    0    0    0    0 -0.00000000000E+00 -0.00000000000E+00 -0.74505805969E-08  0.93827000000E+00  0.93827000000E+00 0.  1.
     999902    2    1    2    0    0 -0.17454009799E-02 -0.62167718372E-02  0.12355058612E-01  0.10299893347E+01  0.10298949885E+01 0.  0.
     999903    2    3    3    0    0  0.10793535751E+00 -0.24091101661E-01 -0.71461804035E-01  0.13904902976E+00  0.44692512357E-01 0.  0.
         14    1    1    2    0    0  0.17454009799E-02  0.62167718372E-02 -0.12355058612E-01  0.13940665334E-01  0.00000000000E+00 0. -1.
     999901    1    3    3    0    0 -0.10968075849E+00  0.17874329824E-01  0.83816862647E-01  0.89094030491E+00  0.88000000000E+00 0. -1.
        -11    1    4    4    0    0  0.48568245456E-01 -0.12060037601E-01 -0.58709476329E-01  0.77145205330E-01  0.51100000000E-03 0.  1.
         11    1    4    4    0    0  0.59367112050E-01 -0.12031064060E-01 -0.12752327706E-01  0.61903824426E-01  0.51100000000E-03 0. -1.
</event>
<event>
 8    1  0.2001339E+004  0.1043930E+01  0.7957747E-01            NaN
         13   -1    0    0    0    0  0.00000000000E+00  0.00000000000E+00  0.74505805969E-08  0.10566000000E+00  0.10566000000E+00 0.  1.
     999900   -1    0    0    0    0 -0.00000000000E+00 -0.00000000000E+00 -0.74505805969E-08  0.93827000000E+00  0.93827000000E+00 0.  1.
     999902    2    1    2    0    0 -0.93293861296E-02 -0.81561412078E-02  0.67803621410E-02  0.10298043710E+01  0.10297074871E+01 0.  0.
     999903    2    3    3    0    0 -0.52375006043E-01  0.31755686638E-01 -0.11657016364E+00  0.13926451694E+00  0.45325905787E-01 0.  0.
         14    1    1    2    0    0  0.93293861296E-02  0.81561412078E-02 -0.67803621410E-02  0.14125629038E-01  0.00000000000E+00 0. -1.
     999901    1    3    3    0    0  0.43045619913E-01 -0.39911827846E-01  0.12335052578E+00  0.89053985402E+00  0.88000000000E+00 0. -1.
        -11    1    4    4    0    0 -0.22749482655E-01 -0.96876558471E-02 -0.45992820483E-01  0.52220592622E-01  0.51100000000E-03 0. -1.
         11    1    4    4    0    0 -0.29625523388E-01  0.41443342485E-01 -0.70577343155E-01  0.87043924315E-01  0.51100000000E-03 0.  1.
</event>
<event>
 8    1  0.2001339E+004  0.1043930E+01  0.7957747E-01            NaN
         13   -1    0    0    0    0  0.00000000000E+00  0.00000000000E+00  0.74505805969E-08  0.10566000000E+00  0.10566000000E+00 0.  1.
     999900   -1    0    0    0    0 -0.00000000000E+00 -0.00000000000E+00 -0.74505805969E-08  0.93827000000E+00  0.93827000000E+00 0.  1.
     999902    2    1    2    0    0 -0.13546520344E-01  0.51768229001E-02 -0.13126073973E-02  0.10293687278E+01  0.10292657321E+01 0.  0.
     999903    2    3    3    0    0 -0.46082190932E-01  0.15328332222E-01 -0.12394750501E+00  0.14021129458E+00  0.44019280322E-01 0.  0.
         14    1    1    2    0    0  0.13546520344E-01 -0.51768229001E-02  0.13126073973E-02  0.14561272161E-01  0.00000000000E+00 0.  1.
     999901    1    3    3    0    0  0.32535670588E-01 -0.10151509322E-01  0.12263489761E+00  0.88915743326E+00  0.88000000000E+00 0.  1.
        -11    1    4    4    0    0 -0.42001970372E-01  0.13140721780E-01 -0.52053229105E-01  0.68166295669E-01  0.51100000000E-03 0.  1.
         11    1    4    4    0    0 -0.40802205605E-02  0.21876104427E-02 -0.71894275907E-01  0.72044998914E-01  0.51100000000E-03 0. -1.
</event>
<event>
 8    1  0.2001339E+004  0.1043930E+01  0.7957747E-01            NaN
         13   -1    0    0    0    0  0.00000000000E+00  0.00000000000E+00  0.74505805969E-08  0.10566000000E+00  0.10566000000E+00 0.  1.
     999900   -1    0    0    0    0 -0.00000000000E+00 -0.00000000000E+00 -0.74505805969E-08  0.93827000000E+00  0.93827000000E+00 0.  1.
     999902    2    1    2    0    0 -0.17611978095E-02  0.16071622555E-02  0.14748423558E-01  0.10289900942E+01  0.10288816322E+01 0.  0.
     999903    2    3    3    0    0 -0.75018239451E-01 -0.53047560071E-01 -0.92527641262E-01  0.13777637857E+00  0.44488045747E-01 0.  0.
         14    1    1    2    0    0  0.17611978095E-02 -0.16071622555E-02 -0.14748423558E-01  0.14939905813E-01  0.00000000000E+00 0. -1.
     999901    1    3    3    0    0  0.73257041641E-01  0.54654722326E-01  0.10727606482E+00  0.89121371562E+00  0.88000000000E+00 0. -1.
        -11    1    4    4    0    0  0.20994811814E-02 -0.10473065123E-01 -0.23647533356E-01  0.25953031983E-01  0.51100000000E-03 0.  1.
         11    1    4    4    0    0 -0.77117720632E-01 -0.42574494948E-01 -0.68880107906E-01  0.11182334659E+00  0.51100000000E-03 0. -1.
</event>
<event>
 8    1  0.2001339E+004  0.1043930E+01  0.7957747E-01            NaN
         13   -1    0    0    0    0  0.00000000000E+00  0.00000000000E+00  0.74505805969E-08  0.10566000000E+00  0.10566000000E+00 0. -1.
     999900   -1    0    0    0    0 -0.00000000000E+00 -0.00000000000E+00 -0.74505805969E-08  0.93827000000E+00  0.93827000000E+00 0.  1.
     999902    2    1    2    0    0 -0.50508868562E-02  0.12277485014E-01  0.32137880297E-02  0.10302706980E+01  0.10301801467E+01 0.  0.
     999903    2    3    3    0    0 -0.71175597298E-01 -0.86248356466E-01 -0.69915190754E-01  0.13930062767E+00  0.44852941125E-01 0.  0.
         14    1    1    2    0    0  0.50508868562E-02 -0.12277485014E-01 -0.32137880297E-02  0.13659301952E-01  0.00000000000E+00 0.  1.
     999901    1    3    3    0    0  0.66124710442E-01  0.98525841480E-01  0.73128978784E-01  0.89097007038E+00  0.88000000000E+00 0. -1.
        -11    1    4    4    0    0 -0.19475457987E-01 -0.26898445560E-01 -0.46569187006E-01  0.57199389304E-01  0.51100000000E-03 0.  1.
         11    1    4    4    0    0 -0.51700139311E-01 -0.59349910907E-01 -0.23346003747E-01  0.82101238367E-01  0.51100000000E-03 0. -1.
</event>
<event>
 8    1  0.2001339E+004  0.1043930E+01  0.7957747E-01            NaN
         13   -1    0    0    0    0  0.00000000000E+00  0.00000000000E+00  0.74505805969E-08  0.10566000000E+00  0.10566000000E+00 0. -1.
     999900   -1    0    0    0    0 -0.00000000000E+00 -0.00000000000E+00 -0.74505805969E-08  0.93827000000E+00  0.93827000000E+00 0. -1.
     999902    2    1    2    0    0  0.44871869042E-02 -0.94012454362E-02 -0.87438872009E-02  0.10303294917E+01  0.10302397234E+01 0.  0.
     999903    2    3    3    0    0  0.67356162075E-02 -0.53429027339E-01 -0.12339672896E+00  0.14179768298E+00  0.44494951332E-01 0.  0.
         14    1    1    2    0    0 -0.44871869042E-02  0.94012454362E-02  0.87438872009E-02  0.13600508279E-01  0.00000000000E+00 0. -1.
     999901    1    3    3    0    0 -0.22484293033E-02  0.44027781903E-01  0.11465284176E+00  0.88853180874E+00  0.88000000000E+00 0.  1.
        -11    1    4    4    0    0 -0.17960037853E-01 -0.13403917825E-01 -0.47225903563E-01  0.52275951078E-01  0.51100000000E-03 0. -1.
         11    1    4    4    0    0  0.24695654061E-01 -0.40025109514E-01 -0.76170825395E-01  0.89521731906E-01  0.51100000000E-03 0.  1.
</event>
<event>
 8    1  0.2001339E+004  0.1043930E+01  0.7957747E-01            NaN
         13   -1    0    0    0    0  0.00000000000E+00  0.00000000000E+00  0.74505805969E-08  0.10566000000E+00  0.10566000000E+00 0.  1.
     999900   -1    0    0    0    0 -0.00000000000E+00 -0.00000000000E+00 -0.74505805969E-08  0.93827000000E+00  0.93827000000E+00 0.  1.
     999902    2    1    2    0    0  0.10821325706E-01 -0.48616890253E-02 -0.32053428673E-02  0.10316413331E+01  0.10315681407E+01 0.  0.
     999903    2    3    3    0    0 -0.43902032726E-01 -0.84910389128E-01  0.93553057593E-01  0.14104342814E+00  0.44765068701E-01 0.  0.
         14    1    1    2    0    0 -0.10821325706E-01  0.48616890253E-02  0.32053428673E-02  0.12288666856E-01  0.00000000000E+00 0.  1.
     999901    1    3    3    0    0  0.54723358432E-01  0.80048700103E-01 -0.96758400460E-01  0.89059790501E+00  0.88000000000E+00 0. -1.
        -11    1    4    4    0    0 -0.39594543324E-01 -0.29750078512E-01  0.52273929804E-01  0.72011248362E-01  0.51100000000E-03 0.  1.
         11    1    4    4    0    0 -0.43074894020E-02 -0.55160310616E-01  0.41279127789E-01  0.69032179773E-01  0.51100000000E-03 0. -1.
</event>
<event>
 8    1  0.2001339E+004  0.1043930E+01  0.7957747E-01            NaN
         13   -1    0    0    0    0  0.00000000000E+00  0.00000000000E+00  0.74505805969E-08  0.10566000000E+00  0.10566000000E+00 0. -1.
     999900   -1    0    0    0    0 -0.00000000000E+00 -0.00000000000E+00 -0.74505805969E-08  0.93827000000E+00  0.93827000000E+00 0. -1.
     999902    2    1    2    0    0 -0.20287957773E-02 -0.83423931522E-02  0.11366975860E-01  0.10296850122E+01  0.10295864727E+01 0.  0.
     999903    2    3    3    0    0 -0.95366616932E-01  0.89019627441E-01  0.10691363470E-01  0.13940878075E+00  0.47971003782E-01 0.  0.
         14    1    1    2    0    0  0.20287957773E-02  0.83423931522E-02 -0.11366975860E-01  0.14244987751E-01  0.00000000000E+00 0.  1.
     999901    1    3    3    0    0  0.93337821154E-01 -0.97362020594E-01  0.67561239031E-03  0.89027623149E+00  0.88000000000E+00 0. -1.
        -11    1    4    4    0    0 -0.81813450221E-01  0.66339317124E-01 -0.10057824738E-01  0.10581004958E+00  0.51100000000E-03 0. -1.
         11    1    4    4    0    0 -0.13553166711E-01  0.22680310317E-01  0.20749188208E-01  0.33598731171E-01  0.51100000000E-03 0.  1.
</event>
<event>
 8    1  0.2192973E+004  0.1043930E+01  0.7957747E-01            NaN
         13   -1    0    0    0    0  0.00000000000E+00  0.00000000000E+00  0.74505805969E-08  0.10566000000E+00  0.10566000000E+00 0.  1.
     999900   -1    0    0    0    0 -0.00000000000E+00 -0.00000000000E+00 -0.74505805969E-08  0.93827000000E+00  0.93827000000E+00 0. -1.
     999902    2    1    2    0    0 -0.13911736589E-02  0.81479480049E-02 -0.10002663135E-01  0.10309539571E+01  0.10308722927E+01 0.  0.
     999903    2    3    3    0    0 -0.10344085460E+00  0.38884304866E-01 -0.77116728523E-01  0.14198648926E+00  0.44734480533E-01 0.  0.
         14    1    1    2    0    0  0.13911736589E-02 -0.81479480049E-02  0.10002663135E-01  0.12976042950E-01  0.00000000000E+00 0. -1.
     999901    1    3    3    0    0  0.10204968094E+00 -0.30736356861E-01  0.67114065388E-01  0.88896746779E+00  0.88000000000E+00 0.  1.
        -11    1    4    4    0    0 -0.48338324184E-01  0.32149841180E-01 -0.17752949032E-01  0.60709424253E-01  0.51100000000E-03 0.  1.
         11    1    4    4    0    0 -0.55102530420E-01  0.67344636857E-02 -0.59363779492E-01  0.81277065008E-01  0.51100000000E-03 0. -1.
</event>
<event>
 8    1  0.2001339E+004  0.1043930E+01  0.7957747E-01            NaN
         13   -1    0    0    0    0  0.00000000000E+00  0.00000000000E+00  0.74505805969E-08  0.10566000000E+00  0.10566000000E+00 0.  1.
     999900   -1    0    0    0    0 -0.00000000000E+00 -0.00000000000E+00 -0.74505805969E-08  0.93827000000E+00  0.93827000000E+00 0.  1.
     999902    2    1    2    0    0  0.17698619866E-02  0.13094529526E-01 -0.43428081086E-02  0.10300210426E+01  0.10299271280E+01 0.  0.
     999903    2    3    3    0    0 -0.50833516994E-02 -0.36326116533E-01 -0.12897753408E+00  0.13983949831E+00  0.39679387383E-01 0.  0.
         14    1    1    2    0    0 -0.17698619866E-02 -0.13094529526E-01  0.43428081086E-02  0.13908957445E-01  0.00000000000E+00 0. -1.
     999901    1    3    3    0    0  0.68532136860E-02  0.49420646059E-01  0.12463472597E+00  0.89018154424E+00  0.88000000000E+00 0. -1.
        -11    1    4    4    0    0 -0.21450225630E-01 -0.11809396787E-01 -0.61876376928E-01  0.66547134986E-01  0.51100000000E-03 0.  1.
         11    1    4    4    0    0  0.16366873931E-01 -0.24516719746E-01 -0.67101157153E-01  0.73292363325E-01  0.51100000000E-03 0. -1.
</event>
<event>
 8    1  0.2001339E+004  0.1043930E+01  0.7957747E-01            NaN
         13   -1    0    0    0    0  0.00000000000E+00  0.00000000000E+00  0.74505805969E-08  0.10566000000E+00  0.10566000000E+00 0.  1.
     999900   -1    0    0    0    0 -0.00000000000E+00 -0.00000000000E+00 -0.74505805969E-08  0.93827000000E+00  0.93827000000E+00 0. -1.
     999902    2    1    2    0    0 -0.35753482681E-03 -0.13364616586E-01 -0.45080686028E-02  0.10298210139E+01  0.10297243598E+01 0.  0.
     999903    2    3    3    0    0  0.57552583426E-01  0.11693430465E+00  0.11442540071E-01  0.13820124479E+00  0.44527753987E-01 0.  0.
         14    1    1    2    0    0  0.35753482681E-03  0.13364616586E-01  0.45080686028E-02  0.14108986149E-01  0.00000000000E+00 0. -1.
     999901    1    3    3    0    0 -0.57910118253E-01 -0.13029892123E+00 -0.15950608674E-01  0.89161976906E+00  0.88000000000E+00 0. -1.
        -11    1    4    4    0    0  0.19277835996E-01  0.69901584415E-01  0.23790982085E-01  0.76316042966E-01  0.51100000000E-03 0.  1.
         11    1    4    4    0    0  0.38274747429E-01  0.47032720230E-01 -0.12348442014E-01  0.61885201819E-01  0.51100000000E-03 0. -1.
</event>
<event>
 8    1  0.2001339E+004  0.1043930E+01  0.7957747E-01            NaN
         13   -1    0    0    0    0  0.00000000000E+00  0.00000000000E+00  0.74505805969E-08  0.10566000000E+00  0.10566000000E+00 0. -1.
     999900   -1    0    0    0    0 -0.00000000000E+00 -0.00000000000E+00 -0.74505805969E-08  0.93827000000E+00  0.93827000000E+00 0.  1.
     999902    2    1    2    0    0  0.92607797438E-02 -0.26979765570E-02 -0.11859163112E-01  0.10286433762E+01  0.10285297830E+01 0.  0.
     999903    2    3    3    0    0 -0.96925913208E-01 -0.83537817726E-01  0.24218601299E-01  0.13785030323E+00  0.45199179306E-01 0.  0.
         14    1    1    2    0    0 -0.92607797438E-02  0.26979765570E-02  0.11859163112E-01  0.15286623849E-01  0.00000000000E+00 0. -1.
     999901    1    3    3    0    0  0.10618669295E+00  0.80839841169E-01 -0.36077764412E-01  0.89079307292E+00  0.88000000000E+00 0.  1.
        -11    1    4    4    0    0 -0.31722831834E-02 -0.14980888431E-01  0.14832474246E-01  0.21324957492E-01  0.51100000000E-03 0. -1.
         11    1    4    4    0    0 -0.93753630025E-01 -0.68556929295E-01  0.93861270533E-02  0.11652534574E+00  0.51100000000E-03 0.  1.
</event>
<event>
 8    1  0.2001339E+004  0.1043930E+01  0.7957747E-01            NaN
         13   -1    0    0    0    0  0.00000000000E+00  0.00000000000E+00  0.74505805969E-08  0.10566000000E+00  0.10566000000E+00 0. -1.
     999900   -1    0    0    0    0 -0.00000000000E+00 -0.00000000000E+00 -0.74505805969E-08  0.93827000000E+00  0.93827000000E+00 0.  1.
     999902    2    1    2    0    0 -0.46322239780E-02  0.12646887307E-01 -0.29494243602E-02  0.10301423112E+01  0.10300500381E+01 0.  0.
     999903    2    3    3    0    0 -0.10866806798E+00 -0.95097927187E-02 -0.76738071722E-01  0.14067104144E+00  0.44726111961E-01 0.  0.
         14    1    1    2    0    0  0.46322239780E-02 -0.12646887307E-01  0.29494243602E-02  0.13787688770E-01  0.00000000000E+00 0. -1.
     999901    1    3    3    0    0  0.10403584400E+00  0.22156680026E-01  0.73788647361E-01  0.88947126979E+00  0.88000000000E+00 0. -1.
        -11    1    4    4    0    0 -0.33561004960E-01  0.14294654467E-01 -0.38679563875E-01  0.53169991375E-01  0.51100000000E-03 0. -1.
         11    1    4    4    0    0 -0.75107063022E-01 -0.23804447186E-01 -0.38058507846E-01  0.87501050063E-01  0.51100000000E-03 0.  1.
</event>
<event>
 8    1  0.2001339E+004  0.1043930E+01  0.7957747E-01            NaN
         13   -1    0    0    0    0  0.00000000000E+00  0.00000000000E+00  0.74505805969E-08  0.10566000000E+00  0.10566000000E+00 0.  1.
     999900   -1    0    0    0    0 -0.00000000000E+00 -0.00000000000E+00 -0.74505805969E-08  0.93827000000E+00  0.93827000000E+00 0.  1.
     999902    2    1    2    0    0  0.85130398070E-02  0.91769905192E-02  0.34335388396E-02  0.10309500851E+01  0.10308683717E+01 0.  0.
     999903    2    3    3    0    0  0.83522400186E-01  0.12051364769E-01  0.10510095975E+00  0.14192200307E+00  0.44434406594E-01 0.  0.
         14    1    1    2    0    0 -0.85130398070E-02 -0.91769905192E-02 -0.34335388396E-02  0.12979914896E-01  0.00000000000E+00 0.  1.
     999901    1    3    3    0    0 -0.75009360379E-01 -0.28743742501E-02 -0.10166742091E+00  0.88902808203E+00  0.88000000000E+00 0.  1.
        -11    1    4    4    0    0  0.18476798930E-01  0.98296385112E-02  0.34465912147E-02  0.21216833033E-01  0.51100000000E-03 0. -1.
         11    1    4    4    0    0  0.65045601256E-01  0.22217262581E-02  0.10165436853E+00  0.12070517004E+00  0.51100000000E-03 0.  1.
</event>
<event>
 8    1  0.2001339E+004  0.1043930E+01  0.7957747E-01            NaN
         13   -1    0    0    0    0  0.00000000000E+00  0.00000000000E+00  0.74505805969E-08  0.10566000000E+00  0.10566000000E+00 0. -1.
     999900   -1    0    0    0    0 -0.00000000000E+00 -0.00000000000E+00 -0.74505805969E-08  0.93827000000E+00  0.93827000000E+00 0. -1.
     999902    2    1    2    0    0 -0.89382786648E-02 -0.91008686339E-02 -0.59541620226E-02  0.10298526891E+01  0.10297564715E+01 0.  0.
     999903    2    3    3    0    0  0.12853569822E+00  0.24328344161E-01 -0.66646342418E-02  0.13855189180E+00  0.45154349995E-01 0.  0.
         14    1    1    2    0    0  0.89382786648E-02  0.91008686339E-02  0.59541620226E-02  0.14077310850E-01  0.00000000000E+00 0. -1.
     999901    1    3    3    0    0 -0.13747397689E+00 -0.33429212795E-01  0.71047221916E-03  0.89130079735E+00  0.88000000000E+00 0.  1.
        -11    1    4    4    0    0  0.78956906162E-01 -0.69658250204E-02 -0.96151937293E-02  0.79846282446E-01  0.51100000000E-03 0. -1.
         11    1    4    4    0    0  0.49578792062E-01  0.31294169182E-01  0.29505594875E-02  0.58705609352E-01  0.51100000000E-03 0.  1.
</event>
<event>
 8    1  0.2001339E+004  0.1043930E+01  0.7957747E-01            NaN
         13   -1    0    0    0    0  0.00000000000E+00  0.00000000000E+00  0.74505805969E-08  0.10566000000E+00  0.10566000000E+00 0.  1.
     999900   -1    0    0    0    0 -0.00000000000E+00 -0.00000000000E+00 -0.74505805969E-08  0.93827000000E+00  0.93827000000E+00 0. -1.
     999902    2    1    2    0    0  0.55778147848E-02 -0.31073821071E-02 -0.12743778182E-01  0.10296761681E+01  0.10295775053E+01 0.  0.
     999903    2    3    3    0    0 -0.47796879468E-01  0.19733192114E-01 -0.12296484341E+00  0.14090216250E+00  0.45377594971E-01 0.  0.
         14    1    1    2    0    0 -0.55778147848E-02  0.31073821071E-02  0.12743778182E-01  0.14253831895E-01  0.00000000000E+00 0. -1.
     999901    1    3    3    0    0  0.53374694253E-01 -0.22840574221E-01  0.11022106523E+00  0.88877400560E+00  0.88000000000E+00 0.  1.
        -11    1    4    4    0    0 -0.48918461708E-02  0.23554190914E-01 -0.59669075782E-01  0.64338089762E-01  0.51100000000E-03 0.  1.
         11    1    4    4    0    0 -0.42905033297E-01 -0.38209987996E-02 -0.63295767626E-01  0.76564072740E-01  0.51100000000E-03 0. -1.
</event>
<event>
 8    1  0.2001339E+004  0.1043930E+01  0.7957747E-01            NaN
         13   -1    0    0    0    0  0.00000000000E+00  0.00000000000E+00  0.74505805969E-08  0.10566000000E+00  0.10566000000E+00 0.  1.
     999900   -1    0    0    0    0 -0.00000000000E+00 -0.00000000000E+00 -0.74505805969E-08  0.93827000000E+00  0.93827000000E+00 0. -1.
     999902    2    1    2    0    0 -0.59977808271E-02 -0.10203342036E-01  0.69721025810E-02  0.10301934874E+01  0.10301019026E+01 0.  0.
     999903    2    3    3    0    0 -0.18965539887E-01 -0.27043838467E-01  0.12961084247E+00  0.14143478810E+00  0.45975731613E-01 0.  0.
         14    1    1    2    0    0  0.59977808271E-02  0.10203342036E-01 -0.69721025810E-02  0.13736512584E-01  0.00000000000E+00 0. -1.
     999901    1    3    3    0    0  0.12967759060E-01  0.16840496431E-01 -0.12263873988E+00  0.88875869932E+00  0.88000000000E+00 0. -1.
        -11    1    4    4    0    0  0.47425800902E-02 -0.25343007394E-02  0.85536454115E-01  0.85706830823E-01  0.51100000000E-03 0. -1.
         11    1    4    4    0    0 -0.23708119978E-01 -0.24509537728E-01  0.44074388350E-01  0.55727957274E-01  0.51100000000E-03 0.  1.
</event>
<event>
 8    1  0.2001339E+004  0.1043930E+01  0.7957747E-01            NaN
         13   -1    0    0    0    0  0.00000000000E+00  0.00000000000E+00  0.74505805969E-08  0.10566000000E+00  0.10566000000E+00 0. -1.
     999900   -1    0    0    0    0 -0.00000000000E+00 -0.00000000000E+00 -0.74505805969E-08  0.93827000000E+00  0.93827000000E+00 0.  1.
     999902    2    1    2    0    0  0.10645128135E-01  0.52979199748E-02 -0.66553386704E-02  0.10303035462E+01  0.10302134328E+01 0.  0.
     999903    2    3    3    0    0  0.88165219420E-01 -0.46561081244E-01  0.87544820051E-01  0.14037523989E+00  0.45826545289E-01 0.  0.
         14    1    1    2    0    0 -0.10645128135E-01 -0.52979199748E-02  0.66553386704E-02  0.13626453753E-01  0.00000000000E+00 0.  1.
     999901    1    3    3    0    0 -0.77520091285E-01  0.51859001219E-01 -0.94200158721E-01  0.88992830636E+00  0.88000000000E+00 0.  1.
        -11    1    4    4    0    0  0.49672115601E-01 -0.46761302833E-03  0.39760349770E-01  0.63629272077E-01  0.51100000000E-03 0. -1.
         11    1    4    4    0    0  0.38493103819E-01 -0.46093468216E-01  0.47784470281E-01  0.76745967808E-01  0.51100000000E-03 0.  1.
</event>
<event>
 8    1  0.2001339E+004  0.1043930E+01  0.7957747E-01            NaN
         13   -1    0    0    0    0  0.00000000000E+00  0.00000000000E+00  0.74505805969E-08  0.10566000000E+00  0.10566000000E+00 0. -1.
     999900   -1    0    0    0    0 -0.00000000000E+00 -0.00000000000E+00 -0.74505805969E-08  0.93827000000E+00  0.93827000000E+00 0.  1.
     999902    2    1    2    0    0 -0.79368228675E-02  0.59863103306E-02 -0.94009449193E-02  0.10302476452E+01  0.10301567859E+01 0.  0.
     999903    2    3    3    0    0 -0.78028464711E-01  0.96037421299E-02  0.10670246574E+00  0.13985114582E+00  0.44634668408E-01 0.  0.
         14    1    1    2    0    0  0.79368228675E-02 -0.59863103306E-02  0.94009449193E-02  0.13682354840E-01  0.00000000000E+00 0. -1.
     999901    1    3    3    0    0  0.70091641844E-01 -0.36174317993E-02 -0.11610341066E+00  0.89039649934E+00  0.88000000000E+00 0.  1.
        -11    1    4    4    0    0 -0.13282351808E-01 -0.58602185516E-02  0.51071009529E-01  0.53096818797E-01  0.51100000000E-03 0.  1.
         11    1    4    4    0    0 -0.64746112903E-01  0.15463960682E-01  0.55631456212E-01  0.86754327023E-01  0.51100000000E-03 0. -1.
</event>
<event>
 8    1  0.2001339E+004  0.1043930E+01  0.7957747E-01            NaN
         13   -1    0    0    0    0  0.00000000000E+00  0.00000000000E+00  0.74505805969E-08  0.10566000000E+00  0.10566000000E+00 0.  1.
     999900   -1    0    0    0    0 -0.00000000000E+00 -0.00000000000E+00 -0.74505805969E-08  0.93827000000E+00  0.93827000000E+00 0. -1.
     999902    2    1    2    0    0  0.20829835552E-02 -0.63147254014E-03 -0.13557269696E-01  0.10301991173E+01  0.10301076080E+01 0.  0.
     999903    2    3    3    0    0 -0.78350737505E-01 -0.94609664138E-01 -0.50464149385E-01  0.14078155409E+00  0.46722467651E-01 0.  0.
         14    1    1    2    0    0 -0.20829835552E-02  0.63147254014E-03  0.13557269696E-01  0.13730882698E-01  0.00000000000E+00 0.  1.
     999901    1    3    3    0    0  0.80433721060E-01  0.93978191597E-01  0.36906879689E-01  0.88941756321E+00  0.88000000000E+00 0. -1.
        -11    1    4    4    0    0 -0.36203128466E-01 -0.75218366356E-01 -0.21926694923E-01  0.86310545238E-01  0.51100000000E-03 0.  1.
         11    1    4    4    0    0 -0.42147609039E-01 -0.19391297781E-01 -0.28537454461E-01  0.54471008853E-01  0.51100000000E-03 0. -1.
</event>
<event>
 8    1  0.2001339E+004  0.1043930E+01  0.7957747E-01            NaN
         13   -1    0    0    0    0  0.00000000000E+00  0.00000000000E+00  0.74505805969E-08  0.10566000000E+00  0.10566000000E+00 0.  1.
     999900   -1    0    0    0    0 -0.00000000000E+00 -0.00000000000E+00 -0.74505805969E-08  0.93827000000E+00  0.93827000000E+00 0.  1.
     999902    2    1    2    0    0  0.34869963474E-02 -0.12369612922E-01  0.46422769393E-02  0.10302655497E+01  0.10301749296E+01 0.  0.
     999903    2    3    3    0    0  0.51464776279E-01 -0.95005590309E-01 -0.79198942994E-01  0.14113118285E+00  0.44394288063E-01 0.  0.
         14    1    1    2    0    0 -0.34869963474E-02  0.12369612922E-01 -0.46422769393E-02  0.13664450320E-01  0.00000000000E+00 0.  1.
     999901    1    3    3    0    0 -0.47977779932E-01  0.82635977388E-01  0.83841219933E-01  0.88913436683E+00  0.88000000000E+00 0. -1.
        -11    1    4    4    0    0  0.37444040892E-01 -0.35200600299E-01 -0.18094213496E-01  0.54486696934E-01  0.51100000000E-03 0.  1.
         11    1    4    4    0    0  0.14020735387E-01 -0.59804990010E-01 -0.61104729498E-01  0.86644485912E-01  0.51100000000E-03 0. -1.
</event>
<event>
 8    1  0.2001339E+004  0.1043930E+01  0.7957747E-01            NaN
         13   -1    0    0    0    0  0.00000000000E+00  0.00000000000E+00  0.74505805969E-08  0.10566000000E+00  0.10566000000E+00 0. -1.
     999900   -1    0    0    0    0 -0.00000000000E+00 -0.00000000000E+00 -0.74505805969E-08  0.93827000000E+00  0.93827000000E+00 0. -1.
     999902    2    1    2    0    0 -0.93081449614E-02 -0.68382927053E-02 -0.76185535602E-02  0.10300935927E+01  0.10300006619E+01 0.  0.
     999903    2    3    3    0    0 -0.84043597408E-01  0.80320461341E-01 -0.60827366211E-01  0.14104173028E+00  0.51750347095E-01 0.  0.
         14    1    1    2    0    0  0.93081449614E-02  0.68382927053E-02  0.76185535602E-02  0.13836407341E-01  0.00000000000E+00 0. -1.
     999901    1    3    3    0    0  0.74735452447E-01 -0.87158754046E-01  0.53208812650E-01  0.88905186238E+00  0.88000000000E+00 0.  1.
        -11    1    4    4    0    0 -0.39536767878E-01  0.54961196436E-01 -0.58961196194E-01  0.89780693390E-01  0.51100000000E-03 0.  1.
         11    1    4    4    0    0 -0.44506829530E-01  0.25359264905E-01 -0.18661700164E-02  0.51261036888E-01  0.51100000000E-03 0. -1.
</event>
<event>
 8    1  0.2001339E+004  0.1043930E+01  0.7957747E-01            NaN
         13   -1    0    0    0    0  0.00000000000E+00  0.00000000000E+00  0.74505805969E-08  0.10566000000E+00  0.10566000000E+00 0.  1.
     999900   -1    0    0    0    0 -0.00000000000E+00 -0.00000000000E+00 -0.74505805969E-08  0.93827000000E+00  0.93827000000E+00 0. -1.
     999902    2    1    2    0    0 -0.12138325371E-01 -0.23694753086E-02 -0.67455161220E-03  0.10315441865E+01  0.10314698252E+01 0.  0.
     999903    2    3    3    0    0 -0.63483148076E-01  0.55385766195E-01 -0.10510648447E+00  0.14200611124E+00  0.44951856088E-01 0.  0.
         14    1    1    2    0    0  0.12138325371E-01  0.23694753086E-02  0.67455161220E-03  0.12385813495E-01  0.00000000000E+00 0.  1.
     999901    1    3    3    0    0  0.51344822705E-01 -0.57755241503E-01  0.10443193286E+00  0.88953807526E+00  0.88000000000E+00 0. -1.
        -11    1    4    4    0    0 -0.16495099353E-01 -0.27604909207E-02 -0.58097199344E-02  0.17712215545E-01  0.51100000000E-03 0. -1.
         11    1    4    4    0    0 -0.46988048723E-01  0.58146257115E-01 -0.99296764537E-01  0.12429389570E+00  0.51100000000E-03 0.  1.
</event>
<event>
 8    1  0.2001339E+004  0.1043930E+01  0.7957747E-01            NaN
         13   -1    0    0    0    0  0.00000000000E+00  0.00000000000E+00  0.74505805969E-08  0.10566000000E+00  0.10566000000E+00 0. -1.
     999900   -1    0    0    0    0 -0.00000000000E+00 -0.00000000000E+00 -0.74505805969E-08  0.93827000000E+00  0.93827000000E+00 0.  1.
     999902    2    1    2    0    0  0.13314013936E-01 -0.17931250845E-01 -0.11983125131E-01  0.10185846254E+01  0.10182692430E+01 0.  0.
     999903    2    3    3    0    0  0.12052305701E-01  0.11774982345E+00 -0.10539169039E-02  0.12811823448E+00  0.49019305071E-01 0.  0.
         14    1    1    2    0    0 -0.13314013936E-01  0.17931250845E-01  0.11983125131E-01  0.25345374565E-01  0.00000000000E+00 0.  1.
     999901    1    3    3    0    0  0.12617082343E-02 -0.13568107430E+00 -0.10929208228E-01  0.89046639096E+00  0.88000000000E+00 0.  1.
        -11    1    4    4    0    0  0.26277335845E-02  0.19184192866E-01  0.18953656312E-01  0.27100561772E-01  0.51100000000E-03 0.  1.
         11    1    4    4    0    0  0.94245721169E-02  0.98565630585E-01 -0.20007573216E-01  0.10101767271E+00  0.51100000000E-03 0. -1.
</event>
<event>
 8    1  0.2006969E+004  0.1043930E+01  0.7957747E-01            NaN
         13   -1    0    0    0    0  0.00000000000E+00  0.00000000000E+00  0.74505805969E-08  0.10566000000E+00  0.10566000000E+00 0. -1.
     999900   -1    0    0    0    0 -0.00000000000E+00 -0.00000000000E+00 -0.74505805969E-08  0.93827000000E+00  0.93827000000E+00 0.  1.
     999902    2    1    2    0    0  0.56960426520E-02  0.11925542123E-01 -0.60461736885E-02  0.10293966015E+01  0.10292940024E+01 0.  0.
     999903    2    3    3    0    0  0.71051844717E-01 -0.35207742162E-02 -0.11255206600E+00  0.14043458053E+00  0.44644634161E-01 0.  0.
         14    1    1    2    0    0 -0.56960426520E-02 -0.11925542123E-01  0.60461736885E-02  0.14533398539E-01  0.00000000000E+00 0. -1.
     999901    1    3    3    0    0 -0.65355802065E-01  0.15446316339E-01  0.10650589232E+00  0.88896202093E+00  0.88000000000E+00 0. -1.
        -11    1    4    4    0    0  0.61887424872E-01 -0.10630477491E-01 -0.60838188191E-01  0.87433441385E-01  0.51100000000E-03 0.  1.
         11    1    4    4    0    0  0.91644198454E-02  0.71097032753E-02 -0.51713877813E-01  0.53001139150E-01  0.51100000000E-03 0. -1.
</event>
<event>
 8    1  0.2001339E+004  0.1043930E+01  0.7957747E-01            NaN
         13   -1    0    0    0    0  0.00000000000E+00  0.00000000000E+00  0.74505805969E-08  0.10566000000E+00  0.10566000000E+00 0.  1.
     999900   -1    0    0    0    0 -0.00000000000E+00 -0.00000000000E+00 -0.74505805969E-08  0.93827000000E+00  0.93827000000E+00 0.  1.
     999902    2    1    2    0    0  0.22083101732E-02  0.13096057940E-01  0.81960478371E-02  0.10283236370E+01  0.10282052051E+01 0.  0.
     999903    2    3    3    0    0 -0.38002027614E-02  0.27264543354E-01  0.12944905002E+00  0.13987603650E+00  0.45281918799E-01 0.  0.
         14    1    1    2    0    0 -0.22083101732E-02 -0.13096057940E-01 -0.81960478371E-02  0.15606363047E-01  0.00000000000E+00 0. -1.
     999901    1    3    3    0    0  0.60085129346E-02 -0.14168485413E-01 -0.12125300219E+00  0.88844760045E+00  0.88000000000E+00 0.  1.
        -11    1    4    4    0    0  0.13767098436E-01  0.30482365103E-01  0.99830676976E-01  0.10528595713E+00  0.51100000000E-03 0. -1.
         11    1    4    4    0    0 -0.17567301198E-01 -0.32178217492E-02  0.29618373049E-01  0.34590079376E-01  0.51100000000E-03 0.  1.
</event>
<event>
 8    1  0.2001339E+004  0.1043930E+01  0.7957747E-01            NaN
         13   -1    0    0    0    0  0.00000000000E+00  0.00000000000E+00  0.74505805969E-08  0.10566000000E+00  0.10566000000E+00 0. -1.
     999900   -1    0    0    0    0 -0.00000000000E+00 -0.00000000000E+00 -0.74505805969E-08  0.93827000000E+00  0.93827000000E+00 0.  1.
     999902    2    1    2    0    0  0.81452257209E-02  0.93506190324E-02  0.99593207675E-02  0.10280250684E+01  0.10279020257E+01 0.  0.
     999903    2    3    3    0    0 -0.91619073533E-01  0.82742087327E-01  0.41931759185E-01  0.13877737523E+00  0.47545554977E-01 0.  0.
         14    1    1    2    0    0 -0.81452257209E-02 -0.93506190324E-02 -0.99593207675E-02  0.15904931577E-01  0.00000000000E+00 0.  1.
     999901    1    3    3    0    0  0.99764299254E-01 -0.73391468294E-01 -0.31972438418E-01  0.88924769319E+00  0.88000000000E+00 0.  1.
        -11    1    4    4    0    0 -0.82965244693E-01  0.47838317016E-01  0.36073813889E-01  0.10233922792E+00  0.51100000000E-03 0.  1.
         11    1    4    4    0    0 -0.86538288392E-02  0.34903770310E-01  0.58579452966E-02  0.36438147312E-01  0.51100000000E-03 0. -1.
</event>
<event>
 8    1  0.2001339E+004  0.1043930E+01  0.7957747E-01            NaN
         13   -1    0    0    0    0  0.00000000000E+00  0.00000000000E+00  0.74505805969E-08  0.10566000000E+00  0.10566000000E+00 0.  1.
     999900   -1    0    0    0    0 -0.00000000000E+00 -0.00000000000E+00 -0.74505805969E-08  0.93827000000E+00  0.93827000000E+00 0. -1.
     999902    2    1    2    0    0 -0.58324801797E-02 -0.12878627575E-02  0.12570788755E-01  0.10300123441E+01  0.10299183113E+01 0.  0.
     999903    2    3    3    0    0 -0.90356042839E-01 -0.76054819136E-01  0.63480027859E-01  0.14134700719E+00  0.44729324995E-01 0.  0.
         14    1    1    2    0    0  0.58324801797E-02  0.12878627575E-02 -0.12570788755E-01  0.13917655889E-01  0.00000000000E+00 0. -1.
     999901    1    3    3    0    0  0.84523562659E-01  0.74766956378E-01 -0.50909239104E-01  0.88866533692E+00  0.88000000000E+00 0. -1.
        -11    1    4    4    0    0 -0.48182188260E-01 -0.20309446879E-01  0.97758271029E-02  0.53196097738E-01  0.51100000000E-03 0. -1.
         11    1    4    4    0    0 -0.42173854579E-01 -0.55745372256E-01  0.53704200756E-01  0.88150909456E-01  0.51100000000E-03 0.  1.
</event>
<event>
 8    1  0.2001339E+004  0.1043930E+01  0.7957747E-01            NaN
         13   -1    0    0    0    0  0.00000000000E+00  0.00000000000E+00  0.74505805969E-08  0.10566000000E+00  0.10566000000E+00 0.  1.
     999900   -1    0    0    0    0 -0.00000000000E+00 -0.00000000000E+00 -0.74505805969E-08  0.93827000000E+00  0.93827000000E+00 0. -1.
     999902    2    1    2    0    0  0.17750901529E-03 -0.40980007359E-02  0.12757458846E-01  0.10305293330E+01  0.10304422004E+01 0.  0.
     999903    2    3    3    0    0 -0.12835222941E+00  0.32246732935E-01  0.16755985250E-01  0.14044123539E+00  0.43918458269E-01 0.  0.
         14    1    1    2    0    0 -0.17750901529E-03  0.40980007359E-02 -0.12757458846E-01  0.13400666987E-01  0.00000000000E+00 0. -1.
     999901    1    3    3    0    0  0.12852973842E+00 -0.36344733671E-01 -0.39985264042E-02  0.89008809763E+00  0.88000000000E+00 0. -1.
        -11    1    4    4    0    0 -0.43482102255E-01 -0.99538635623E-02  0.70071085414E-02  0.45156763695E-01  0.51100000000E-03 0.  1.
         11    1    4    4    0    0 -0.84870127151E-01  0.42200596497E-01  0.97488767086E-02  0.95284471691E-01  0.51100000000E-03 0. -1.
</event>
<event>
 8    1  0.2001339E+004  0.1043930E+01  0.7957747E-01            NaN
         13   -1    0    0    0    0  0.00000000000E+00  0.00000000000E+00  0.74505805969E-08  0.10566000000E+00  0.10566000000E+00 0.  1.
     999900   -1    0    0    0    0 -0.00000000000E+00 -0.00000000000E+00 -0.74505805969E-08  0.93827000000E+00  0.93827000000E+00 0.  1.
     999902    2    1    2    0    0  0.10400434741E-01 -0.68485784342E-02 -0.48741710609E-02  0.10305572810E+01  0.10304705138E+01 0.  0.
     999903    2    3    3    0    0  0.52797336736E-01 -0.11438465936E+00  0.45791058658E-01  0.14155307884E+00  0.45486745445E-01 0.  0.
         14    1    1    2    0    0 -0.10400434741E-01  0.68485784342E-02  0.48741710609E-02  0.13372718979E-01  0.00000000000E+00 0.  1.
     999901    1    3    3    0    0 -0.42396901995E-01  0.10753608093E+00 -0.50665229719E-01  0.88900420218E+00  0.88000000000E+00 0.  1.
        -11    1    4    4    0    0  0.22630467335E-01 -0.69392260026E-01  0.39390601738E-02  0.73097203226E-01  0.51100000000E-03 0. -1.
         11    1    4    4    0    0  0.30166869401E-01 -0.44992399335E-01  0.41851998485E-01  0.68455875610E-01  0.51100000000E-03 0.  1.
</event>
<event>
 8    1  0.2001339E+004  0.1043930E+01  0.7957747E-01            NaN
         13   -1    0    0    0    0  0.00000000000E+00  0.00000000000E+00  0.74505805969E-08  0.10566000000E+00  0.10566000000E+00 0.  1.
     999900   -1    0    0    0    0 -0.00000000000E+00 -0.00000000000E+00 -0.74505805969E-08  0.93827000000E+00  0.93827000000E+00 0. -1.
     999902    2    1    2    0    0  0.11619820801E-01 -0.75397945461E-02  0.21423551587E-02  0.10299136373E+01  0.10298182567E+01 0.  0.
     999903    2    3    3    0    0 -0.31116935019E-01  0.94510905903E-01 -0.85112637391E-01  0.13870422899E+00  0.45761633683E-01 0.  0.
         14    1    1    2    0    0 -0.11619820801E-01  0.75397945461E-02 -0.21423551587E-02  0.14016362683E-01  0.00000000000E+00 0.  1.
     999901    1    3    3    0    0  0.42736755820E-01 -0.10205070045E+00  0.87254992550E-01  0.89120940832E+00  0.88000000000E+00 0.  1.
        -11    1    4    4    0    0 -0.34915369612E-01  0.50112877840E-01 -0.66829483121E-01  0.90536315894E-01  0.51100000000E-03 0.  1.
         11    1    4    4    0    0  0.37984345928E-02  0.44398028063E-01 -0.18283154270E-01  0.48167913099E-01  0.51100000000E-03 0. -1.
</event>
<event>
 8    1  0.2001339E+004  0.1043930E+01  0.7957747E-01            NaN
         13   -1    0    0    0    0  0.00000000000E+00  0.00000000000E+00  0.74505805969E-08  0.10566000000E+00  0.10566000000E+00 0.  1.
     999900   -1    0    0    0    0 -0.00000000000E+00 -0.00000000000E+00 -0.74505805969E-08  0.93827000000E+00  0.93827000000E+00 0.  1.
     999902    2    1    2    0    0  0.14041308804E-01  0.30953031056E-02  0.51924202456E-02  0.10286427346E+01  0.10285291318E+01 0.  0.
     999903    2    3    3    0    0  0.44047817559E-02  0.44977875381E-01 -0.12277148019E+00  0.13834965237E+00  0.45004206333E-01 0.  0.
         14    1    1    2    0    0 -0.14041308804E-01 -0.30953031056E-02 -0.51924202456E-02  0.15287265362E-01  0.00000000000E+00 0. -1.
     999901    1    3    3    0    0  0.96365270484E-02 -0.41882572275E-01  0.12796390044E+00  0.89029308226E+00  0.88000000000E+00 0. -1.
        -11    1    4    4    0    0  0.21609578429E-01  0.32278754165E-01 -0.55393691210E-01  0.67658066757E-01  0.51100000000E-03 0. -1.
         11    1    4    4    0    0 -0.17204796673E-01  0.12699121215E-01 -0.67377788979E-01  0.70691585616E-01  0.51100000000E-03 0.  1.
</event>
<event>
 8    1  0.2001339E+004  0.1043930E+01  0.7957747E-01            NaN
         13   -1    0    0    0    0  0.00000000000E+00  0.00000000000E+00  0.74505805969E-08  0.10566000000E+00  0.10566000000E+00 0. -1.
     999900   -1    0    0    0    0 -0.00000000000E+00 -0.00000000000E+00 -0.74505805969E-08  0.93827000000E+00  0.93827000000E+00 0. -1.
     999902    2    1    2    0    0 -0.33002421857E-02  0.13037424375E-01 -0.30201665314E-02  0.10301464069E+01  0.10300541890E+01 0.  0.
     999903    2    3    3    0    0  0.36151859759E-01  0.12592229007E+00  0.28147818470E-01  0.14151211512E+00  0.45497241015E-01 0.  0.
         14    1    1    2    0    0  0.33002421857E-02 -0.13037424375E-01  0.30201665314E-02  0.13783593098E-01  0.00000000000E+00 0.  1.
     999901    1    3    3    0    0 -0.39452101945E-01 -0.11288486569E+00 -0.31167985001E-01  0.88863429179E+00  0.88000000000E+00 0. -1.
        -11    1    4    4    0    0  0.11214384582E-01  0.10132297725E-01  0.16676251418E-01  0.22511871559E-01  0.51100000000E-03 0.  1.
         11    1    4    4    0    0  0.24937475177E-01  0.11578999234E+00  0.11471567052E-01  0.11900024356E+00  0.51100000000E-03 0. -1.
</event>
<event>
 8    1  0.2001339E+004  0.1043930E+01  0.7957747E-01            NaN
         13   -1    0    0    0    0  0.00000000000E+00  0.00000000000E+00  0.74505805969E-08  0.10566000000E+00  0.10566000000E+00 0.  1.
     999900   -1    0    0    0    0 -0.00000000000E+00 -0.00000000000E+00 -0.74505805969E-08  0.93827000000E+00  0.93827000000E+00 0.  1.
     999902    2    1    2    0    0  0.53244591672E-02  0.13255803260E-01  0.92664617277E-04  0.10296445258E+01  0.10295454214E+01 0.  0.
     999903    2    3    3    0    0 -0.42424594896E-01 -0.11206882425E+00 -0.51826658105E-01  0.13797090253E+00  0.44617259355E-01 0.  0.
         14    1    1    2    0    0 -0.53244591672E-02 -0.13255803260E-01 -0.92664617277E-04  0.14285474168E-01  0.00000000000E+00 0.  1.
     999901    1    3    3    0    0  0.47749054063E-01  0.12532462751E+00  0.51919322722E-01  0.89167362330E+00  0.88000000000E+00 0.  1.
        -11    1    4    4    0    0 -0.19394385055E-01 -0.75194376331E-02 -0.87554267674E-02  0.22574382225E-01  0.51100000000E-03 0.  1.
         11    1    4    4    0    0 -0.23030209842E-01 -0.10454938662E+00 -0.43071231337E-01  0.11539652030E+00  0.51100000000E-03 0. -1.
</event>
<event>
 8    1  0.2001339E+004  0.1043930E+01  0.7957747E-01            NaN
         13   -1    0    0    0    0  0.00000000000E+00  0.00000000000E+00  0.74505805969E-08  0.10566000000E+00  0.10566000000E+00 0.  1.
     999900   -1    0    0    0    0 -0.00000000000E+00 -0.00000000000E+00 -0.74505805969E-08  0.93827000000E+00  0.93827000000E+00 0.  1.
     999902    2    1    2    0    0 -0.10868899731E-01  0.40582132414E-02  0.59906766583E-02  0.10308728072E+01  0.10307901117E+01 0.  0.
     999903    2    3    3    0    0 -0.16976091376E-01 -0.75212711634E-01  0.10932594011E+00  0.14126651567E+00  0.45375407415E-01 0.  0.
         14    1    1    2    0    0  0.10868899731E-01 -0.40582132414E-02 -0.59906766583E-02  0.13057192765E-01  0.00000000000E+00 0.  1.
     999901    1    3    3    0    0  0.61071916451E-02  0.79270924876E-01 -0.10333526345E+00  0.88960629157E+00  0.88000000000E+00 0.  1.
        -11    1    4    4    0    0  0.12627599700E-01 -0.59447492219E-02  0.20394592414E-01  0.24718350233E-01  0.51100000000E-03 0. -1.
         11    1    4    4    0    0 -0.29603691077E-01 -0.69267962412E-01  0.88931347698E-01  0.11654816544E+00  0.51100000000E-03 0.  1.
</event>
<event>
 8    1  0.2001339E+004  0.1043930E+01  0.7957747E-01            NaN
         13   -1    0    0    0    0  0.00000000000E+00  0.00000000000E+00  0.74505805969E-08  0.10566000000E+00  0.10566000000E+00 0.  1.
     999900   -1    0    0    0    0 -0.00000000000E+00 -0.00000000000E+00 -0.74505805969E-08  0.93827000000E+00  0.93827000000E+00 0.  1.
     999902    2    1    2    0    0  0.12404573077E-01 -0.43497340261E-02 -0.30929756487E-02  0.10304259222E+01  0.10303374306E+01 0.  0.
     999903    2    3    3    0    0  0.63032031346E-01 -0.11391010638E+00  0.31237277416E-01  0.14152481351E+00  0.45879799777E-01 0.  0.
         14    1    1    2    0    0 -0.12404573077E-01  0.43497340261E-02  0.30929756487E-02  0.13504077817E-01  0.00000000000E+00 0.  1.
     999901    1    3    3    0    0 -0.50627458269E-01  0.10956037236E+00 -0.34330253065E-01  0.88890110867E+00  0.88000000000E+00 0.  1.
        -11    1    4    4    0    0  0.66001925218E-01 -0.99739719877E-01  0.16284694765E-01  0.12070508795E+00  0.51100000000E-03 0.  1.
         11    1    4    4    0    0 -0.29698938722E-02 -0.14170386505E-01  0.14952582652E-01  0.20819725557E-01  0.51100000000E-03 0. -1.
</event>
<event>
 8    1  0.2001339E+004  0.1043930E+01  0.7957747E-01            NaN
         13   -1    0    0    0    0  0.00000000000E+00  0.00000000000E+00  0.74505805969E-08  0.10566000000E+00  0.10566000000E+00 0. -1.
     999900   -1    0    0    0    0 -0.00000000000E+00 -0.00000000000E+00 -0.74505805969E-08  0.93827000000E+00  0.93827000000E+00 0. -1.
     999902    2    1    2    0    0 -0.16810181515E-01 -0.99940526737E-04  0.47317278809E-02  0.10264662822E+01  0.10263177125E+01 0.  0.
     999903    2    3    3    0    0 -0.89266008440E-01  0.84840181181E-01  0.44507412667E-01  0.13852102700E+00  0.45176194319E-01 0.  0.
         14    1    1    2    0    0  0.16810181515E-01  0.99940526737E-04 -0.47317278809E-02  0.17463717801E-01  0.00000000000E+00 0.  1.
     999901    1    3    3    0    0  0.72455826925E-01 -0.84940121708E-01 -0.39775684786E-01  0.88794525520E+00  0.88000000000E+00 0. -1.
        -11    1    4    4    0    0 -0.80098558237E-01  0.58138412552E-01  0.48122910280E-01  0.11005421237E+00  0.51100000000E-03 0.  1.
         11    1    4    4    0    0 -0.91674502033E-02  0.26701768629E-01 -0.36154976132E-02  0.28466814630E-01  0.51100000000E-03 0. -1.
</event>
<event>
 8    1  0.2001339E+004  0.1043930E+01  0.7957747E-01            NaN
         13   -1    0    0    0    0  0.00000000000E+00  0.00000000000E+00  0.74505805969E-08  0.10566000000E+00  0.10566000000E+00 0. -1.
     999900   -1    0    0    0    0 -0.00000000000E+00 -0.00000000000E+00 -0.74505805969E-08  0.93827000000E+00  0.93827000000E+00 0. -1.
     999902    2    1    2    0    0  0.44610356799E-02 -0.12365688830E-01  0.33682137855E-02  0.10303595924E+01  0.10302702236E+01 0.  0.
     999903    2    3    3    0    0  0.13257007794E+00  0.22830190191E-01 -0.24286951564E-01  0.13995772534E+00  0.30037738194E-01 0.  0.
         14    1    1    2    0    0 -0.44610356799E-02  0.12365688830E-01 -0.33682137855E-02  0.13570407646E-01  0.00000000000E+00 0. -1.
     999901    1    3    3    0    0 -0.12810904226E+00 -0.35195879021E-01  0.27655165349E-01  0.89040186701E+00  0.88000000000E+00 0.  1.
        -11    1    4    4    0    0  0.27368384341E-01  0.39670683372E-02  0.71148830696E-02  0.28559565380E-01  0.51100000000E-03 0.  1.
         11    1    4    4    0    0  0.10520169360E+00  0.18863121854E-01 -0.31401834633E-01  0.11139815996E+00  0.51100000000E-03 0. -1.
</event>
<event>
 8    1  0.2001339E+004  0.1043930E+01  0.7957747E-01            NaN
         13   -1    0    0    0    0  0.00000000000E+00  0.00000000000E+00  0.74505805969E-08  0.10566000000E+00  0.10566000000E+00 0.  1.
     999900   -1    0    0    0    0 -0.00000000000E+00 -0.00000000000E+00 -0.74505805969E-08  0.93827000000E+00  0.93827000000E+00 0. -1.
     999902    2    1    2    0    0 -0.53924425207E-02  0.61836954084E-02  0.93337541363E-02  0.10315027923E+01  0.10314279301E+01 0.  0.
     999903    2    3    3    0    0  0.48255695207E-01 -0.10587013203E+00  0.65850097356E-01  0.14098143938E+00  0.44748563697E-01 0.  0.
         14    1    1    2    0    0  0.53924425207E-02 -0.61836954084E-02 -0.93337541363E-02  0.12427207712E-01  0.00000000000E+00 0. -1.
     999901    1    3    3    0    0 -0.53648137728E-01  0.11205382744E+00 -0.56516343220E-01  0.89052135290E+00  0.88000000000E+00 0. -1.
        -11    1    4    4    0    0  0.12551704541E-01 -0.28802095455E-01  0.42569203491E-01  0.52910341110E-01  0.51100000000E-03 0.  1.
         11    1    4    4    0    0  0.35703990667E-01 -0.77068036576E-01  0.23280893865E-01  0.88071098275E-01  0.51100000000E-03 0. -1.
</event>
<event>
 8    1  0.2001339E+004  0.1043930E+01  0.7957747E-01            NaN
         13   -1    0    0    0    0  0.00000000000E+00  0.00000000000E+00  0.74505805969E-08  0.10566000000E+00  0.10566000000E+00 0.  1.
     999900   -1    0    0    0    0 -0.00000000000E+00 -0.00000000000E+00 -0.74505805969E-08  0.93827000000E+00  0.93827000000E+00 0. -1.
     999902    2    1    2    0    0  0.52327248209E-02 -0.93504582597E-02  0.10631578078E-01  0.10288355331E+01  0.10287247986E+01 0.  0.
     999903    2    3    3    0    0  0.11955090427E+00 -0.23286512859E-01  0.52892477488E-01  0.14032619528E+00  0.45377819625E-01 0.  0.
         14    1    1    2    0    0 -0.52327248209E-02  0.93504582597E-02 -0.10631578078E-01  0.15094466905E-01  0.00000000000E+00 0. -1.
     999901    1    3    3    0    0 -0.11431817945E+00  0.13936054599E-01 -0.42260899410E-01  0.88850933782E+00  0.88000000000E+00 0.  1.
        -11    1    4    4    0    0  0.89424242822E-01  0.37341997066E-02  0.36595590068E-01  0.96696110497E-01  0.51100000000E-03 0. -1.
         11    1    4    4    0    0  0.30126661446E-01 -0.27020712565E-01  0.16296887419E-01  0.43630084781E-01  0.51100000000E-03 0.  1.
</event>
<event>
 8    1  0.2001339E+004  0.1043930E+01  0.7957747E-01            NaN
         13   -1    0    0    0    0  0.00000000000E+00  0.00000000000E+00  0.74505805969E-08  0.10566000000E+00  0.10566000000E+00 0. -1.
     999900   -1    0    0    0    0 -0.00000000000E+00 -0.00000000000E+00 -0.74505805969E-08  0.93827000000E+00  0.93827000000E+00 0. -1.
     999902    2    1    2    0    0  0.56473120602E-02  0.64500065560E-02  0.11378935076E-01  0.10296830747E+01  0.10295845081E+01 0.  0.
     999903    2    3    3    0    0 -0.11971152858E-01 -0.11934793694E+00  0.56604695563E-01  0.13941294582E+00  0.42949264829E-01 0.  0.
         14    1    1    2    0    0 -0.56473120602E-02 -0.64500065560E-02 -0.11378935076E-01  0.14246925337E-01  0.00000000000E+00 0.  1.
     999901    1    3    3    0    0  0.17618464918E-01  0.12579794350E+00 -0.45225760486E-01  0.89027012884E+00  0.88000000000E+00 0. -1.
        -11    1    4    4    0    0  0.12812197945E-01 -0.29243641393E-01  0.40227043609E-02  0.32183633255E-01  0.51100000000E-03 0. -1.
         11    1    4    4    0    0 -0.24783350803E-01 -0.90104295552E-01  0.52581991202E-01  0.10722931257E+00  0.51100000000E-03 0.  1.
</event>
<event>
 8    1  0.2001339E+004  0.1043930E+01  0.7957747E-01            NaN
         13   -1    0    0    0    0  0.00000000000E+00  0.00000000000E+00  0.74505805969E-08  0.10566000000E+00  0.10566000000E+00 0. -1.
     999900   -1    0    0    0    0 -0.00000000000E+00 -0.00000000000E+00 -0.74505805969E-08  0.93827000000E+00  0.93827000000E+00 0.  1.
     999902    2    1    2    0    0  0.21100257074E-01  0.33442265962E-03 -0.16061732101E-01  0.10174099712E+01  0.10170642741E+01 0.  0.
     999903    2    3    3    0    0 -0.61550980079E-01 -0.29065634661E-01  0.95696774541E-01  0.12601468621E+00  0.45700046130E-01 0.  0.
         14    1    1    2    0    0 -0.21100257074E-01 -0.33442265962E-03  0.16061732101E-01  0.26520028755E-01  0.00000000000E+00 0. -1.
     999901    1    3    3    0    0  0.82651237153E-01  0.29400057321E-01 -0.11175850664E+00  0.89139528503E+00  0.88000000000E+00 0.  1.
        -11    1    4    4    0    0 -0.28707926855E-01 -0.81124159923E-02  0.77438556453E-01  0.82987634645E-01  0.51100000000E-03 0.  1.
         11    1    4    4    0    0 -0.32843053224E-01 -0.20953218669E-01  0.18258218088E-01  0.43027051565E-01  0.51100000000E-03 0. -1.
</event>
<event>
 8    1  0.2001339E+004  0.1043930E+01  0.7957747E-01            NaN
         13   -1    0    0    0    0  0.00000000000E+00  0.00000000000E+00  0.74505805969E-08  0.10566000000E+00  0.10566000000E+00 0.  1.
     999900   -1    0    0    0    0 -0.00000000000E+00 -0.00000000000E+00 -0.74505805969E-08  0.93827000000E+00  0.93827000000E+00 0.  1.
     999902    2    1    2    0    0 -0.98862271544E-03 -0.45797901831E-02  0.12442491236E-01  0.10306346083E+01  0.10305488481E+01 0.  0.
     999903    2    3    3    0    0 -0.13112224900E+00  0.21071455981E-01  0.12502696881E-01  0.14069486270E+00  0.44740099718E-01 0.  0.
         14    1    1    2    0    0  0.98862271544E-03  0.45797901831E-02 -0.12442491236E-01  0.13295391726E-01  0.00000000000E+00 0. -1.
     999901    1    3    3    0    0  0.13013362628E+00 -0.25651246164E-01 -0.60205644843E-04  0.88993974557E+00  0.88000000000E+00 0. -1.
        -11    1    4    4    0    0 -0.75822959890E-01 -0.87086201372E-02  0.15219906970E-01  0.77825882586E-01  0.51100000000E-03 0. -1.
         11    1    4    4    0    0 -0.55299289108E-01  0.29780076118E-01 -0.27172100894E-02  0.62868980119E-01  0.51100000000E-03 0.  1.
</event>
<event>
 8    1  0.2001339E+004  0.1043930E+01  0.7957747E-01            NaN
         13   -1    0    0    0    0  0.00000000000E+00  0.00000000000E+00  0.74505805969E-08  0.10566000000E+00  0.10566000000E+00 0. -1.
     999900   -1    0    0    0    0 -0.00000000000E+00 -0.00000000000E+00 -0.74505805969E-08  0.93827000000E+00  0.93827000000E+00 0.  1.
     999902    2    1    2    0    0  0.86494133379E-02 -0.10533096406E-01  0.15360004280E-02  0.10302143969E+01  0.10301230926E+01 0.  0.
     999903    2    3    3    0    0 -0.11615686620E+00  0.59014388928E-01  0.17567409513E-01  0.13854715729E+00  0.43721679405E-01 0.  0.
         14    1    1    2    0    0 -0.86494133379E-02  0.10533096406E-01 -0.15360004280E-02  0.13715603097E-01  0.00000000000E+00 0.  1.
     999901    1    3    3    0    0  0.12480627953E+00 -0.69547485335E-01 -0.16031409085E-01  0.89166723962E+00  0.88000000000E+00 0.  1.
        -11    1    4    4    0    0 -0.59595108233E-01  0.36235741096E-01 -0.12008485597E-01  0.70774788628E-01  0.51100000000E-03 0. -1.
         11    1    4    4    0    0 -0.56561757964E-01  0.22778647833E-01  0.29575895109E-01  0.67772368658E-01  0.51100000000E-03 0.  1.
</event>
<event>
 8    1  0.2001339E+004  0.1043930E+01  0.7957747E-01            NaN
         13   -1    0    0    0    0  0.00000000000E+00  0.00000000000E+00  0.74505805969E-08  0.10566000000E+00  0.10566000000E+00 0. -1.
     999900   -1    0    0    0    0 -0.00000000000E+00 -0.00000000000E+00 -0.74505805969E-08  0.93827000000E+00  0.93827000000E+00 0.  1.
     999902    2    1    2    0    0 -0.68693647435E-02 -0.34666250698E-02  0.11369983747E-01  0.10302011183E+01  0.10301096359E+01 0.  0.
     999903    2    3    3    0    0 -0.13313232287E+00 -0.77484774417E-02 -0.93543318663E-02  0.14093728453E+00  0.44626901636E-01 0.  0.
         14    1    1    2    0    0  0.68693647435E-02  0.34666250698E-02 -0.11369983747E-01  0.13728881664E-01  0.00000000000E+00 0.  1.
     999901    1    3    3    0    0  0.12626295813E+00  0.42818523719E-02  0.20724315613E-01  0.88926383380E+00  0.88000000000E+00 0.  1.
        -11    1    4    4    0    0 -0.86054622338E-01 -0.25402381840E-01  0.35074274472E-03  0.89727716845E-01  0.51100000000E-03 0. -1.
         11    1    4    4    0    0 -0.47077700537E-01  0.17653904398E-01 -0.97050746110E-02  0.51209567685E-01  0.51100000000E-03 0.  1.
</event>
<event>
 8    1  0.2001339E+004  0.1043930E+01  0.7957747E-01            NaN
         13   -1    0    0    0    0  0.00000000000E+00  0.00000000000E+00  0.74505805969E-08  0.10566000000E+00  0.10566000000E+00 0.  1.
     999900   -1    0    0    0    0 -0.00000000000E+00 -0.00000000000E+00 -0.74505805969E-08  0.93827000000E+00  0.93827000000E+00 0.  1.
     999902    2    1    2    0    0 -0.49698868165E-02  0.27303994714E-02  0.12145536545E-01  0.10305259367E+01  0.10304387596E+01 0.  0.
     999903    2    3    3    0    0  0.15878686743E-01  0.26752610703E-01  0.13102231504E+00  0.14196337942E+00  0.44932384612E-01 0.  0.
         14    1    1    2    0    0  0.49698868165E-02 -0.27303994714E-02 -0.12145536545E-01  0.13404063347E-01  0.00000000000E+00 0. -1.
     999901    1    3    3    0    0 -0.20848573559E-01 -0.24022211231E-01 -0.11887677849E+00  0.88856255723E+00  0.88000000000E+00 0.  1.
        -11    1    4    4    0    0  0.19106985871E-01  0.23035997310E-02  0.18258771162E-01  0.26533513265E-01  0.51100000000E-03 0. -1.
         11    1    4    4    0    0 -0.32282991286E-02  0.24449010972E-01  0.11276354387E+00  0.11542986616E+00  0.51100000000E-03 0.  1.
</event>
<event>
 8    1  0.2001339E+004  0.1043930E+01  0.7957747E-01            NaN
         13   -1    0    0    0    0  0.00000000000E+00  0.00000000000E+00  0.74505805969E-08  0.10566000000E+00  0.10566000000E+00 0.  1.
     999900   -1    0    0    0    0 -0.00000000000E+00 -0.00000000000E+00 -0.74505805969E-08  0.93827000000E+00  0.93827000000E+00 0.  1.
     999902    2    1    2    0    0  0.37809479638E-02 -0.66934093646E-02 -0.89599677846E-02  0.10321241405E+01  0.10320566181E+01 0.  0.
     999903    2    3    3    0    0 -0.40010895632E-01  0.27787239557E-01  0.12381804412E+00  0.14041979420E+00  0.44875473277E-01 0.  0.
         14    1    1    2    0    0 -0.37809479638E-02  0.66934093646E-02  0.89599677846E-02  0.11805859525E-01  0.00000000000E+00 0.  1.
     999901    1    3    3    0    0  0.43791843596E-01 -0.34480648922E-01 -0.13277801191E+00  0.89170434627E+00  0.88000000000E+00 0. -1.
        -11    1    4    4    0    0 -0.34482143185E-01  0.65568800804E-02  0.10746286612E+00  0.11305104860E+00  0.51100000000E-03 0. -1.
         11    1    4    4    0    0 -0.55287524476E-02  0.21230359477E-01  0.16355178007E-01  0.27368745601E-01  0.51100000000E-03 0.  1.
</event>
<event>
 8    1  0.2001339E+004  0.1043930E+01  0.7957747E-01            NaN
         13   -1    0    0    0    0  0.00000000000E+00  0.00000000000E+00  0.74505805969E-08  0.10566000000E+00  0.10566000000E+00 0. -1.
     999900   -1    0    0    0    0 -0.00000000000E+00 -0.00000000000E+00 -0.74505805969E-08  0.93827000000E+00  0.93827000000E+00 0.  1.
     999902    2    1    2    0    0  0.55444919889E-02  0.69931638258E-02  0.26887619376E-02  0.10346093148E+01  0.10345673294E+01 0.  0.
     999903    2    3    3    0    0 -0.51753226374E-01 -0.36926001209E-01  0.12087321143E+00  0.14377853083E+00  0.44944484419E-01 0.  0.
         14    1    1    2    0    0 -0.55444919889E-02 -0.69931638258E-02 -0.26887619376E-02  0.93206851930E-02  0.00000000000E+00 0. -1.
     999901    1    3    3    0    0  0.57297718363E-01  0.43919165035E-01 -0.11818444949E+00  0.89083078398E+00  0.88000000000E+00 0.  1.
        -11    1    4    4    0    0 -0.47786508918E-01 -0.45680790545E-01  0.91610922647E-01  0.11297392322E+00  0.51100000000E-03 0. -1.
         11    1    4    4    0    0 -0.39667174558E-02  0.87547893360E-02  0.29262288783E-01  0.30804607602E-01  0.51100000000E-03 0.  1.
</event>
<event>
 8    1  0.2001339E+004  0.1043930E+01  0.7957747E-01            NaN
         13   -1    0    0    0    0  0.00000000000E+00  0.00000000000E+00  0.74505805969E-08  0.10566000000E+00  0.10566000000E+00 0.  1.
     999900   -1    0    0    0    0 -0.00000000000E+00 -0.00000000000E+00 -0.74505805969E-08  0.93827000000E+00  0.93827000000E+00 0.  1.
     999902    2    1    2    0    0  0.10711133360E-01  0.14406568570E-01 -0.11146072914E-01  0.10227991567E+01  0.10225808538E+01 0.  0.
     999903    2    3    3    0    0 -0.70532110311E-01  0.10651544531E+00 -0.61338573954E-02  0.13425561131E+00  0.40824334488E-01 0.  0.
         14    1    1    2    0    0 -0.10711133360E-01 -0.14406568570E-01  0.11146072914E-01  0.21130843268E-01  0.00000000000E+00 0.  1.
     999901    1    3    3    0    0  0.81243243670E-01 -0.92108876738E-01 -0.50122155185E-02  0.88854354543E+00  0.88000000000E+00 0. -1.
        -11    1    4    4    0    0 -0.49048978848E-01  0.57439421191E-01 -0.21475971037E-01  0.78527497641E-01  0.51100000000E-03 0.  1.
         11    1    4    4    0    0 -0.21483131463E-01  0.49076024117E-01  0.15342113642E-01  0.55728113665E-01  0.51100000000E-03 0. -1.
</event>
<event>
 8    1  0.2001339E+004  0.1043930E+01  0.7957747E-01            NaN
         13   -1    0    0    0    0  0.00000000000E+00  0.00000000000E+00  0.74505805969E-08  0.10566000000E+00  0.10566000000E+00 0. -1.
     999900   -1    0    0    0    0 -0.00000000000E+00 -0.00000000000E+00 -0.74505805969E-08  0.93827000000E+00  0.93827000000E+00 0.  1.
     999902    2    1    2    0    0  0.74408208873E-02  0.92416005732E-02  0.73646017332E-02  0.10299653892E+01  0.10298707164E+01 0.  0.
     999903    2    3    3    0    0 -0.95603930123E-01 -0.68274966829E-01  0.59594879242E-01  0.13903607615E+00  0.44473568423E-01 0.  0.
         14    1    1    2    0    0 -0.74408208873E-02 -0.92416005732E-02 -0.73646017332E-02  0.13964610819E-01  0.00000000000E+00 0.  1.
     999901    1    3    3    0    0  0.10304475101E+00  0.77516567402E-01 -0.52230277509E-01  0.89092931303E+00  0.88000000000E+00 0.  1.
        -11    1    4    4    0    0 -0.20836850059E-02 -0.17810237790E-01  0.16462269757E-01  0.24347767041E-01  0.51100000000E-03 0. -1.
         11    1    4    4    0    0 -0.93520245117E-01 -0.50464729039E-01  0.43132609485E-01  0.11468830911E+00  0.51100000000E-03 0.  1.
</event>
<event>
 7    1  0.3597835E+004  0.1043930E+01  0.7957747E-01            NaN
         13   -1    0    0    0    0  0.00000000000E+00  0.00000000000E+00  0.74505805969E-08  0.10566000000E+00  0.10566000000E+00 0. -1.
     999900   -1    0    0    0    0 -0.00000000000E+00 -0.00000000000E+00 -0.74505805969E-08  0.93827000000E+00  0.93827000000E+00 0.  1.
     999903    2    1    2    0    0  0.73727419659E-01  0.36292291175E-01 -0.74466793008E-01  0.11559413648E+00  0.32616534448E-01 0.  0.
         14    1    1    2    0    0 -0.14377835595E-01 -0.90347077978E-02 -0.35244258546E-01  0.39121680202E-01  0.00000000000E+00 0.  1.
     999901    1    1    2    0    0 -0.59349584064E-01 -0.27257583377E-01  0.10971105155E+00  0.88921418332E+00  0.88000000000E+00 0. -1.
        -11    1    3    3    0    0  0.92940646912E-02  0.77734096947E-02 -0.29780157112E-01  0.32154695075E-01  0.51100000000E-03 0.  1.
         11    1    3    3    0    0  0.64433354967E-01  0.28518881480E-01 -0.44686635896E-01  0.83439441405E-01  0.51100000000E-03 0. -1.
</event>
<event>
 8    1  0.2001339E+004  0.1043930E+01  0.7957747E-01            NaN
         13   -1    0    0    0    0  0.00000000000E+00  0.00000000000E+00  0.74505805969E-08  0.10566000000E+00  0.10566000000E+00 0.  1.
     999900   -1    0    0    0    0 -0.00000000000E+00 -0.00000000000E+00 -0.74505805969E-08  0.93827000000E+00  0.93827000000E+00 0.  1.
     999902    2    1    2    0    0  0.77683832041E-02  0.70859947790E-02 -0.66103755265E-02  0.10315100095E+01  0.10314352348E+01 0.  0.
     999903    2    3    3    0    0 -0.39136743810E-01  0.99285097011E-01 -0.82471390667E-01  0.14220935223E+00  0.45086077430E-01 0.  0.
         14    1    1    2    0    0 -0.77683832041E-02 -0.70859947790E-02  0.66103755265E-02  0.12419990508E-01  0.00000000000E+00 0.  1.
     999901    1    3    3    0    0  0.46905127014E-01 -0.92199102232E-01  0.75861015141E-01  0.88930065726E+00  0.88000000000E+00 0. -1.
        -11    1    4    4    0    0 -0.14145802983E-01  0.71442927862E-01 -0.32428144213E-01  0.79724784989E-01  0.51100000000E-03 0. -1.
         11    1    4    4    0    0 -0.24990940827E-01  0.27842169149E-01 -0.50043246454E-01  0.62484567238E-01  0.51100000000E-03 0.  1.
</event>
<event>
 8    1  0.2001339E+004  0.1043930E+01  0.7957747E-01            NaN
         13   -1    0    0    0    0  0.00000000000E+00  0.00000000000E+00  0.74505805969E-08  0.10566000000E+00  0.10566000000E+00 0.  1.
     999900   -1    0    0    0    0 -0.00000000000E+00 -0.00000000000E+00 -0.74505805969E-08  0.93827000000E+00  0.93827000000E+00 0.  1.
     999902    2    1    2    0    0  0.46123162532E-02 -0.11048961729E-01 -0.20214789815E-03  0.10319552816E+01  0.10318858025E+01 0.  0.
     999903    2    3    3    0    0 -0.92595506187E-01  0.72327079449E-01 -0.63306483421E-01  0.14044920640E+00  0.43739393554E-01 0.  0.
         14    1    1    2    0    0 -0.46123162532E-02  0.11048961729E-01  0.20214789815E-03  0.11974718380E-01  0.00000000000E+00 0. -1.
     999901    1    3    3    0    0  0.97207822441E-01 -0.83376041178E-01  0.63104335523E-01  0.89150607522E+00  0.88000000000E+00 0. -1.
        -11    1    4    4    0    0 -0.45245859520E-01  0.58017357629E-01 -0.50848312198E-01  0.89437204587E-01  0.51100000000E-03 0.  1.
         11    1    4    4    0    0 -0.47349646668E-01  0.14309721820E-01 -0.12458171223E-01  0.51012001817E-01  0.51100000000E-03 0. -1.
</event>
<event>
 8    1  0.2001339E+004  0.1043930E+01  0.7957747E-01            NaN
         13   -1    0    0    0    0  0.00000000000E+00  0.00000000000E+00  0.74505805969E-08  0.10566000000E+00  0.10566000000E+00 0. -1.
     999900   -1    0    0    0    0 -0.00000000000E+00 -0.00000000000E+00 -0.74505805969E-08  0.93827000000E+00  0.93827000000E+00 0.  1.
     999902    2    1    2    0    0  0.11513156340E-01  0.83632074551E-02  0.22151296249E-02  0.10295285137E+01  0.10294277817E+01 0.  0.
     999903    2    3    3    0    0  0.94978869457E-02  0.13375234039E+00 -0.13794203795E-02  0.14063064739E+00  0.42369538219E-01 0.  0.
         14    1    1    2    0    0 -0.11513156340E-01 -0.83632074551E-02 -0.22151296249E-02  0.14401486281E-01  0.00000000000E+00 0.  1.
     999901    1    3    3    0    0  0.20152693942E-02 -0.12538913294E+00  0.35945500045E-02  0.88889786633E+00  0.88000000000E+00 0. -1.
        -11    1    4    4    0    0  0.44673239245E-03  0.28191052663E-01 -0.17899757178E-01  0.33400560596E-01  0.51100000000E-03 0.  1.
         11    1    4    4    0    0  0.90511545532E-02  0.10556128773E+00  0.16520336798E-01  0.10723008680E+00  0.51100000000E-03 0. -1.
</event>
<event>
 8    1  0.2001339E+004  0.1043930E+01  0.7957747E-01            NaN
         13   -1    0    0    0    0  0.00000000000E+00  0.00000000000E+00  0.74505805969E-08  0.10566000000E+00  0.10566000000E+00 0. -1.
     999900   -1    0    0    0    0 -0.00000000000E+00 -0.00000000000E+00 -0.74505805969E-08  0.93827000000E+00  0.93827000000E+00 0.  1.
     999902    2    1    2    0    0  0.13507562084E-01  0.78664556578E-03 -0.40346757075E-02  0.10298108055E+01  0.10297140105E+01 0.  0.
     999903    2    3    3    0    0 -0.40099293518E-01 -0.90347955711E-01  0.86897663923E-01  0.13882937984E+00  0.44177893447E-01 0.  0.
         14    1    1    2    0    0 -0.13507562084E-01 -0.78664556578E-03  0.40346757075E-02  0.14119194480E-01  0.00000000000E+00 0.  1.
     999901    1    3    3    0    0  0.53606855602E-01  0.91134601276E-01 -0.90932339631E-01  0.89098142568E+00  0.88000000000E+00 0.  1.
        -11    1    4    4    0    0 -0.21910851995E-01 -0.79415501027E-02  0.24925862403E-01  0.34127897544E-01  0.51100000000E-03 0. -1.
         11    1    4    4    0    0 -0.18188441522E-01 -0.82406405608E-01  0.61971801520E-01  0.10470148230E+00  0.51100000000E-03 0.  1.
</event>
<event>
 8    1  0.2001339E+004  0.1043930E+01  0.7957747E-01            NaN
         13   -1    0    0    0    0  0.00000000000E+00  0.00000000000E+00  0.74505805969E-08  0.10566000000E+00  0.10566000000E+00 0.  1.
     999900   -1    0    0    0    0 -0.00000000000E+00 -0.00000000000E+00 -0.74505805969E-08  0.93827000000E+00  0.93827000000E+00 0.  1.
     999902    2    1    2    0    0 -0.10005178356E-01 -0.31024320256E-02  0.88904808846E-02  0.10301906649E+01  0.10300990422E+01 0.  0.
     999903    2    3    3    0    0 -0.69251672559E-01  0.11032838319E+00 -0.26136805891E-01  0.14024481951E+00  0.44914702372E-01 0.  0.
         14    1    1    2    0    0  0.10005178356E-01  0.31024320256E-02 -0.88904808846E-02  0.13739335092E-01  0.00000000000E+00 0. -1.
     999901    1    3    3    0    0  0.59246494203E-01 -0.11343081521E+00  0.35027286775E-01  0.88994584539E+00  0.88000000000E+00 0. -1.
        -11    1    4    4    0    0 -0.51339173322E-02  0.48297675018E-01 -0.89302100936E-02  0.49386559838E-01  0.51100000000E-03 0.  1.
         11    1    4    4    0    0 -0.64117755227E-01  0.62030708170E-01 -0.17206595797E-01  0.90858259676E-01  0.51100000000E-03 0. -1.
</event>
<event>
 8    1  0.2001339E+004  0.1043930E+01  0.7957747E-01            NaN
         13   -1    0    0    0    0  0.00000000000E+00  0.00000000000E+00  0.74505805969E-08  0.10566000000E+00  0.10566000000E+00 0.  1.
     999900   -1    0    0    0    0 -0.00000000000E+00 -0.00000000000E+00 -0.74505805969E-08  0.93827000000E+00  0.93827000000E+00 0.  1.
     999902    2    1    2    0    0  0.13570189107E-01 -0.30964443375E-02 -0.36609560002E-03  0.10300062065E+01  0.10299120901E+01 0.  0.
     999903    2    3    3    0    0 -0.11515002587E+00 -0.68855693454E-01  0.95644394993E-03  0.13821311293E+00  0.33186063674E-01 0.  0.
         14    1    1    2    0    0 -0.13570189107E-01  0.30964443375E-02  0.36609560002E-03  0.13923793518E-01  0.00000000000E+00 0. -1.
     999901    1    3    3    0    0  0.12872021498E+00  0.65759249116E-01 -0.13225395499E-02  0.89179309355E+00  0.88000000000E+00 0. -1.
        -11    1    4    4    0    0 -0.58583981181E-01 -0.18681537841E-01 -0.82400146197E-02  0.62042257124E-01  0.51100000000E-03 0. -1.
         11    1    4    4    0    0 -0.56566044693E-01 -0.50174155612E-01  0.91964585697E-02  0.76170855810E-01  0.51100000000E-03 0.  1.
</event>
<event>
 8    1  0.2001339E+004  0.1043930E+01  0.7957747E-01            NaN
         13   -1    0    0    0    0  0.00000000000E+00  0.00000000000E+00  0.74505805969E-08  0.10566000000E+00  0.10566000000E+00 0. -1.
     999900   -1    0    0    0    0 -0.00000000000E+00 -0.00000000000E+00 -0.74505805969E-08  0.93827000000E+00  0.93827000000E+00 0.  1.
     999902    2    1    2    0    0  0.47259865623E-02  0.11615494575E-01  0.25066704033E-02  0.10311418000E+01  0.10310624974E+01 0.  0.
     999903    2    3    3    0    0 -0.57313447516E-01 -0.22589047181E-01 -0.11776999432E+00  0.14013937679E+00  0.44431712176E-01 0.  0.
         14    1    1    2    0    0 -0.47259865623E-02 -0.11615494575E-01 -0.25066704033E-02  0.12788200018E-01  0.00000000000E+00 0.  1.
     999901    1    3    3    0    0  0.62039434078E-01  0.34204541756E-01  0.12027666472E+00  0.89100242319E+00  0.88000000000E+00 0. -1.
        -11    1    4    4    0    0 -0.40773332484E-01  0.46359468995E-02 -0.46180966384E-01  0.61781060388E-01  0.51100000000E-03 0. -1.
         11    1    4    4    0    0 -0.16540115032E-01 -0.27224994081E-01 -0.71589027933E-01  0.78358316402E-01  0.51100000000E-03 0.  1.
</event>
<event>
 8    1  0.2001339E+004  0.1043930E+01  0.7957747E-01            NaN
         13   -1    0    0    0    0  0.00000000000E+00  0.00000000000E+00  0.74505805969E-08  0.10566000000E+00  0.10566000000E+00 0.  1.
     999900   -1    0    0    0    0 -0.00000000000E+00 -0.00000000000E+00 -0.74505805969E-08  0.93827000000E+00  0.93827000000E+00 0. -1.
     999902    2    1    2    0    0 -0.40818902435E-02  0.83510668070E-02  0.10114617423E-01  0.10301929104E+01  0.10301013178E+01 0.  0.
     999903    2    3    3    0    0 -0.39192545873E-01 -0.12583438440E+00 -0.62131350485E-02  0.13917939258E+00  0.44293930975E-01 0.  0.
         14    1    1    2    0    0  0.40818902435E-02 -0.83510668070E-02 -0.10114617423E-01  0.13737089590E-01  0.00000000000E+00 0. -1.
     999901    1    3    3    0    0  0.35110655629E-01  0.13418545121E+00  0.16327752472E-01  0.89101351783E+00  0.88000000000E+00 0. -1.
        -11    1    4    4    0    0 -0.26379856616E-01 -0.10503638244E+00 -0.21423931582E-01  0.11039829906E+00  0.51100000000E-03 0.  1.
         11    1    4    4    0    0 -0.12812689257E-01 -0.20798001966E-01  0.15210796533E-01  0.28781093515E-01  0.51100000000E-03 0. -1.
</event>
<event>
 8    1  0.2001339E+004  0.1043930E+01  0.7957747E-01            NaN
         13   -1    0    0    0    0  0.00000000000E+00  0.00000000000E+00  0.74505805969E-08  0.10566000000E+00  0.10566000000E+00 0. -1.
     999900   -1    0    0    0    0 -0.00000000000E+00 -0.00000000000E+00 -0.74505805969E-08  0.93827000000E+00  0.93827000000E+00 0. -1.
     999902    2    1    2    0    0  0.27851701467E-02  0.89090518213E-03  0.16642636067E-01  0.10270324197E+01  0.10268934039E+01 0.  0.
     999903    2    3    3    0    0  0.48134734950E-02 -0.12956717583E+00 -0.12416787794E-02  0.13723285034E+00  0.44949870596E-01 0.  0.
         14    1    1    2    0    0 -0.27851701467E-02 -0.89090518213E-03 -0.16642636067E-01  0.16897580302E-01  0.00000000000E+00 0.  1.
     999901    1    3    3    0    0 -0.20283033483E-02  0.13045808101E+00  0.17884314847E-01  0.88979956936E+00  0.88000000000E+00 0. -1.
        -11    1    4    4    0    0  0.20298253206E-01 -0.76453141153E-01  0.12846364516E-01  0.80139828286E-01  0.51100000000E-03 0.  1.
         11    1    4    4    0    0 -0.15484779711E-01 -0.53114034675E-01 -0.14088043296E-01  0.57093022052E-01  0.51100000000E-03 0. -1.
</event>
<event>
 8    1  0.2001339E+004  0.1043930E+01  0.7957747E-01            NaN
         13   -1    0    0    0    0  0.00000000000E+00  0.00000000000E+00  0.74505805969E-08  0.10566000000E+00  0.10566000000E+00 0. -1.
     999900   -1    0    0    0    0 -0.00000000000E+00 -0.00000000000E+00 -0.74505805969E-08  0.93827000000E+00  0.93827000000E+00 0.  1.
     999902    2    1    2    0    0 -0.12075457188E-01  0.90270554248E-02 -0.47385219640E-03  0.10288459378E+01  0.10287353570E+01 0.  0.
     999903    2    3    3    0    0 -0.68232250665E-01  0.11361886172E+00  0.16501545850E-01  0.14071239182E+00  0.44303390694E-01 0.  0.
         14    1    1    2    0    0  0.12075457188E-01 -0.90270554248E-02  0.47385219640E-03  0.15084062180E-01  0.00000000000E+00 0. -1.
     999901    1    3    3    0    0  0.56156793476E-01 -0.10459180629E+00 -0.16975398046E-01  0.88813354600E+00  0.88000000000E+00 0. -1.
        -11    1    4    4    0    0 -0.51858965181E-01  0.10489637162E+00  0.25991057689E-01  0.11986824955E+00  0.51100000000E-03 0.  1.
         11    1    4    4    0    0 -0.16373285484E-01  0.87224900960E-02 -0.94895118394E-02  0.20844142270E-01  0.51100000000E-03 0. -1.
</event>
<event>
 8    1  0.2001339E+004  0.1043930E+01  0.7957747E-01            NaN
         13   -1    0    0    0    0  0.00000000000E+00  0.00000000000E+00  0.74505805969E-08  0.10566000000E+00  0.10566000000E+00 0. -1.
     999900   -1    0    0    0    0 -0.00000000000E+00 -0.00000000000E+00 -0.74505805969E-08  0.93827000000E+00  0.93827000000E+00 0. -1.
     999902    2    1    2    0    0  0.21563189714E-02  0.13924980153E-01 -0.80128995413E-03  0.10298162886E+01  0.10297195693E+01 0.  0.
     999903    2    3    3    0    0 -0.12901498409E+00 -0.57768593940E-02 -0.27416540198E-01  0.13947790081E+00  0.44990887018E-01 0.  0.
         14    1    1    2    0    0 -0.21563189714E-02 -0.13924980153E-01  0.80128995413E-03  0.14113711396E-01  0.00000000000E+00 0. -1.
     999901    1    3    3    0    0  0.13117130306E+00  0.19701839548E-01  0.26615250244E-01  0.89033838779E+00  0.88000000000E+00 0. -1.
        -11    1    4    4    0    0 -0.37337885511E-01  0.17802519959E-01 -0.15006231011E-01  0.44005630339E-01  0.51100000000E-03 0.  1.
         11    1    4    4    0    0 -0.91677098579E-01 -0.23579379353E-01 -0.12410309187E-01  0.95472270475E-01  0.51100000000E-03 0. -1.
</event>
<event>
 8    1  0.2001339E+004  0.1043930E+01  0.7957747E-01            NaN
         13   -1    0    0    0    0  0.00000000000E+00  0.00000000000E+00  0.74505805969E-08  0.10566000000E+00  0.10566000000E+00 0.  1.
     999900   -1    0    0    0    0 -0.00000000000E+00 -0.00000000000E+00 -0.74505805969E-08  0.93827000000E+00  0.93827000000E+00 0.  1.
     999902    2    1    2    0    0 -0.88132327504E-02  0.33004681399E-02 -0.27030408054E-02  0.10341385450E+01  0.10340921901E+01 0.  0.
     999903    2    3    3    0    0 -0.51272209846E-01 -0.24351560172E-01  0.12330986286E+00  0.14371917678E+00  0.47202134614E-01 0.  0.
         14    1    1    2    0    0  0.88132327504E-02 -0.33004681399E-02  0.27030408054E-02  0.97914550018E-02  0.00000000000E+00 0.  1.
     999901    1    3    3    0    0  0.42458977096E-01  0.27652028312E-01 -0.12601290366E+00  0.89041936822E+00  0.88000000000E+00 0.  1.
        -11    1    4    4    0    0 -0.17607068264E-01 -0.13976520105E-01  0.97463891659E-01  0.10002411342E+00  0.51100000000E-03 0. -1.
         11    1    4    4    0    0 -0.33665141582E-01 -0.10375040067E-01  0.25845971197E-01  0.43695063362E-01  0.51100000000E-03 0.  1.
</event>
<event>
 8    1  0.2001339E+004  0.1043930E+01  0.7957747E-01            NaN
         13   -1    0    0    0    0  0.00000000000E+00  0.00000000000E+00  0.74505805969E-08  0.10566000000E+00  0.10566000000E+00 0. -1.
     999900   -1    0    0    0    0 -0.00000000000E+00 -0.00000000000E+00 -0.74505805969E-08  0.93827000000E+00  0.93827000000E+00 0.  1.
     999902    2    1    2    0    0  0.13105584539E-01 -0.92740915977E-03 -0.51140912105E-03  0.10307816931E+01  0.10306978320E+01 0.  0.
     999903    2    3    3    0    0  0.66630354795E-01 -0.11644659195E+00 -0.82821344506E-02  0.14158544552E+00  0.44479564667E-01 0.  0.
         14    1    1    2    0    0 -0.13105584539E-01  0.92740915977E-03  0.51140912105E-03  0.13148306855E-01  0.00000000000E+00 0. -1.
     999901    1    3    3    0    0 -0.53524770255E-01  0.11551918280E+00  0.77707253295E-02  0.88919624763E+00  0.88000000000E+00 0. -1.
        -11    1    4    4    0    0  0.41029612060E-01 -0.73171858333E-01  0.16544684374E-01  0.85507529608E-01  0.51100000000E-03 0.  1.
         11    1    4    4    0    0  0.25600742735E-01 -0.43274733622E-01 -0.24826818825E-01  0.56077915908E-01  0.51100000000E-03 0. -1.
</event>
<event>
 8    1  0.2001339E+004  0.1043930E+01  0.7957747E-01            NaN
         13   -1    0    0    0    0  0.00000000000E+00  0.00000000000E+00  0.74505805969E-08  0.10566000000E+00  0.10566000000E+00 0. -1.
     999900   -1    0    0    0    0 -0.00000000000E+00 -0.00000000000E+00 -0.74505805969E-08  0.93827000000E+00  0.93827000000E+00 0.  1.
     999902    2    1    2    0    0  0.11758867889E-01 -0.60744096473E-02 -0.32381677745E-02  0.10303044667E+01  0.10302143656E+01 0.  0.
     999903    2    3    3    0    0 -0.11469172052E+00  0.53659452784E-01  0.33450932669E-01  0.13850629689E+00  0.45072183787E-01 0.  0.
         14    1    1    2    0    0 -0.11758867889E-01  0.60744096473E-02  0.32381677745E-02  0.13625533278E-01  0.00000000000E+00 0. -1.
     999901    1    3    3    0    0  0.12645058841E+00 -0.59733862432E-01 -0.36689100444E-01  0.89179816984E+00  0.88000000000E+00 0.  1.
        -11    1    4    4    0    0 -0.60064783638E-01  0.43991438961E-01  0.14647824365E-02  0.74467655018E-01  0.51100000000E-03 0. -1.
         11    1    4    4    0    0 -0.54626936884E-01  0.96680138235E-02  0.31986150233E-01  0.64038641868E-01  0.51100000000E-03 0.  1.
</event>
<event>
 8    1  0.2001339E+004  0.1043930E+01  0.7957747E-01            NaN
         13   -1    0    0    0    0  0.00000000000E+00  0.00000000000E+00  0.74505805969E-08  0.10566000000E+00  0.10566000000E+00 0. -1.
     999900   -1    0    0    0    0 -0.00000000000E+00 -0.00000000000E+00 -0.74505805969E-08  0.93827000000E+00  0.93827000000E+00 0. -1.
     999902    2    1    2    0    0  0.51070229300E-02  0.11938006154E-01 -0.50626508313E-02  0.10299934255E+01  0.10298991351E+01 0.  0.
     999903    2    3    3    0    0 -0.10810929724E+00  0.77315531988E-01 -0.14058895758E-02  0.14032746130E+00  0.44994535584E-01 0.  0.
         14    1    1    2    0    0 -0.51070229300E-02 -0.11938006154E-01  0.50626508313E-02  0.13936574456E-01  0.00000000000E+00 0. -1.
     999901    1    3    3    0    0  0.11321632017E+00 -0.65377525834E-01 -0.36567612555E-02  0.88966596425E+00  0.88000000000E+00 0. -1.
        -11    1    4    4    0    0 -0.74739121832E-01  0.61689128993E-01  0.18169612841E-01  0.98599598985E-01  0.51100000000E-03 0. -1.
         11    1    4    4    0    0 -0.33370175407E-01  0.15626402995E-01 -0.19575502417E-01  0.41727862312E-01  0.51100000000E-03 0.  1.
</event>
<event>
 8    1  0.2001339E+004  0.1043930E+01  0.7957747E-01            NaN
         13   -1    0    0    0    0  0.00000000000E+00  0.00000000000E+00  0.74505805969E-08  0.10566000000E+00  0.10566000000E+00 0.  1.
     999900   -1    0    0    0    0 -0.00000000000E+00 -0.00000000000E+00 -0.74505805969E-08  0.93827000000E+00  0.93827000000E+00 0. -1.
     999902    2    1    2    0    0  0.10634100248E-01  0.60153298365E-02  0.62370309318E-02  0.10302125354E+01  0.10301212061E+01 0.  0.
     999903    2    3    3    0    0 -0.94241091421E-01 -0.90915738754E-01 -0.87565493922E-02  0.13857401818E+00  0.44486250582E-01 0.  0.
         14    1    1    2    0    0 -0.10634100248E-01 -0.60153298365E-02 -0.62370309318E-02  0.13717464634E-01  0.00000000000E+00 0. -1.
     999901    1    3    3    0    0  0.10487519167E+00  0.96931068591E-01  0.14993580324E-01  0.89163851719E+00  0.88000000000E+00 0.  1.
        -11    1    4    4    0    0 -0.21117728065E-01 -0.46427513681E-01 -0.13767523956E-01  0.52832549646E-01  0.51100000000E-03 0.  1.
         11    1    4    4    0    0 -0.73123363356E-01 -0.44488225073E-01  0.50109745635E-02  0.85741468530E-01  0.51100000000E-03 0. -1.
</event>
<event>
 8    1  0.2001339E+004  0.1043930E+01  0.7957747E-01            NaN
         13   -1    0    0    0    0  0.00000000000E+00  0.00000000000E+00  0.74505805969E-08  0.10566000000E+00  0.10566000000E+00 0.  1.
     999900   -1    0    0    0    0 -0.00000000000E+00 -0.00000000000E+00 -0.74505805969E-08  0.93827000000E+00  0.93827000000E+00 0.  1.
     999902    2    1    2    0    0 -0.76177498308E-02  0.16505791830E-02  0.11991151410E-01  0.10296281737E+01  0.10295288407E+01 0.  0.
     999903    2    3    3    0    0 -0.84249933935E-01  0.10281190052E+00  0.88567116078E-02  0.14051854641E+00  0.44706624670E-01 0.  0.
         14    1    1    2    0    0  0.76177498308E-02 -0.16505791830E-02 -0.11991151410E-01  0.14301826326E-01  0.00000000000E+00 0. -1.
     999901    1    3    3    0    0  0.76632184104E-01 -0.10116132133E+00  0.31344398025E-02  0.88910962726E+00  0.88000000000E+00 0.  1.
        -11    1    4    4    0    0 -0.59184092808E-01  0.56879828565E-01 -0.14250131379E-01  0.83315059290E-01  0.51100000000E-03 0.  1.
         11    1    4    4    0    0 -0.25065841127E-01  0.45932071953E-01  0.23106842987E-01  0.57203487123E-01  0.51100000000E-03 0. -1.
</event>
<event>
 8    1  0.2001339E+004  0.1043930E+01  0.7957747E-01            NaN
         13   -1    0    0    0    0  0.00000000000E+00  0.00000000000E+00  0.74505805969E-08  0.10566000000E+00  0.10566000000E+00 0.  1.
     999900   -1    0    0    0    0 -0.00000000000E+00 -0.00000000000E+00 -0.74505805969E-08  0.93827000000E+00  0.93827000000E+00 0. -1.
     999902    2    1    2    0    0  0.97895569311E-02 -0.88772256401E-02 -0.61763802471E-02  0.10293427373E+01  0.10292393709E+01 0.  0.
     999903    2    3    3    0    0  0.38129229315E-01  0.11450001113E+00  0.50796826169E-01  0.13846057572E+00  0.45021359394E-01 0.  0.
         14    1    1    2    0    0 -0.97895569311E-02  0.88772256401E-02  0.61763802471E-02  0.14587262695E-01  0.00000000000E+00 0.  1.
     999901    1    3    3    0    0 -0.28339672384E-01 -0.12337723677E+00 -0.56973206416E-01  0.89088216159E+00  0.88000000000E+00 0. -1.
        -11    1    4    4    0    0 -0.14350970830E-02  0.57131510269E-01  0.34949891190E-01  0.66991230653E-01  0.51100000000E-03 0.  1.
         11    1    4    4    0    0  0.39564326398E-01  0.57368500864E-01  0.15846934979E-01  0.71469345065E-01  0.51100000000E-03 0. -1.
</event>
<event>
 8    1  0.2001339E+004  0.1043930E+01  0.7957747E-01            NaN
         13   -1    0    0    0    0  0.00000000000E+00  0.00000000000E+00  0.74505805969E-08  0.10566000000E+00  0.10566000000E+00 0. -1.
     999900   -1    0    0    0    0 -0.00000000000E+00 -0.00000000000E+00 -0.74505805969E-08  0.93827000000E+00  0.93827000000E+00 0. -1.
     999902    2    1    2    0    0  0.24036673726E-02 -0.71592799832E-02  0.10306624141E-01  0.10311526995E+01  0.10310735329E+01 0.  0.
     999903    2    3    3    0    0  0.79739877612E-01  0.10496359512E+00 -0.14563985208E-01  0.14032669195E+00  0.45865743487E-01 0.  0.
         14    1    1    2    0    0 -0.24036673726E-02  0.71592799832E-02 -0.10306624141E-01  0.12777300494E-01  0.00000000000E+00 0.  1.
     999901    1    3    3    0    0 -0.77336210239E-01 -0.11212287510E+00  0.24870609349E-01  0.89082600756E+00  0.88000000000E+00 0. -1.
        -11    1    4    4    0    0  0.29786480789E-01  0.76424222717E-01 -0.93895576689E-02  0.82561014831E-01  0.51100000000E-03 0.  1.
         11    1    4    4    0    0  0.49953396823E-01  0.28539372402E-01 -0.51744275392E-02  0.57765677116E-01  0.51100000000E-03 0. -1.
</event>
<event>
 8    1  0.2001339E+004  0.1043930E+01  0.7957747E-01            NaN
         13   -1    0    0    0    0  0.00000000000E+00  0.00000000000E+00  0.74505805969E-08  0.10566000000E+00  0.10566000000E+00 0. -1.
     999900   -1    0    0    0    0 -0.00000000000E+00 -0.00000000000E+00 -0.74505805969E-08  0.93827000000E+00  0.93827000000E+00 0.  1.
     999902    2    1    2    0    0 -0.63080652332E-02 -0.82104554055E-02 -0.88888908675E-02  0.10302839146E+01  0.10301935396E+01 0.  0.
     999903    2    3    3    0    0  0.11070737682E+00  0.57846339971E-01 -0.45005973810E-01  0.13935150554E+00  0.42319996312E-01 0.  0.
         14    1    1    2    0    0  0.63080652332E-02  0.82104554055E-02  0.88888908675E-02  0.13646085366E-01  0.00000000000E+00 0. -1.
     999901    1    3    3    0    0 -0.11701544205E+00 -0.66056795376E-01  0.36117082942E-01  0.89093240909E+00  0.88000000000E+00 0.  1.
        -11    1    4    4    0    0  0.25682386727E-01 -0.48990823592E-02 -0.72427385126E-02  0.27134929116E-01  0.51100000000E-03 0.  1.
         11    1    4    4    0    0  0.85024990091E-01  0.62745422330E-01 -0.37763235297E-01  0.11221657642E+00  0.51100000000E-03 0. -1.
</event>
<event>
 8    1  0.2001339E+004  0.1043930E+01  0.7957747E-01            NaN
         13   -1    0    0    0    0  0.00000000000E+00  0.00000000000E+00  0.74505805969E-08  0.10566000000E+00  0.10566000000E+00 0. -1.
     999900   -1    0    0    0    0 -0.00000000000E+00 -0.00000000000E+00 -0.74505805969E-08  0.93827000000E+00  0.93827000000E+00 0. -1.
     999902    2    1    2    0    0  0.13635717809E-01  0.14458275587E-01  0.26780500461E-02  0.10238764097E+01  0.10236800065E+01 0.  0.
     999903    2    3    3    0    0 -0.33525827269E-01 -0.82932527146E-01  0.87804336432E-01  0.13317125956E+00  0.44979970260E-01 0.  0.
         14    1    1    2    0    0 -0.13635717809E-01 -0.14458275587E-01 -0.26780500461E-02  0.20053590331E-01  0.00000000000E+00 0.  1.
     999901    1    3    3    0    0  0.47161545078E-01  0.97390802733E-01 -0.85126286386E-01  0.89070515011E+00  0.88000000000E+00 0. -1.
        -11    1    4    4    0    0 -0.12104280566E-01 -0.46956957465E-01  0.75129923380E-01  0.89421675060E-01  0.51100000000E-03 0. -1.
         11    1    4    4    0    0 -0.21421546703E-01 -0.35975569681E-01  0.12674413051E-01  0.43749584503E-01  0.51100000000E-03 0.  1.
</event>
<event>
 8    1  0.2001339E+004  0.1043930E+01  0.7957747E-01            NaN
         13   -1    0    0    0    0  0.00000000000E+00  0.00000000000E+00  0.74505805969E-08  0.10566000000E+00  0.10566000000E+00 0.  1.
     999900   -1    0    0    0    0 -0.00000000000E+00 -0.00000000000E+00 -0.74505805969E-08  0.93827000000E+00  0.93827000000E+00 0.  1.
     999902    2    1    2    0    0  0.96971434667E-02 -0.59108229847E-02 -0.76241541975E-02  0.10302515444E+01  0.10301607373E+01 0.  0.
     999903    2    3    3    0    0  0.98668456176E-01  0.67597601529E-01  0.56853556978E-01  0.14037697000E+00  0.46566799218E-01 0.  0.
         14    1    1    2    0    0 -0.96971434667E-02  0.59108229847E-02  0.76241541975E-02  0.13678455578E-01  0.00000000000E+00 0.  1.
     999901    1    3    3    0    0 -0.88971312709E-01 -0.73508424514E-01 -0.64477711176E-01  0.88987457442E+00  0.88000000000E+00 0.  1.
        -11    1    4    4    0    0  0.29374473919E-01  0.47083259431E-01  0.18106118586E-01  0.58376242495E-01  0.51100000000E-03 0.  1.
         11    1    4    4    0    0  0.69293982257E-01  0.20514342098E-01  0.38747438393E-01  0.82000727507E-01  0.51100000000E-03 0. -1.
</event>
<event>
 8    1  0.2001339E+004  0.1043930E+01  0.7957747E-01            NaN
         13   -1    0    0    0    0  0.00000000000E+00  0.00000000000E+00  0.74505805969E-08  0.10566000000E+00  0.10566000000E+00 0.  1.
     999900   -1    0    0    0    0 -0.00000000000E+00 -0.00000000000E+00 -0.74505805969E-08  0.93827000000E+00  0.93827000000E+00 0.  1.
     999902    2    1    2    0    0 -0.64554556931E-02 -0.11042151905E-01  0.43745351784E-02  0.10304119164E+01  0.10303232400E+01 0.  0.
     999903    2    3    3    0    0  0.54996251495E-01  0.67286542380E-01  0.99428179493E-01  0.13971169073E+00  0.45621564917E-01 0.  0.
         14    1    1    2    0    0  0.64554556931E-02  0.11042151905E-01 -0.43745351784E-02  0.13518083626E-01  0.00000000000E+00 0.  1.
     999901    1    3    3    0    0 -0.61451707188E-01 -0.78328694285E-01 -0.95053644314E-01  0.89070022564E+00  0.88000000000E+00 0. -1.
        -11    1    4    4    0    0  0.19574830710E-01  0.50395030890E-01  0.35437159295E-01  0.64644307681E-01  0.51100000000E-03 0. -1.
         11    1    4    4    0    0  0.35421420785E-01  0.16891511490E-01  0.63991020198E-01  0.75067383049E-01  0.51100000000E-03 0.  1.
</event>
<event>
 8    1  0.2001339E+004  0.1043930E+01  0.7957747E-01            NaN
         13   -1    0    0    0    0  0.00000000000E+00  0.00000000000E+00  0.74505805969E-08  0.10566000000E+00  0.10566000000E+00 0.  1.
     999900   -1    0    0    0    0 -0.00000000000E+00 -0.00000000000E+00 -0.74505805969E-08  0.93827000000E+00  0.93827000000E+00 0. -1.
     999902    2    1    2    0    0  0.30369370216E-02  0.10264226064E-01  0.10112185745E-01  0.10292047284E+01  0.10290993826E+01 0.  0.
     999903    2    3    3    0    0 -0.87187901177E-01 -0.79032027567E-01  0.57264072578E-01  0.13884657419E+00  0.46383247648E-01 0.  0.
         14    1    1    2    0    0 -0.30369370216E-02 -0.10264226064E-01 -0.10112185745E-01  0.14725271600E-01  0.00000000000E+00 0. -1.
     999901    1    3    3    0    0  0.90224838198E-01  0.89296253631E-01 -0.47151886833E-01  0.89035815421E+00  0.88000000000E+00 0. -1.
        -11    1    4    4    0    0 -0.43050640047E-01 -0.96600238256E-02  0.16908263171E-01  0.47252768736E-01  0.51100000000E-03 0.  1.
         11    1    4    4    0    0 -0.44137261129E-01 -0.69372003742E-01  0.40355809407E-01  0.91593805451E-01  0.51100000000E-03 0. -1.
</event>
<event>
 8    1  0.2001339E+004  0.1043930E+01  0.7957747E-01            NaN
         13   -1    0    0    0    0  0.00000000000E+00  0.00000000000E+00  0.74505805969E-08  0.10566000000E+00  0.10566000000E+00 0.  1.
     999900   -1    0    0    0    0 -0.00000000000E+00 -0.00000000000E+00 -0.74505805969E-08  0.93827000000E+00  0.93827000000E+00 0. -1.
     999902    2    1    2    0    0  0.19643213816E-01  0.10133686123E-02 -0.50462750400E-02  0.10236236548E+01  0.10234222193E+01 0.  0.
     999903    2    3    3    0    0  0.14690618069E-01 -0.11819328527E+00  0.43983784749E-01  0.13422008984E+00  0.43531508750E-01 0.  0.
         14    1    1    2    0    0 -0.19643213816E-01 -0.10133686123E-02  0.50462750400E-02  0.20306345234E-01  0.00000000000E+00 0.  1.
     999901    1    3    3    0    0  0.49525957472E-02  0.11920665388E+00 -0.49030059789E-01  0.88940356492E+00  0.88000000000E+00 0.  1.
        -11    1    4    4    0    0  0.26215134562E-01 -0.10824995969E+00  0.41089804297E-01  0.11871781750E+00  0.51100000000E-03 0.  1.
         11    1    4    4    0    0 -0.11524516493E-01 -0.99433255808E-02  0.28939804519E-02  0.15502272345E-01  0.51100000000E-03 0. -1.
</event>
<event>
 8    1  0.2001339E+004  0.1043930E+01  0.7957747E-01            NaN
         13   -1    0    0    0    0  0.00000000000E+00  0.00000000000E+00  0.74505805969E-08  0.10566000000E+00  0.10566000000E+00 0.  1.
     999900   -1    0    0    0    0 -0.00000000000E+00 -0.00000000000E+00 -0.74505805969E-08  0.93827000000E+00  0.93827000000E+00 0. -1.
     999902    2    1    2    0    0  0.10712569545E-01  0.81259852028E-03  0.90279722064E-02  0.10298970479E+01  0.10298014399E+01 0.  0.
     999903    2    3    3    0    0  0.79926375953E-01  0.51794458318E-01  0.93899172414E-01  0.14164436895E+00  0.46638837790E-01 0.  0.
         14    1    1    2    0    0 -0.10712569545E-01 -0.81259852028E-03 -0.90279722064E-02  0.14032952105E-01  0.00000000000E+00 0. -1.
     999901    1    3    3    0    0 -0.69213806408E-01 -0.50981859798E-01 -0.84871200207E-01  0.88825267894E+00  0.88000000000E+00 0. -1.
        -11    1    4    4    0    0  0.65224690187E-01  0.31875723690E-01  0.41339068303E-01  0.83543411829E-01  0.51100000000E-03 0. -1.
         11    1    4    4    0    0  0.14701685765E-01  0.19918734628E-01  0.52560104110E-01  0.58100957123E-01  0.51100000000E-03 0.  1.
</event>
<event>
 8    1  0.2001339E+004  0.1043930E+01  0.7957747E-01            NaN
         13   -1    0    0    0    0  0.00000000000E+00  0.00000000000E+00  0.74505805969E-08  0.10566000000E+00  0.10566000000E+00 0.  1.
     999900   -1    0    0    0    0 -0.00000000000E+00 -0.00000000000E+00 -0.74505805969E-08  0.93827000000E+00  0.93827000000E+00 0.  1.
     999902    2    1    2    0    0 -0.84481162164E-02  0.92988393417E-02 -0.61377876772E-02  0.10299474567E+01  0.10298525389E+01 0.  0.
     999903    2    3    3    0    0  0.93226869666E-01  0.77174001864E-01  0.54013469270E-01  0.13946274924E+00  0.43420361244E-01 0.  0.
         14    1    1    2    0    0  0.84481162164E-02 -0.92988393417E-02  0.61377876772E-02  0.13982543341E-01  0.00000000000E+00 0.  1.
     999901    1    3    3    0    0 -0.10167498588E+00 -0.67875162522E-01 -0.60151256947E-01  0.89048470742E+00  0.88000000000E+00 0.  1.
        -11    1    4    4    0    0 -0.47263897477E-03  0.16496883807E-01  0.10953335734E-01  0.19814319258E-01  0.51100000000E-03 0. -1.
         11    1    4    4    0    0  0.93699508641E-01  0.60677118057E-01  0.43060133536E-01  0.11964842998E+00  0.51100000000E-03 0.  1.
</event>
<event>
 8    1  0.2001339E+004  0.1043930E+01  0.7957747E-01            NaN
         13   -1    0    0    0    0  0.00000000000E+00  0.00000000000E+00  0.74505805969E-08  0.10566000000E+00  0.10566000000E+00 0.  1.
     999900   -1    0    0    0    0 -0.00000000000E+00 -0.00000000000E+00 -0.74505805969E-08  0.93827000000E+00  0.93827000000E+00 0.  1.
     999902    2    1    2    0    0  0.10012555939E-02  0.20106697481E-03  0.14293653271E-01  0.10295999105E+01  0.10295001818E+01 0.  0.
     999903    2    3    3    0    0  0.86886925509E-01  0.73446603326E-01 -0.65766448489E-01  0.13878518411E+00  0.44635862457E-01 0.  0.
         14    1    1    2    0    0 -0.10012555939E-02 -0.20106697481E-03 -0.14293653271E-01  0.14330089481E-01  0.00000000000E+00 0. -1.
     999901    1    3    3    0    0 -0.85885669915E-01 -0.73245536351E-01  0.80060101760E-01  0.89081472641E+00  0.88000000000E+00 0. -1.
        -11    1    4    4    0    0  0.41932425575E-01  0.36936331589E-01 -0.70729802715E-02  0.56328581349E-01  0.51100000000E-03 0.  1.
         11    1    4    4    0    0  0.44954499934E-01  0.36510271737E-01 -0.58693468217E-01  0.82456602762E-01  0.51100000000E-03 0. -1.
</event>
<event>
 8    1  0.2001339E+004  0.1043930E+01  0.7957747E-01            NaN
         13   -1    0    0    0    0  0.00000000000E+00  0.00000000000E+00  0.74505805969E-08  0.10566000000E+00  0.10566000000E+00 0. -1.
     999900   -1    0    0    0    0 -0.00000000000E+00 -0.00000000000E+00 -0.74505805969E-08  0.93827000000E+00  0.93827000000E+00 0.  1.
     999902    2    1    2    0    0  0.37634923912E-02 -0.76818444203E-02 -0.11266473176E-01  0.10297840456E+01  0.10296868808E+01 0.  0.
     999903    2    3    3    0    0 -0.12786702691E+00  0.27912444063E-01 -0.15838004399E-01  0.13927046012E+00  0.44903647678E-01 0.  0.
         14    1    1    2    0    0 -0.37634923912E-02  0.76818444203E-02  0.11266473176E-01  0.14145954421E-01  0.00000000000E+00 0. -1.
     999901    1    3    3    0    0  0.13163051930E+00 -0.35594288483E-01  0.45715312237E-02  0.89051358546E+00  0.88000000000E+00 0. -1.
        -11    1    4    4    0    0 -0.48234493317E-01  0.29021942624E-03 -0.25268940825E-01  0.54455771635E-01  0.51100000000E-03 0.  1.
         11    1    4    4    0    0 -0.79632533593E-01  0.27622224637E-01  0.94309364261E-02  0.84814688488E-01  0.51100000000E-03 0. -1.
</event>
<event>
 8    1  0.2001339E+004  0.1043930E+01  0.7957747E-01            NaN
         13   -1    0    0    0    0  0.00000000000E+00  0.00000000000E+00  0.74505805969E-08  0.10566000000E+00  0.10566000000E+00 0.  1.
     999900   -1    0    0    0    0 -0.00000000000E+00 -0.00000000000E+00 -0.74505805969E-08  0.93827000000E+00  0.93827000000E+00 0. -1.
     999902    2    1    2    0    0 -0.81812105687E-03  0.10050286273E-01 -0.37510890974E-03  0.10338394954E+01  0.10337902514E+01 0.  0.
     999903    2    3    3    0    0  0.67415075172E-01 -0.10646011498E+00  0.48664233065E-01  0.14219197552E+00  0.44404975831E-01 0.  0.
         14    1    1    2    0    0  0.81812105687E-03 -0.10050286273E-01  0.37510890974E-03  0.10090504592E-01  0.00000000000E+00 0.  1.
     999901    1    3    3    0    0 -0.68233196229E-01  0.11651040126E+00 -0.49039341974E-01  0.89164751989E+00  0.88000000000E+00 0.  1.
        -11    1    4    4    0    0  0.12239591864E-01 -0.28331533790E-01 -0.68261501867E-02  0.31612353017E-01  0.51100000000E-03 0. -1.
         11    1    4    4    0    0  0.55175483309E-01 -0.78128581193E-01  0.55490383251E-01  0.11057962250E+00  0.51100000000E-03 0.  1.
</event>
<event>
 8    1  0.2001339E+004  0.1043930E+01  0.7957747E-01            NaN
         13   -1    0    0    0    0  0.00000000000E+00  0.00000000000E+00  0.74505805969E-08  0.10566000000E+00  0.10566000000E+00 0.  1.
     999900   -1    0    0    0    0 -0.00000000000E+00 -0.00000000000E+00 -0.74505805969E-08  0.93827000000E+00  0.93827000000E+00 0. -1.
     999902    2    1    2    0    0  0.13111009021E-01 -0.23585547550E-01 -0.83327285939E-02  0.10156879927E+01  0.10152952711E+01 0.  0.
     999903    2    3    3    0    0 -0.61583030382E-01 -0.66852620302E-01 -0.78861770346E-01  0.12865609652E+00  0.45513403262E-01 0.  0.
         14    1    1    2    0    0 -0.13111009021E-01  0.23585547550E-01  0.83327285939E-02  0.28242007305E-01  0.00000000000E+00 0.  1.
     999901    1    3    3    0    0  0.74694039403E-01  0.43267072752E-01  0.70529041753E-01  0.88703189618E+00  0.88000000000E+00 0.  1.
        -11    1    4    4    0    0 -0.40205782848E-01 -0.22295939949E-01 -0.15975272390E-01  0.48673240714E-01  0.51100000000E-03 0. -1.
         11    1    4    4    0    0 -0.21377247534E-01 -0.44556680353E-01 -0.62886497957E-01  0.79982855803E-01  0.51100000000E-03 0.  1.
</event>
<event>
 8    1  0.2001339E+004  0.1043930E+01  0.7957747E-01            NaN
         13   -1    0    0    0    0  0.00000000000E+00  0.00000000000E+00  0.74505805969E-08  0.10566000000E+00  0.10566000000E+00 0. -1.
     999900   -1    0    0    0    0 -0.00000000000E+00 -0.00000000000E+00 -0.74505805969E-08  0.93827000000E+00  0.93827000000E+00 0.  1.
     999902    2    1    2    0    0 -0.12306104209E-01 -0.52274403272E-02  0.35205621127E-02  0.10301039127E+01  0.10300111214E+01 0.  0.
     999903    2    3    3    0    0 -0.89700757657E-02  0.65663325120E-01  0.11496517473E+00  0.14024070330E+00  0.45368810186E-01 0.  0.
         14    1    1    2    0    0  0.12306104209E-01  0.52274403272E-02 -0.35205621127E-02  0.13826087327E-01  0.00000000000E+00 0. -1.
     999901    1    3    3    0    0 -0.33360284437E-02 -0.70890765448E-01 -0.11144461261E+00  0.88986320937E+00  0.88000000000E+00 0.  1.
        -11    1    4    4    0    0 -0.24885114918E-01  0.43686391405E-01  0.91316144101E-01  0.10424331649E+00  0.51100000000E-03 0.  1.
         11    1    4    4    0    0  0.15915039152E-01  0.21976933716E-01  0.23649030625E-01  0.35997386811E-01  0.51100000000E-03 0. -1.
</event>
<event>
 8    1  0.2001339E+004  0.1043930E+01  0.7957747E-01            NaN
         13   -1    0    0    0    0  0.00000000000E+00  0.00000000000E+00  0.74505805969E-08  0.10566000000E+00  0.10566000000E+00 0.  1.
     999900   -1    0    0    0    0 -0.00000000000E+00 -0.00000000000E+00 -0.74505805969E-08  0.93827000000E+00  0.93827000000E+00 0.  1.
     999902    2    1    2    0    0 -0.53391154916E-03 -0.31455625067E-02 -0.13590491526E-01  0.10299700184E+01  0.10298754089E+01 0.  0.
     999903    2    3    3    0    0 -0.19086009315E-01  0.11910696383E+00 -0.56105875334E-01  0.14030861185E+00  0.44585790649E-01 0.  0.
         14    1    1    2    0    0  0.53391154916E-03  0.31455625067E-02  0.13590491526E-01  0.13959981552E-01  0.00000000000E+00 0.  1.
     999901    1    3    3    0    0  0.18552097765E-01 -0.12225252634E+00  0.42515383808E-01  0.88966140660E+00  0.88000000000E+00 0. -1.
        -11    1    4    4    0    0  0.42660401431E-02  0.91149796516E-01 -0.32343797671E-01  0.96813567604E-01  0.51100000000E-03 0.  1.
         11    1    4    4    0    0 -0.23352049458E-01  0.27957167315E-01 -0.23762077663E-01  0.43495044247E-01  0.51100000000E-03 0. -1.
</event>
<event>
 8    1  0.2001339E+004  0.1043930E+01  0.7957747E-01            NaN
         13   -1    0    0    0    0  0.00000000000E+00  0.00000000000E+00  0.74505805969E-08  0.10566000000E+00  0.10566000000E+00 0.  1.
     999900   -1    0    0    0    0 -0.00000000000E+00 -0.00000000000E+00 -0.74505805969E-08  0.93827000000E+00  0.93827000000E+00 0.  1.
     999902    2    1    2    0    0  0.10041039054E-01  0.96133383176E-02 -0.59804658185E-02  0.10287970984E+01  0.10286857951E+01 0.  0.
     999903    2    3    3    0    0 -0.56351627107E-01 -0.47386658456E-01 -0.11080861213E+00  0.13826583787E+00  0.37654908340E-01 0.  0.
         14    1    1    2    0    0 -0.10041039054E-01 -0.96133383176E-02  0.59804658185E-02  0.15132901583E-01  0.00000000000E+00 0.  1.
     999901    1    3    3    0    0  0.66392666161E-01  0.56999996774E-01  0.10482814631E+00  0.89053126055E+00  0.88000000000E+00 0. -1.
        -11    1    4    4    0    0 -0.28488219371E-01 -0.68637384537E-02 -0.63904413222E-01  0.70304514071E-01  0.51100000000E-03 0.  1.
         11    1    4    4    0    0 -0.27863407736E-01 -0.40522920002E-01 -0.46904198911E-01  0.67961323800E-01  0.51100000000E-03 0. -1.
</event>
<event>
 8    1  0.2001339E+004  0.1043930E+01  0.7957747E-01            NaN
         13   -1    0    0    0    0  0.00000000000E+00  0.00000000000E+00  0.74505805969E-08  0.10566000000E+00  0.10566000000E+00 0.  1.
     999900   -1    0    0    0    0 -0.00000000000E+00 -0.00000000000E+00 -0.74505805969E-08  0.93827000000E+00  0.93827000000E+00 0.  1.
     999902    2    1    2    0    0 -0.68269689731E-03 -0.13329089181E-01 -0.17464640765E-02  0.10304696571E+01  0.10303817416E+01 0.  0.
     999903    2    3    3    0    0 -0.92751245693E-01  0.11073349980E-01  0.94962694608E-01  0.14006258276E+00  0.43292043890E-01 0.  0.
         14    1    1    2    0    0  0.68269689731E-03  0.13329089181E-01  0.17464640765E-02  0.13460342872E-01  0.00000000000E+00 0.  1.
     999901    1    3    3    0    0  0.92068548796E-01 -0.24402439161E-01 -0.96709158685E-01  0.89040707437E+00  0.88000000000E+00 0.  1.
        -11    1    4    4    0    0 -0.13842502484E-01  0.12329055182E-01  0.28451803761E-02  0.18761040724E-01  0.51100000000E-03 0.  1.
         11    1    4    4    0    0 -0.78908743210E-01 -0.12557052020E-02  0.92117514232E-01  0.12130154203E+00  0.51100000000E-03 0. -1.
</event>
<event>
 8    1  0.2001339E+004  0.1043930E+01  0.7957747E-01            NaN
         13   -1    0    0    0    0  0.00000000000E+00  0.00000000000E+00  0.74505805969E-08  0.10566000000E+00  0.10566000000E+00 0. -1.
     999900   -1    0    0    0    0 -0.00000000000E+00 -0.00000000000E+00 -0.74505805969E-08  0.93827000000E+00  0.93827000000E+00 0. -1.
     999902    2    1    2    0    0  0.84953494623E-02  0.95633541959E-02  0.62471389855E-02  0.10296942896E+01  0.10295958792E+01 0.  0.
     999903    2    3    3    0    0 -0.52856745933E-01 -0.74257749396E-01 -0.93147522174E-01  0.13802767268E+00  0.45465685973E-01 0.  0.
         14    1    1    2    0    0 -0.84953494623E-02 -0.95633541959E-02 -0.62471389855E-02  0.14235710431E-01  0.00000000000E+00 0.  1.
     999901    1    3    3    0    0  0.61352095395E-01  0.83821103591E-01  0.99394661160E-01  0.89166661689E+00  0.88000000000E+00 0.  1.
        -11    1    4    4    0    0 -0.17805517657E-01 -0.78454598654E-02 -0.14700964656E-02  0.19519477558E-01  0.51100000000E-03 0.  1.
         11    1    4    4    0    0 -0.35051228276E-01 -0.66412289530E-01 -0.91677425709E-01  0.11850819512E+00  0.51100000000E-03 0. -1.
</event>
<event>
 8    1  0.2001339E+004  0.1043930E+01  0.7957747E-01            NaN
         13   -1    0    0    0    0  0.00000000000E+00  0.00000000000E+00  0.74505805969E-08  0.10566000000E+00  0.10566000000E+00 0. -1.
     999900   -1    0    0    0    0 -0.00000000000E+00 -0.00000000000E+00 -0.74505805969E-08  0.93827000000E+00  0.93827000000E+00 0. -1.
     999902    2    1    2    0    0  0.13058493543E-01 -0.40436960396E-02  0.24568563767E-02  0.10300407281E+01  0.10299470810E+01 0.  0.
     999903    2    3    3    0    0  0.89610054955E-01  0.74888553292E-01  0.65527843177E-01  0.14095783492E+00  0.44010858084E-01 0.  0.
         14    1    1    2    0    0 -0.13058493543E-01  0.40436960396E-02 -0.24568563767E-02  0.13889271922E-01  0.00000000000E+00 0. -1.
     999901    1    3    3    0    0 -0.76551561412E-01 -0.78932249332E-01 -0.63070986801E-01  0.88908289316E+00  0.88000000000E+00 0.  1.
        -11    1    4    4    0    0  0.28588098078E-01  0.42758564859E-01  0.99645118222E-02  0.52393958024E-01  0.51100000000E-03 0. -1.
         11    1    4    4    0    0  0.61021956876E-01  0.32129988434E-01  0.55563331355E-01  0.88563876891E-01  0.51100000000E-03 0.  1.
</event>
<event>
 8    1  0.2001339E+004  0.1043930E+01  0.7957747E-01            NaN
         13   -1    0    0    0    0  0.00000000000E+00  0.00000000000E+00  0.74505805969E-08  0.10566000000E+00  0.10566000000E+00 0. -1.
     999900   -1    0    0    0    0 -0.00000000000E+00 -0.00000000000E+00 -0.74505805969E-08  0.93827000000E+00  0.93827000000E+00 0.  1.
     999902    2    1    2    0    0 -0.96018274106E-02 -0.15993017689E-02 -0.10425597621E-01  0.10296665523E+01  0.10295677554E+01 0.  0.
     999903    2    3    3    0    0 -0.86695742161E-01 -0.73281523091E-01  0.68598775187E-01  0.13987631628E+00  0.44421375070E-01 0.  0.
         14    1    1    2    0    0  0.96018274106E-02  0.15993017689E-02  0.10425597621E-01  0.14263447743E-01  0.00000000000E+00 0.  1.
     999901    1    3    3    0    0  0.77093914750E-01  0.71682221322E-01 -0.79024372808E-01  0.88979023598E+00  0.88000000000E+00 0.  1.
        -11    1    4    4    0    0 -0.23029652089E-01 -0.28107159110E-01  0.45964344090E-01  0.58594874496E-01  0.51100000000E-03 0. -1.
         11    1    4    4    0    0 -0.63666090072E-01 -0.45174363981E-01  0.22634431097E-01  0.81281441783E-01  0.51100000000E-03 0.  1.
</event>
<event>
 7    1  0.2001339E+004  0.1043930E+01  0.7957747E-01            NaN
         13   -1    0    0    0    0  0.00000000000E+00  0.00000000000E+00  0.74505805969E-08  0.10566000000E+00  0.10566000000E+00 0. -1.
     999900   -1    0    0    0    0 -0.00000000000E+00 -0.00000000000E+00 -0.74505805969E-08  0.93827000000E+00  0.93827000000E+00 0.  1.
     999902    2    1    2    0    0 -0.36041029520E-02  0.89792883217E-02  0.10824445448E-01  0.10294115360E+01  0.10293091492E+01 0.  0.
         14    1    1    2    0    0  0.36041029520E-02 -0.89792883217E-02 -0.10824445448E-01  0.14518463972E-01  0.00000000000E+00 0.  1.
     999901    1    3    3    0    0  0.90459099657E-02 -0.63822843289E-01  0.11124229095E+00  0.88934247122E+00  0.88000000000E+00 0. -1.
        -11    1    3    3    0    0 -0.19278458563E-01  0.13563470423E-01 -0.68515295955E-01  0.72458495674E-01  0.51100000000E-03 0.  1.
         11    1    3    3    0    0  0.66284456457E-02  0.59238661188E-01 -0.31902549542E-01  0.67610569139E-01  0.51100000000E-03 0. -1.
</event>
<event>
 8    1  0.2001339E+004  0.1043930E+01  0.7957747E-01            NaN
         13   -1    0    0    0    0  0.00000000000E+00  0.00000000000E+00  0.74505805969E-08  0.10566000000E+00  0.10566000000E+00 0.  1.
     999900   -1    0    0    0    0 -0.00000000000E+00 -0.00000000000E+00 -0.74505805969E-08  0.93827000000E+00  0.93827000000E+00 0.  1.
     999902    2    1    2    0    0  0.10517763272E-01 -0.81429507788E-02  0.53958638433E-02  0.10295756857E+01  0.10294756171E+01 0.  0.
     999903    2    3    3    0    0 -0.59993004285E-01  0.38969186129E-01  0.11049181100E+00  0.13927434354E+00  0.45509827968E-01 0.  0.
         14    1    1    2    0    0 -0.10517763272E-01  0.81429507788E-02 -0.53958638433E-02  0.14354314273E-01  0.00000000000E+00 0. -1.
     999901    1    3    3    0    0  0.70510767558E-01 -0.47112136908E-01 -0.10509594715E+00  0.89030134218E+00  0.88000000000E+00 0.  1.
        -11    1    4    4    0    0 -0.33849686162E-01  0.35057609278E-01  0.37052710944E-01  0.61220925596E-01  0.51100000000E-03 0. -1.
         11    1    4    4    0    0 -0.26143318123E-01  0.39115768519E-02  0.73439100051E-01  0.78053417948E-01  0.51100000000E-03 0.  1.
</event>
<event>
 8    1  0.2001339E+004  0.1043930E+01  0.7957747E-01            NaN
         13   -1    0    0    0    0  0.00000000000E+00  0.00000000000E+00  0.74505805969E-08  0.10566000000E+00  0.10566000000E+00 0.  1.
     999900   -1    0    0    0    0 -0.00000000000E+00 -0.00000000000E+00 -0.74505805969E-08  0.93827000000E+00  0.93827000000E+00 0. -1.
     999902    2    1    2    0    0 -0.70441216064E-02 -0.59905634535E-02 -0.11401523668E-01  0.10292500395E+01  0.10291453457E+01 0.  0.
     999903    2    3    3    0    0 -0.26215163233E-01 -0.43712100568E-01  0.12074607924E+00  0.13837775222E+00  0.44393739858E-01 0.  0.
         14    1    1    2    0    0  0.70441216064E-02  0.59905634535E-02  0.11401523668E-01  0.14679960547E-01  0.00000000000E+00 0.  1.
     999901    1    3    3    0    0  0.19171041626E-01  0.37721537114E-01 -0.13214760291E+00  0.89087228723E+00  0.88000000000E+00 0. -1.
        -11    1    4    4    0    0  0.10302982074E-01 -0.23506941516E-01  0.41108847396E-01  0.48465721848E-01  0.51100000000E-03 0. -1.
         11    1    4    4    0    0 -0.36518145307E-01 -0.20205159051E-01  0.79637231847E-01  0.89912030375E-01  0.51100000000E-03 0.  1.
</event>
<event>
 8    1  0.2001339E+004  0.1043930E+01  0.7957747E-01            NaN
         13   -1    0    0    0    0  0.00000000000E+00  0.00000000000E+00  0.74505805969E-08  0.10566000000E+00  0.10566000000E+00 0.  1.
     999900   -1    0    0    0    0 -0.00000000000E+00 -0.00000000000E+00 -0.74505805969E-08  0.93827000000E+00  0.93827000000E+00 0.  1.
     999902    2    1    2    0    0  0.74815819840E-02  0.10502491229E-01 -0.20726784386E-02  0.10308696636E+01  0.10307869280E+01 0.  0.
     999903    2    3    3    0    0  0.58917960941E-01 -0.91984603255E-01 -0.75947747249E-01  0.14036035348E+00  0.44726671678E-01 0.  0.
         14    1    1    2    0    0 -0.74815819840E-02 -0.10502491229E-01  0.20726784386E-02  0.13060336401E-01  0.00000000000E+00 0. -1.
     999901    1    3    3    0    0 -0.51436378957E-01  0.10248709448E+00  0.73875068811E-01  0.89050931012E+00  0.88000000000E+00 0. -1.
        -11    1    4    4    0    0  0.38848239891E-01 -0.88847232544E-01 -0.68474082878E-01  0.11870963575E+00  0.51100000000E-03 0.  1.
         11    1    4    4    0    0  0.20069721050E-01 -0.31373707104E-02 -0.74736643714E-02  0.21650717728E-01  0.51100000000E-03 0. -1.
</event>
<event>
 8    1  0.2001339E+004  0.1043930E+01  0.7957747E-01            NaN
         13   -1    0    0    0    0  0.00000000000E+00  0.00000000000E+00  0.74505805969E-08  0.10566000000E+00  0.10566000000E+00 0. -1.
     999900   -1    0    0    0    0 -0.00000000000E+00 -0.00000000000E+00 -0.74505805969E-08  0.93827000000E+00  0.93827000000E+00 0.  1.
     999902    2    1    2    0    0 -0.85959993255E-02 -0.64948040131E-02 -0.83555706333E-02  0.10302958794E+01  0.10302056639E+01 0.  0.
     999903    2    3    3    0    0  0.58478771816E-01 -0.44287643395E-01 -0.11164996835E+00  0.14091572659E+00  0.44837087972E-01 0.  0.
         14    1    1    2    0    0  0.85959993255E-02  0.64948040131E-02  0.83555706333E-02  0.13634120587E-01  0.00000000000E+00 0. -1.
     999901    1    3    3    0    0 -0.67074771141E-01  0.37792839382E-01  0.10329439772E+00  0.88938015282E+00  0.88000000000E+00 0. -1.
        -11    1    4    4    0    0  0.62360276858E-01 -0.35038092715E-01 -0.78157513180E-01  0.10594965813E+00  0.51100000000E-03 0. -1.
         11    1    4    4    0    0 -0.38815050425E-02 -0.92495506808E-02 -0.33492455170E-01  0.34966068460E-01  0.51100000000E-03 0.  1.
</event>
<event>
 7    1  0.2001339E+004  0.1043930E+01  0.7957747E-01            NaN
         13   -1    0    0    0    0  0.00000000000E+00  0.00000000000E+00  0.74505805969E-08  0.10566000000E+00  0.10566000000E+00 0. -1.
     999900   -1    0    0    0    0 -0.00000000000E+00 -0.00000000000E+00 -0.74505805969E-08  0.93827000000E+00  0.93827000000E+00 0. -1.
     999902    2    1    2    0    0  0.62728249338E-02  0.95103327334E-02  0.93825604017E-02  0.10291710298E+01  0.10290651978E+01 0.  0.
         14    1    1    2    0    0 -0.62728249338E-02 -0.95103327334E-02 -0.93825604017E-02  0.14758970189E-01  0.00000000000E+00 0.  1.
     999901    1    3    3    0    0  0.13327892924E-01  0.78290205729E-01 -0.92964465837E-01  0.88845336453E+00  0.88000000000E+00 0. -1.
        -11    1    3    3    0    0  0.30125026575E-01 -0.32822972970E-01  0.41915804952E-01  0.61172384346E-01  0.51100000000E-03 0. -1.
         11    1    3    3    0    0 -0.37180094565E-01 -0.35956900025E-01  0.60431221287E-01  0.79545280932E-01  0.51100000000E-03 0.  1.
</event>
<event>
 8    1  0.2001339E+004  0.1043930E+01  0.7957747E-01            NaN
         13   -1    0    0    0    0  0.00000000000E+00  0.00000000000E+00  0.74505805969E-08  0.10566000000E+00  0.10566000000E+00 0. -1.
     999900   -1    0    0    0    0 -0.00000000000E+00 -0.00000000000E+00 -0.74505805969E-08  0.93827000000E+00  0.93827000000E+00 0.  1.
     999902    2    1    2    0    0 -0.52331350758E-02 -0.92013983388E-02 -0.90440070408E-02  0.10300071591E+01  0.10299130557E+01 0.  0.
     999903    2    3    3    0    0 -0.72154522498E-01  0.64081595317E-01  0.89553346816E-01  0.13895704415E+00  0.44458207527E-01 0.  0.
         14    1    1    2    0    0  0.52331350758E-02  0.92013983388E-02  0.90440070408E-02  0.13922840855E-01  0.00000000000E+00 0. -1.
     999901    1    3    3    0    0  0.66921387423E-01 -0.73282993655E-01 -0.98597353857E-01  0.89105011500E+00  0.88000000000E+00 0. -1.
        -11    1    4    4    0    0 -0.12334159019E-01  0.31018949051E-01  0.49588906397E-01  0.59779824670E-01  0.51100000000E-03 0.  1.
         11    1    4    4    0    0 -0.59820363479E-01  0.33062646265E-01  0.39964440419E-01  0.79177219476E-01  0.51100000000E-03 0. -1.
</event>
<event>
 8    1  0.2001339E+004  0.1043930E+01  0.7957747E-01            NaN
         13   -1    0    0    0    0  0.00000000000E+00  0.00000000000E+00  0.74505805969E-08  0.10566000000E+00  0.10566000000E+00 0. -1.
     999900   -1    0    0    0    0 -0.00000000000E+00 -0.00000000000E+00 -0.74505805969E-08  0.93827000000E+00  0.93827000000E+00 0. -1.
     999902    2    1    2    0    0  0.67216028174E-02  0.71389071956E-02  0.91922158460E-02  0.10304897332E+01  0.10304020814E+01 0.  0.
     999903    2    3    3    0    0  0.42741570984E-01  0.13337972527E-01 -0.12451757213E+00  0.13963947980E+00  0.44607344126E-01 0.  0.
         14    1    1    2    0    0 -0.67216028174E-02 -0.71389071956E-02 -0.91922158460E-02  0.13440266833E-01  0.00000000000E+00 0. -1.
     999901    1    3    3    0    0 -0.36019968166E-01 -0.61990653309E-02  0.13370978797E+00  0.89085025336E+00  0.88000000000E+00 0.  1.
        -11    1    4    4    0    0  0.46520543512E-01 -0.23741584999E-02 -0.84713361360E-01  0.96676844751E-01  0.51100000000E-03 0. -1.
         11    1    4    4    0    0 -0.37789725281E-02  0.15712131026E-01 -0.39804210768E-01  0.42962635052E-01  0.51100000000E-03 0.  1.
</event>
<event>
 8    1  0.2001339E+004  0.1043930E+01  0.7957747E-01            NaN
         13   -1    0    0    0    0  0.00000000000E+00  0.00000000000E+00  0.74505805969E-08  0.10566000000E+00  0.10566000000E+00 0.  1.
     999900   -1    0    0    0    0 -0.00000000000E+00 -0.00000000000E+00 -0.74505805969E-08  0.93827000000E+00  0.93827000000E+00 0. -1.
     999902    2    1    2    0    0  0.12319873233E-01 -0.43176354356E-02  0.29433627028E-02  0.10305477492E+01  0.10304608575E+01 0.  0.
     999903    2    3    3    0    0 -0.35837930261E-01  0.99829195092E-02  0.12750877271E+00  0.14035663418E+00  0.45359472151E-01 0.  0.
         14    1    1    2    0    0 -0.12319873233E-01  0.43176354356E-02 -0.29433627028E-02  0.13382250791E-01  0.00000000000E+00 0. -1.
     999901    1    3    3    0    0  0.48157803494E-01 -0.14300554945E-01 -0.12456541000E+00  0.89019111503E+00  0.88000000000E+00 0. -1.
        -11    1    4    4    0    0 -0.14001965989E-01 -0.14217309759E-02  0.10803804545E+00  0.10895208468E+00  0.51100000000E-03 0.  1.
         11    1    4    4    0    0 -0.21835964272E-01  0.11404650485E-01  0.19470727257E-01  0.31404549500E-01  0.51100000000E-03 0. -1.
</event>
<event>
 8    1  0.2001339E+004  0.1043930E+01  0.7957747E-01            NaN
         13   -1    0    0    0    0  0.00000000000E+00  0.00000000000E+00  0.74505805969E-08  0.10566000000E+00  0.10566000000E+00 0.  1.
     999900   -1    0    0    0    0 -0.00000000000E+00 -0.00000000000E+00 -0.74505805969E-08  0.93827000000E+00  0.93827000000E+00 0.  1.
     999902    2    1    2    0    0  0.11888619097E-01 -0.78953963371E-02 -0.27684404894E-02  0.10293924345E+01  0.10292897762E+01 0.  0.
     999903    2    3    3    0    0 -0.10403912668E+00 -0.73511921324E-01  0.31321473745E-01  0.13871466291E+00  0.45084149453E-01 0.  0.
         14    1    1    2    0    0 -0.11888619097E-01  0.78953963371E-02  0.27684404894E-02  0.14537565480E-01  0.00000000000E+00 0. -1.
     999901    1    3    3    0    0  0.11592774577E+00  0.65616524987E-01 -0.34089914234E-01  0.89067777161E+00  0.88000000000E+00 0.  1.
        -11    1    4    4    0    0 -0.63720758119E-01 -0.29845983332E-01  0.36103155587E-01  0.79087399127E-01  0.51100000000E-03 0.  1.
         11    1    4    4    0    0 -0.40318368557E-01 -0.43665937992E-01 -0.47816818420E-02  0.59627263781E-01  0.51100000000E-03 0. -1.
</event>
<event>
 8    1  0.2001339E+004  0.1043930E+01  0.7957747E-01            NaN
         13   -1    0    0    0    0  0.00000000000E+00  0.00000000000E+00  0.74505805969E-08  0.10566000000E+00  0.10566000000E+00 0.  1.
     999900   -1    0    0    0    0 -0.00000000000E+00 -0.00000000000E+00 -0.74505805969E-08  0.93827000000E+00  0.93827000000E+00 0. -1.
     999902    2    1    2    0    0 -0.78817049040E-02  0.24613608672E-03  0.10974210461E-01  0.10304164827E+01  0.10303278666E+01 0.  0.
     999903    2    3    3    0    0 -0.10835785226E+00  0.41282624672E-01 -0.65532500114E-01  0.14045427767E+00  0.44578204305E-01 0.  0.
         14    1    1    2    0    0  0.78817049040E-02 -0.24613608672E-03 -0.10974210461E-01  0.13513517322E-01  0.00000000000E+00 0. -1.
     999901    1    3    3    0    0  0.10047614735E+00 -0.41036488586E-01  0.76506710575E-01  0.88996220501E+00  0.88000000000E+00 0.  1.
        -11    1    4    4    0    0 -0.32095449668E-01  0.28699163535E-01 -0.40748315738E-01  0.59282765063E-01  0.51100000000E-03 0.  1.
         11    1    4    4    0    0 -0.76262402587E-01  0.12583461137E-01 -0.24784184377E-01  0.81171512606E-01  0.51100000000E-03 0. -1.
</event>
<event>
 8    1  0.2001339E+004  0.1043930E+01  0.7957747E-01            NaN
         13   -1    0    0    0    0  0.00000000000E+00  0.00000000000E+00  0.74505805969E-08  0.10566000000E+00  0.10566000000E+00 0. -1.
     999900   -1    0    0    0    0 -0.00000000000E+00 -0.00000000000E+00 -0.74505805969E-08  0.93827000000E+00  0.93827000000E+00 0.  1.
     999902    2    1    2    0    0 -0.26667369482E-02 -0.83599091082E-02  0.10520371598E-01  0.10302304458E+01  0.10301393564E+01 0.  0.
     999903    2    3    3    0    0  0.10627118756E+00  0.28829749050E-01  0.74513870962E-01  0.14042950739E+00  0.45204091004E-01 0.  0.
         14    1    1    2    0    0  0.26667369482E-02  0.83599091082E-02 -0.10520371598E-01  0.13699554183E-01  0.00000000000E+00 0.  1.
     999901    1    3    3    0    0 -0.10893792451E+00 -0.37189658158E-01 -0.63993499364E-01  0.88980093843E+00  0.88000000000E+00 0.  1.
        -11    1    4    4    0    0  0.99598873318E-01  0.38909746550E-01  0.67024339332E-01  0.12619994900E+00  0.51100000000E-03 0. -1.
         11    1    4    4    0    0  0.66723142416E-02 -0.10079997500E-01  0.74895316304E-02  0.14229558390E-01  0.51100000000E-03 0.  1.
</event>
<event>
 8    1  0.2001339E+004  0.1043930E+01  0.7957747E-01            NaN
         13   -1    0    0    0    0  0.00000000000E+00  0.00000000000E+00  0.74505805969E-08  0.10566000000E+00  0.10566000000E+00 0. -1.
     999900   -1    0    0    0    0 -0.00000000000E+00 -0.00000000000E+00 -0.74505805969E-08  0.93827000000E+00  0.93827000000E+00 0.  1.
     999902    2    1    2    0    0  0.12180288564E-01 -0.28555848340E-02  0.49829125526E-02  0.10304636266E+01  0.10303756318E+01 0.  0.
     999903    2    3    3    0    0  0.61100307318E-01 -0.11011875055E+00 -0.45066915000E-01  0.14119227311E+00  0.45219955559E-01 0.  0.
         14    1    1    2    0    0 -0.12180288564E-01  0.28555848340E-02 -0.49829125526E-02  0.13466373371E-01  0.00000000000E+00 0. -1.
     999901    1    3    3    0    0 -0.48920018754E-01  0.10726316572E+00  0.50049827553E-01  0.88927135352E+00  0.88000000000E+00 0.  1.
        -11    1    4    4    0    0  0.35360927347E-02 -0.25734930101E-01  0.64742838938E-02  0.26776259113E-01  0.51100000000E-03 0. -1.
         11    1    4    4    0    0  0.57564214583E-01 -0.84383820450E-01 -0.51541198894E-01  0.11441601400E+00  0.51100000000E-03 0.  1.
</event>
<event>
 8    1  0.2001339E+004  0.1043930E+01  0.7957747E-01            NaN
         13   -1    0    0    0    0  0.00000000000E+00  0.00000000000E+00  0.74505805969E-08  0.10566000000E+00  0.10566000000E+00 0.  1.
     999900   -1    0    0    0    0 -0.00000000000E+00 -0.00000000000E+00 -0.74505805969E-08  0.93827000000E+00  0.93827000000E+00 0. -1.
     999902    2    1    2    0    0  0.77766070218E-02 -0.11206772566E-01  0.10073957831E-02  0.10302521999E+01  0.10301614016E+01 0.  0.
     999903    2    3    3    0    0  0.11773271862E+00  0.60485737479E-01  0.12589321774E-01  0.14044081348E+00  0.45228460025E-01 0.  0.
         14    1    1    2    0    0 -0.77766070218E-02  0.11206772566E-01 -0.10073957831E-02  0.13677800057E-01  0.00000000000E+00 0.  1.
     999901    1    3    3    0    0 -0.10995611160E+00 -0.71692510045E-01 -0.11581925991E-01  0.88981138647E+00  0.88000000000E+00 0.  1.
        -11    1    4    4    0    0  0.12048530750E+00  0.60842710241E-01  0.82044449205E-02  0.13522617628E+00  0.51100000000E-03 0.  1.
         11    1    4    4    0    0 -0.27525888836E-02 -0.35697276241E-03  0.43848768537E-02  0.52146372009E-02  0.51100000000E-03 0. -1.
</event>
<event>
 8    1  0.2001339E+004  0.1043930E+01  0.7957747E-01            NaN
         13   -1    0    0    0    0  0.00000000000E+00  0.00000000000E+00  0.74505805969E-08  0.10566000000E+00  0.10566000000E+00 0. -1.
     999900   -1    0    0    0    0 -0.00000000000E+00 -0.00000000000E+00 -0.74505805969E-08  0.93827000000E+00  0.93827000000E+00 0. -1.
     999902    2    1    2    0    0  0.10262510239E-01 -0.10216086942E-01 -0.97889324583E-02  0.10264511343E+01  0.10263023045E+01 0.  0.
     999903    2    3    3    0    0  0.63313744038E-01 -0.11297157355E+00  0.20599062450E-01  0.13836524108E+00  0.44152145496E-01 0.  0.
         14    1    1    2    0    0 -0.10262510239E-01  0.10216086942E-01  0.97889324583E-02  0.17478865738E-01  0.00000000000E+00 0. -1.
     999901    1    3    3    0    0 -0.53051233799E-01  0.10275548660E+00 -0.30387994908E-01  0.88808589318E+00  0.88000000000E+00 0. -1.
        -11    1    4    4    0    0  0.69640399165E-01 -0.10003314332E+00  0.22101880207E-01  0.12387561983E+00  0.51100000000E-03 0. -1.
         11    1    4    4    0    0 -0.63266551269E-02 -0.12938430222E-01 -0.15028177574E-02  0.14489621248E-01  0.51100000000E-03 0.  1.
</event>
<event>
 7    1  0.2001339E+004  0.1043930E+01  0.7957747E-01            NaN
         13   -1    0    0    0    0  0.00000000000E+00  0.00000000000E+00  0.74505805969E-08  0.10566000000E+00  0.10566000000E+00 0.  1.
     999900   -1    0    0    0    0 -0.00000000000E+00 -0.00000000000E+00 -0.74505805969E-08  0.93827000000E+00  0.93827000000E+00 0. -1.
     999902    2    1    2    0    0 -0.76330034619E-02 -0.11595479867E-01  0.23858974678E-02  0.10298441773E+01  0.10297478425E+01 0.  0.
         14    1    1    2    0    0  0.76330034619E-02  0.11595479867E-01 -0.23858974678E-02  0.14085822728E-01  0.00000000000E+00 0.  1.
     999901    1    3    3    0    0 -0.87589192996E-02 -0.13907443860E+00  0.47664795419E-01  0.89223895390E+00  0.88000000000E+00 0.  1.
        -11    1    3    3    0    0 -0.74146487910E-02  0.15377306605E-01 -0.99065345777E-02  0.19744344088E-01  0.51100000000E-03 0.  1.
         11    1    3    3    0    0  0.85405646287E-02  0.11210165213E+00 -0.35372363373E-01  0.11786087928E+00  0.51100000000E-03 0. -1.
</event>
<event>
 8    1  0.2001339E+004  0.1043930E+01  0.7957747E-01            NaN
         13   -1    0    0    0    0  0.00000000000E+00  0.00000000000E+00  0.74505805969E-08  0.10566000000E+00  0.10566000000E+00 0.  1.
     999900   -1    0    0    0    0 -0.00000000000E+00 -0.00000000000E+00 -0.74505805969E-08  0.93827000000E+00  0.93827000000E+00 0.  1.
     999902    2    1    2    0    0 -0.88752731017E-03 -0.11663146867E-01 -0.14391222559E-01  0.10253848123E+01  0.10252170938E+01 0.  0.
     999903    2    3    3    0    0 -0.87545834270E-01 -0.10021676095E-01  0.91052727636E-01  0.13486205392E+00  0.46178645353E-01 0.  0.
         14    1    1    2    0    0  0.88752731017E-03  0.11663146867E-01  0.14391222559E-01  0.18545187686E-01  0.00000000000E+00 0. -1.
     999901    1    3    3    0    0  0.86658306960E-01 -0.16414707720E-02 -0.10544395020E+00  0.89052275840E+00  0.88000000000E+00 0.  1.
        -11    1    4    4    0    0 -0.43442684919E-03  0.21943774687E-02  0.24372428553E-01  0.24480204528E-01  0.51100000000E-03 0.  1.
         11    1    4    4    0    0 -0.87111407421E-01 -0.12216053564E-01  0.66680299084E-01  0.11038184939E+00  0.51100000000E-03 0. -1.
</event>
<event>
 8    1  0.2001339E+004  0.1043930E+01  0.7957747E-01            NaN
         13   -1    0    0    0    0  0.00000000000E+00  0.00000000000E+00  0.74505805969E-08  0.10566000000E+00  0.10566000000E+00 0.  1.
     999900   -1    0    0    0    0 -0.00000000000E+00 -0.00000000000E+00 -0.74505805969E-08  0.93827000000E+00  0.93827000000E+00 0.  1.
     999902    2    1    2    0    0  0.61747561962E-02 -0.10718207341E-01  0.29966284643E-02  0.10312025743E+01  0.10311240284E+01 0.  0.
     999903    2    3    3    0    0  0.53372885284E-01 -0.48695477061E-01  0.11400817435E+00  0.14216179924E+00  0.44634056217E-01 0.  0.
         14    1    1    2    0    0 -0.61747561962E-02  0.10718207341E-01 -0.29966284643E-02  0.12727425696E-01  0.00000000000E+00 0.  1.
     999901    1    3    3    0    0 -0.47198129087E-01  0.37977269720E-01 -0.11101154589E+00  0.88904077506E+00  0.88000000000E+00 0.  1.
        -11    1    4    4    0    0 -0.32578394522E-02 -0.20887798679E-01  0.36915819676E-01  0.42543536699E-01  0.51100000000E-03 0.  1.
         11    1    4    4    0    0  0.56630724736E-01 -0.27807678382E-01  0.77092354677E-01  0.99618262541E-01  0.51100000000E-03 0. -1.
</event>
<event>
 8    1  0.2291799E+004  0.1043930E+01  0.7957747E-01            NaN
         13   -1    0    0    0    0  0.00000000000E+00  0.00000000000E+00  0.74505805969E-08  0.10566000000E+00  0.10566000000E+00 0.  1.
     999900   -1    0    0    0    0 -0.00000000000E+00 -0.00000000000E+00 -0.74505805969E-08  0.93827000000E+00  0.93827000000E+00 0.  1.
     999902    2    1    2    0    0 -0.19006513651E-02 -0.96682500366E-02  0.92289562200E-02  0.10304295864E+01  0.10303411432E+01 0.  0.
     999903    2    3    3    0    0 -0.11925295350E+00 -0.47119354417E-01 -0.37669862317E-01  0.14061294955E+00  0.43720505221E-01 0.  0.
         14    1    1    2    0    0  0.19006513651E-02  0.96682500366E-02 -0.92289562200E-02  0.13500413597E-01  0.00000000000E+00 0. -1.
     999901    1    3    3    0    0  0.11735230213E+00  0.37451104380E-01  0.46898818537E-01  0.88981663685E+00  0.88000000000E+00 0. -1.
        -11    1    4    4    0    0 -0.68716152695E-01 -0.35911664602E-01 -0.16611681293E-02  0.77553709752E-01  0.51100000000E-03 0.  1.
         11    1    4    4    0    0 -0.50536800802E-01 -0.11207689814E-01 -0.36008694187E-01  0.63059239801E-01  0.51100000000E-03 0. -1.
</event>
<event>
 8    1  0.2001339E+004  0.1043930E+01  0.7957747E-01            NaN
         13   -1    0    0    0    0  0.00000000000E+00  0.00000000000E+00  0.74505805969E-08  0.10566000000E+00  0.10566000000E+00 0.  1.
     999900   -1    0    0    0    0 -0.00000000000E+00 -0.00000000000E+00 -0.74505805969E-08  0.93827000000E+00  0.93827000000E+00 0.  1.
     999902    2    1    2    0    0  0.56559989819E-02  0.18701126352E-02  0.14757601201E-01  0.10280154017E+01  0.10278922082E+01 0.  0.
     999903    2    3    3    0    0 -0.29691427311E-01  0.52772549779E-01 -0.11282494624E+00  0.13665811920E+00  0.47743587873E-01 0.  0.
         14    1    1    2    0    0 -0.56559989819E-02 -0.18701126352E-02 -0.14757601201E-01  0.15914598298E-01  0.00000000000E+00 0. -1.
     999901    1    3    3    0    0  0.35347426293E-01 -0.50902437143E-01  0.12758254745E+00  0.89135728250E+00  0.88000000000E+00 0. -1.
        -11    1    4    4    0    0 -0.96178938647E-02  0.97943524507E-02 -0.74267058350E-01  0.75526752209E-01  0.51100000000E-03 0. -1.
         11    1    4    4    0    0 -0.20073533447E-01  0.42978197328E-01 -0.38557887894E-01  0.61131366993E-01  0.51100000000E-03 0.  1.
</event>
<event>
 8    1  0.2001339E+004  0.1043930E+01  0.7957747E-01            NaN
         13   -1    0    0    0    0  0.00000000000E+00  0.00000000000E+00  0.74505805969E-08  0.10566000000E+00  0.10566000000E+00 0.  1.
     999900   -1    0    0    0    0 -0.00000000000E+00 -0.00000000000E+00 -0.74505805969E-08  0.93827000000E+00  0.93827000000E+00 0.  1.
     999902    2    1    2    0    0 -0.13943008736E-01 -0.24105707874E-02  0.53329961863E-02  0.10288085188E+01  0.10286973847E+01 0.  0.
     999903    2    3    3    0    0 -0.27755401699E-01 -0.11326540983E+00 -0.61124762316E-01  0.13926020020E+00  0.45362444860E-01 0.  0.
         14    1    1    2    0    0  0.13943008736E-01  0.24105707874E-02 -0.53329961863E-02  0.15121481159E-01  0.00000000000E+00 0.  1.
     999901    1    3    3    0    0  0.13812392963E-01  0.11085483904E+00  0.66457758502E-01  0.88954831864E+00  0.88000000000E+00 0. -1.
        -11    1    4    4    0    0 -0.16611667680E-01 -0.71524946358E-02 -0.53699264720E-02  0.18873338707E-01  0.51100000000E-03 0. -1.
         11    1    4    4    0    0 -0.11143734019E-01 -0.10611291519E+00 -0.55754835844E-01  0.12038686149E+00  0.51100000000E-03 0.  1.
</event>
<event>
 8    1  0.2440503E+004  0.1043930E+01  0.7957747E-01            NaN
         13   -1    0    0    0    0  0.00000000000E+00  0.00000000000E+00  0.74505805969E-08  0.10566000000E+00  0.10566000000E+00 0. -1.
     999900   -1    0    0    0    0 -0.00000000000E+00 -0.00000000000E+00 -0.74505805969E-08  0.93827000000E+00  0.93827000000E+00 0.  1.
     999902    2    1    2    0    0 -0.19734462319E-02  0.13122700358E-01 -0.66229834030E-03  0.10306432249E+01  0.10305575765E+01 0.  0.
     999903    2    3    3    0    0 -0.22764363959E-01 -0.37947789217E-01 -0.12516123562E+00  0.14017119130E+00  0.44993077190E-01 0.  0.
         14    1    1    2    0    0  0.19734462319E-02 -0.13122700358E-01  0.66229834030E-03  0.13286775147E-01  0.00000000000E+00 0. -1.
     999901    1    3    3    0    0  0.20790917727E-01  0.51070489575E-01  0.12449893728E+00  0.89047203356E+00  0.88000000000E+00 0. -1.
        -11    1    4    4    0    0 -0.34071771782E-01 -0.24816760384E-01 -0.64278553532E-01  0.76868399186E-01  0.51100000000E-03 0. -1.
         11    1    4    4    0    0  0.11307407823E-01 -0.13131028833E-01 -0.60882682085E-01  0.63302792109E-01  0.51100000000E-03 0.  1.
</event>
<event>
 8    1  0.2001339E+004  0.1043930E+01  0.7957747E-01            NaN
         13   -1    0    0    0    0  0.00000000000E+00  0.00000000000E+00  0.74505805969E-08  0.10566000000E+00  0.10566000000E+00 0. -1.
     999900   -1    0    0    0    0 -0.00000000000E+00 -0.00000000000E+00 -0.74505805969E-08  0.93827000000E+00  0.93827000000E+00 0.  1.
     999902    2    1    2    0    0  0.53846413060E-02 -0.11267957375E-02 -0.12920870726E-01  0.10298867479E+01  0.10297909984E+01 0.  0.
     999903    2    3    3    0    0  0.26916517890E-01 -0.12253865818E+00 -0.46142084076E-01  0.14066905174E+00  0.43800325477E-01 0.  0.
         14    1    1    2    0    0 -0.53846413060E-02  0.11267957375E-02  0.12920870726E-01  0.14043252150E-01  0.00000000000E+00 0. -1.
     999901    1    3    3    0    0 -0.21531876584E-01  0.12141186244E+00  0.33221213350E-01  0.88921769611E+00  0.88000000000E+00 0.  1.
        -11    1    4    4    0    0  0.24804501779E-01 -0.11943447540E+00 -0.32117204765E-01  0.12614132228E+00  0.51100000000E-03 0. -1.
         11    1    4    4    0    0  0.21120161108E-02 -0.31041827787E-02 -0.14024879312E-01  0.14527729467E-01  0.51100000000E-03 0.  1.
</event>
<event>
 7    1  0.2001339E+004  0.1043930E+01  0.7957747E-01            NaN
         13   -1    0    0    0    0  0.00000000000E+00  0.00000000000E+00  0.74505805969E-08  0.10566000000E+00  0.10566000000E+00 0. -1.
     999900   -1    0    0    0    0 -0.00000000000E+00 -0.00000000000E+00 -0.74505805969E-08  0.93827000000E+00  0.93827000000E+00 0.  1.
     999902    2    1    2    0    0  0.68757447953E-02 -0.11643806726E-01 -0.22862223427E-02  0.10302157405E+01  0.10301244541E+01 0.  0.
         14    1    1    2    0    0 -0.68757447953E-02  0.11643806726E-01  0.22862223427E-02  0.13714259519E-01  0.00000000000E+00 0.  1.
     999901    1    3    3    0    0  0.35771532965E-01 -0.12230229059E+00  0.49573534764E-01  0.89055880671E+00  0.88000000000E+00 0. -1.
        -11    1    3    3    0    0  0.13177080111E-01  0.47760921526E-01 -0.31212403534E-02  0.49646191471E-01  0.51100000000E-03 0. -1.
         11    1    3    3    0    0 -0.42072868280E-01  0.62897562340E-01 -0.48738516753E-01  0.90010742303E-01  0.51100000000E-03 0.  1.
</event>
<event>
 8    1  0.2001339E+004  0.1043930E+01  0.7957747E-01            NaN
         13   -1    0    0    0    0  0.00000000000E+00  0.00000000000E+00  0.74505805969E-08  0.10566000000E+00  0.10566000000E+00 0. -1.
     999900   -1    0    0    0    0 -0.00000000000E+00 -0.00000000000E+00 -0.74505805969E-08  0.93827000000E+00  0.93827000000E+00 0. -1.
     999902    2    1    2    0    0  0.51810739992E-03  0.22505945924E-01 -0.62544549943E-02  0.10205654062E+01  0.10202979193E+01 0.  0.
     999903    2    3    3    0    0 -0.35152908535E-01 -0.88728490799E-01 -0.76246277096E-01  0.13009116374E+00  0.44740854410E-01 0.  0.
         14    1    1    2    0    0 -0.51810739992E-03 -0.22505945924E-01  0.62544549943E-02  0.23364593822E-01  0.00000000000E+00 0.  1.
     999901    1    3    3    0    0  0.35671015935E-01  0.11123443672E+00  0.69991822102E-01  0.89047424244E+00  0.88000000000E+00 0.  1.
        -11    1    4    4    0    0 -0.37547074750E-01 -0.34818688576E-01 -0.41425613747E-01  0.65867036458E-01  0.51100000000E-03 0. -1.
         11    1    4    4    0    0  0.23941662149E-02 -0.53909802223E-01 -0.34820663349E-01  0.64224127278E-01  0.51100000000E-03 0.  1.
</event>
<event>
 8    1  0.2001339E+004  0.1043930E+01  0.7957747E-01            NaN
         13   -1    0    0    0    0  0.00000000000E+00  0.00000000000E+00  0.74505805969E-08  0.10566000000E+00  0.10566000000E+00 0. -1.
     999900   -1    0    0    0    0 -0.00000000000E+00 -0.00000000000E+00 -0.74505805969E-08  0.93827000000E+00  0.93827000000E+00 0. -1.
     999902    2    1    2    0    0 -0.68096378569E-02  0.99766377880E-02 -0.41128514983E-02  0.10311699053E+01  0.10310909531E+01 0.  0.
     999903    2    3    3    0    0 -0.60306430517E-02 -0.56165798077E-01  0.11993212544E+00  0.14001190306E+00  0.45040567889E-01 0.  0.
         14    1    1    2    0    0  0.68096378569E-02 -0.99766377880E-02  0.41128514983E-02  0.12760094700E-01  0.00000000000E+00 0. -1.
     999901    1    3    3    0    0 -0.77899480514E-03  0.66142435865E-01 -0.12404497694E+00  0.89115800224E+00  0.88000000000E+00 0. -1.
        -11    1    4    4    0    0  0.19663193581E-01 -0.25147055254E-01  0.55329294605E-01  0.63879633157E-01  0.51100000000E-03 0. -1.
         11    1    4    4    0    0 -0.25693836633E-01 -0.31018742823E-01  0.64602830837E-01  0.76132269902E-01  0.51100000000E-03 0.  1.
</event>
<event>
 8    1  0.2001339E+004  0.1043930E+01  0.7957747E-01            NaN
         13   -1    0    0    0    0  0.00000000000E+00  0.00000000000E+00  0.74505805969E-08  0.10566000000E+00  0.10566000000E+00 0.  1.
     999900   -1    0    0    0    0 -0.00000000000E+00 -0.00000000000E+00 -0.74505805969E-08  0.93827000000E+00  0.93827000000E+00 0.  1.
     999902    2    1    2    0    0  0.67432788484E-02  0.40927786356E-02  0.11267177318E-01  0.10301760213E+01  0.10300842018E+01 0.  0.
     999903    2    3    3    0    0  0.57721790647E-02 -0.83201728591E-01 -0.10213258197E+00  0.13861515433E+00  0.42746356780E-01 0.  0.
         14    1    1    2    0    0 -0.67432788484E-02 -0.40927786356E-02 -0.11267177318E-01  0.13753978744E-01  0.00000000000E+00 0. -1.
     999901    1    3    3    0    0  0.97109978369E-03  0.87294507227E-01  0.11339975929E+00  0.89156086693E+00  0.88000000000E+00 0. -1.
        -11    1    4    4    0    0  0.84948902836E-02 -0.16944820711E-01 -0.52395443028E-01  0.55721034457E-01  0.51100000000E-03 0.  1.
         11    1    4    4    0    0 -0.27227112189E-02 -0.66256907880E-01 -0.49737138944E-01  0.82894119873E-01  0.51100000000E-03 0. -1.
</event>
<event>
 7    1  0.2001339E+004  0.1043930E+01  0.7957747E-01            NaN
         13   -1    0    0    0    0  0.00000000000E+00  0.00000000000E+00  0.74505805969E-08  0.10566000000E+00  0.10566000000E+00 0.  1.
     999900   -1    0    0    0    0 -0.00000000000E+00 -0.00000000000E+00 -0.74505805969E-08  0.93827000000E+00  0.93827000000E+00 0.  1.
     999902    2    1    2    0    0 -0.13704419454E-01  0.24072856768E-03 -0.25293508223E-02  0.10299920418E+01  0.10298977326E+01 0.  0.
         14    1    1    2    0    0  0.13704419454E-01 -0.24072856768E-03  0.25293508223E-02  0.13937958186E-01  0.00000000000E+00 0.  1.
     999901    1    3    3    0    0 -0.72146993744E-01 -0.10823918431E+00 -0.27191490182E-01  0.88997768897E+00  0.88000000000E+00 0. -1.
        -11    1    3    3    0    0  0.68379210880E-01  0.87861498776E-01  0.32222403105E-01  0.11590471876E+00  0.51100000000E-03 0.  1.
         11    1    3    3    0    0 -0.99366365905E-02  0.20618414102E-01 -0.75602637451E-02  0.24109634085E-01  0.51100000000E-03 0. -1.
</event>
<event>
 8    1  0.2001339E+004  0.1043930E+01  0.7957747E-01            NaN
         13   -1    0    0    0    0  0.00000000000E+00  0.00000000000E+00  0.74505805969E-08  0.10566000000E+00  0.10566000000E+00 0.  1.
     999900   -1    0    0    0    0 -0.00000000000E+00 -0.00000000000E+00 -0.74505805969E-08  0.93827000000E+00  0.93827000000E+00 0. -1.
     999902    2    1    2    0    0 -0.13628394629E-01 -0.89971527199E-03 -0.45417651170E-02  0.10295365898E+01  0.10294359715E+01 0.  0.
     999903    2    3    3    0    0  0.70852429132E-01 -0.29762339428E-02 -0.11102185259E+00  0.13909887126E+00  0.44651086790E-01 0.  0.
         14    1    1    2    0    0  0.13628394629E-01  0.89971527199E-03  0.45417651170E-02  0.14393410232E-01  0.00000000000E+00 0.  1.
     999901    1    3    3    0    0 -0.84480823761E-01  0.20765186708E-02  0.10648008747E+00  0.89043771851E+00  0.88000000000E+00 0.  1.
        -11    1    4    4    0    0  0.31674071500E-02 -0.86201379900E-02 -0.39127271110E-01  0.40193826796E-01  0.51100000000E-03 0.  1.
         11    1    4    4    0    0  0.67685021982E-01  0.56439040472E-02 -0.71894581478E-01  0.98905044464E-01  0.51100000000E-03 0. -1.
</event>
<event>
 8    1  0.2001339E+004  0.1043930E+01  0.7957747E-01            NaN
         13   -1    0    0    0    0  0.00000000000E+00  0.00000000000E+00  0.74505805969E-08  0.10566000000E+00  0.10566000000E+00 0.  1.
     999900   -1    0    0    0    0 -0.00000000000E+00 -0.00000000000E+00 -0.74505805969E-08  0.93827000000E+00  0.93827000000E+00 0. -1.
     999902    2    1    2    0    0 -0.13528790664E-01  0.22182540712E-02  0.45645066161E-02  0.10294806558E+01  0.10293792484E+01 0.  0.
     999903    2    3    3    0    0 -0.67706108609E-01  0.86178201017E-01 -0.74956277153E-01  0.14026301677E+00  0.45215825924E-01 0.  0.
         14    1    1    2    0    0  0.13528790664E-01 -0.22182540712E-02 -0.45645066161E-02  0.14449344227E-01  0.00000000000E+00 0. -1.
     999901    1    3    3    0    0  0.54177317946E-01 -0.83959946945E-01  0.79520783769E-01  0.88921763901E+00  0.88000000000E+00 0. -1.
        -11    1    4    4    0    0 -0.23600357003E-01  0.92741573584E-02 -0.34483502046E-01  0.42806072931E-01  0.51100000000E-03 0. -1.
         11    1    4    4    0    0 -0.44105751606E-01  0.76904043658E-01 -0.40472775107E-01  0.97456943834E-01  0.51100000000E-03 0.  1.
</event>
<event>
 8    1  0.2001339E+004  0.1043930E+01  0.7957747E-01            NaN
         13   -1    0    0    0    0  0.00000000000E+00  0.00000000000E+00  0.74505805969E-08  0.10566000000E+00  0.10566000000E+00 0. -1.
     999900   -1    0    0    0    0 -0.00000000000E+00 -0.00000000000E+00 -0.74505805969E-08  0.93827000000E+00  0.93827000000E+00 0.  1.
     999902    2    1    2    0    0 -0.15522752207E-02 -0.12462461380E-01  0.56138974622E-02  0.10301736071E+01  0.10300817552E+01 0.  0.
     999903    2    3    3    0    0  0.14324238952E-01 -0.13109429520E+00  0.27225026421E-01  0.14180847008E+00  0.44469563395E-01 0.  0.
         14    1    1    2    0    0  0.15522752207E-02  0.12462461380E-01 -0.56138974622E-02  0.13756392941E-01  0.00000000000E+00 0. -1.
     999901    1    3    3    0    0 -0.15876514173E-01  0.11863183382E+00 -0.21611128959E-01  0.88836513697E+00  0.88000000000E+00 0.  1.
        -11    1    4    4    0    0 -0.64667537032E-02 -0.78872949716E-01  0.32068813503E-01  0.85389876571E-01  0.51100000000E-03 0.  1.
         11    1    4    4    0    0  0.20790992655E-01 -0.52221345484E-01 -0.48437870816E-02  0.56418593514E-01  0.51100000000E-03 0. -1.
</event>
<event>
 8    1  0.2001339E+004  0.1043930E+01  0.7957747E-01            NaN
         13   -1    0    0    0    0  0.00000000000E+00  0.00000000000E+00  0.74505805969E-08  0.10566000000E+00  0.10566000000E+00 0.  1.
     999900   -1    0    0    0    0 -0.00000000000E+00 -0.00000000000E+00 -0.74505805969E-08  0.93827000000E+00  0.93827000000E+00 0.  1.
     999902    2    1    2    0    0 -0.56846668946E-02 -0.51425735674E-02 -0.12272299829E-01  0.10294603475E+01  0.10293586529E+01 0.  0.
     999903    2    3    3    0    0  0.46927216186E-02 -0.10093508001E+00  0.83726526271E-01  0.13901120852E+00  0.45870174196E-01 0.  0.
         14    1    1    2    0    0  0.56846668946E-02  0.51425735674E-02  0.12272299829E-01  0.14469652507E-01  0.00000000000E+00 0.  1.
     999901    1    3    3    0    0 -0.10377388513E-01  0.95792506441E-01 -0.95998826099E-01  0.89044913897E+00  0.88000000000E+00 0.  1.
        -11    1    4    4    0    0  0.20166971955E-01 -0.52111783290E-01  0.25383554310E-01  0.61375326198E-01  0.51100000000E-03 0. -1.
         11    1    4    4    0    0 -0.15474250336E-01 -0.48823296718E-01  0.58342971961E-01  0.77635882323E-01  0.51100000000E-03 0.  1.
</event>
<event>
 8    1  0.2001339E+004  0.1043930E+01  0.7957747E-01            NaN
         13   -1    0    0    0    0  0.00000000000E+00  0.00000000000E+00  0.74505805969E-08  0.10566000000E+00  0.10566000000E+00 0. -1.
     999900   -1    0    0    0    0 -0.00000000000E+00 -0.00000000000E+00 -0.74505805969E-08  0.93827000000E+00  0.93827000000E+00 0. -1.
     999902    2    1    2    0    0 -0.12061024145E-02  0.14524940444E-03  0.12605816054E-01  0.10312657835E+01  0.10311880206E+01 0.  0.
     999903    2    3    3    0    0 -0.58949905490E-01 -0.66808211424E-01  0.10108661175E+00  0.14242048545E+00  0.46115757925E-01 0.  0.
         14    1    1    2    0    0  0.12061024145E-02 -0.14524940444E-03 -0.12605816054E-01  0.12664216471E-01  0.00000000000E+00 0.  1.
     999901    1    3    3    0    0  0.57743803075E-01  0.66953460828E-01 -0.88480795699E-01  0.88884529808E+00  0.88000000000E+00 0. -1.
        -11    1    4    4    0    0 -0.15322073334E-01 -0.48657178127E-02  0.46040155475E-01  0.48768823835E-01  0.51100000000E-03 0.  1.
         11    1    4    4    0    0 -0.43627832156E-01 -0.61942493611E-01  0.55046456278E-01  0.93651661614E-01  0.51100000000E-03 0. -1.
</event>
<event>
 8    1  0.2001339E+004  0.1043930E+01  0.7957747E-01            NaN
         13   -1    0    0    0    0  0.00000000000E+00  0.00000000000E+00  0.74505805969E-08  0.10566000000E+00  0.10566000000E+00 0.  1.
     999900   -1    0    0    0    0 -0.00000000000E+00 -0.00000000000E+00 -0.74505805969E-08  0.93827000000E+00  0.93827000000E+00 0. -1.
     999902    2    1    2    0    0  0.83238857908E-02 -0.25617930724E-02 -0.11453420732E-01  0.10295414384E+01  0.10294408884E+01 0.  0.
     999903    2    3    3    0    0 -0.53738903867E-02  0.11929852121E+00  0.54486107055E-01  0.13859498289E+00  0.44483902243E-01 0.  0.
         14    1    1    2    0    0 -0.83238857908E-02  0.25617930724E-02  0.11453420732E-01  0.14388561598E-01  0.00000000000E+00 0. -1.
     999901    1    3    3    0    0  0.13697776177E-01 -0.12186031428E+00 -0.65939527787E-01  0.89094645551E+00  0.88000000000E+00 0. -1.
        -11    1    4    4    0    0 -0.10610883672E-02  0.35231612594E-01 -0.48807261102E-02  0.35587568656E-01  0.51100000000E-03 0. -1.
         11    1    4    4    0    0 -0.43128020195E-02  0.84066908616E-01  0.59366833166E-01  0.10300741423E+00  0.51100000000E-03 0.  1.
</event>
<event>
 8    1  0.2001339E+004  0.1043930E+01  0.7957747E-01            NaN
         13   -1    0    0    0    0  0.00000000000E+00  0.00000000000E+00  0.74505805969E-08  0.10566000000E+00  0.10566000000E+00 0. -1.
     999900   -1    0    0    0    0 -0.00000000000E+00 -0.00000000000E+00 -0.74505805969E-08  0.93827000000E+00  0.93827000000E+00 0. -1.
     999902    2    1    2    0    0  0.49791915162E-02  0.12545339544E-01 -0.16523132552E-02  0.10303319107E+01  0.10302421746E+01 0.  0.
     999903    2    3    3    0    0  0.52259396653E-01 -0.32165226050E-01  0.11775639593E+00  0.13988657704E+00  0.44000447159E-01 0.  0.
         14    1    1    2    0    0 -0.49791915162E-02 -0.12545339544E-01  0.16523132552E-02  0.13598089260E-01  0.00000000000E+00 0.  1.
     999901    1    3    3    0    0 -0.47280205137E-01  0.44710565594E-01 -0.11940870918E+00  0.89044533370E+00  0.88000000000E+00 0. -1.
        -11    1    4    4    0    0  0.29745193397E-01 -0.39007373178E-01  0.59893345063E-01  0.77419801061E-01  0.51100000000E-03 0.  1.
         11    1    4    4    0    0  0.22514203256E-01  0.68421471276E-02  0.57863050863E-01  0.62466775983E-01  0.51100000000E-03 0. -1.
</event>
<event>
 8    1  0.2001339E+004  0.1043930E+01  0.7957747E-01            NaN
         13   -1    0    0    0    0  0.00000000000E+00  0.00000000000E+00  0.74505805969E-08  0.10566000000E+00  0.10566000000E+00 0. -1.
     999900   -1    0    0    0    0 -0.00000000000E+00 -0.00000000000E+00 -0.74505805969E-08  0.93827000000E+00  0.93827000000E+00 0.  1.
     999902    2    1    2    0    0 -0.56834323656E-02 -0.63992334255E-02  0.10876618802E-01  0.10300897533E+01  0.10299967706E+01 0.  0.
     999903    2    3    3    0    0  0.33155106551E-01  0.74762359820E-01 -0.10178898394E+00  0.13835595090E+00  0.45746042013E-01 0.  0.
         14    1    1    2    0    0  0.56834323656E-02  0.63992334255E-02 -0.10876618802E-01  0.13840246691E-01  0.00000000000E+00 0.  1.
     999901    1    3    3    0    0 -0.38838538916E-01 -0.81161593245E-01  0.11266560275E+00  0.89173380241E+00  0.88000000000E+00 0. -1.
        -11    1    4    4    0    0  0.18501031555E-01  0.17407536585E-01 -0.62063272870E-01  0.67062817260E-01  0.51100000000E-03 0. -1.
         11    1    4    4    0    0  0.14654074996E-01  0.57354823235E-01 -0.39725711074E-01  0.71293133636E-01  0.51100000000E-03 0.  1.
</event>
<event>
 8    1  0.2001339E+004  0.1043930E+01  0.7957747E-01            NaN
         13   -1    0    0    0    0  0.00000000000E+00  0.00000000000E+00  0.74505805969E-08  0.10566000000E+00  0.10566000000E+00 0.  1.
     999900   -1    0    0    0    0 -0.00000000000E+00 -0.00000000000E+00 -0.74505805969E-08  0.93827000000E+00  0.93827000000E+00 0.  1.
     999902    2    1    2    0    0  0.48098003394E-02 -0.10399790904E-01 -0.51703086912E-02  0.10313593229E+01  0.10312827115E+01 0.  0.
     999903    2    3    3    0    0  0.95877271071E-01 -0.27356017999E-01 -0.87348348748E-01  0.14268951466E+00  0.52818185643E-01 0.  0.
         14    1    1    2    0    0 -0.48098003394E-02  0.10399790904E-01  0.51703086912E-02  0.12570677075E-01  0.00000000000E+00 0.  1.
     999901    1    3    3    0    0 -0.91067470732E-01  0.16956227095E-01  0.82178040057E-01  0.88866980827E+00  0.88000000000E+00 0.  1.
        -11    1    4    4    0    0  0.11028442400E-01 -0.14782733824E-01 -0.41526461531E-01  0.45440773424E-01  0.51100000000E-03 0.  1.
         11    1    4    4    0    0  0.84848828672E-01 -0.12573284176E-01 -0.45821887217E-01  0.97248741231E-01  0.51100000000E-03 0. -1.
</event>
<event>
 8    1  0.2001339E+004  0.1043930E+01  0.7957747E-01            NaN
         13   -1    0    0    0    0  0.00000000000E+00  0.00000000000E+00  0.74505805969E-08  0.10566000000E+00  0.10566000000E+00 0. -1.
     999900   -1    0    0    0    0 -0.00000000000E+00 -0.00000000000E+00 -0.74505805969E-08  0.93827000000E+00  0.93827000000E+00 0.  1.
     999902    2    1    2    0    0  0.58923099016E-02 -0.57118527292E-02  0.10575494384E-01  0.10305439752E+01  0.10304570342E+01 0.  0.
     999903    2    3    3    0    0 -0.11411418654E-01  0.13101829344E+00 -0.13109892535E-01  0.13950214151E+00  0.44642631100E-01 0.  0.
         14    1    1    2    0    0 -0.58923099016E-02  0.57118527292E-02 -0.10575494384E-01  0.13386024767E-01  0.00000000000E+00 0.  1.
     999901    1    3    3    0    0  0.17303728555E-01 -0.13673014617E+00  0.23685386919E-01  0.89104183372E+00  0.88000000000E+00 0. -1.
        -11    1    4    4    0    0  0.14962417610E-01  0.46308452996E-01 -0.14455988320E-01  0.50769907218E-01  0.51100000000E-03 0.  1.
         11    1    4    4    0    0 -0.26373836264E-01  0.84709840445E-01  0.13460957849E-02  0.88732234291E-01  0.51100000000E-03 0. -1.
</event>
<event>
 8    1  0.2001339E+004  0.1043930E+01  0.7957747E-01            NaN
         13   -1    0    0    0    0  0.00000000000E+00  0.00000000000E+00  0.74505805969E-08  0.10566000000E+00  0.10566000000E+00 0. -1.
     999900   -1    0    0    0    0 -0.00000000000E+00 -0.00000000000E+00 -0.74505805969E-08  0.93827000000E+00  0.93827000000E+00 0.  1.
     999902    2    1    2    0    0 -0.94263585813E-02  0.95233248064E-02  0.36127636099E-02  0.10300518873E+01  0.10299583916E+01 0.  0.
     999903    2    3    3    0    0 -0.91386739961E-01 -0.94124308249E-01 -0.88388330537E-02  0.14009942889E+00  0.48361176179E-01 0.  0.
         14    1    1    2    0    0  0.94263585813E-02 -0.95233248064E-02 -0.36127636099E-02  0.13878112709E-01  0.00000000000E+00 0. -1.
     999901    1    3    3    0    0  0.81960381380E-01  0.10364763306E+00  0.12451596664E-01  0.88995245840E+00  0.88000000000E+00 0.  1.
        -11    1    4    4    0    0 -0.80831521478E-01 -0.58871420674E-01  0.65397842484E-02  0.10021281822E+00  0.51100000000E-03 0.  1.
         11    1    4    4    0    0 -0.10555218484E-01 -0.35252887575E-01 -0.15378617302E-01  0.39886610670E-01  0.51100000000E-03 0. -1.
</event>
<event>
 8    1  0.2001339E+004  0.1043930E+01  0.7957747E-01            NaN
         13   -1    0    0    0    0  0.00000000000E+00  0.00000000000E+00  0.74505805969E-08  0.10566000000E+00  0.10566000000E+00 0. -1.
     999900   -1    0    0    0    0 -0.00000000000E+00 -0.00000000000E+00 -0.74505805969E-08  0.93827000000E+00  0.93827000000E+00 0. -1.
     999902    2    1    2    0    0  0.55110717751E-02  0.66010549248E-02 -0.11920723684E-01  0.10292313779E+01  0.10291264158E+01 0.  0.
     999903    2    3    3    0    0 -0.10852074711E+00 -0.19394660381E-01 -0.72294587238E-01  0.13944261852E+00  0.45440412764E-01 0.  0.
         14    1    1    2    0    0 -0.55110717751E-02 -0.66010549248E-02  0.11920723684E-01  0.14698622091E-01  0.00000000000E+00 0. -1.
     999901    1    3    3    0    0  0.11403181888E+00  0.25995715305E-01  0.60373863553E-01  0.88978875939E+00  0.88000000000E+00 0.  1.
        -11    1    4    4    0    0 -0.51835706745E-01  0.63549375249E-02 -0.52640608249E-01  0.74152683583E-01  0.51100000000E-03 0.  1.
         11    1    4    4    0    0 -0.56685040362E-01 -0.25749597906E-01 -0.19653978989E-01  0.65289934938E-01  0.51100000000E-03 0. -1.
</event>
<event>
 8    1  0.2001339E+004  0.1043930E+01  0.7957747E-01            NaN
         13   -1    0    0    0    0  0.00000000000E+00  0.00000000000E+00  0.74505805969E-08  0.10566000000E+00  0.10566000000E+00 0.  1.
     999900   -1    0    0    0    0 -0.00000000000E+00 -0.00000000000E+00 -0.74505805969E-08  0.93827000000E+00  0.93827000000E+00 0.  1.
     999902    2    1    2    0    0  0.77557121379E-02 -0.10523346378E-01  0.44060904503E-02  0.10301348732E+01  0.10300424999E+01 0.  0.
     999903    2    3    3    0    0  0.78682498989E-01  0.23540004561E-01  0.10478347508E+00  0.14094055233E+00  0.46255758315E-01 0.  0.
         14    1    1    2    0    0 -0.77557121379E-02  0.10523346378E-01 -0.44060904503E-02  0.13795126778E-01  0.00000000000E+00 0. -1.
     999901    1    3    3    0    0 -0.70926786852E-01 -0.34063350938E-01 -0.10037738463E+00  0.88919432090E+00  0.88000000000E+00 0. -1.
        -11    1    4    4    0    0  0.62983949871E-02 -0.19634168821E-02  0.39890539664E-01  0.40435640973E-01  0.51100000000E-03 0.  1.
         11    1    4    4    0    0  0.72384104002E-01  0.25503421443E-01  0.64892935419E-01  0.10050491135E+00  0.51100000000E-03 0. -1.
</event>
<event>
 8    1  0.2001339E+004  0.1043930E+01  0.7957747E-01            NaN
         13   -1    0    0    0    0  0.00000000000E+00  0.00000000000E+00  0.74505805969E-08  0.10566000000E+00  0.10566000000E+00 0.  1.
     999900   -1    0    0    0    0 -0.00000000000E+00 -0.00000000000E+00 -0.74505805969E-08  0.93827000000E+00  0.93827000000E+00 0.  1.
     999902    2    1    2    0    0 -0.58733894958E-02 -0.11722280416E-01  0.48889276050E-02  0.10299367811E+01  0.10298417174E+01 0.  0.
     999903    2    3    3    0    0 -0.81524064765E-01 -0.95479028163E-01  0.47117982323E-01  0.14172424429E+00  0.45861085982E-01 0.  0.
         14    1    1    2    0    0  0.58733894958E-02  0.11722280416E-01 -0.48889276050E-02  0.13993218909E-01  0.00000000000E+00 0. -1.
     999901    1    3    3    0    0  0.75650675270E-01  0.83756747748E-01 -0.42229054718E-01  0.88821253680E+00  0.88000000000E+00 0.  1.
        -11    1    4    4    0    0 -0.45677673213E-01 -0.81098132170E-01  0.21982233661E-01  0.95639095507E-01  0.51100000000E-03 0. -1.
         11    1    4    4    0    0 -0.35846391553E-01 -0.14380895993E-01  0.25135748662E-01  0.46085148787E-01  0.51100000000E-03 0.  1.
</event>
<event>
 8    1  0.2001339E+004  0.1043930E+01  0.7957747E-01            NaN
         13   -1    0    0    0    0  0.00000000000E+00  0.00000000000E+00  0.74505805969E-08  0.10566000000E+00  0.10566000000E+00 0.  1.
     999900   -1    0    0    0    0 -0.00000000000E+00 -0.00000000000E+00 -0.74505805969E-08  0.93827000000E+00  0.93827000000E+00 0.  1.
     999902    2    1    2    0    0  0.79267725075E-02 -0.26924568723E-02  0.10626627563E-01  0.10304019455E+01  0.10303131373E+01 0.  0.
     999903    2    3    3    0    0 -0.12167009218E+00  0.49836317615E-01  0.11092901309E-01  0.13936051157E+00  0.44844507374E-01 0.  0.
         14    1    1    2    0    0 -0.79267725075E-02  0.26924568723E-02 -0.10626627563E-01  0.13528054545E-01  0.00000000000E+00 0.  1.
     999901    1    3    3    0    0  0.12959686469E+00 -0.52528774487E-01 -0.46627374514E-03  0.89104143388E+00  0.88000000000E+00 0. -1.
        -11    1    4    4    0    0 -0.65652344606E-01  0.18754835150E-01 -0.15463354541E-01  0.70009646824E-01  0.51100000000E-03 0.  1.
         11    1    4    4    0    0 -0.56017747574E-01  0.31081482465E-01  0.26556255850E-01  0.69350864748E-01  0.51100000000E-03 0. -1.
</event>
<event>
 8    1  0.2001339E+004  0.1043930E+01  0.7957747E-01            NaN
         13   -1    0    0    0    0  0.00000000000E+00  0.00000000000E+00  0.74505805969E-08  0.10566000000E+00  0.10566000000E+00 0.  1.
     999900   -1    0    0    0    0 -0.00000000000E+00 -0.00000000000E+00 -0.74505805969E-08  0.93827000000E+00  0.93827000000E+00 0. -1.
     999902    2    1    2    0    0 -0.50706362198E-02  0.31209925611E-02 -0.12362742435E-01  0.10302081435E+01  0.10301167553E+01 0.  0.
     999903    2    3    3    0    0  0.19970265838E-01  0.91951284465E-01  0.93368976438E-01  0.13908690373E+00  0.42113546455E-01 0.  0.
         14    1    1    2    0    0  0.50706362198E-02 -0.31209925611E-02  0.12362742435E-01  0.13721856535E-01  0.00000000000E+00 0.  1.
     999901    1    3    3    0    0 -0.25040902058E-01 -0.88830291904E-01 -0.10573171887E+00  0.89112123974E+00  0.88000000000E+00 0. -1.
        -11    1    4    4    0    0 -0.51569897310E-02  0.43135617064E-01  0.21021768129E-01  0.48264395353E-01  0.51100000000E-03 0. -1.
         11    1    4    4    0    0  0.25127255569E-01  0.48815667402E-01  0.72347208309E-01  0.90822508374E-01  0.51100000000E-03 0.  1.
</event>
<event>
 8    1  0.2001339E+004  0.1043930E+01  0.7957747E-01            NaN
         13   -1    0    0    0    0  0.00000000000E+00  0.00000000000E+00  0.74505805969E-08  0.10566000000E+00  0.10566000000E+00 0.  1.
     999900   -1    0    0    0    0 -0.00000000000E+00 -0.00000000000E+00 -0.74505805969E-08  0.93827000000E+00  0.93827000000E+00 0. -1.
     999902    2    1    2    0    0 -0.11984439117E-01 -0.32843381542E-02 -0.62889902946E-02  0.10300028662E+01  0.10299087043E+01 0.  0.
     999903    2    3    3    0    0  0.10889237307E+00  0.20275695061E-01 -0.71271417692E-01  0.13905449798E+00  0.44585711900E-01 0.  0.
         14    1    1    2    0    0  0.11984439117E-01  0.32843381542E-02  0.62889902946E-02  0.13927133839E-01  0.00000000000E+00 0.  1.
     999901    1    3    3    0    0 -0.12087681219E+00 -0.23560033215E-01  0.64982427398E-01  0.89094836818E+00  0.88000000000E+00 0.  1.
        -11    1    4    4    0    0  0.27303895218E-01 -0.14245247891E-01 -0.19065513342E-01  0.36224090071E-01  0.51100000000E-03 0. -1.
         11    1    4    4    0    0  0.81588477855E-01  0.34520942952E-01 -0.52205904351E-01  0.10283040791E+00  0.51100000000E-03 0.  1.
</event>
<event>
 8    1  0.2001339E+004  0.1043930E+01  0.7957747E-01            NaN
         13   -1    0    0    0    0  0.00000000000E+00  0.00000000000E+00  0.74505805969E-08  0.10566000000E+00  0.10566000000E+00 0.  1.
     999900   -1    0    0    0    0 -0.00000000000E+00 -0.00000000000E+00 -0.74505805969E-08  0.93827000000E+00  0.93827000000E+00 0.  1.
     999902    2    1    2    0    0 -0.94816066546E-03 -0.34270670401E-02  0.13601606364E-01  0.10298712841E+01  0.10297753223E+01 0.  0.
     999903    2    3    3    0    0 -0.13224368426E+00 -0.12501722491E-01 -0.93026134283E-02  0.13978956472E+00  0.42542904189E-01 0.  0.
         14    1    1    2    0    0  0.94816066546E-03  0.34270670401E-02 -0.13601606364E-01  0.14058715902E-01  0.00000000000E+00 0. -1.
     999901    1    3    3    0    0  0.13129552359E+00  0.90746554508E-02  0.22904219792E-01  0.89008171938E+00  0.88000000000E+00 0. -1.
        -11    1    4    4    0    0 -0.37278814068E-01 -0.15263148773E-01 -0.18516777487E-01  0.44337409242E-01  0.51100000000E-03 0.  1.
         11    1    4    4    0    0 -0.94964870189E-01  0.27614262820E-02  0.92141640582E-02  0.95452155478E-01  0.51100000000E-03 0. -1.
</event>
<event>
 8    1  0.2001339E+004  0.1043930E+01  0.7957747E-01            NaN
         13   -1    0    0    0    0  0.00000000000E+00  0.00000000000E+00  0.74505805969E-08  0.10566000000E+00  0.10566000000E+00 0.  1.
     999900   -1    0    0    0    0 -0.00000000000E+00 -0.00000000000E+00 -0.74505805969E-08  0.93827000000E+00  0.93827000000E+00 0. -1.
     999902    2    1    2    0    0 -0.39429515859E-03  0.69645475889E-02 -0.11525628572E-01  0.10304577876E+01  0.10303697160E+01 0.  0.
     999903    2    3    3    0    0 -0.62154980024E-01 -0.13055249301E-01 -0.11877387989E+00  0.14157232715E+00  0.43609725931E-01 0.  0.
         14    1    1    2    0    0  0.39429515859E-03 -0.69645475889E-02  0.11525628572E-01  0.13472212357E-01  0.00000000000E+00 0.  1.
     999901    1    3    3    0    0  0.61760684865E-01  0.20019796890E-01  0.10724825131E+00  0.88888546049E+00  0.88000000000E+00 0. -1.
        -11    1    4    4    0    0 -0.31988485219E-01 -0.14778882952E-01 -0.99921669379E-01  0.10595413961E+00  0.51100000000E-03 0. -1.
         11    1    4    4    0    0 -0.30166494805E-01  0.17236336513E-02 -0.18852210508E-01  0.35618187543E-01  0.51100000000E-03 0.  1.
</event>
<event>
 8    1  0.2001339E+004  0.1043930E+01  0.7957747E-01            NaN
         13   -1    0    0    0    0  0.00000000000E+00  0.00000000000E+00  0.74505805969E-08  0.10566000000E+00  0.10566000000E+00 0. -1.
     999900   -1    0    0    0    0 -0.00000000000E+00 -0.00000000000E+00 -0.74505805969E-08  0.93827000000E+00  0.93827000000E+00 0. -1.
     999902    2    1    2    0    0 -0.47511356499E-02  0.95563002040E-02 -0.13535802335E-01  0.10266930018E+01  0.10265482968E+01 0.  0.
     999903    2    3    3    0    0  0.89328634157E-01  0.17822790974E-01 -0.94576312357E-01  0.13793718477E+00  0.42246080600E-01 0.  0.
         14    1    1    2    0    0  0.47511356499E-02 -0.95563002040E-02  0.13535802335E-01  0.17236998242E-01  0.00000000000E+00 0. -1.
     999901    1    3    3    0    0 -0.94079769807E-01 -0.82664907697E-02  0.81040510022E-01  0.88875581698E+00  0.88000000000E+00 0.  1.
        -11    1    4    4    0    0  0.11354299820E-01  0.90608915780E-02  0.64657220877E-03  0.14549881691E-01  0.51100000000E-03 0. -1.
         11    1    4    4    0    0  0.77974334337E-01  0.87618993957E-02 -0.95222884566E-01  0.12338730308E+00  0.51100000000E-03 0.  1.
</event>
<event>
 8    1  0.2001339E+004  0.1043930E+01  0.7957747E-01            NaN
         13   -1    0    0    0    0  0.00000000000E+00  0.00000000000E+00  0.74505805969E-08  0.10566000000E+00  0.10566000000E+00 0.  1.
     999900   -1    0    0    0    0 -0.00000000000E+00 -0.00000000000E+00 -0.74505805969E-08  0.93827000000E+00  0.93827000000E+00 0.  1.
     999902    2    1    2    0    0 -0.14514800804E-02 -0.12021157479E-01  0.76232755051E-02  0.10296216335E+01  0.10295222090E+01 0.  0.
     999903    2    3    3    0    0 -0.87180919214E-01  0.79646654438E-01 -0.57562182162E-01  0.13832949940E+00  0.43330628321E-01 0.  0.
         14    1    1    2    0    0  0.14514800804E-02  0.12021157479E-01 -0.76232755051E-02  0.14308366468E-01  0.00000000000E+00 0. -1.
     999901    1    3    3    0    0  0.85729439134E-01 -0.91667811916E-01  0.65185457667E-01  0.89129213413E+00  0.88000000000E+00 0. -1.
        -11    1    4    4    0    0 -0.41396911296E-01  0.64275586688E-01 -0.43785489106E-01  0.88104968567E-01  0.51100000000E-03 0.  1.
         11    1    4    4    0    0 -0.45784007918E-01  0.15371067750E-01 -0.13776693056E-01  0.50224530832E-01  0.51100000000E-03 0. -1.
</event>
<event>
 8    1  0.2001339E+004  0.1043930E+01  0.7957747E-01            NaN
         13   -1    0    0    0    0  0.00000000000E+00  0.00000000000E+00  0.74505805969E-08  0.10566000000E+00  0.10566000000E+00 0. -1.
     999900   -1    0    0    0    0 -0.00000000000E+00 -0.00000000000E+00 -0.74505805969E-08  0.93827000000E+00  0.93827000000E+00 0. -1.
     999902    2    1    2    0    0 -0.37124148140E-02  0.11260210458E-01  0.53070321175E-02  0.10309400441E+01  0.10308582035E+01 0.  0.
     999903    2    3    3    0    0 -0.43999508220E-01  0.34321496529E-01 -0.12106709357E+00  0.14070114786E+00  0.45007221811E-01 0.  0.
         14    1    1    2    0    0  0.37124148140E-02 -0.11260210458E-01 -0.53070321175E-02  0.12989955858E-01  0.00000000000E+00 0.  1.
     999901    1    3    3    0    0  0.40287093406E-01 -0.23061286072E-01  0.12637412569E+00  0.89023889628E+00  0.88000000000E+00 0.  1.
        -11    1    4    4    0    0 -0.46544230599E-01  0.35069979562E-01 -0.77086966966E-01  0.96638141878E-01  0.51100000000E-03 0. -1.
         11    1    4    4    0    0  0.25447223784E-02 -0.74848303269E-03 -0.43980126606E-01  0.44063005981E-01  0.51100000000E-03 0.  1.
</event>
<event>
 8    1  0.2001339E+004  0.1043930E+01  0.7957747E-01            NaN
         13   -1    0    0    0    0  0.00000000000E+00  0.00000000000E+00  0.74505805969E-08  0.10566000000E+00  0.10566000000E+00 0.  1.
     999900   -1    0    0    0    0 -0.00000000000E+00 -0.00000000000E+00 -0.74505805969E-08  0.93827000000E+00  0.93827000000E+00 0. -1.
     999902    2    1    2    0    0 -0.77623364961E-02 -0.17654668065E-02  0.11134478014E-01  0.10302425115E+01  0.10301515836E+01 0.  0.
     999903    2    3    3    0    0  0.55633689562E-01  0.79740911345E-01  0.90978853027E-01  0.14061479721E+00  0.45184611764E-01 0.  0.
         14    1    1    2    0    0  0.77623364961E-02  0.17654668065E-02 -0.11134478014E-01  0.13687488505E-01  0.00000000000E+00 0. -1.
     999901    1    3    3    0    0 -0.63396026058E-01 -0.81506378152E-01 -0.79844375013E-01  0.88962771428E+00  0.88000000000E+00 0. -1.
        -11    1    4    4    0    0  0.26063925638E-01  0.17256434479E-01  0.53536659657E-01  0.61996353109E-01  0.51100000000E-03 0.  1.
         11    1    4    4    0    0  0.29569763924E-01  0.62484476866E-01  0.37442193370E-01  0.78618444103E-01  0.51100000000E-03 0. -1.
</event>
<event>
 8    1  0.2001339E+004  0.1043930E+01  0.7957747E-01            NaN
         13   -1    0    0    0    0  0.00000000000E+00  0.00000000000E+00  0.74505805969E-08  0.10566000000E+00  0.10566000000E+00 0.  1.
     999900   -1    0    0    0    0 -0.00000000000E+00 -0.00000000000E+00 -0.74505805969E-08  0.93827000000E+00  0.93827000000E+00 0.  1.
     999902    2    1    2    0    0  0.10478354784E-01 -0.69041582899E-02  0.14806347709E-02  0.10312945103E+01  0.10312171020E+01 0.  0.
     999903    2    3    3    0    0  0.45913231567E-01 -0.53752035086E-01 -0.11432488414E+00  0.14176583046E+00  0.45056247532E-01 0.  0.
         14    1    1    2    0    0 -0.10478354784E-01  0.69041582899E-02 -0.14806347709E-02  0.12635489701E-01  0.00000000000E+00 0. -1.
     999901    1    3    3    0    0 -0.35434876784E-01  0.46847876796E-01  0.11580551891E+00  0.88952867984E+00  0.88000000000E+00 0. -1.
        -11    1    4    4    0    0  0.28076625140E-01 -0.33776872496E-01 -0.10429050989E+00  0.11316335789E+00  0.51100000000E-03 0. -1.
         11    1    4    4    0    0  0.17836606428E-01 -0.19975162589E-01 -0.10034374257E-01  0.28602472569E-01  0.51100000000E-03 0.  1.
</event>
<event>
 8    1  0.2001339E+004  0.1043930E+01  0.7957747E-01            NaN
         13   -1    0    0    0    0  0.00000000000E+00  0.00000000000E+00  0.74505805969E-08  0.10566000000E+00  0.10566000000E+00 0.  1.
     999900   -1    0    0    0    0 -0.00000000000E+00 -0.00000000000E+00 -0.74505805969E-08  0.93827000000E+00  0.93827000000E+00 0. -1.
     999902    2    1    2    0    0 -0.36023532997E-02 -0.16780079142E-02 -0.13938123489E-01  0.10294364171E+01  0.10293343834E+01 0.  0.
     999903    2    3    3    0    0 -0.79792471071E-01 -0.64734236352E-01 -0.85413402844E-01  0.14101661903E+00  0.45087444599E-01 0.  0.
         14    1    1    2    0    0  0.36023532997E-02  0.16780079142E-02  0.13938123489E-01  0.14493582933E-01  0.00000000000E+00 0.  1.
     999901    1    3    3    0    0  0.76190117771E-01  0.63056228438E-01  0.71475279355E-01  0.88841979804E+00  0.88000000000E+00 0. -1.
        -11    1    4    4    0    0 -0.46040530292E-01 -0.11209689774E-01 -0.25223761171E-01  0.53683208017E-01  0.51100000000E-03 0. -1.
         11    1    4    4    0    0 -0.33751940779E-01 -0.53524546578E-01 -0.60189641673E-01  0.87333411009E-01  0.51100000000E-03 0.  1.
</event>
<event>
 8    1  0.2001339E+004  0.1043930E+01  0.7957747E-01            NaN
         13   -1    0    0    0    0  0.00000000000E+00  0.00000000000E+00  0.74505805969E-08  0.10566000000E+00  0.10566000000E+00 0. -1.
     999900   -1    0    0    0    0 -0.00000000000E+00 -0.00000000000E+00 -0.74505805969E-08  0.93827000000E+00  0.93827000000E+00 0. -1.
     999902    2    1    2    0    0 -0.52183902195E-03  0.99575083959E-02  0.26582076758E-02  0.10336105835E+01  0.10335590684E+01 0.  0.
     999903    2    3    3    0    0 -0.29275973903E-02  0.88889865577E-01  0.10431870808E+00  0.14424510066E+00  0.44880699404E-01 0.  0.
         14    1    1    2    0    0  0.52183902195E-03 -0.99575083959E-02 -0.26582076758E-02  0.10319416527E-01  0.00000000000E+00 0.  1.
     999901    1    3    3    0    0  0.24057583684E-02 -0.78932357181E-01 -0.10166050040E+00  0.88936548282E+00  0.88000000000E+00 0. -1.
        -11    1    4    4    0    0 -0.21513883348E-01  0.63910609235E-01  0.61263769722E-01  0.91109405393E-01  0.51100000000E-03 0. -1.
         11    1    4    4    0    0  0.18586285958E-01  0.24979256342E-01  0.43054938357E-01  0.53135695263E-01  0.51100000000E-03 0.  1.
</event>
<event>
 8    1  0.2001339E+004  0.1043930E+01  0.7957747E-01            NaN
         13   -1    0    0    0    0  0.00000000000E+00  0.00000000000E+00  0.74505805969E-08  0.10566000000E+00  0.10566000000E+00 0. -1.
     999900   -1    0    0    0    0 -0.00000000000E+00 -0.00000000000E+00 -0.74505805969E-08  0.93827000000E+00  0.93827000000E+00 0. -1.
     999902    2    1    2    0    0  0.13487408017E-01  0.25978209787E-02  0.52317048923E-03  0.10301847260E+01  0.10300930236E+01 0.  0.
     999903    2    3    3    0    0  0.64725471141E-01 -0.11535364164E+00 -0.16568562234E-01  0.14067361651E+00  0.44929944060E-01 0.  0.
         14    1    1    2    0    0 -0.13487408017E-01 -0.25978209787E-02 -0.52317048923E-03  0.13745273960E-01  0.00000000000E+00 0.  1.
     999901    1    3    3    0    0 -0.51238063124E-01  0.11795146262E+00  0.17091732724E-01  0.88951110953E+00  0.88000000000E+00 0.  1.
        -11    1    4    4    0    0  0.56176349825E-01 -0.65320604694E-01  0.31601770724E-02  0.86213754804E-01  0.51100000000E-03 0.  1.
         11    1    4    4    0    0  0.85491213164E-02 -0.50033036949E-01 -0.19728739307E-01  0.54459861708E-01  0.51100000000E-03 0. -1.
</event>
<event>
 8    1  0.2001339E+004  0.1043930E+01  0.7957747E-01            NaN
         13   -1    0    0    0    0  0.00000000000E+00  0.00000000000E+00  0.74505805969E-08  0.10566000000E+00  0.10566000000E+00 0.  1.
     999900   -1    0    0    0    0 -0.00000000000E+00 -0.00000000000E+00 -0.74505805969E-08  0.93827000000E+00  0.93827000000E+00 0. -1.
     999902    2    1    2    0    0  0.10165084455E-01  0.90619508392E-02 -0.41276133526E-02  0.10297002745E+01  0.10296019475E+01 0.  0.
     999903    2    3    3    0    0  0.99635867881E-01 -0.85528517208E-01 -0.21397762141E-01  0.13995276216E+00  0.43433604349E-01 0.  0.
         14    1    1    2    0    0 -0.10165084455E-01 -0.90619508392E-02  0.41276133526E-02  0.14229725471E-01  0.00000000000E+00 0. -1.
     999901    1    3    3    0    0 -0.89470783426E-01  0.94590468048E-01  0.17270148788E-01  0.88974751237E+00  0.88000000000E+00 0.  1.
        -11    1    4    4    0    0  0.96778349705E-01 -0.69189978244E-01 -0.91347868047E-02  0.11931893191E+00  0.51100000000E-03 0.  1.
         11    1    4    4    0    0  0.28575181753E-02 -0.16338538965E-01 -0.12262975336E-01  0.20633830248E-01  0.51100000000E-03 0. -1.
</event>
<event>
 8    1  0.2001339E+004  0.1043930E+01  0.7957747E-01            NaN
         13   -1    0    0    0    0  0.00000000000E+00  0.00000000000E+00  0.74505805969E-08  0.10566000000E+00  0.10566000000E+00 0. -1.
     999900   -1    0    0    0    0 -0.00000000000E+00 -0.00000000000E+00 -0.74505805969E-08  0.93827000000E+00  0.93827000000E+00 0.  1.
     999902    2    1    2    0    0 -0.69252691128E-02 -0.94011035372E-03 -0.11575585124E-01  0.10304082645E+01  0.10303195399E+01 0.  0.
     999903    2    3    3    0    0  0.48969057004E-01 -0.93155598953E-01 -0.82894246060E-01  0.14096224398E+00  0.43851613865E-01 0.  0.
         14    1    1    2    0    0  0.69252691128E-02  0.94011035372E-03  0.11575585124E-01  0.13521735493E-01  0.00000000000E+00 0. -1.
     999901    1    3    3    0    0 -0.55894326117E-01  0.92215488600E-01  0.71318660935E-01  0.88944602052E+00  0.88000000000E+00 0. -1.
        -11    1    4    4    0    0 -0.15973511197E-03 -0.33971348299E-01 -0.11099505709E-01  0.35742665940E-01  0.51100000000E-03 0. -1.
         11    1    4    4    0    0  0.49128792116E-01 -0.59184250655E-01 -0.71794740351E-01  0.10521957804E+00  0.51100000000E-03 0.  1.
</event>
<event>
 8    1  0.2001339E+004  0.1043930E+01  0.7957747E-01            NaN
         13   -1    0    0    0    0  0.00000000000E+00  0.00000000000E+00  0.74505805969E-08  0.10566000000E+00  0.10566000000E+00 0.  1.
     999900   -1    0    0    0    0 -0.00000000000E+00 -0.00000000000E+00 -0.74505805969E-08  0.93827000000E+00  0.93827000000E+00 0. -1.
     999902    2    1    2    0    0  0.44425335363E-02  0.10160625746E-01 -0.85235415620E-02  0.10299433928E+01  0.10298484195E+01 0.  0.
     999903    2    3    3    0    0 -0.11139603715E+00 -0.53128277002E-01 -0.45657099014E-01  0.13932396750E+00  0.45770146587E-01 0.  0.
         14    1    1    2    0    0 -0.44425335363E-02 -0.10160625746E-01  0.85235415620E-02  0.13986607184E-01  0.00000000000E+00 0.  1.
     999901    1    3    3    0    0  0.11583857069E+00  0.63288902747E-01  0.37133557452E-01  0.89061942532E+00  0.88000000000E+00 0. -1.
        -11    1    4    4    0    0 -0.36030154348E-01 -0.34242362576E-02 -0.31411476729E-01  0.47925352452E-01  0.51100000000E-03 0. -1.
         11    1    4    4    0    0 -0.75365882801E-01 -0.49704040744E-01 -0.14245622285E-01  0.91398615043E-01  0.51100000000E-03 0.  1.
</event>
<event>
 8    1  0.2001339E+004  0.1043930E+01  0.7957747E-01            NaN
         13   -1    0    0    0    0  0.00000000000E+00  0.00000000000E+00  0.74505805969E-08  0.10566000000E+00  0.10566000000E+00 0. -1.
     999900   -1    0    0    0    0 -0.00000000000E+00 -0.00000000000E+00 -0.74505805969E-08  0.93827000000E+00  0.93827000000E+00 0. -1.
     999902    2    1    2    0    0  0.10780579121E-01 -0.54898740739E-02 -0.15063668791E-03  0.10318311449E+01  0.10317602092E+01 0.  0.
     999903    2    3    3    0    0  0.72706212079E-01  0.11008926734E+00 -0.25929942658E-01  0.14174244450E+00  0.44863332336E-01 0.  0.
         14    1    1    2    0    0 -0.10780579121E-01  0.54898740739E-02  0.15063668791E-03  0.12098855109E-01  0.00000000000E+00 0.  1.
     999901    1    3    3    0    0 -0.61925632958E-01 -0.11557914141E+00  0.25779305970E-01  0.89008870039E+00  0.88000000000E+00 0.  1.
        -11    1    4    4    0    0  0.74523601838E-01  0.80583645697E-01 -0.19388765610E-01  0.11146154735E+00  0.51100000000E-03 0.  1.
         11    1    4    4    0    0 -0.18173897585E-02  0.29505621643E-01 -0.65411770481E-02  0.30280897151E-01  0.51100000000E-03 0. -1.
</event>
<event>
 8    1  0.2001339E+004  0.1043930E+01  0.7957747E-01            NaN
         13   -1    0    0    0    0  0.00000000000E+00  0.00000000000E+00  0.74505805969E-08  0.10566000000E+00  0.10566000000E+00 0.  1.
     999900   -1    0    0    0    0 -0.00000000000E+00 -0.00000000000E+00 -0.74505805969E-08  0.93827000000E+00  0.93827000000E+00 0. -1.
     999902    2    1    2    0    0 -0.11903774687E-01  0.68219530910E-02  0.23292948596E-03  0.10302080048E+01  0.10301166148E+01 0.  0.
     999903    2    3    3    0    0  0.12177474575E+00 -0.42389127588E-01 -0.21666418345E-01  0.13848424785E+00  0.45634705862E-01 0.  0.
         14    1    1    2    0    0  0.11903774687E-01 -0.68219530910E-02 -0.23292948596E-03  0.13721995188E-01  0.00000000000E+00 0.  1.
     999901    1    3    3    0    0 -0.13367852044E+00  0.49211080679E-01  0.21899347831E-01  0.89172375696E+00  0.88000000000E+00 0. -1.
        -11    1    4    4    0    0  0.98507522445E-01 -0.43049892392E-01 -0.12404497477E-02  0.10751197631E+00  0.51100000000E-03 0.  1.
         11    1    4    4    0    0  0.23267223308E-01  0.66076480442E-03 -0.20425968597E-01  0.30972271546E-01  0.51100000000E-03 0. -1.
</event>
<event>
 7    1  0.2001339E+004  0.1043930E+01  0.7957747E-01            NaN
         13   -1    0    0    0    0  0.00000000000E+00  0.00000000000E+00  0.74505805969E-08  0.10566000000E+00  0.10566000000E+00 0.  1.
     999900   -1    0    0    0    0 -0.00000000000E+00 -0.00000000000E+00 -0.74505805969E-08  0.93827000000E+00  0.93827000000E+00 0.  1.
     999903    2    1    2    0    0  0.11340319101E-01 -0.94674357146E-01  0.47559943214E-01  0.11656277388E+00  0.47255637953E-01 0.  0.
         14    1    1    2    0    0 -0.77975616713E-02 -0.27619790479E-01 -0.25870341037E-01  0.38638443802E-01  0.00000000000E+00 0. -1.
     999901    1    1    2    0    0 -0.35427574298E-02  0.12229414762E+00 -0.21689602177E-01  0.88872878232E+00  0.88000000000E+00 0.  1.
        -11    1    3    3    0    0 -0.26785037810E-02 -0.90691149656E-01  0.34770901700E-01  0.97166536083E-01  0.51100000000E-03 0.  1.
         11    1    3    3    0    0  0.14018822882E-01 -0.39832074902E-02  0.12789041514E-01  0.19396237799E-01  0.51100000000E-03 0. -1.
</event>
<event>
 8    1  0.2001339E+004  0.1043930E+01  0.7957747E-01            NaN
         13   -1    0    0    0    0  0.00000000000E+00  0.00000000000E+00  0.74505805969E-08  0.10566000000E+00  0.10566000000E+00 0.  1.
     999900   -1    0    0    0    0 -0.00000000000E+00 -0.00000000000E+00 -0.74505805969E-08  0.93827000000E+00  0.93827000000E+00 0. -1.
     999902    2    1    2    0    0 -0.11858138279E-01 -0.41838037818E-02  0.51864145880E-02  0.10303278475E+01  0.10302380573E+01 0.  0.
     999903    2    3    3    0    0  0.61702565193E-01  0.11532559637E+00  0.13936203921E-01  0.13916555436E+00  0.45449246559E-01 0.  0.
         14    1    1    2    0    0  0.11858138279E-01  0.41838037818E-02 -0.51864145880E-02  0.13602152543E-01  0.00000000000E+00 0.  1.
     999901    1    3    3    0    0 -0.73560703471E-01 -0.11950940015E+00 -0.87497893325E-02  0.89116229309E+00  0.88000000000E+00 0. -1.
        -11    1    4    4    0    0  0.26122339749E-01  0.14088261533E-01  0.11486776679E-01  0.31828649146E-01  0.51100000000E-03 0.  1.
         11    1    4    4    0    0  0.35580225444E-01  0.10123733483E+00  0.24494272416E-02  0.10733690522E+00  0.51100000000E-03 0. -1.
</event>
<event>
 8    1  0.2001339E+004  0.1043930E+01  0.7957747E-01            NaN
         13   -1    0    0    0    0  0.00000000000E+00  0.00000000000E+00  0.74505805969E-08  0.10566000000E+00  0.10566000000E+00 0. -1.
     999900   -1    0    0    0    0 -0.00000000000E+00 -0.00000000000E+00 -0.74505805969E-08  0.93827000000E+00  0.93827000000E+00 0.  1.
     999902    2    1    2    0    0  0.72610497145E-02 -0.81370482833E-03  0.79872181121E-02  0.10331050006E+01  0.10330482862E+01 0.  0.
     999903    2    3    3    0    0  0.51777684348E-01 -0.28648517618E-01 -0.12085871250E+00  0.14217414954E+00  0.45880216359E-01 0.  0.
         14    1    1    2    0    0 -0.72610497145E-02  0.81370482833E-03 -0.79872181121E-02  0.10824999384E-01  0.00000000000E+00 0.  1.
     999901    1    3    3    0    0 -0.44516634634E-01  0.27834812790E-01  0.12884593061E+00  0.89093085107E+00  0.88000000000E+00 0. -1.
        -11    1    4    4    0    0  0.99206194514E-02  0.69775829518E-02 -0.55317480545E-01  0.56633824955E-01  0.51100000000E-03 0.  1.
         11    1    4    4    0    0  0.41857064897E-01 -0.35626100570E-01 -0.65541231951E-01  0.85540324586E-01  0.51100000000E-03 0. -1.
</event>
<event>
 8    1  0.2001339E+004  0.1043930E+01  0.7957747E-01            NaN
         13   -1    0    0    0    0  0.00000000000E+00  0.00000000000E+00  0.74505805969E-08  0.10566000000E+00  0.10566000000E+00 0.  1.
     999900   -1    0    0    0    0 -0.00000000000E+00 -0.00000000000E+00 -0.74505805969E-08  0.93827000000E+00  0.93827000000E+00 0.  1.
     999902    2    1    2    0    0 -0.31211227449E-03  0.12475104538E-01  0.15712515592E-02  0.10313524613E+01  0.10312757658E+01 0.  0.
     999903    2    3    3    0    0 -0.62434874281E-01  0.89869993722E-01  0.79247445471E-01  0.14237394780E+00  0.44893809160E-01 0.  0.
         14    1    1    2    0    0  0.31211227449E-03 -0.12475104538E-01 -0.15712515592E-02  0.12577538661E-01  0.00000000000E+00 0. -1.
     999901    1    3    3    0    0  0.62122762006E-01 -0.77394889184E-01 -0.77676193912E-01  0.88897851354E+00  0.88000000000E+00 0.  1.
        -11    1    4    4    0    0 -0.24330132901E-02 -0.31055723429E-02  0.12562033964E-01  0.13176871843E-01  0.51100000000E-03 0. -1.
         11    1    4    4    0    0 -0.60001860991E-01  0.92975566065E-01  0.66685411506E-01  0.12919707596E+00  0.51100000000E-03 0.  1.
</event>
<event>
 8    1  0.2001339E+004  0.1043930E+01  0.7957747E-01            NaN
         13   -1    0    0    0    0  0.00000000000E+00  0.00000000000E+00  0.74505805969E-08  0.10566000000E+00  0.10566000000E+00 0.  1.
     999900   -1    0    0    0    0 -0.00000000000E+00 -0.00000000000E+00 -0.74505805969E-08  0.93827000000E+00  0.93827000000E+00 0. -1.
     999902    2    1    2    0    0  0.27640591445E-02  0.13163346304E-01  0.27979911311E-02  0.10301916426E+01  0.10301000330E+01 0.  0.
     999903    2    3    3    0    0  0.56959864396E-01 -0.32820841038E-01 -0.11429760931E+00  0.13959458984E+00  0.45837454789E-01 0.  0.
         14    1    1    2    0    0 -0.27640591445E-02 -0.13163346304E-01 -0.27979911311E-02  0.13738357370E-01  0.00000000000E+00 0.  1.
     999901    1    3    3    0    0 -0.54195805251E-01  0.45984187341E-01  0.11709560044E+00  0.89059705279E+00  0.88000000000E+00 0.  1.
        -11    1    4    4    0    0  0.41660496643E-01 -0.25851825559E-02 -0.39465906959E-01  0.57446488861E-01  0.51100000000E-03 0. -1.
         11    1    4    4    0    0  0.15299367752E-01 -0.30235658482E-01 -0.74831702348E-01  0.82148100981E-01  0.51100000000E-03 0.  1.
</event>
<event>
 8    1  0.2001339E+004  0.1043930E+01  0.7957747E-01            NaN
         13   -1    0    0    0    0  0.00000000000E+00  0.00000000000E+00  0.74505805969E-08  0.10566000000E+00  0.10566000000E+00 0.  1.
     999900   -1    0    0    0    0 -0.00000000000E+00 -0.00000000000E+00 -0.74505805969E-08  0.93827000000E+00  0.93827000000E+00 0. -1.
     999902    2    1    2    0    0  0.13807158806E-01 -0.27541481740E-02  0.58391231354E-04  0.10298507111E+01  0.10297544663E+01 0.  0.
     999903    2    3    3    0    0  0.82395520442E-02 -0.13015606043E+00  0.30639519407E-01  0.14013308685E+00  0.41109750645E-01 0.  0.
         14    1    1    2    0    0 -0.13807158806E-01  0.27541481740E-02 -0.58391231354E-04  0.14079288903E-01  0.00000000000E+00 0.  1.
     999901    1    3    3    0    0  0.55676067623E-02  0.12740191225E+00 -0.30581128176E-01  0.88971762424E+00  0.88000000000E+00 0.  1.
        -11    1    4    4    0    0  0.19945211035E-01 -0.35897593318E-01  0.15765680957E-01  0.43991663600E-01  0.51100000000E-03 0.  1.
         11    1    4    4    0    0 -0.11705658991E-01 -0.94258467107E-01  0.14873838450E-01  0.96141423253E-01  0.51100000000E-03 0. -1.
</event>
<event>
 8    1  0.2001339E+004  0.1043930E+01  0.7957747E-01            NaN
         13   -1    0    0    0    0  0.00000000000E+00  0.00000000000E+00  0.74505805969E-08  0.10566000000E+00  0.10566000000E+00 0. -1.
     999900   -1    0    0    0    0 -0.00000000000E+00 -0.00000000000E+00 -0.74505805969E-08  0.93827000000E+00  0.93827000000E+00 0.  1.
     999902    2    1    2    0    0 -0.11419282921E-01  0.79383495590E-02 -0.28726032304E-02  0.10297289696E+01  0.10296310414E+01 0.  0.
     999903    2    3    3    0    0  0.56047278049E-01  0.11731887068E+00  0.24833534731E-01  0.13996300858E+00  0.45474438173E-01 0.  0.
         14    1    1    2    0    0  0.11419282921E-01 -0.79383495590E-02  0.28726032304E-02  0.14201030437E-01  0.00000000000E+00 0. -1.
     999901    1    3    3    0    0 -0.67466560970E-01 -0.10938052113E+00 -0.27706137962E-01  0.88976596099E+00  0.88000000000E+00 0.  1.
        -11    1    4    4    0    0  0.45966719368E-01  0.79331819061E-01  0.36918636328E-01  0.98841912336E-01  0.51100000000E-03 0. -1.
         11    1    4    4    0    0  0.10080558680E-01  0.37987051623E-01 -0.12085101597E-01  0.41121096240E-01  0.51100000000E-03 0.  1.
</event>
<event>
 7    1  0.2526528E+004  0.1043930E+01  0.7957747E-01            NaN
         13   -1    0    0    0    0  0.00000000000E+00  0.00000000000E+00  0.74505805969E-08  0.10566000000E+00  0.10566000000E+00 0. -1.
     999900   -1    0    0    0    0 -0.00000000000E+00 -0.00000000000E+00 -0.74505805969E-08  0.93827000000E+00  0.93827000000E+00 0.  1.
     999902    2    1    2    0    0 -0.18596880594E-01  0.45367962534E-02  0.45631520171E-02  0.10242513607E+01  0.10240623033E+01 0.  0.
         14    1    1    2    0    0  0.18596880594E-01 -0.45367962534E-02 -0.45631520171E-02  0.19678639292E-01  0.00000000000E+00 0.  1.
     999901    1    3    3    0    0 -0.86862354221E-01 -0.10797142410E+00  0.51335845762E-02  0.89085871534E+00  0.88000000000E+00 0. -1.
        -11    1    3    3    0    0  0.39098035747E-01  0.64267057563E-01  0.10450482243E-01  0.75949883391E-01  0.51100000000E-03 0.  1.
         11    1    3    3    0    0  0.29167437881E-01  0.48241162788E-01 -0.11020914802E-01  0.57442761979E-01  0.51100000000E-03 0. -1.
</event>
<event>
 8    1  0.2001339E+004  0.1043930E+01  0.7957747E-01            NaN
         13   -1    0    0    0    0  0.00000000000E+00  0.00000000000E+00  0.74505805969E-08  0.10566000000E+00  0.10566000000E+00 0. -1.
     999900   -1    0    0    0    0 -0.00000000000E+00 -0.00000000000E+00 -0.74505805969E-08  0.93827000000E+00  0.93827000000E+00 0.  1.
     999902    2    1    2    0    0  0.10203521797E-01  0.88991700329E-02  0.18298418724E-02  0.10302678111E+01  0.10301772212E+01 0.  0.
     999903    2    3    3    0    0  0.11765931727E+00 -0.37934536244E-01 -0.49579803267E-01  0.14100795277E+00  0.46285439082E-01 0.  0.
         14    1    1    2    0    0 -0.10203521797E-01 -0.88991700329E-02 -0.18298418724E-02  0.13662188903E-01  0.00000000000E+00 0. -1.
     999901    1    3    3    0    0 -0.10745579547E+00  0.46833706277E-01  0.51409645139E-01  0.88925985833E+00  0.88000000000E+00 0.  1.
        -11    1    4    4    0    0  0.73676088349E-01 -0.22219709836E-01 -0.61049036057E-02  0.77197230965E-01  0.51100000000E-03 0.  1.
         11    1    4    4    0    0  0.43983228921E-01 -0.15714826408E-01 -0.43474899661E-01  0.63810721802E-01  0.51100000000E-03 0. -1.
</event>
<event>
 8    1  0.2001339E+004  0.1043930E+01  0.7957747E-01            NaN
         13   -1    0    0    0    0  0.00000000000E+00  0.00000000000E+00  0.74505805969E-08  0.10566000000E+00  0.10566000000E+00 0.  1.
     999900   -1    0    0    0    0 -0.00000000000E+00 -0.00000000000E+00 -0.74505805969E-08  0.93827000000E+00  0.93827000000E+00 0. -1.
     999902    2    1    2    0    0 -0.33343216708E-02  0.11797476054E-01 -0.72207497444E-02  0.10297019513E+01  0.10296036476E+01 0.  0.
     999903    2    3    3    0    0  0.12432019448E+00  0.11969939279E-02  0.42867292666E-01  0.13901858575E+00  0.45073482838E-01 0.  0.
         14    1    1    2    0    0  0.33343216708E-02 -0.11797476054E-01  0.72207497444E-02  0.14228048676E-01  0.00000000000E+00 0.  1.
     999901    1    3    3    0    0 -0.12765451615E+00  0.10600482126E-01 -0.50088042411E-01  0.89068336557E+00  0.88000000000E+00 0. -1.
        -11    1    4    4    0    0  0.39449015459E-01  0.14314514846E-02  0.36732480575E-01  0.53924114497E-01  0.51100000000E-03 0.  1.
         11    1    4    4    0    0  0.84871179016E-01 -0.23445755668E-03  0.61348120917E-02  0.85094471256E-01  0.51100000000E-03 0. -1.
</event>
<event>
 8    1  0.2001339E+004  0.1043930E+01  0.7957747E-01            NaN
         13   -1    0    0    0    0  0.00000000000E+00  0.00000000000E+00  0.74505805969E-08  0.10566000000E+00  0.10566000000E+00 0. -1.
     999900   -1    0    0    0    0 -0.00000000000E+00 -0.00000000000E+00 -0.74505805969E-08  0.93827000000E+00  0.93827000000E+00 0.  1.
     999902    2    1    2    0    0 -0.13276423860E-01  0.16834943298E-03 -0.36065426141E-02  0.10301714055E+01  0.10300795240E+01 0.  0.
     999903    2    3    3    0    0 -0.24624318454E-01 -0.89477440821E-01 -0.10043614166E+00  0.14026067199E+00  0.31194039177E-01 0.  0.
         14    1    1    2    0    0  0.13276423860E-01 -0.16834943298E-03  0.36065426141E-02  0.13758594466E-01  0.00000000000E+00 0.  1.
     999901    1    3    3    0    0  0.11347894594E-01  0.89645790254E-01  0.96829599049E-01  0.88991073354E+00  0.88000000000E+00 0. -1.
        -11    1    4    4    0    0 -0.27353664079E-01 -0.45571489578E-01 -0.63560170443E-01  0.82856140320E-01  0.51100000000E-03 0.  1.
         11    1    4    4    0    0  0.27293456248E-02 -0.43905951242E-01 -0.36875971220E-01  0.57404531672E-01  0.51100000000E-03 0. -1.
</event>
<event>
 8    1  0.2001339E+004  0.1043930E+01  0.7957747E-01            NaN
         13   -1    0    0    0    0  0.00000000000E+00  0.00000000000E+00  0.74505805969E-08  0.10566000000E+00  0.10566000000E+00 0.  1.
     999900   -1    0    0    0    0 -0.00000000000E+00 -0.00000000000E+00 -0.74505805969E-08  0.93827000000E+00  0.93827000000E+00 0. -1.
     999902    2    1    2    0    0 -0.39144540489E-02 -0.71014487204E-02  0.10430753613E-01  0.10307181059E+01  0.10306334264E+01 0.  0.
     999903    2    3    3    0    0  0.21324613988E-01  0.94384869598E-01  0.91912202907E-01  0.14078793453E+00  0.44834659528E-01 0.  0.
         14    1    1    2    0    0  0.39144540489E-02  0.71014487204E-02 -0.10430753613E-01  0.13211894087E-01  0.00000000000E+00 0. -1.
     999901    1    3    3    0    0 -0.25239068037E-01 -0.10148631832E+00 -0.81481449295E-01  0.88993017138E+00  0.88000000000E+00 0. -1.
        -11    1    4    4    0    0 -0.75544586235E-02  0.22138967914E-02  0.16346738219E-01  0.18150706749E-01  0.51100000000E-03 0. -1.
         11    1    4    4    0    0  0.28879072611E-01  0.92170972807E-01  0.75565464688E-01  0.12263722778E+00  0.51100000000E-03 0.  1.
</event>
<event>
 8    1  0.2001339E+004  0.1043930E+01  0.7957747E-01            NaN
         13   -1    0    0    0    0  0.00000000000E+00  0.00000000000E+00  0.74505805969E-08  0.10566000000E+00  0.10566000000E+00 0. -1.
     999900   -1    0    0    0    0 -0.00000000000E+00 -0.00000000000E+00 -0.74505805969E-08  0.93827000000E+00  0.93827000000E+00 0. -1.
     999902    2    1    2    0    0 -0.70939272653E-03  0.12930405101E-01  0.15965729512E-02  0.10308821013E+01  0.10307995243E+01 0.  0.
     999903    2    3    3    0    0 -0.13220096188E+00 -0.11935408403E-01 -0.13184723295E-01  0.14064234254E+00  0.44574469065E-01 0.  0.
         14    1    1    2    0    0  0.70939272653E-03 -0.12930405101E-01 -0.15965729512E-02  0.13047898655E-01  0.00000000000E+00 0.  1.
     999901    1    3    3    0    0  0.13149156915E+00  0.24865813504E-01  0.14781296246E-01  0.89023975880E+00  0.88000000000E+00 0.  1.
        -11    1    4    4    0    0 -0.45519149771E-01 -0.10921772390E-02  0.16417351996E-01  0.48404301612E-01  0.51100000000E-03 0. -1.
         11    1    4    4    0    0 -0.86681812104E-01 -0.10843231164E-01 -0.29602075291E-01  0.92238040928E-01  0.51100000000E-03 0.  1.
</event>
<event>
 8    1  0.2001339E+004  0.1043930E+01  0.7957747E-01            NaN
         13   -1    0    0    0    0  0.00000000000E+00  0.00000000000E+00  0.74505805969E-08  0.10566000000E+00  0.10566000000E+00 0.  1.
     999900   -1    0    0    0    0 -0.00000000000E+00 -0.00000000000E+00 -0.74505805969E-08  0.93827000000E+00  0.93827000000E+00 0. -1.
     999902    2    1    2    0    0 -0.60807468251E-02 -0.11760192631E-01 -0.24338344070E-02  0.10304689019E+01  0.10303809764E+01 0.  0.
     999903    2    3    3    0    0 -0.39632073966E-01 -0.12124103193E+00 -0.42287676223E-01  0.14215585209E+00  0.46367549123E-01 0.  0.
         14    1    1    2    0    0  0.60807468251E-02  0.11760192631E-01  0.24338344070E-02  0.13461098119E-01  0.00000000000E+00 0.  1.
     999901    1    3    3    0    0  0.33551327141E-01  0.10948083930E+00  0.39853841816E-01  0.88831304979E+00  0.88000000000E+00 0.  1.
        -11    1    4    4    0    0 -0.10442193525E-01 -0.35571320936E-01  0.89646587600E-02  0.38144259154E-01  0.51100000000E-03 0.  1.
         11    1    4    4    0    0 -0.29189880441E-01 -0.85669710995E-01 -0.51252334983E-01  0.10401159293E+00  0.51100000000E-03 0. -1.
</event>
<event>
 8    1  0.2001339E+004  0.1043930E+01  0.7957747E-01            NaN
         13   -1    0    0    0    0  0.00000000000E+00  0.00000000000E+00  0.74505805969E-08  0.10566000000E+00  0.10566000000E+00 0.  1.
     999900   -1    0    0    0    0 -0.00000000000E+00 -0.00000000000E+00 -0.74505805969E-08  0.93827000000E+00  0.93827000000E+00 0.  1.
     999902    2    1    2    0    0  0.80390508277E-02  0.61255263424E-03  0.11438255645E-01  0.10299358851E+01  0.10298408092E+01 0.  0.
     999903    2    3    3    0    0  0.86572501058E-01  0.44710831500E-01  0.93666878443E-01  0.14152510884E+00  0.41976373395E-01 0.  0.
         14    1    1    2    0    0 -0.80390508277E-02 -0.61255263424E-03 -0.11438255645E-01  0.13994114875E-01  0.00000000000E+00 0. -1.
     999901    1    3    3    0    0 -0.78533450230E-01 -0.44098278866E-01 -0.82228622798E-01  0.88841077628E+00  0.88000000000E+00 0.  1.
        -11    1    4    4    0    0  0.54432109027E-01  0.29687962814E-01  0.30556787180E-01  0.69124583130E-01  0.51100000000E-03 0. -1.
         11    1    4    4    0    0  0.32140392030E-01  0.15022868686E-01  0.63110091263E-01  0.72400525714E-01  0.51100000000E-03 0.  1.
</event>
<event>
 8    1  0.2001339E+004  0.1043930E+01  0.7957747E-01            NaN
         13   -1    0    0    0    0  0.00000000000E+00  0.00000000000E+00  0.74505805969E-08  0.10566000000E+00  0.10566000000E+00 0. -1.
     999900   -1    0    0    0    0 -0.00000000000E+00 -0.00000000000E+00 -0.74505805969E-08  0.93827000000E+00  0.93827000000E+00 0.  1.
     999902    2    1    2    0    0  0.68067500005E-03 -0.11908439168E-01  0.66406612300E-04  0.10320019385E+01  0.10319330028E+01 0.  0.
     999903    2    3    3    0    0 -0.61451781184E-01  0.26132403722E-01  0.11648873540E+00  0.14134953351E+00  0.44168328163E-01 0.  0.
         14    1    1    2    0    0 -0.68067500005E-03  0.11908439168E-01 -0.66406612300E-04  0.11928061524E-01  0.00000000000E+00 0. -1.
     999901    1    3    3    0    0  0.62132456184E-01 -0.38040842891E-01 -0.11642232879E+00  0.89065240497E+00  0.88000000000E+00 0.  1.
        -11    1    4    4    0    0 -0.13372235152E-02  0.63045602271E-02  0.46631782896E-01  0.47077807335E-01  0.51100000000E-03 0.  1.
         11    1    4    4    0    0 -0.60114557669E-01  0.19827843495E-01  0.69856952502E-01  0.94271726171E-01  0.51100000000E-03 0. -1.
</event>
<event>
 8    1  0.2001339E+004  0.1043930E+01  0.7957747E-01            NaN
         13   -1    0    0    0    0  0.00000000000E+00  0.00000000000E+00  0.74505805969E-08  0.10566000000E+00  0.10566000000E+00 0. -1.
     999900   -1    0    0    0    0 -0.00000000000E+00 -0.00000000000E+00 -0.74505805969E-08  0.93827000000E+00  0.93827000000E+00 0.  1.
     999902    2    1    2    0    0 -0.26137506610E-02  0.70443789463E-02 -0.10729617746E-01  0.10308311579E+01  0.10307479306E+01 0.  0.
     999903    2    3    3    0    0 -0.60567880404E-01  0.77518537367E-01 -0.93078599118E-01  0.14228929457E+00  0.43646603126E-01 0.  0.
         14    1    1    2    0    0  0.26137506610E-02 -0.70443789463E-02  0.10729617746E-01  0.13098842095E-01  0.00000000000E+00 0. -1.
     999901    1    3    3    0    0  0.57954129743E-01 -0.70474158420E-01  0.82348981373E-01  0.88854186333E+00  0.88000000000E+00 0.  1.
        -11    1    4    4    0    0 -0.64213688295E-01  0.55681903409E-01 -0.79060390203E-01  0.11608048308E+00  0.51100000000E-03 0. -1.
         11    1    4    4    0    0  0.36458078917E-02  0.21836633958E-01 -0.14018208915E-01  0.26208811495E-01  0.51100000000E-03 0.  1.
</event>
<event>
 8    1  0.2001339E+004  0.1043930E+01  0.7957747E-01            NaN
         13   -1    0    0    0    0  0.00000000000E+00  0.00000000000E+00  0.74505805969E-08  0.10566000000E+00  0.10566000000E+00 0.  1.
     999900   -1    0    0    0    0 -0.00000000000E+00 -0.00000000000E+00 -0.74505805969E-08  0.93827000000E+00  0.93827000000E+00 0. -1.
     999902    2    1    2    0    0 -0.56396748335E-02  0.71902356683E-02 -0.10923608868E-01  0.10296881373E+01  0.10295896413E+01 0.  0.
     999903    2    3    3    0    0  0.76522139025E-01 -0.10233045709E+00 -0.30392607992E-01  0.13888827894E+00  0.45156208859E-01 0.  0.
         14    1    1    2    0    0  0.56396748335E-02 -0.71902356683E-02  0.10923608868E-01  0.14241862655E-01  0.00000000000E+00 0.  1.
     999901    1    3    3    0    0 -0.82161813858E-01  0.10952069276E+00  0.19468999124E-01  0.89079985840E+00  0.88000000000E+00 0.  1.
        -11    1    4    4    0    0  0.12318119756E-01 -0.52967520039E-01 -0.90099984434E-02  0.55124726271E-01  0.51100000000E-03 0. -1.
         11    1    4    4    0    0  0.64204019269E-01 -0.49362937050E-01 -0.21382609548E-01  0.83763552674E-01  0.51100000000E-03 0.  1.
</event>
<event>
 8    1  0.2001339E+004  0.1043930E+01  0.7957747E-01            NaN
         13   -1    0    0    0    0  0.00000000000E+00  0.00000000000E+00  0.74505805969E-08  0.10566000000E+00  0.10566000000E+00 0.  1.
     999900   -1    0    0    0    0 -0.00000000000E+00 -0.00000000000E+00 -0.74505805969E-08  0.93827000000E+00  0.93827000000E+00 0.  1.
     999902    2    1    2    0    0 -0.12812730924E-01  0.13505948023E-02  0.40812663051E-02  0.10304153075E+01  0.10303266758E+01 0.  0.
     999903    2    3    3    0    0  0.57700830460E-01  0.11830336349E+00  0.12991647519E-01  0.13983712035E+00  0.45393454094E-01 0.  0.
         14    1    1    2    0    0  0.12812730924E-01 -0.13505948023E-02 -0.40812663051E-02  0.13514692549E-01  0.00000000000E+00 0.  1.
     999901    1    3    3    0    0 -0.70513561384E-01 -0.11695276869E+00 -0.89103812143E-02  0.89057818710E+00  0.88000000000E+00 0.  1.
        -11    1    4    4    0    0  0.47885726185E-01  0.52689579318E-01  0.17561291868E-01  0.73334130077E-01  0.51100000000E-03 0. -1.
         11    1    4    4    0    0  0.98151042745E-02  0.65613784171E-01 -0.45696443483E-02  0.66502990275E-01  0.51100000000E-03 0.  1.
</event>
<event>
 8    1  0.2001339E+004  0.1043930E+01  0.7957747E-01            NaN
         13   -1    0    0    0    0  0.00000000000E+00  0.00000000000E+00  0.74505805969E-08  0.10566000000E+00  0.10566000000E+00 0.  1.
     999900   -1    0    0    0    0 -0.00000000000E+00 -0.00000000000E+00 -0.74505805969E-08  0.93827000000E+00  0.93827000000E+00 0.  1.
     999902    2    1    2    0    0  0.67751893567E-02 -0.22793180771E-02 -0.13059521942E-01  0.10290420990E+01  0.10289343964E+01 0.  0.
     999903    2    3    3    0    0  0.15509313918E-01  0.11555674906E+00  0.57553495054E-01  0.13834135141E+00  0.47244297508E-01 0.  0.
         14    1    1    2    0    0 -0.67751893567E-02  0.22793180771E-02  0.13059521942E-01  0.14887900963E-01  0.00000000000E+00 0.  1.
     999901    1    3    3    0    0 -0.87341245618E-02 -0.11783606713E+00 -0.70613016996E-01  0.89070074762E+00  0.88000000000E+00 0.  1.
        -11    1    4    4    0    0  0.20993528111E-01  0.49287651077E-01  0.54286533591E-02  0.53849161270E-01  0.51100000000E-03 0. -1.
         11    1    4    4    0    0 -0.54842141922E-02  0.66269097980E-01  0.52124841695E-01  0.84492190142E-01  0.51100000000E-03 0.  1.
</event>
<event>
 8    1  0.2001339E+004  0.1043930E+01  0.7957747E-01            NaN
         13   -1    0    0    0    0  0.00000000000E+00  0.00000000000E+00  0.74505805969E-08  0.10566000000E+00  0.10566000000E+00 0. -1.
     999900   -1    0    0    0    0 -0.00000000000E+00 -0.00000000000E+00 -0.74505805969E-08  0.93827000000E+00  0.93827000000E+00 0. -1.
     999902    2    1    2    0    0 -0.28225102799E-02  0.69233423824E-02 -0.11104572827E-01  0.10305430372E+01  0.10304560839E+01 0.  0.
     999903    2    3    3    0    0  0.11435674789E+00  0.41128286376E-01  0.52200696011E-01  0.13986435568E+00  0.45476626927E-01 0.  0.
         14    1    1    2    0    0  0.28225102799E-02 -0.69233423824E-02  0.11104572827E-01  0.13386962751E-01  0.00000000000E+00 0. -1.
     999901    1    3    3    0    0 -0.11717925817E+00 -0.34204943994E-01 -0.63305268838E-01  0.89067868157E+00  0.88000000000E+00 0. -1.
        -11    1    4    4    0    0  0.91296179749E-01  0.50774898696E-01  0.38362155291E-01  0.11128790974E+00  0.51100000000E-03 0.  1.
         11    1    4    4    0    0  0.23060568144E-01 -0.96466123194E-02  0.13838540720E-01  0.28576445941E-01  0.51100000000E-03 0. -1.
</event>
<event>
 8    1  0.2270457E+004  0.1043930E+01  0.7957747E-01            NaN
         13   -1    0    0    0    0  0.00000000000E+00  0.00000000000E+00  0.74505805969E-08  0.10566000000E+00  0.10566000000E+00 0. -1.
     999900   -1    0    0    0    0 -0.00000000000E+00 -0.00000000000E+00 -0.74505805969E-08  0.93827000000E+00  0.93827000000E+00 0. -1.
     999902    2    1    2    0    0 -0.16958622149E-02  0.11624366880E-01 -0.10038218079E-01  0.10284778909E+01  0.10283618062E+01 0.  0.
     999903    2    3    3    0    0  0.61013483213E-01 -0.98909077374E-01 -0.60024052981E-01  0.13794507959E+00  0.43821311312E-01 0.  0.
         14    1    1    2    0    0  0.16958622149E-02 -0.11624366880E-01  0.10038218079E-01  0.15452109118E-01  0.00000000000E+00 0. -1.
     999901    1    3    3    0    0 -0.62709345428E-01  0.11053344425E+00  0.49985834902E-01  0.89053281130E+00  0.88000000000E+00 0.  1.
        -11    1    4    4    0    0  0.38265549873E-01 -0.22447017310E-01 -0.23497978021E-01  0.50204949808E-01  0.51100000000E-03 0.  1.
         11    1    4    4    0    0  0.22747933341E-01 -0.76462060065E-01 -0.36526074960E-01  0.87740129779E-01  0.51100000000E-03 0. -1.
</event>
<event>
 8    1  0.2001339E+004  0.1043930E+01  0.7957747E-01            NaN
         13   -1    0    0    0    0  0.00000000000E+00  0.00000000000E+00  0.74505805969E-08  0.10566000000E+00  0.10566000000E+00 0.  1.
     999900   -1    0    0    0    0 -0.00000000000E+00 -0.00000000000E+00 -0.74505805969E-08  0.93827000000E+00  0.93827000000E+00 0. -1.
     999902    2    1    2    0    0  0.96737141517E-02  0.49802658392E-02 -0.79096745987E-02  0.10304783553E+01  0.10303905541E+01 0.  0.
     999903    2    3    3    0    0 -0.81966400521E-02  0.13086563321E+00 -0.27124621645E-01  0.14113270287E+00  0.44606006950E-01 0.  0.
         14    1    1    2    0    0 -0.96737141517E-02 -0.49802658392E-02  0.79096745987E-02  0.13451644716E-01  0.00000000000E+00 0. -1.
     999901    1    3    3    0    0  0.17870354204E-01 -0.12588536737E+00  0.19214947046E-01  0.88934565241E+00  0.88000000000E+00 0.  1.
        -11    1    4    4    0    0  0.16428245280E-01  0.59271441160E-01 -0.26593872184E-02  0.61565610868E-01  0.51100000000E-03 0.  1.
         11    1    4    4    0    0 -0.24624885332E-01  0.71594192051E-01 -0.24465234427E-01  0.79567092002E-01  0.51100000000E-03 0. -1.
</event>
<event>
 8    1  0.2001339E+004  0.1043930E+01  0.7957747E-01            NaN
         13   -1    0    0    0    0  0.00000000000E+00  0.00000000000E+00  0.74505805969E-08  0.10566000000E+00  0.10566000000E+00 0. -1.
     999900   -1    0    0    0    0 -0.00000000000E+00 -0.00000000000E+00 -0.74505805969E-08  0.93827000000E+00  0.93827000000E+00 0.  1.
     999902    2    1    2    0    0  0.51454320606E-02 -0.10232219695E-01  0.70052680746E-02  0.10305043689E+01  0.10304169091E+01 0.  0.
     999903    2    3    3    0    0  0.44830110237E-01 -0.12079870041E+00  0.39769288460E-01  0.14209382109E+00  0.44799474124E-01 0.  0.
         14    1    1    2    0    0 -0.51454320606E-02  0.10232219695E-01 -0.70052680746E-02  0.13425631150E-01  0.00000000000E+00 0.  1.
     999901    1    3    3    0    0 -0.39684678176E-01  0.11056648072E+00 -0.32764020386E-01  0.88841054776E+00  0.88000000000E+00 0.  1.
        -11    1    4    4    0    0  0.19875566619E-01 -0.49581418295E-01  0.39822692325E-01  0.66629296361E-01  0.51100000000E-03 0.  1.
         11    1    4    4    0    0  0.24954543618E-01 -0.71217282119E-01 -0.53403864690E-04  0.75464524729E-01  0.51100000000E-03 0. -1.
</event>
<event>
 8    1  0.2001339E+004  0.1043930E+01  0.7957747E-01            NaN
         13   -1    0    0    0    0  0.00000000000E+00  0.00000000000E+00  0.74505805969E-08  0.10566000000E+00  0.10566000000E+00 0. -1.
     999900   -1    0    0    0    0 -0.00000000000E+00 -0.00000000000E+00 -0.74505805969E-08  0.93827000000E+00  0.93827000000E+00 0. -1.
     999902    2    1    2    0    0 -0.72131887748E-02 -0.55265741555E-02  0.16542915156E-01  0.10250556482E+01  0.10248818667E+01 0.  0.
     999903    2    3    3    0    0  0.67108485290E-01 -0.89788798408E-01  0.63945933057E-01  0.13664646332E+00  0.44917663170E-01 0.  0.
         14    1    1    2    0    0  0.72131887748E-02  0.55265741555E-02 -0.16542915156E-01  0.18874351805E-01  0.00000000000E+00 0.  1.
     999901    1    3    3    0    0 -0.74321674065E-01  0.84262224253E-01 -0.47403017902E-01  0.88840918488E+00  0.88000000000E+00 0. -1.
        -11    1    4    4    0    0  0.26335916628E-01 -0.94413859432E-02  0.28158695746E-01  0.39697525619E-01  0.51100000000E-03 0.  1.
         11    1    4    4    0    0  0.40772568662E-01 -0.80347412465E-01  0.35787237311E-01  0.96948937697E-01  0.51100000000E-03 0. -1.
</event>
<event>
 8    1  0.2001339E+004  0.1043930E+01  0.7957747E-01            NaN
         13   -1    0    0    0    0  0.00000000000E+00  0.00000000000E+00  0.74505805969E-08  0.10566000000E+00  0.10566000000E+00 0.  1.
     999900   -1    0    0    0    0 -0.00000000000E+00 -0.00000000000E+00 -0.74505805969E-08  0.93827000000E+00  0.93827000000E+00 0. -1.
     999902    2    1    2    0    0 -0.52228625327E-02  0.87636480130E-02  0.55901587374E-03  0.10337127441E+01  0.10336622490E+01 0.  0.
     999903    2    3    3    0    0  0.10948310748E+00  0.66956334239E-01 -0.44606630963E-01  0.14321637468E+00  0.45293232724E-01 0.  0.
         14    1    1    2    0    0  0.52228625327E-02 -0.87636480130E-02 -0.55901587374E-03  0.10217255907E-01  0.00000000000E+00 0. -1.
     999901    1    3    3    0    0 -0.11470597002E+00 -0.58192686226E-01  0.45165646837E-01  0.89049636942E+00  0.88000000000E+00 0. -1.
        -11    1    4    4    0    0  0.38350349338E-01  0.49886198603E-01 -0.19649542761E-01  0.65922285740E-01  0.51100000000E-03 0.  1.
         11    1    4    4    0    0  0.71132758146E-01  0.17070135636E-01 -0.24957088202E-01  0.77294088937E-01  0.51100000000E-03 0. -1.
</event>
<event>
 8    1  0.2001339E+004  0.1043930E+01  0.7957747E-01            NaN
         13   -1    0    0    0    0  0.00000000000E+00  0.00000000000E+00  0.74505805969E-08  0.10566000000E+00  0.10566000000E+00 0.  1.
     999900   -1    0    0    0    0 -0.00000000000E+00 -0.00000000000E+00 -0.74505805969E-08  0.93827000000E+00  0.93827000000E+00 0.  1.
     999902    2    1    2    0    0 -0.11650094306E-01 -0.90498249436E-02 -0.59987261386E-03  0.10291657230E+01  0.10290598143E+01 0.  0.
     999903    2    3    3    0    0  0.49115908652E-01 -0.53477094133E-01 -0.10988252902E+00  0.13921685458E+00  0.45110867158E-01 0.  0.
         14    1    1    2    0    0  0.11650094306E-01  0.90498249436E-02  0.59987261386E-03  0.14764277023E-01  0.00000000000E+00 0. -1.
     999901    1    3    3    0    0 -0.60766002958E-01  0.44427269189E-01  0.10928265641E+00  0.88994886839E+00  0.88000000000E+00 0. -1.
        -11    1    4    4    0    0  0.62704385084E-02 -0.24742614292E-01 -0.11234343386E-01  0.27892417489E-01  0.51100000000E-03 0. -1.
         11    1    4    4    0    0  0.42845470144E-01 -0.28734479841E-01 -0.98648185639E-01  0.11132443709E+00  0.51100000000E-03 0.  1.
</event>
<event>
 8    1  0.2001339E+004  0.1043930E+01  0.7957747E-01            NaN
         13   -1    0    0    0    0  0.00000000000E+00  0.00000000000E+00  0.74505805969E-08  0.10566000000E+00  0.10566000000E+00 0. -1.
     999900   -1    0    0    0    0 -0.00000000000E+00 -0.00000000000E+00 -0.74505805969E-08  0.93827000000E+00  0.93827000000E+00 0.  1.
     999902    2    1    2    0    0  0.75274601166E-02  0.85744942226E-02 -0.80810050701E-02  0.10299483245E+01  0.10298534186E+01 0.  0.
     999903    2    3    3    0    0  0.98095800320E-01 -0.33548120281E-01  0.80980640647E-01  0.13983096390E+00  0.47398015676E-01 0.  0.
         14    1    1    2    0    0 -0.75274601166E-02 -0.85744942226E-02  0.80810050701E-02  0.13981675505E-01  0.00000000000E+00 0. -1.
     999901    1    3    3    0    0 -0.90568340204E-01  0.42122614504E-01 -0.89061645717E-01  0.89011736060E+00  0.88000000000E+00 0.  1.
        -11    1    4    4    0    0  0.49974981038E-03 -0.83740766107E-02 -0.27018436958E-02  0.88281362309E-02  0.51100000000E-03 0. -1.
         11    1    4    4    0    0  0.97596050510E-01 -0.25174043671E-01  0.83682484342E-01  0.13100282767E+00  0.51100000000E-03 0.  1.
</event>
<event>
 8    1  0.2001339E+004  0.1043930E+01  0.7957747E-01            NaN
         13   -1    0    0    0    0  0.00000000000E+00  0.00000000000E+00  0.74505805969E-08  0.10566000000E+00  0.10566000000E+00 0. -1.
     999900   -1    0    0    0    0 -0.00000000000E+00 -0.00000000000E+00 -0.74505805969E-08  0.93827000000E+00  0.93827000000E+00 0.  1.
     999902    2    1    2    0    0  0.12515221427E-02  0.90272054665E-02 -0.10912851690E-01  0.10297121563E+01  0.10296139946E+01 0.  0.
     999903    2    3    3    0    0 -0.99345647532E-01 -0.85571383507E-01 -0.74277435598E-02  0.13893674719E+00  0.45345661154E-01 0.  0.
         14    1    1    2    0    0 -0.12515221427E-02 -0.90272054665E-02  0.10912851690E-01  0.14217843656E-01  0.00000000000E+00 0. -1.
     999901    1    3    3    0    0  0.10059716967E+00  0.94598588973E-01 -0.34851081303E-02  0.89077540916E+00  0.88000000000E+00 0.  1.
        -11    1    4    4    0    0 -0.27276693051E-01 -0.47653401085E-01  0.95885343351E-02  0.55741059646E-01  0.51100000000E-03 0. -1.
         11    1    4    4    0    0 -0.72068954481E-01 -0.37917982422E-01 -0.17016277895E-01  0.83195687540E-01  0.51100000000E-03 0.  1.
</event>
<event>
 8    1  0.2001339E+004  0.1043930E+01  0.7957747E-01            NaN
         13   -1    0    0    0    0  0.00000000000E+00  0.00000000000E+00  0.74505805969E-08  0.10566000000E+00  0.10566000000E+00 0.  1.
     999900   -1    0    0    0    0 -0.00000000000E+00 -0.00000000000E+00 -0.74505805969E-08  0.93827000000E+00  0.93827000000E+00 0.  1.
     999902    2    1    2    0    0 -0.14629347993E-01  0.12240359228E-01  0.70152290863E-02  0.10236061801E+01  0.10234043943E+01 0.  0.
     999903    2    3    3    0    0  0.12171860598E+00  0.13259941043E-01 -0.23740907357E-01  0.13257433777E+00  0.44956415275E-01 0.  0.
         14    1    1    2    0    0  0.14629347993E-01 -0.12240359228E-01 -0.70152290863E-02  0.20323819913E-01  0.00000000000E+00 0. -1.
     999901    1    3    3    0    0 -0.13634795397E+00 -0.10195818155E-02  0.30756136443E-01  0.89103184232E+00  0.88000000000E+00 0.  1.
        -11    1    4    4    0    0  0.29500508478E-01  0.22564845296E-01 -0.10970492937E-02  0.37160690007E-01  0.51100000000E-03 0. -1.
         11    1    4    4    0    0  0.92218097501E-01 -0.93049042525E-02 -0.22643858063E-01  0.95413647760E-01  0.51100000000E-03 0.  1.
</event>
<event>
 8    1  0.2001339E+004  0.1043930E+01  0.7957747E-01            NaN
         13   -1    0    0    0    0  0.00000000000E+00  0.00000000000E+00  0.74505805969E-08  0.10566000000E+00  0.10566000000E+00 0.  1.
     999900   -1    0    0    0    0 -0.00000000000E+00 -0.00000000000E+00 -0.74505805969E-08  0.93827000000E+00  0.93827000000E+00 0. -1.
     999902    2    1    2    0    0 -0.18504618892E-02  0.51289154847E-02  0.13585183328E-01  0.10292914485E+01  0.10291873487E+01 0.  0.
     999903    2    3    3    0    0  0.22266028497E-01 -0.19046425794E-02 -0.12912392861E+00  0.13744114344E+00  0.41444846276E-01 0.  0.
         14    1    1    2    0    0  0.18504618892E-02 -0.51289154847E-02 -0.13585183328E-01  0.14638551476E-01  0.00000000000E+00 0. -1.
     999901    1    3    3    0    0 -0.24116490387E-01  0.70335580640E-02  0.14270911194E+00  0.89185030508E+00  0.88000000000E+00 0.  1.
        -11    1    4    4    0    0 -0.10182405750E-01  0.23120900870E-02 -0.60705119171E-01  0.61598699354E-01  0.51100000000E-03 0.  1.
         11    1    4    4    0    0  0.32448434247E-01 -0.42167326663E-02 -0.68418809436E-01  0.75842444087E-01  0.51100000000E-03 0. -1.
</event>
<event>
 8    1  0.2001339E+004  0.1043930E+01  0.7957747E-01            NaN
         13   -1    0    0    0    0  0.00000000000E+00  0.00000000000E+00  0.74505805969E-08  0.10566000000E+00  0.10566000000E+00 0. -1.
     999900   -1    0    0    0    0 -0.00000000000E+00 -0.00000000000E+00 -0.74505805969E-08  0.93827000000E+00  0.93827000000E+00 0. -1.
     999902    2    1    2    0    0 -0.53972749169E-02 -0.84629798032E-02 -0.90680278990E-02  0.10304029259E+01  0.10303141307E+01 0.  0.
     999903    2    3    3    0    0  0.23771851899E-02 -0.17387277777E-01  0.12945472574E+00  0.13948843023E+00  0.48893023169E-01 0.  0.
         14    1    1    2    0    0  0.53972749169E-02  0.84629798032E-02  0.90680278990E-02  0.13527074098E-01  0.00000000000E+00 0. -1.
     999901    1    3    3    0    0 -0.77744601069E-02  0.89242979739E-02 -0.13852275364E+00  0.89091449567E+00  0.88000000000E+00 0. -1.
        -11    1    4    4    0    0 -0.19696695840E-01 -0.56161139367E-02  0.26278257553E-01  0.33321292049E-01  0.51100000000E-03 0. -1.
         11    1    4    4    0    0  0.22073881030E-01 -0.11771163840E-01  0.10317646818E+00  0.10616713818E+00  0.51100000000E-03 0.  1.
</event>
<event>
 8    1  0.2001339E+004  0.1043930E+01  0.7957747E-01            NaN
         13   -1    0    0    0    0  0.00000000000E+00  0.00000000000E+00  0.74505805969E-08  0.10566000000E+00  0.10566000000E+00 0.  1.
     999900   -1    0    0    0    0 -0.00000000000E+00 -0.00000000000E+00 -0.74505805969E-08  0.93827000000E+00  0.93827000000E+00 0.  1.
     999902    2    1    2    0    0 -0.10655858137E-01 -0.47270629093E-02 -0.12807922275E-02  0.10322025593E+01  0.10321359361E+01 0.  0.
     999903    2    3    3    0    0  0.13012519218E+00 -0.48905403136E-02  0.27738783041E-01  0.14054036621E+00  0.45007459654E-01 0.  0.
         14    1    1    2    0    0  0.10655858137E-01  0.47270629093E-02  0.12807922275E-02  0.11727440689E-01  0.00000000000E+00 0. -1.
     999901    1    3    3    0    0 -0.14078105032E+00  0.16347740434E-03 -0.29019575269E-01  0.89166219310E+00  0.88000000000E+00 0.  1.
        -11    1    4    4    0    0  0.98638219708E-01 -0.11141009676E-01  0.38804033822E-01  0.10658158680E+00  0.51100000000E-03 0. -1.
         11    1    4    4    0    0  0.31486972476E-01  0.62504693619E-02 -0.11065250781E-01  0.33958779407E-01  0.51100000000E-03 0.  1.
</event>
<event>
 8    1  0.2001339E+004  0.1043930E+01  0.7957747E-01            NaN
         13   -1    0    0    0    0  0.00000000000E+00  0.00000000000E+00  0.74505805969E-08  0.10566000000E+00  0.10566000000E+00 0. -1.
     999900   -1    0    0    0    0 -0.00000000000E+00 -0.00000000000E+00 -0.74505805969E-08  0.93827000000E+00  0.93827000000E+00 0.  1.
     999902    2    1    2    0    0  0.56252508419E-02  0.42313105714E-02 -0.11725804069E-01  0.10302536731E+01  0.10301628944E+01 0.  0.
     999903    2    3    3    0    0 -0.47364573183E-01  0.10528375353E+00 -0.68750503028E-01  0.14105665671E+00  0.42921756561E-01 0.  0.
         14    1    1    2    0    0 -0.56252508419E-02 -0.42313105714E-02  0.11725804069E-01  0.13676326892E-01  0.00000000000E+00 0. -1.
     999901    1    3    3    0    0  0.52989824025E-01 -0.10105244296E+00  0.57024698959E-01  0.88919701640E+00  0.88000000000E+00 0.  1.
        -11    1    4    4    0    0 -0.12480109645E-01  0.70762511174E-01 -0.53749099825E-01  0.89734681018E-01  0.51100000000E-03 0.  1.
         11    1    4    4    0    0 -0.34884463539E-01  0.34521242354E-01 -0.15001403203E-01  0.51321975694E-01  0.51100000000E-03 0. -1.
</event>
<event>
 8    1  0.2001339E+004  0.1043930E+01  0.7957747E-01            NaN
         13   -1    0    0    0    0  0.00000000000E+00  0.00000000000E+00  0.74505805969E-08  0.10566000000E+00  0.10566000000E+00 0.  1.
     999900   -1    0    0    0    0 -0.00000000000E+00 -0.00000000000E+00 -0.74505805969E-08  0.93827000000E+00  0.93827000000E+00 0. -1.
     999902    2    1    2    0    0  0.86443402940E-02 -0.97286518173E-02  0.46161471921E-02  0.10301213035E+01  0.10300287470E+01 0.  0.
     999903    2    3    3    0    0  0.74754103822E-01 -0.10604116077E+00 -0.40705291054E-01  0.14124525306E+00  0.38215140667E-01 0.  0.
         14    1    1    2    0    0 -0.86443402940E-02  0.97286518173E-02 -0.46161471921E-02  0.13808696542E-01  0.00000000000E+00 0.  1.
     999901    1    3    3    0    0 -0.66109763528E-01  0.96312508948E-01  0.45321438247E-01  0.88887605040E+00  0.88000000000E+00 0.  1.
        -11    1    4    4    0    0  0.37026822434E-01 -0.47388567370E-01 -0.38620652402E-01  0.71473616181E-01  0.51100000000E-03 0.  1.
         11    1    4    4    0    0  0.37727281388E-01 -0.58652593395E-01 -0.20846386521E-02  0.69771636875E-01  0.51100000000E-03 0. -1.
</event>
<event>
 8    1  0.2001339E+004  0.1043930E+01  0.7957747E-01            NaN
         13   -1    0    0    0    0  0.00000000000E+00  0.00000000000E+00  0.74505805969E-08  0.10566000000E+00  0.10566000000E+00 0.  1.
     999900   -1    0    0    0    0 -0.00000000000E+00 -0.00000000000E+00 -0.74505805969E-08  0.93827000000E+00  0.93827000000E+00 0.  1.
     999902    2    1    2    0    0 -0.91118663571E-02  0.10287044092E-01  0.19540109126E-02  0.10300495265E+01  0.10299559989E+01 0.  0.
     999903    2    3    3    0    0 -0.71240434978E-01 -0.21545607677E-01 -0.10948689792E+00  0.14027857123E+00  0.46381935553E-01 0.  0.
         14    1    1    2    0    0  0.91118663571E-02 -0.10287044092E-01 -0.19540109126E-02  0.13880473454E-01  0.00000000000E+00 0.  1.
     999901    1    3    3    0    0  0.62128568621E-01  0.31832651769E-01  0.11144090883E+00  0.88977095531E+00  0.88000000000E+00 0. -1.
        -11    1    4    4    0    0 -0.32706928543E-01 -0.32725789942E-02 -0.84916086855E-01  0.91057431744E-01  0.51100000000E-03 0.  1.
         11    1    4    4    0    0 -0.38533506434E-01 -0.18273028682E-01 -0.24570811063E-01  0.49221139489E-01  0.51100000000E-03 0. -1.
</event>
<event>
 8    1  0.2001339E+004  0.1043930E+01  0.7957747E-01            NaN
         13   -1    0    0    0    0  0.00000000000E+00  0.00000000000E+00  0.74505805969E-08  0.10566000000E+00  0.10566000000E+00 0. -1.
     999900   -1    0    0    0    0 -0.00000000000E+00 -0.00000000000E+00 -0.74505805969E-08  0.93827000000E+00  0.93827000000E+00 0. -1.
     999902    2    1    2    0    0 -0.12494818033E-01 -0.63346527893E-02  0.31923551803E-02  0.10295619996E+01  0.10294617388E+01 0.  0.
     999903    2    3    3    0    0  0.12219815789E-01 -0.13219237447E+00  0.53970251319E-02  0.14026124070E+00  0.44943742568E-01 0.  0.
         14    1    1    2    0    0  0.12494818033E-01  0.63346527893E-02 -0.31923551803E-02  0.14368000391E-01  0.00000000000E+00 0.  1.
     999901    1    3    3    0    0 -0.24714633822E-01  0.12585772168E+00 -0.22046699516E-02  0.88930075891E+00  0.88000000000E+00 0. -1.
        -11    1    4    4    0    0 -0.10224517827E-01 -0.71911298895E-01 -0.12008160298E-01  0.73622229716E-01  0.51100000000E-03 0. -1.
         11    1    4    4    0    0  0.22444333616E-01 -0.60281075573E-01  0.17405185429E-01  0.66639010981E-01  0.51100000000E-03 0.  1.
</event>
<event>
 8    1  0.2001339E+004  0.1043930E+01  0.7957747E-01            NaN
         13   -1    0    0    0    0  0.00000000000E+00  0.00000000000E+00  0.74505805969E-08  0.10566000000E+00  0.10566000000E+00 0. -1.
     999900   -1    0    0    0    0 -0.00000000000E+00 -0.00000000000E+00 -0.74505805969E-08  0.93827000000E+00  0.93827000000E+00 0.  1.
     999902    2    1    2    0    0 -0.87239801945E-02 -0.11591643168E-01 -0.21437471741E-02  0.10292647460E+01  0.10291602634E+01 0.  0.
     999903    2    3    3    0    0  0.21999964057E-01  0.12678082692E+00 -0.21556116084E-01  0.13771119112E+00  0.44071867745E-01 0.  0.
         14    1    1    2    0    0  0.87239801945E-02  0.11591643168E-01  0.21437471741E-02  0.14665253960E-01  0.00000000000E+00 0.  1.
     999901    1    3    3    0    0 -0.30723944252E-01 -0.13837247008E+00  0.19412368910E-01  0.89155355492E+00  0.88000000000E+00 0. -1.
        -11    1    4    4    0    0  0.27937102134E-01  0.40119686804E-01 -0.11835684249E-01  0.50303235359E-01  0.51100000000E-03 0. -1.
         11    1    4    4    0    0 -0.59371380766E-02  0.86661140111E-01 -0.97204318353E-02  0.87407955759E-01  0.51100000000E-03 0.  1.
</event>
<event>
 8    1  0.2001339E+004  0.1043930E+01  0.7957747E-01            NaN
         13   -1    0    0    0    0  0.00000000000E+00  0.00000000000E+00  0.74505805969E-08  0.10566000000E+00  0.10566000000E+00 0. -1.
     999900   -1    0    0    0    0 -0.00000000000E+00 -0.00000000000E+00 -0.74505805969E-08  0.93827000000E+00  0.93827000000E+00 0.  1.
     999902    2    1    2    0    0 -0.87849562949E-02 -0.87396561579E-02 -0.56797378436E-02  0.10302985485E+01  0.10302083686E+01 0.  0.
     999903    2    3    3    0    0  0.12916939693E+00  0.19885655872E-01 -0.14946019666E-01  0.13904287476E+00  0.45048475066E-01 0.  0.
         14    1    1    2    0    0  0.87849562949E-02  0.87396561579E-02  0.56797378436E-02  0.13631451457E-01  0.00000000000E+00 0. -1.
     999901    1    3    3    0    0 -0.13795435323E+00 -0.28625312030E-01  0.92662818226E-02  0.89125567378E+00  0.88000000000E+00 0. -1.
        -11    1    4    4    0    0  0.42256675271E-01  0.28244934739E-01 -0.30531777457E-02  0.50921370354E-01  0.51100000000E-03 0.  1.
         11    1    4    4    0    0  0.86912721660E-01 -0.83592788672E-02 -0.11892841921E-01  0.88121504410E-01  0.51100000000E-03 0. -1.
</event>
<event>
 8    1  0.2001339E+004  0.1043930E+01  0.7957747E-01            NaN
         13   -1    0    0    0    0  0.00000000000E+00  0.00000000000E+00  0.74505805969E-08  0.10566000000E+00  0.10566000000E+00 0. -1.
     999900   -1    0    0    0    0 -0.00000000000E+00 -0.00000000000E+00 -0.74505805969E-08  0.93827000000E+00  0.93827000000E+00 0. -1.
     999902    2    1    2    0    0  0.56784824206E-02  0.13031156655E-01 -0.55774973583E-02  0.10286602691E+01  0.10285469287E+01 0.  0.
     999903    2    3    3    0    0 -0.95412512848E-01 -0.70280712670E-01  0.52149359526E-01  0.13709274671E+00  0.45077037613E-01 0.  0.
         14    1    1    2    0    0 -0.56784824206E-02 -0.13031156655E-01  0.55774973583E-02  0.15269730946E-01  0.00000000000E+00 0.  1.
     999901    1    3    3    0    0  0.10109099527E+00  0.83311869325E-01 -0.57726856884E-01  0.89156752235E+00  0.88000000000E+00 0. -1.
        -11    1    4    4    0    0 -0.61571963663E-01 -0.22349194119E-01  0.41256601470E-01  0.77414220095E-01  0.51100000000E-03 0. -1.
         11    1    4    4    0    0 -0.33840549185E-01 -0.47931518551E-01  0.10892758056E-01  0.59678526614E-01  0.51100000000E-03 0.  1.
</event>
<event>
 8    1  0.2001339E+004  0.1043930E+01  0.7957747E-01            NaN
         13   -1    0    0    0    0  0.00000000000E+00  0.00000000000E+00  0.74505805969E-08  0.10566000000E+00  0.10566000000E+00 0. -1.
     999900   -1    0    0    0    0 -0.00000000000E+00 -0.00000000000E+00 -0.74505805969E-08  0.93827000000E+00  0.93827000000E+00 0. -1.
     999902    2    1    2    0    0 -0.10680931177E-01 -0.89143093630E-02 -0.52695908329E-03  0.10300078993E+01  0.10299138060E+01 0.  0.
     999903    2    3    3    0    0  0.32280476221E-01  0.10909774549E+00  0.65706080577E-01  0.13862731662E+00  0.44225520616E-01 0.  0.
         14    1    1    2    0    0  0.10680931177E-01  0.89143093630E-02  0.52695908329E-03  0.13922100707E-01  0.00000000000E+00 0. -1.
     999901    1    3    3    0    0 -0.42961407398E-01 -0.11801205485E+00 -0.66233039660E-01  0.89138058267E+00  0.88000000000E+00 0. -1.
        -11    1    4    4    0    0  0.55824135715E-02  0.15785616838E-01  0.31574719882E-01  0.35743154546E-01  0.51100000000E-03 0.  1.
         11    1    4    4    0    0  0.26698062649E-01  0.93312128652E-01  0.34131360694E-01  0.10288416208E+00  0.51100000000E-03 0. -1.
</event>
<event>
 8    1  0.2001339E+004  0.1043930E+01  0.7957747E-01            NaN
         13   -1    0    0    0    0  0.00000000000E+00  0.00000000000E+00  0.74505805969E-08  0.10566000000E+00  0.10566000000E+00 0.  1.
     999900   -1    0    0    0    0 -0.00000000000E+00 -0.00000000000E+00 -0.74505805969E-08  0.93827000000E+00  0.93827000000E+00 0.  1.
     999902    2    1    2    0    0 -0.95376259601E-02  0.95654959791E-02 -0.14956520040E-02  0.10303394887E+01  0.10302498532E+01 0.  0.
     999903    2    3    3    0    0 -0.38932202910E-01 -0.80283500309E-01 -0.98234478047E-01  0.14000512244E+00  0.44612383792E-01 0.  0.
         14    1    1    2    0    0  0.95376259601E-02 -0.95654959791E-02  0.14956520040E-02  0.13590511293E-01  0.00000000000E+00 0. -1.
     999901    1    3    3    0    0  0.29394576950E-01  0.89848996289E-01  0.96738826043E-01  0.89033436626E+00  0.88000000000E+00 0. -1.
        -11    1    4    4    0    0  0.12695273190E-02 -0.74569258945E-02 -0.34189062058E-01  0.35019573510E-01  0.51100000000E-03 0.  1.
         11    1    4    4    0    0 -0.40201730229E-01 -0.72826574415E-01 -0.64045415988E-01  0.10498554893E+00  0.51100000000E-03 0. -1.
</event>
<event>
 8    1  0.2001339E+004  0.1043930E+01  0.7957747E-01            NaN
         13   -1    0    0    0    0  0.00000000000E+00  0.00000000000E+00  0.74505805969E-08  0.10566000000E+00  0.10566000000E+00 0.  1.
     999900   -1    0    0    0    0 -0.00000000000E+00 -0.00000000000E+00 -0.74505805969E-08  0.93827000000E+00  0.93827000000E+00 0.  1.
     999902    2    1    2    0    0  0.11459100443E-01  0.85754982258E-03 -0.48605439093E-02  0.10314531710E+01  0.10313777061E+01 0.  0.
     999903    2    3    3    0    0  0.68545781777E-02 -0.10147938850E+00  0.86383723140E-01  0.14082442296E+00  0.44992432105E-01 0.  0.
         14    1    1    2    0    0 -0.11459100443E-01 -0.85754982258E-03  0.48605439093E-02  0.12476828994E-01  0.00000000000E+00 0.  1.
     999901    1    3    3    0    0  0.46045222649E-02  0.10233693832E+00 -0.91244267049E-01  0.89062874804E+00  0.88000000000E+00 0.  1.
        -11    1    4    4    0    0  0.25572378544E-01 -0.52602882637E-01  0.51421073863E-01  0.77880663610E-01  0.51100000000E-03 0. -1.
         11    1    4    4    0    0 -0.18717800366E-01 -0.48876505864E-01  0.34962649277E-01  0.62943759353E-01  0.51100000000E-03 0.  1.
</event>
<event>
 8    1  0.2001339E+004  0.1043930E+01  0.7957747E-01            NaN
         13   -1    0    0    0    0  0.00000000000E+00  0.00000000000E+00  0.74505805969E-08  0.10566000000E+00  0.10566000000E+00 0.  1.
     999900   -1    0    0    0    0 -0.00000000000E+00 -0.00000000000E+00 -0.74505805969E-08  0.93827000000E+00  0.93827000000E+00 0. -1.
     999902    2    1    2    0    0  0.12351568480E-02 -0.11622443866E-01  0.76230625911E-02  0.10299758645E+01  0.10298813347E+01 0.  0.
     999903    2    3    3    0    0 -0.21004892331E-01  0.13689766438E-01 -0.12836355214E+00  0.13889355229E+00  0.46750423976E-01 0.  0.
         14    1    1    2    0    0 -0.12351568480E-02  0.11622443866E-01 -0.76230625911E-02  0.13954135485E-01  0.00000000000E+00 0. -1.
     999901    1    3    3    0    0  0.22240049179E-01 -0.25312210304E-01  0.13598661473E+00  0.89108231223E+00  0.88000000000E+00 0.  1.
        -11    1    4    4    0    0  0.38612642747E-02  0.60067647678E-02 -0.10052859373E+00  0.10078318244E+00  0.51100000000E-03 0.  1.
         11    1    4    4    0    0 -0.24866156606E-01  0.76830016705E-02 -0.27834958408E-01  0.38110369844E-01  0.51100000000E-03 0. -1.
</event>
<event>
 8    1  0.2001339E+004  0.1043930E+01  0.7957747E-01            NaN
         13   -1    0    0    0    0  0.00000000000E+00  0.00000000000E+00  0.74505805969E-08  0.10566000000E+00  0.10566000000E+00 0.  1.
     999900   -1    0    0    0    0 -0.00000000000E+00 -0.00000000000E+00 -0.74505805969E-08  0.93827000000E+00  0.93827000000E+00 0.  1.
     999902    2    1    2    0    0 -0.12921586806E-01 -0.38872564242E-02  0.26389044917E-02  0.10301807460E+01  0.10300889901E+01 0.  0.
     999903    2    3    3    0    0  0.87174596022E-02 -0.13265284946E+00 -0.71260477355E-02  0.14049305892E+00  0.44885927400E-01 0.  0.
         14    1    1    2    0    0  0.12921586806E-01  0.38872564242E-02 -0.26389044917E-02  0.13749253980E-01  0.00000000000E+00 0. -1.
     999901    1    3    3    0    0 -0.21639046408E-01  0.12876559303E+00  0.97649522272E-02  0.88968768710E+00  0.88000000000E+00 0. -1.
        -11    1    4    4    0    0 -0.80813166561E-02 -0.53893264922E-01  0.15832922742E-01  0.56751513164E-01  0.51100000000E-03 0.  1.
         11    1    4    4    0    0  0.16798776258E-01 -0.78759584535E-01 -0.22958970478E-01  0.83741545760E-01  0.51100000000E-03 0. -1.
</event>
<event>
 8    1  0.2001339E+004  0.1043930E+01  0.7957747E-01            NaN
         13   -1    0    0    0    0  0.00000000000E+00  0.00000000000E+00  0.74505805969E-08  0.10566000000E+00  0.10566000000E+00 0.  1.
     999900   -1    0    0    0    0 -0.00000000000E+00 -0.00000000000E+00 -0.74505805969E-08  0.93827000000E+00  0.93827000000E+00 0.  1.
     999902    2    1    2    0    0  0.14439058578E-02  0.11932206884E-01 -0.69818906022E-02  0.10300300280E+01  0.10299362356E+01 0.  0.
     999903    2    3    3    0    0  0.89519984867E-01  0.59897036477E-01 -0.78830018193E-01  0.14142428077E+00  0.46745831401E-01 0.  0.
         14    1    1    2    0    0 -0.14439058578E-02 -0.11932206884E-01  0.69818906022E-02  0.13899972001E-01  0.00000000000E+00 0.  1.
     999901    1    3    3    0    0 -0.88076079009E-01 -0.47964829593E-01  0.71848127591E-01  0.88860574723E+00  0.88000000000E+00 0. -1.
        -11    1    4    4    0    0  0.26755316668E-01  0.12643122472E-01  0.73626364639E-03  0.29605721086E-01  0.51100000000E-03 0.  1.
         11    1    4    4    0    0  0.62764668199E-01  0.47253914005E-01 -0.79566281839E-01  0.11181855968E+00  0.51100000000E-03 0. -1.
</event>
<event>
 8    1  0.2001339E+004  0.1043930E+01  0.7957747E-01            NaN
         13   -1    0    0    0    0  0.00000000000E+00  0.00000000000E+00  0.74505805969E-08  0.10566000000E+00  0.10566000000E+00 0. -1.
     999900   -1    0    0    0    0 -0.00000000000E+00 -0.00000000000E+00 -0.74505805969E-08  0.93827000000E+00  0.93827000000E+00 0. -1.
     999902    2    1    2    0    0 -0.23565289823E-02  0.78978041313E-02  0.98771821442E-02  0.10310658146E+01  0.10309855609E+01 0.  0.
     999903    2    3    3    0    0  0.86706030395E-01  0.98220507461E-01  0.29438020714E-01  0.14175543198E+00  0.45418076145E-01 0.  0.
         14    1    1    2    0    0  0.23565289823E-02 -0.78978041313E-02 -0.98771821442E-02  0.12864185402E-01  0.00000000000E+00 0.  1.
     999901    1    3    3    0    0 -0.89062559377E-01 -0.90322703330E-01 -0.19560838570E-01  0.88931038261E+00  0.88000000000E+00 0. -1.
        -11    1    4    4    0    0 -0.28025217753E-03  0.22888000021E-01  0.10283660005E-01  0.25098881855E-01  0.51100000000E-03 0. -1.
         11    1    4    4    0    0  0.86986282572E-01  0.75332507440E-01  0.19154360709E-01  0.11665655013E+00  0.51100000000E-03 0.  1.
</event>
<event>
 7    1  0.2001339E+004  0.1043930E+01  0.7957747E-01            NaN
         13   -1    0    0    0    0  0.00000000000E+00  0.00000000000E+00  0.74505805969E-08  0.10566000000E+00  0.10566000000E+00 0. -1.
     999900   -1    0    0    0    0 -0.00000000000E+00 -0.00000000000E+00 -0.74505805969E-08  0.93827000000E+00  0.93827000000E+00 0.  1.
     999903    2    1    2    0    0 -0.46288619858E-01  0.77556952699E-01 -0.51684267125E-01  0.11324363215E+00  0.44666984606E-01 0.  0.
         14    1    1    2    0    0 -0.13692670427E-01 -0.43385899391E-01  0.12188516794E-01  0.47099739182E-01  0.00000000000E+00 0.  1.
     999901    1    1    2    0    0  0.59981290285E-01 -0.34171053309E-01  0.39495750331E-01  0.88358662867E+00  0.88000000000E+00 0.  1.
        -11    1    3    3    0    0 -0.45612476956E-02  0.17031163425E-01 -0.32954106882E-01  0.37377798083E-01  0.51100000000E-03 0.  1.
         11    1    3    3    0    0 -0.41727372162E-01  0.60525789275E-01 -0.18730160243E-01  0.75865834067E-01  0.51100000000E-03 0. -1.
</event>
<event>
 8    1  0.2001339E+004  0.1043930E+01  0.7957747E-01            NaN
         13   -1    0    0    0    0  0.00000000000E+00  0.00000000000E+00  0.74505805969E-08  0.10566000000E+00  0.10566000000E+00 0. -1.
     999900   -1    0    0    0    0 -0.00000000000E+00 -0.00000000000E+00 -0.74505805969E-08  0.93827000000E+00  0.93827000000E+00 0. -1.
     999902    2    1    2    0    0 -0.11028891659E-01  0.14310920391E-02 -0.82705782433E-02  0.10300704567E+01  0.10299772128E+01 0.  0.
     999903    2    3    3    0    0 -0.59479143329E-01  0.11913318150E+00 -0.11040387934E-01  0.14090855886E+00  0.44753193934E-01 0.  0.
         14    1    1    2    0    0  0.11028891659E-01 -0.14310920391E-02  0.82705782433E-02  0.13859543287E-01  0.00000000000E+00 0.  1.
     999901    1    3    3    0    0  0.48450251669E-01 -0.11770208946E+00  0.27698096911E-02  0.88916189785E+00  0.88000000000E+00 0.  1.
        -11    1    4    4    0    0 -0.23615884347E-01  0.20963621799E-01 -0.17656589077E-01  0.36182864608E-01  0.51100000000E-03 0. -1.
         11    1    4    4    0    0 -0.35863258981E-01  0.98169559705E-01  0.66162011429E-02  0.10472569425E+00  0.51100000000E-03 0.  1.
</event>
<event>
 8    1  0.2001339E+004  0.1043930E+01  0.7957747E-01            NaN
         13   -1    0    0    0    0  0.00000000000E+00  0.00000000000E+00  0.74505805969E-08  0.10566000000E+00  0.10566000000E+00 0. -1.
     999900   -1    0    0    0    0 -0.00000000000E+00 -0.00000000000E+00 -0.74505805969E-08  0.93827000000E+00  0.93827000000E+00 0. -1.
     999902    2    1    2    0    0 -0.31189059112E-02  0.10761844651E-01 -0.68200992038E-02  0.10308128880E+01  0.10307294269E+01 0.  0.
     999903    2    3    3    0    0 -0.75203919158E-01 -0.63407483102E-01 -0.89261262305E-01  0.14092869120E+00  0.47086990621E-01 0.  0.
         14    1    1    2    0    0  0.31189059112E-02 -0.10761844651E-01  0.68200992038E-02  0.13117112012E-01  0.00000000000E+00 0. -1.
     999901    1    3    3    0    0  0.72085013247E-01  0.74169327754E-01  0.82441163101E-01  0.88988419679E+00  0.88000000000E+00 0.  1.
        -11    1    4    4    0    0 -0.10518998321E-01 -0.33336685628E-01 -0.44974962693E-01  0.56964834104E-01  0.51100000000E-03 0.  1.
         11    1    4    4    0    0 -0.64684920838E-01 -0.30070797475E-01 -0.44286299612E-01  0.83963857099E-01  0.51100000000E-03 0. -1.
</event>
<event>
 8    1  0.2001339E+004  0.1043930E+01  0.7957747E-01            NaN
         13   -1    0    0    0    0  0.00000000000E+00  0.00000000000E+00  0.74505805969E-08  0.10566000000E+00  0.10566000000E+00 0.  1.
     999900   -1    0    0    0    0 -0.00000000000E+00 -0.00000000000E+00 -0.74505805969E-08  0.93827000000E+00  0.93827000000E+00 0. -1.
     999902    2    1    2    0    0  0.75755424287E-02 -0.38533071805E-02  0.11368716566E-01  0.10297354752E+01  0.10296376374E+01 0.  0.
     999903    2    3    3    0    0 -0.11105676823E+00 -0.48623329060E-01 -0.50353888060E-01  0.13850730015E+00  0.44169268206E-01 0.  0.
         14    1    1    2    0    0 -0.75755424287E-02  0.38533071805E-02 -0.11368716566E-01  0.14194524849E-01  0.00000000000E+00 0. -1.
     999901    1    3    3    0    0  0.11863231066E+00  0.44770021879E-01  0.61722604626E-01  0.89122817500E+00  0.88000000000E+00 0.  1.
        -11    1    4    4    0    0 -0.15213796037E-01 -0.11791210325E-01 -0.27075040829E-01  0.33223654039E-01  0.51100000000E-03 0.  1.
         11    1    4    4    0    0 -0.95842972194E-01 -0.36832118735E-01 -0.23278847231E-01  0.10528364611E+00  0.51100000000E-03 0. -1.
</event>
<event>
 8    1  0.2001339E+004  0.1043930E+01  0.7957747E-01            NaN
         13   -1    0    0    0    0  0.00000000000E+00  0.00000000000E+00  0.74505805969E-08  0.10566000000E+00  0.10566000000E+00 0. -1.
     999900   -1    0    0    0    0 -0.00000000000E+00 -0.00000000000E+00 -0.74505805969E-08  0.93827000000E+00  0.93827000000E+00 0.  1.
     999902    2    1    2    0    0 -0.77297057423E-02 -0.94937906731E-02 -0.66575989094E-02  0.10299942892E+01  0.10299000106E+01 0.  0.
     999903    2    3    3    0    0  0.78200018133E-02  0.11159926526E+00 -0.70300209509E-01  0.13928911717E+00  0.44088436928E-01 0.  0.
         14    1    1    2    0    0  0.77297057423E-02  0.94937906731E-02  0.66575989094E-02  0.13935710798E-01  0.00000000000E+00 0. -1.
     999901    1    3    3    0    0 -0.15549707556E-01 -0.12109305593E+00  0.63642610600E-01  0.89070517203E+00  0.88000000000E+00 0. -1.
        -11    1    4    4    0    0 -0.16542003501E-01  0.22972734090E-01 -0.15529897107E-01  0.32292773441E-01  0.51100000000E-03 0.  1.
         11    1    4    4    0    0  0.24362005315E-01  0.88626531168E-01 -0.54770312402E-01  0.10699634373E+00  0.51100000000E-03 0. -1.
</event>
<event>
 8    1  0.2001339E+004  0.1043930E+01  0.7957747E-01            NaN
         13   -1    0    0    0    0  0.00000000000E+00  0.00000000000E+00  0.74505805969E-08  0.10566000000E+00  0.10566000000E+00 0.  1.
     999900   -1    0    0    0    0 -0.00000000000E+00 -0.00000000000E+00 -0.74505805969E-08  0.93827000000E+00  0.93827000000E+00 0. -1.
     999902    2    1    2    0    0 -0.16471818677E-01 -0.10991467776E-02 -0.11591530697E-02  0.10273809043E+01  0.10272476088E+01 0.  0.
     999903    2    3    3    0    0  0.78114502564E-01 -0.10056366026E+00  0.15043604923E-01  0.13659344870E+00  0.47080090305E-01 0.  0.
         14    1    1    2    0    0  0.16471818677E-01  0.10991467776E-02  0.11591530697E-02  0.16549095746E-01  0.00000000000E+00 0. -1.
     999901    1    3    3    0    0 -0.94586321240E-01  0.99464513481E-01 -0.16202757993E-01  0.89078745556E+00  0.88000000000E+00 0. -1.
        -11    1    4    4    0    0  0.67415904326E-01 -0.60733032777E-01  0.25085052820E-01  0.94143116702E-01  0.51100000000E-03 0.  1.
         11    1    4    4    0    0  0.10698598237E-01 -0.39830627481E-01 -0.10041447897E-01  0.42450331997E-01  0.51100000000E-03 0. -1.
</event>
<event>
 8    1  0.2001339E+004  0.1043930E+01  0.7957747E-01            NaN
         13   -1    0    0    0    0  0.00000000000E+00  0.00000000000E+00  0.74505805969E-08  0.10566000000E+00  0.10566000000E+00 0.  1.
     999900   -1    0    0    0    0 -0.00000000000E+00 -0.00000000000E+00 -0.74505805969E-08  0.93827000000E+00  0.93827000000E+00 0.  1.
     999902    2    1    2    0    0 -0.32011674942E-02 -0.13639933520E-02 -0.13051510714E-01  0.10304225990E+01  0.10303340636E+01 0.  0.
     999903    2    3    3    0    0 -0.40491670730E-01  0.10907331146E+00  0.62005023664E-01  0.13956881562E+00  0.45806862613E-01 0.  0.
         14    1    1    2    0    0  0.32011674942E-02  0.13639933520E-02  0.13051510714E-01  0.13507401049E-01  0.00000000000E+00 0.  1.
     999901    1    3    3    0    0  0.37290503236E-01 -0.11043730481E+00 -0.75056534378E-01  0.89085378333E+00  0.88000000000E+00 0.  1.
        -11    1    4    4    0    0  0.96090002124E-02  0.29271834578E-01  0.15238414077E-01  0.34375042825E-01  0.51100000000E-03 0. -1.
         11    1    4    4    0    0 -0.50100670943E-01  0.79801476880E-01  0.46766609587E-01  0.10519377279E+00  0.51100000000E-03 0.  1.
</event>
<event>
 8    1  0.2001339E+004  0.1043930E+01  0.7957747E-01            NaN
         13   -1    0    0    0    0  0.00000000000E+00  0.00000000000E+00  0.74505805969E-08  0.10566000000E+00  0.10566000000E+00 0. -1.
     999900   -1    0    0    0    0 -0.00000000000E+00 -0.00000000000E+00 -0.74505805969E-08  0.93827000000E+00  0.93827000000E+00 0.  1.
     999902    2    1    2    0    0 -0.19218104248E-02  0.11286812630E-02 -0.10509801957E-01  0.10331864804E+01  0.10331306210E+01 0.  0.
     999903    2    3    3    0    0 -0.22192654910E-01 -0.10128088931E+00 -0.89290200859E-01  0.14352082490E+00  0.43303056944E-01 0.  0.
         14    1    1    2    0    0  0.19218104248E-02 -0.11286812630E-02  0.10509801957E-01  0.10743519622E-01  0.00000000000E+00 0. -1.
     999901    1    3    3    0    0  0.20270844485E-01  0.10240957057E+00  0.78780398902E-01  0.88966565547E+00  0.88000000000E+00 0. -1.
        -11    1    4    4    0    0  0.55185823044E-02 -0.66011421281E-01 -0.63580251718E-01  0.91818691015E-01  0.51100000000E-03 0. -1.
         11    1    4    4    0    0 -0.27711237214E-01 -0.35269468025E-01 -0.25709949141E-01  0.51702133888E-01  0.51100000000E-03 0.  1.
</event>
<event>
 8    1  0.2001339E+004  0.1043930E+01  0.7957747E-01            NaN
         13   -1    0    0    0    0  0.00000000000E+00  0.00000000000E+00  0.74505805969E-08  0.10566000000E+00  0.10566000000E+00 0.  1.
     999900   -1    0    0    0    0 -0.00000000000E+00 -0.00000000000E+00 -0.74505805969E-08  0.93827000000E+00  0.93827000000E+00 0. -1.
     999902    2    1    2    0    0  0.12691690355E-01  0.10394051379E-01 -0.14100491212E-02  0.10274647777E+01  0.10273328408E+01 0.  0.
     999903    2    3    3    0    0  0.12377969561E+00 -0.13348653651E-02  0.45704867931E-01  0.13915293613E+00  0.44174763959E-01 0.  0.
         14    1    1    2    0    0 -0.12691690355E-01 -0.10394051379E-01  0.14100491212E-02  0.16465222339E-01  0.00000000000E+00 0. -1.
     999901    1    3    3    0    0 -0.11108800525E+00  0.11728916744E-01 -0.47114917052E-01  0.88831184153E+00  0.88000000000E+00 0.  1.
        -11    1    4    4    0    0  0.10033250019E-01 -0.12811547849E-01  0.11102576150E-01  0.19706095057E-01  0.51100000000E-03 0. -1.
         11    1    4    4    0    0  0.11374644559E+00  0.11476682484E-01  0.34602291781E-01  0.11944684107E+00  0.51100000000E-03 0.  1.
</event>
<event>
 7    1  0.2001339E+004  0.1043930E+01  0.7957747E-01            NaN
         13   -1    0    0    0    0  0.00000000000E+00  0.00000000000E+00  0.74505805969E-08  0.10566000000E+00  0.10566000000E+00 0.  1.
     999900   -1    0    0    0    0 -0.00000000000E+00 -0.00000000000E+00 -0.74505805969E-08  0.93827000000E+00  0.93827000000E+00 0.  1.
     999903    2    1    2    0    0 -0.40464319518E-01 -0.44257101711E-01 -0.69126357132E-01  0.10252601848E+00  0.46228551890E-01 0.  0.
         14    1    1    2    0    0  0.29124476812E-01 -0.42888083173E-01  0.20316091026E-01  0.55680933742E-01  0.00000000000E+00 0.  1.
     999901    1    1    2    0    0  0.11339842706E-01  0.87145184884E-01  0.48810266106E-01  0.88572304777E+00  0.88000000000E+00 0.  1.
        -11    1    3    3    0    0 -0.30559500991E-01 -0.37591950088E-01 -0.74939993591E-01  0.89237332842E-01  0.51100000000E-03 0.  1.
         11    1    3    3    0    0 -0.99048185272E-02 -0.66651516226E-02  0.58136364591E-02  0.13288685642E-01  0.51100000000E-03 0. -1.
</event>
<event>
 8    1  0.2001339E+004  0.1043930E+01  0.7957747E-01            NaN
         13   -1    0    0    0    0  0.00000000000E+00  0.00000000000E+00  0.74505805969E-08  0.10566000000E+00  0.10566000000E+00 0.  1.
     999900   -1    0    0    0    0 -0.00000000000E+00 -0.00000000000E+00 -0.74505805969E-08  0.93827000000E+00  0.93827000000E+00 0. -1.
     999902    2    1    2    0    0 -0.26662232237E-02 -0.67267711363E-02  0.11886077356E-01  0.10300146476E+01  0.10299206461E+01 0.  0.
     999903    2    3    3    0    0 -0.12097058382E+00  0.49554457683E-01 -0.20467408912E-01  0.13972803844E+00  0.44894136309E-01 0.  0.
         14    1    1    2    0    0  0.26662232237E-02  0.67267711363E-02 -0.11886077356E-01  0.13915352353E-01  0.00000000000E+00 0. -1.
     999901    1    3    3    0    0  0.11830436059E+00 -0.56281228820E-01  0.32353486267E-01  0.89028660920E+00  0.88000000000E+00 0.  1.
        -11    1    4    4    0    0 -0.37685796117E-01  0.34944648972E-01  0.44126198591E-02  0.51585657462E-01  0.51100000000E-03 0.  1.
         11    1    4    4    0    0 -0.83284787699E-01  0.14609808711E-01 -0.24880028771E-01  0.88142380982E-01  0.51100000000E-03 0. -1.
</event>
<event>
 8    1  0.2001339E+004  0.1043930E+01  0.7957747E-01            NaN
         13   -1    0    0    0    0  0.00000000000E+00  0.00000000000E+00  0.74505805969E-08  0.10566000000E+00  0.10566000000E+00 0. -1.
     999900   -1    0    0    0    0 -0.00000000000E+00 -0.00000000000E+00 -0.74505805969E-08  0.93827000000E+00  0.93827000000E+00 0.  1.
     999902    2    1    2    0    0 -0.45093853132E-02 -0.20571833166E-02 -0.12968537082E-01  0.10300465742E+01  0.10299530064E+01 0.  0.
     999903    2    3    3    0    0  0.11261355514E+00 -0.69241745630E-01  0.15807426510E-02  0.13962912704E+00  0.44917282083E-01 0.  0.
         14    1    1    2    0    0  0.45093853132E-02  0.20571833166E-02  0.12968537082E-01  0.13883425843E-01  0.00000000000E+00 0. -1.
     999901    1    3    3    0    0 -0.11712294046E+00  0.67184562314E-01 -0.14549279733E-01  0.89041744712E+00  0.88000000000E+00 0. -1.
        -11    1    4    4    0    0  0.10774507429E-01  0.62766128428E-02  0.30026484939E-02  0.12836000082E-01  0.51100000000E-03 0. -1.
         11    1    4    4    0    0  0.10183904771E+00 -0.75518358473E-01 -0.14219058429E-02  0.12679312696E+00  0.51100000000E-03 0.  1.
</event>
<event>
 8    1  0.2001339E+004  0.1043930E+01  0.7957747E-01            NaN
         13   -1    0    0    0    0  0.00000000000E+00  0.00000000000E+00  0.74505805969E-08  0.10566000000E+00  0.10566000000E+00 0.  1.
     999900   -1    0    0    0    0 -0.00000000000E+00 -0.00000000000E+00 -0.74505805969E-08  0.93827000000E+00  0.93827000000E+00 0. -1.
     999902    2    1    2    0    0 -0.80871691193E-02 -0.10281250096E-01  0.17928811280E-02  0.10307269386E+01  0.10306423730E+01 0.  0.
     999903    2    3    3    0    0  0.93604485921E-01 -0.16073848753E-01 -0.91773096643E-01  0.13992430102E+00  0.46220561982E-01 0.  0.
         14    1    1    2    0    0  0.80871691193E-02  0.10281250096E-01 -0.17928811280E-02  0.13203061411E-01  0.00000000000E+00 0. -1.
     999901    1    3    3    0    0 -0.10169165504E+00  0.57925986567E-02  0.93565977771E-01  0.89080263757E+00  0.88000000000E+00 0. -1.
        -11    1    4    4    0    0  0.87680235455E-01 -0.27200154126E-01 -0.72922361355E-01  0.11724164781E+00  0.51100000000E-03 0.  1.
         11    1    4    4    0    0  0.59242504667E-02  0.11126305373E-01 -0.18850735288E-01  0.22682653212E-01  0.51100000000E-03 0. -1.
</event>
<event>
 8    1  0.2439326E+004  0.1043930E+01  0.7957747E-01            NaN
         13   -1    0    0    0    0  0.00000000000E+00  0.00000000000E+00  0.74505805969E-08  0.10566000000E+00  0.10566000000E+00 0.  1.
     999900   -1    0    0    0    0 -0.00000000000E+00 -0.00000000000E+00 -0.74505805969E-08  0.93827000000E+00  0.93827000000E+00 0. -1.
     999902    2    1    2    0    0 -0.64218015231E-02 -0.73178823347E-02  0.87443248818E-02  0.10308435889E+01  0.10307605205E+01 0.  0.
     999903    2    3    3    0    0  0.11035235649E+00  0.45047895793E-01 -0.55950891448E-01  0.13923613624E+00  0.45268575007E-01 0.  0.
         14    1    1    2    0    0  0.64218015231E-02  0.73178823347E-02 -0.87443248818E-02  0.13086411055E-01  0.00000000000E+00 0.  1.
     999901    1    3    3    0    0 -0.11677415801E+00 -0.52365778128E-01  0.64695216330E-01  0.89160745270E+00  0.88000000000E+00 0.  1.
        -11    1    4    4    0    0  0.59230071908E-01  0.44130051117E-01 -0.19359535371E-01  0.76359122314E-01  0.51100000000E-03 0. -1.
         11    1    4    4    0    0  0.51122284584E-01  0.91784467592E-03 -0.36591356077E-01  0.62877013928E-01  0.51100000000E-03 0.  1.
</event>
<event>
 8    1  0.2001339E+004  0.1043930E+01  0.7957747E-01            NaN
         13   -1    0    0    0    0  0.00000000000E+00  0.00000000000E+00  0.74505805969E-08  0.10566000000E+00  0.10566000000E+00 0.  1.
     999900   -1    0    0    0    0 -0.00000000000E+00 -0.00000000000E+00 -0.74505805969E-08  0.93827000000E+00  0.93827000000E+00 0. -1.
     999902    2    1    2    0    0  0.56550382992E-02 -0.21021682162E-02  0.13506764456E-01  0.10291370539E+01  0.10290307305E+01 0.  0.
     999903    2    3    3    0    0 -0.12824047661E+00 -0.83989604106E-02  0.28520035821E-01  0.13886009874E+00  0.44187919169E-01 0.  0.
         14    1    1    2    0    0 -0.56550382992E-02  0.21021682162E-02 -0.13506764456E-01  0.14792946138E-01  0.00000000000E+00 0. -1.
     999901    1    3    3    0    0  0.13389551491E+00  0.62967921943E-02 -0.15013271365E-01  0.89027695512E+00  0.88000000000E+00 0.  1.
        -11    1    4    4    0    0 -0.69612767958E-01 -0.26446076560E-01  0.18098878794E-01  0.76636564138E-01  0.51100000000E-03 0. -1.
         11    1    4    4    0    0 -0.58627708656E-01  0.18047116149E-01  0.10421157027E-01  0.62223534602E-01  0.51100000000E-03 0.  1.
</event>
<event>
 8    1  0.2001339E+004  0.1043930E+01  0.7957747E-01            NaN
         13   -1    0    0    0    0  0.00000000000E+00  0.00000000000E+00  0.74505805969E-08  0.10566000000E+00  0.10566000000E+00 0.  1.
     999900   -1    0    0    0    0 -0.00000000000E+00 -0.00000000000E+00 -0.74505805969E-08  0.93827000000E+00  0.93827000000E+00 0. -1.
     999902    2    1    2    0    0  0.63429699523E-02 -0.13223882555E-02  0.12056946208E-01  0.10302423439E+01  0.10301514137E+01 0.  0.
     999903    2    3    3    0    0 -0.25581285445E-02 -0.11736724971E+00 -0.54263772796E-01  0.14010523241E+00  0.53882314205E-01 0.  0.
         14    1    1    2    0    0 -0.63429699523E-02  0.13223882555E-02 -0.12056946208E-01  0.13687656132E-01  0.00000000000E+00 0. -1.
     999901    1    3    3    0    0  0.89010984967E-02  0.11604486146E+00  0.66320719005E-01  0.89013711146E+00  0.88000000000E+00 0.  1.
        -11    1    4    4    0    0 -0.21135253384E-01 -0.68632166820E-01 -0.50536825097E-01  0.87814036862E-01  0.51100000000E-03 0. -1.
         11    1    4    4    0    0  0.18577124840E-01 -0.48735082892E-01 -0.37269476996E-02  0.52291195549E-01  0.51100000000E-03 0.  1.
</event>
<event>
 8    1  0.2001339E+004  0.1043930E+01  0.7957747E-01            NaN
         13   -1    0    0    0    0  0.00000000000E+00  0.00000000000E+00  0.74505805969E-08  0.10566000000E+00  0.10566000000E+00 0.  1.
     999900   -1    0    0    0    0 -0.00000000000E+00 -0.00000000000E+00 -0.74505805969E-08  0.93827000000E+00  0.93827000000E+00 0.  1.
     999902    2    1    2    0    0  0.72053844315E-02 -0.11898946835E-01 -0.21045495517E-02  0.10298611824E+01  0.10297650816E+01 0.  0.
     999903    2    3    3    0    0  0.71088316950E-01 -0.77967448429E-01 -0.81847592163E-01  0.14148905943E+00  0.46772361236E-01 0.  0.
         14    1    1    2    0    0 -0.72053844315E-02  0.11898946835E-01  0.21045495517E-02  0.14068817626E-01  0.00000000000E+00 0.  1.
     999901    1    3    3    0    0 -0.63882932518E-01  0.66068501595E-01  0.79743042611E-01  0.88837212294E+00  0.88000000000E+00 0.  1.
        -11    1    4    4    0    0  0.50528187148E-01 -0.41642720998E-01 -0.23126167286E-01  0.69442743631E-01  0.51100000000E-03 0. -1.
         11    1    4    4    0    0  0.20560129802E-01 -0.36324727431E-01 -0.58721424877E-01  0.72046315804E-01  0.51100000000E-03 0.  1.
</event>
<event>
 8    1  0.2001339E+004  0.1043930E+01  0.7957747E-01            NaN
         13   -1    0    0    0    0  0.00000000000E+00  0.00000000000E+00  0.74505805969E-08  0.10566000000E+00  0.10566000000E+00 0. -1.
     999900   -1    0    0    0    0 -0.00000000000E+00 -0.00000000000E+00 -0.74505805969E-08  0.93827000000E+00  0.93827000000E+00 0.  1.
     999902    2    1    2    0    0 -0.96794460993E-02 -0.64753086812E-02 -0.84200523578E-02  0.10295592456E+01  0.10294589461E+01 0.  0.
     999903    2    3    3    0    0 -0.47709828338E-01 -0.11259033869E+00 -0.54911142574E-01  0.14115160776E+00  0.44223644227E-01 0.  0.
         14    1    1    2    0    0  0.96794460993E-02  0.64753086812E-02  0.84200523578E-02  0.14370754365E-01  0.00000000000E+00 0.  1.
     999901    1    3    3    0    0  0.38030382239E-01  0.10611503001E+00  0.46491090216E-01  0.88840763788E+00  0.88000000000E+00 0. -1.
        -11    1    4    4    0    0 -0.52493481314E-01 -0.80679066723E-01 -0.31483353092E-01  0.10127260257E+00  0.51100000000E-03 0. -1.
         11    1    4    4    0    0  0.47836529765E-02 -0.31911271964E-01 -0.23427789481E-01  0.39879005192E-01  0.51100000000E-03 0.  1.
</event>
<event>
 8    1  0.2001339E+004  0.1043930E+01  0.7957747E-01            NaN
         13   -1    0    0    0    0  0.00000000000E+00  0.00000000000E+00  0.74505805969E-08  0.10566000000E+00  0.10566000000E+00 0.  1.
     999900   -1    0    0    0    0 -0.00000000000E+00 -0.00000000000E+00 -0.74505805969E-08  0.93827000000E+00  0.93827000000E+00 0. -1.
     999902    2    1    2    0    0 -0.12830626832E-01  0.33534436802E-03  0.62698190695E-02  0.10296454604E+01  0.10295463691E+01 0.  0.
     999903    2    3    3    0    0  0.29655013958E-01 -0.51186719479E-01 -0.11673470373E+00  0.13858448303E+00  0.45597892247E-01 0.  0.
         14    1    1    2    0    0  0.12830626832E-01 -0.33534436802E-03 -0.62698190695E-02  0.14284539612E-01  0.00000000000E+00 0. -1.
     999901    1    3    3    0    0 -0.42485640790E-01  0.51522063847E-01  0.12300452280E+00  0.89106097736E+00  0.88000000000E+00 0.  1.
        -11    1    4    4    0    0  0.43013423877E-02 -0.12991819670E-01 -0.76098432310E-01  0.77320899152E-01  0.51100000000E-03 0.  1.
         11    1    4    4    0    0  0.25353671570E-01 -0.38194899809E-01 -0.40636271425E-01  0.61263583880E-01  0.51100000000E-03 0. -1.
</event>
<event>
 8    1  0.2001339E+004  0.1043930E+01  0.7957747E-01            NaN
         13   -1    0    0    0    0  0.00000000000E+00  0.00000000000E+00  0.74505805969E-08  0.10566000000E+00  0.10566000000E+00 0.  1.
     999900   -1    0    0    0    0 -0.00000000000E+00 -0.00000000000E+00 -0.74505805969E-08  0.93827000000E+00  0.93827000000E+00 0.  1.
     999902    2    1    2    0    0 -0.16333769476E-01 -0.46746503196E-03  0.15918019516E-02  0.10275121931E+01  0.10273810212E+01 0.  0.
     999903    2    3    3    0    0 -0.86627464828E-01  0.25848778370E-01  0.95659225335E-01  0.13932165703E+00  0.45687632040E-01 0.  0.
         14    1    1    2    0    0  0.16333769476E-01  0.46746503196E-03 -0.15918019516E-02  0.16417806867E-01  0.00000000000E+00 0. -1.
     999901    1    3    3    0    0  0.70293695352E-01 -0.26316243402E-01 -0.94067423384E-01  0.88819053610E+00  0.88000000000E+00 0.  1.
        -11    1    4    4    0    0 -0.35506800238E-01  0.28416566985E-01  0.66028561741E-01  0.80176469297E-01  0.51100000000E-03 0.  1.
         11    1    4    4    0    0 -0.51120664590E-01 -0.25677886148E-02  0.29630663594E-01  0.59145187738E-01  0.51100000000E-03 0. -1.
</event>
<event>
 8    1  0.2001339E+004  0.1043930E+01  0.7957747E-01            NaN
         13   -1    0    0    0    0  0.00000000000E+00  0.00000000000E+00  0.74505805969E-08  0.10566000000E+00  0.10566000000E+00 0.  1.
     999900   -1    0    0    0    0 -0.00000000000E+00 -0.00000000000E+00 -0.74505805969E-08  0.93827000000E+00  0.93827000000E+00 0. -1.
     999902    2    1    2    0    0 -0.34741006100E-03 -0.22320243911E-02 -0.13772492926E-01  0.10299734894E+01  0.10298789272E+01 0.  0.
     999903    2    3    3    0    0  0.38660741349E-01 -0.57399541844E-01 -0.11453873712E+00  0.14164982833E+00  0.46434806313E-01 0.  0.
         14    1    1    2    0    0  0.34741006100E-03  0.22320243911E-02  0.13772492926E-01  0.13956510597E-01  0.00000000000E+00 0.  1.
     999901    1    3    3    0    0 -0.39008151410E-01  0.55167517453E-01  0.10076624420E+00  0.88832366108E+00  0.88000000000E+00 0.  1.
        -11    1    4    4    0    0  0.20429822004E-01 -0.12845314840E-02 -0.50909050582E-01  0.54872763739E-01  0.51100000000E-03 0.  1.
         11    1    4    4    0    0  0.18230919344E-01 -0.56115010360E-01 -0.63629686543E-01  0.86777064587E-01  0.51100000000E-03 0. -1.
</event>
<event>
 8    1  0.2001339E+004  0.1043930E+01  0.7957747E-01            NaN
         13   -1    0    0    0    0  0.00000000000E+00  0.00000000000E+00  0.74505805969E-08  0.10566000000E+00  0.10566000000E+00 0.  1.
     999900   -1    0    0    0    0 -0.00000000000E+00 -0.00000000000E+00 -0.74505805969E-08  0.93827000000E+00  0.93827000000E+00 0. -1.
     999902    2    1    2    0    0  0.10994416023E-01  0.26369145741E-02  0.62867984381E-02  0.10309934496E+01  0.10309122847E+01 0.  0.
     999903    2    3    3    0    0 -0.23672281563E-01 -0.12132182855E+00  0.49333840948E-01  0.14058871139E+00  0.45298950439E-01 0.  0.
         14    1    1    2    0    0 -0.10994416023E-01 -0.26369145741E-02 -0.62867984381E-02  0.12936550420E-01  0.00000000000E+00 0. -1.
     999901    1    3    3    0    0  0.34666697586E-01  0.12395874313E+00 -0.43047042510E-01  0.89040473819E+00  0.88000000000E+00 0. -1.
        -11    1    4    4    0    0 -0.27263853165E-01 -0.58849601845E-01  0.74471039313E-02  0.65286398313E-01  0.51100000000E-03 0.  1.
         11    1    4    4    0    0  0.35915716019E-02 -0.62472226706E-01  0.41886737016E-01  0.75302313079E-01  0.51100000000E-03 0. -1.
</event>
<event>
 8    1  0.2001339E+004  0.1043930E+01  0.7957747E-01            NaN
         13   -1    0    0    0    0  0.00000000000E+00  0.00000000000E+00  0.74505805969E-08  0.10566000000E+00  0.10566000000E+00 0.  1.
     999900   -1    0    0    0    0 -0.00000000000E+00 -0.00000000000E+00 -0.74505805969E-08  0.93827000000E+00  0.93827000000E+00 0.  1.
     999902    2    1    2    0    0 -0.66476125944E-02  0.84696825585E-02  0.86149545622E-02  0.10301407390E+01  0.10300484447E+01 0.  0.
     999903    2    3    3    0    0 -0.27099794066E-02  0.96241114863E-01 -0.91174096208E-01  0.14015355714E+00  0.45393915685E-01 0.  0.
         14    1    1    2    0    0  0.66476125944E-02 -0.84696825585E-02 -0.86149545622E-02  0.13789260965E-01  0.00000000000E+00 0. -1.
     999901    1    3    3    0    0 -0.39376331878E-02 -0.87771432305E-01  0.99789050770E-01  0.88998718190E+00  0.88000000000E+00 0. -1.
        -11    1    4    4    0    0  0.20489490995E-01  0.34380679435E-01 -0.39959187648E-01  0.56558360639E-01  0.51100000000E-03 0. -1.
         11    1    4    4    0    0 -0.23199470402E-01  0.61860435428E-01 -0.51214908559E-01  0.83595196501E-01  0.51100000000E-03 0.  1.
</event>
<event>
 8    1  0.2001339E+004  0.1043930E+01  0.7957747E-01            NaN
         13   -1    0    0    0    0  0.00000000000E+00  0.00000000000E+00  0.74505805969E-08  0.10566000000E+00  0.10566000000E+00 0.  1.
     999900   -1    0    0    0    0 -0.00000000000E+00 -0.00000000000E+00 -0.74505805969E-08  0.93827000000E+00  0.93827000000E+00 0. -1.
     999902    2    1    2    0    0 -0.11596117728E-01  0.39916833789E-02 -0.44522914975E-02  0.10308829167E+01  0.10308003500E+01 0.  0.
     999903    2    3    3    0    0  0.99811077269E-01  0.83847280534E-01  0.22807529386E-01  0.13985453483E+00  0.45238146710E-01 0.  0.
         14    1    1    2    0    0  0.11596117728E-01 -0.39916833789E-02  0.44522914975E-02  0.13047083281E-01  0.00000000000E+00 0. -1.
     999901    1    3    3    0    0 -0.11140719500E+00 -0.79855597155E-01 -0.27259820884E-01  0.89102838189E+00  0.88000000000E+00 0.  1.
        -11    1    4    4    0    0  0.62740188714E-01  0.43616875987E-01  0.34612449731E-01  0.83887102394E-01  0.51100000000E-03 0.  1.
         11    1    4    4    0    0  0.37070888555E-01  0.40230404547E-01 -0.11804920345E-01  0.55967432437E-01  0.51100000000E-03 0. -1.
</event>
<event>
 8    1  0.2001339E+004  0.1043930E+01  0.7957747E-01            NaN
         13   -1    0    0    0    0  0.00000000000E+00  0.00000000000E+00  0.74505805969E-08  0.10566000000E+00  0.10566000000E+00 0. -1.
     999900   -1    0    0    0    0 -0.00000000000E+00 -0.00000000000E+00 -0.74505805969E-08  0.93827000000E+00  0.93827000000E+00 0.  1.
     999902    2    1    2    0    0  0.14326207483E-01  0.42224286645E-02 -0.16941538208E-01  0.10213449421E+01  0.10210951992E+01 0.  0.
     999903    2    3    3    0    0 -0.62387574112E-01 -0.10574623288E+00 -0.25155463968E-03  0.13103226309E+00  0.45770247096E-01 0.  0.
         14    1    1    2    0    0 -0.14326207483E-01 -0.42224286645E-02  0.16941538208E-01  0.22585057926E-01  0.00000000000E+00 0. -1.
     999901    1    3    3    0    0  0.76713781595E-01  0.10996866154E+00 -0.16689983569E-01  0.89031267898E+00  0.88000000000E+00 0. -1.
        -11    1    4    4    0    0 -0.22217242915E-01 -0.63914819300E-01  0.18371349763E-01  0.70117598518E-01  0.51100000000E-03 0.  1.
         11    1    4    4    0    0 -0.40170331197E-01 -0.41831413578E-01 -0.18622904403E-01  0.60914664571E-01  0.51100000000E-03 0. -1.
</event>
<event>
 8    1  0.2001339E+004  0.1043930E+01  0.7957747E-01            NaN
         13   -1    0    0    0    0  0.00000000000E+00  0.00000000000E+00  0.74505805969E-08  0.10566000000E+00  0.10566000000E+00 0. -1.
     999900   -1    0    0    0    0 -0.00000000000E+00 -0.00000000000E+00 -0.74505805969E-08  0.93827000000E+00  0.93827000000E+00 0. -1.
     999902    2    1    2    0    0  0.42855260136E-02 -0.61219118533E-02  0.10273718107E-01  0.10312259525E+01  0.10311476967E+01 0.  0.
     999903    2    3    3    0    0 -0.54506188148E-01  0.59224466822E-01  0.10794896046E+00  0.14146920611E+00  0.43383132625E-01 0.  0.
         14    1    1    2    0    0 -0.42855260136E-02  0.61219118533E-02 -0.10273718107E-01  0.12704047454E-01  0.00000000000E+00 0.  1.
     999901    1    3    3    0    0  0.58791714162E-01 -0.65346378676E-01 -0.97675242352E-01  0.88975674644E+00  0.88000000000E+00 0. -1.
        -11    1    4    4    0    0 -0.59256096888E-01  0.43511592504E-01  0.97078040801E-01  0.12177417964E+00  0.51100000000E-03 0.  1.
         11    1    4    4    0    0  0.47499087394E-02  0.15712874318E-01  0.10870919658E-01  0.19695026468E-01  0.51100000000E-03 0. -1.
</event>
<event>
 8    1  0.2001339E+004  0.1043930E+01  0.7957747E-01            NaN
         13   -1    0    0    0    0  0.00000000000E+00  0.00000000000E+00  0.74505805969E-08  0.10566000000E+00  0.10566000000E+00 0. -1.
     999900   -1    0    0    0    0 -0.00000000000E+00 -0.00000000000E+00 -0.74505805969E-08  0.93827000000E+00  0.93827000000E+00 0.  1.
     999902    2    1    2    0    0  0.27531359102E-02 -0.13404932385E-01 -0.10107103579E-02  0.10302079919E+01  0.10301166017E+01 0.  0.
     999903    2    3    3    0    0  0.72288367811E-01  0.13188571728E-01  0.11058673947E+00  0.14004151665E+00  0.44526990624E-01 0.  0.
         14    1    1    2    0    0 -0.27531359102E-02  0.13404932385E-01  0.10107103579E-02  0.13722008053E-01  0.00000000000E+00 0. -1.
     999901    1    3    3    0    0 -0.69535231901E-01 -0.26593504113E-01 -0.11159744983E+00  0.89016647530E+00  0.88000000000E+00 0.  1.
        -11    1    4    4    0    0  0.14415654607E-01  0.23007679717E-01  0.32530057684E-01  0.42374876964E-01  0.51100000000E-03 0. -1.
         11    1    4    4    0    0  0.57872713204E-01 -0.98191079894E-02  0.78056681784E-01  0.97666639685E-01  0.51100000000E-03 0.  1.
</event>
<event>
 8    1  0.2001339E+004  0.1043930E+01  0.7957747E-01            NaN
         13   -1    0    0    0    0  0.00000000000E+00  0.00000000000E+00  0.74505805969E-08  0.10566000000E+00  0.10566000000E+00 0. -1.
     999900   -1    0    0    0    0 -0.00000000000E+00 -0.00000000000E+00 -0.74505805969E-08  0.93827000000E+00  0.93827000000E+00 0.  1.
     999902    2    1    2    0    0  0.75768230363E-02 -0.93031629749E-02 -0.75004665991E-02  0.10297802973E+01  0.10296830806E+01 0.  0.
     999903    2    3    3    0    0 -0.12607926081E+00  0.31160259075E-01 -0.13197836554E-01  0.13875072575E+00  0.47017435618E-01 0.  0.
         14    1    1    2    0    0 -0.75768230363E-02  0.93031629749E-02  0.75004665991E-02  0.14149702748E-01  0.00000000000E+00 0. -1.
     999901    1    3    3    0    0  0.13365608385E+00 -0.40463422050E-01  0.56973699550E-02  0.89102957151E+00  0.88000000000E+00 0.  1.
        -11    1    4    4    0    0 -0.63550184209E-01  0.39725999376E-01 -0.91937335558E-02  0.75508720007E-01  0.51100000000E-03 0. -1.
         11    1    4    4    0    0 -0.62529076605E-01 -0.85657403008E-02 -0.40041029983E-02  0.63242005738E-01  0.51100000000E-03 0.  1.
</event>
<event>
 8    1  0.2001339E+004  0.1043930E+01  0.7957747E-01            NaN
         13   -1    0    0    0    0  0.00000000000E+00  0.00000000000E+00  0.74505805969E-08  0.10566000000E+00  0.10566000000E+00 0. -1.
     999900   -1    0    0    0    0 -0.00000000000E+00 -0.00000000000E+00 -0.74505805969E-08  0.93827000000E+00  0.93827000000E+00 0. -1.
     999902    2    1    2    0    0 -0.99853174107E-02  0.80812017860E-02  0.51165564043E-02  0.10301027973E+01  0.10300099909E+01 0.  0.
     999903    2    3    3    0    0  0.72958506398E-01  0.10907584572E+00 -0.85580757045E-02  0.14034631846E+00  0.49024123334E-01 0.  0.
         14    1    1    2    0    0  0.99853174107E-02 -0.80812017860E-02 -0.51165564043E-02  0.13827202737E-01  0.00000000000E+00 0.  1.
     999901    1    3    3    0    0 -0.82943823809E-01 -0.10099464394E+00  0.13674632109E-01  0.88975647880E+00  0.88000000000E+00 0.  1.
        -11    1    4    4    0    0 -0.23126677743E-03  0.37619375535E-02  0.10057316553E-01  0.10752506486E-01  0.51100000000E-03 0.  1.
         11    1    4    4    0    0  0.73189773176E-01  0.10531390817E+00 -0.18615392257E-01  0.12959381197E+00  0.51100000000E-03 0. -1.
</event>
<event>
 8    1  0.2001339E+004  0.1043930E+01  0.7957747E-01            NaN
         13   -1    0    0    0    0  0.00000000000E+00  0.00000000000E+00  0.74505805969E-08  0.10566000000E+00  0.10566000000E+00 0.  1.
     999900   -1    0    0    0    0 -0.00000000000E+00 -0.00000000000E+00 -0.74505805969E-08  0.93827000000E+00  0.93827000000E+00 0. -1.
     999902    2    1    2    0    0 -0.39601931509E-02  0.10719063847E-01  0.38424355898E-02  0.10318740566E+01  0.10318036262E+01 0.  0.
     999903    2    3    3    0    0  0.51574814743E-01 -0.88355972708E-01  0.85090157368E-01  0.14086272545E+00  0.46208582668E-01 0.  0.
         14    1    1    2    0    0  0.39601931509E-02 -0.10719063847E-01 -0.38424355898E-02  0.12055943381E-01  0.00000000000E+00 0.  1.
     999901    1    3    3    0    0 -0.55535007894E-01  0.99075036556E-01 -0.81247721779E-01  0.89101133117E+00  0.88000000000E+00 0. -1.
        -11    1    4    4    0    0  0.35036734305E-01 -0.84076607346E-01  0.55416641978E-01  0.10661948219E+00  0.51100000000E-03 0. -1.
         11    1    4    4    0    0  0.16538080439E-01 -0.42793653622E-02  0.29673515391E-01  0.34243243262E-01  0.51100000000E-03 0.  1.
</event>
<event>
 8    1  0.2001339E+004  0.1043930E+01  0.7957747E-01            NaN
         13   -1    0    0    0    0  0.00000000000E+00  0.00000000000E+00  0.74505805969E-08  0.10566000000E+00  0.10566000000E+00 0.  1.
     999900   -1    0    0    0    0 -0.00000000000E+00 -0.00000000000E+00 -0.74505805969E-08  0.93827000000E+00  0.93827000000E+00 0. -1.
     999902    2    1    2    0    0 -0.41626283314E-02  0.73284068818E-02 -0.10319951592E-01  0.10306057956E+01  0.10305196609E+01 0.  0.
     999903    2    3    3    0    0 -0.12567255717E+00 -0.36396658655E-01 -0.28281517197E-01  0.14099961194E+00  0.44302798620E-01 0.  0.
         14    1    1    2    0    0  0.41626283314E-02 -0.73284068818E-02  0.10319951592E-01  0.13324204401E-01  0.00000000000E+00 0.  1.
     999901    1    3    3    0    0  0.12150992884E+00  0.43725065537E-01  0.17961565604E-01  0.88960618366E+00  0.88000000000E+00 0. -1.
        -11    1    4    4    0    0 -0.74296894878E-01 -0.30177337046E-01 -0.37338657308E-01  0.88459802794E-01  0.51100000000E-03 0. -1.
         11    1    4    4    0    0 -0.51375662293E-01 -0.62193216088E-02  0.90571401114E-02  0.52539809148E-01  0.51100000000E-03 0.  1.
</event>
<event>
 8    1  0.2001339E+004  0.1043930E+01  0.7957747E-01            NaN
         13   -1    0    0    0    0  0.00000000000E+00  0.00000000000E+00  0.74505805969E-08  0.10566000000E+00  0.10566000000E+00 0. -1.
     999900   -1    0    0    0    0 -0.00000000000E+00 -0.00000000000E+00 -0.74505805969E-08  0.93827000000E+00  0.93827000000E+00 0.  1.
     999902    2    1    2    0    0  0.29844167495E-03 -0.24342187660E-02 -0.13658874077E-01  0.10300527045E+01  0.10299592200E+01 0.  0.
     999903    2    3    3    0    0 -0.81452081607E-01 -0.42541916811E-01 -0.98077344461E-01  0.14133550900E+00  0.43729901931E-01 0.  0.
         14    1    1    2    0    0 -0.29844167495E-03  0.24342187660E-02  0.13658874077E-01  0.13877295467E-01  0.00000000000E+00 0. -1.
     999901    1    3    3    0    0  0.81750523282E-01  0.40107698045E-01  0.84418470384E-01  0.88871719554E+00  0.88000000000E+00 0. -1.
        -11    1    4    4    0    0 -0.28957604950E-02 -0.25952495317E-03 -0.27291039959E-01  0.27450223407E-01  0.51100000000E-03 0. -1.
         11    1    4    4    0    0 -0.78556321112E-01 -0.42282391857E-01 -0.70786304502E-01  0.11388528559E+00  0.51100000000E-03 0.  1.
</event>
<event>
 8    1  0.2485573E+004  0.1043930E+01  0.7957747E-01            NaN
         13   -1    0    0    0    0  0.00000000000E+00  0.00000000000E+00  0.74505805969E-08  0.10566000000E+00  0.10566000000E+00 0.  1.
     999900   -1    0    0    0    0 -0.00000000000E+00 -0.00000000000E+00 -0.74505805969E-08  0.93827000000E+00  0.93827000000E+00 0.  1.
     999902    2    1    2    0    0 -0.10764625988E-01 -0.52827299058E-03 -0.95087006576E-02  0.10295573999E+01  0.10294570744E+01 0.  0.
     999903    2    3    3    0    0 -0.77238280976E-01 -0.10837440986E+00  0.32741210971E-02  0.14039322128E+00  0.44595649467E-01 0.  0.
         14    1    1    2    0    0  0.10764625988E-01  0.52827299058E-03  0.95087006576E-02  0.14372600085E-01  0.00000000000E+00 0.  1.
     999901    1    3    3    0    0  0.66473654988E-01  0.10784613686E+00 -0.12782821755E-01  0.88916417864E+00  0.88000000000E+00 0.  1.
        -11    1    4    4    0    0 -0.34657656114E-01 -0.40233111143E-01  0.22656001714E-01  0.57735707272E-01  0.51100000000E-03 0.  1.
         11    1    4    4    0    0 -0.42580624862E-01 -0.68141298713E-01 -0.19381880617E-01  0.82657514003E-01  0.51100000000E-03 0. -1.
</event>
<event>
 8    1  0.2001339E+004  0.1043930E+01  0.7957747E-01            NaN
         13   -1    0    0    0    0  0.00000000000E+00  0.00000000000E+00  0.74505805969E-08  0.10566000000E+00  0.10566000000E+00 0. -1.
     999900   -1    0    0    0    0 -0.00000000000E+00 -0.00000000000E+00 -0.74505805969E-08  0.93827000000E+00  0.93827000000E+00 0.  1.
     999902    2    1    2    0    0  0.31149187343E-02  0.44672790037E-02  0.14186729868E-01  0.10287338622E+01  0.10286216197E+01 0.  0.
     999903    2    3    3    0    0 -0.40781158978E-01 -0.12193368192E+00  0.25725898943E-01  0.13854443235E+00  0.44741615350E-01 0.  0.
         14    1    1    2    0    0 -0.31149187343E-02 -0.44672790037E-02 -0.14186729868E-01  0.15196137824E-01  0.00000000000E+00 0.  1.
     999901    1    3    3    0    0  0.43896077712E-01  0.12640096092E+00 -0.11539169075E-01  0.89018942983E+00  0.88000000000E+00 0.  1.
        -11    1    4    4    0    0 -0.23979428655E-01 -0.73794086694E-01 -0.70741212385E-02  0.77915881192E-01  0.51100000000E-03 0. -1.
         11    1    4    4    0    0 -0.16801730323E-01 -0.48139595222E-01  0.32800020181E-01  0.60628551153E-01  0.51100000000E-03 0.  1.
</event>
<event>
 8    1  0.2001339E+004  0.1043930E+01  0.7957747E-01            NaN
         13   -1    0    0    0    0  0.00000000000E+00  0.00000000000E+00  0.74505805969E-08  0.10566000000E+00  0.10566000000E+00 0.  1.
     999900   -1    0    0    0    0 -0.00000000000E+00 -0.00000000000E+00 -0.74505805969E-08  0.93827000000E+00  0.93827000000E+00 0. -1.
     999902    2    1    2    0    0  0.28099485545E-04 -0.24274276209E-02 -0.13253675197E-01  0.10304558358E+01  0.10303677385E+01 0.  0.
     999903    2    3    3    0    0 -0.80117361961E-01 -0.10433462015E+00  0.21502251067E-01  0.14027813148E+00  0.43716160863E-01 0.  0.
         14    1    1    2    0    0 -0.28099485545E-04  0.24274276209E-02  0.13253675197E-01  0.13474164192E-01  0.00000000000E+00 0.  1.
     999901    1    3    3    0    0  0.80145461446E-01  0.10190719253E+00 -0.34755926264E-01  0.89017770433E+00  0.88000000000E+00 0. -1.
        -11    1    4    4    0    0 -0.45624633179E-01 -0.57884550511E-01  0.33865678375E-01  0.81113338197E-01  0.51100000000E-03 0. -1.
         11    1    4    4    0    0 -0.34492728782E-01 -0.46450069636E-01 -0.12363427308E-01  0.59164793280E-01  0.51100000000E-03 0.  1.
</event>
<event>
 8    1  0.2001339E+004  0.1043930E+01  0.7957747E-01            NaN
         13   -1    0    0    0    0  0.00000000000E+00  0.00000000000E+00  0.74505805969E-08  0.10566000000E+00  0.10566000000E+00 0.  1.
     999900   -1    0    0    0    0 -0.00000000000E+00 -0.00000000000E+00 -0.74505805969E-08  0.93827000000E+00  0.93827000000E+00 0.  1.
     999902    2    1    2    0    0  0.11984515931E-01  0.23479207289E-02  0.64715513190E-02  0.10301089172E+01  0.10300161935E+01 0.  0.
     999903    2    3    3    0    0  0.12082396683E+00  0.58892285026E-01  0.39321404846E-02  0.14159907491E+00  0.44363319187E-01 0.  0.
         14    1    1    2    0    0 -0.11984515931E-01 -0.23479207289E-02 -0.64715513190E-02  0.13821082820E-01  0.00000000000E+00 0. -1.
     999901    1    3    3    0    0 -0.10883945090E+00 -0.56544364297E-01  0.25394108344E-02  0.88850984227E+00  0.88000000000E+00 0. -1.
        -11    1    4    4    0    0  0.61832924974E-01  0.51842483347E-01 -0.76980570583E-02  0.81058465900E-01  0.51100000000E-03 0. -1.
         11    1    4    4    0    0  0.58991041858E-01  0.70498016782E-02  0.11630197543E-01  0.60540609009E-01  0.51100000000E-03 0.  1.
</event>
<event>
 8    1  0.2001339E+004  0.1043930E+01  0.7957747E-01            NaN
         13   -1    0    0    0    0  0.00000000000E+00  0.00000000000E+00  0.74505805969E-08  0.10566000000E+00  0.10566000000E+00 0. -1.
     999900   -1    0    0    0    0 -0.00000000000E+00 -0.00000000000E+00 -0.74505805969E-08  0.93827000000E+00  0.93827000000E+00 0.  1.
     999902    2    1    2    0    0 -0.90379452761E-02  0.35381119515E-02  0.10262822307E-01  0.10298045544E+01  0.10297076731E+01 0.  0.
     999903    2    3    3    0    0  0.12839106301E+00  0.13438842998E-01 -0.22759424891E-01  0.13847115687E+00  0.44625130818E-01 0.  0.
         14    1    1    2    0    0  0.90379452761E-02 -0.35381119515E-02 -0.10262822307E-01  0.14125445575E-01  0.00000000000E+00 0.  1.
     999901    1    3    3    0    0 -0.13742900829E+00 -0.99007310470E-02  0.33022247199E-01  0.89133339756E+00  0.88000000000E+00 0. -1.
        -11    1    4    4    0    0  0.17811496675E-01  0.10567086171E-01 -0.18494634604E-01  0.27770944422E-01  0.51100000000E-03 0.  1.
         11    1    4    4    0    0  0.11057956633E+00  0.28717568271E-02 -0.42647902879E-02  0.11070021244E+00  0.51100000000E-03 0. -1.
</event>
<event>
 8    1  0.2001339E+004  0.1043930E+01  0.7957747E-01            NaN
         13   -1    0    0    0    0  0.00000000000E+00  0.00000000000E+00  0.74505805969E-08  0.10566000000E+00  0.10566000000E+00 0. -1.
     999900   -1    0    0    0    0 -0.00000000000E+00 -0.00000000000E+00 -0.74505805969E-08  0.93827000000E+00  0.93827000000E+00 0.  1.
     999902    2    1    2    0    0  0.12995736737E-01 -0.52151808396E-02 -0.16450792267E-02  0.10298305826E+01  0.10297340605E+01 0.  0.
     999903    2    3    3    0    0 -0.12426649048E+00  0.35186521053E-01 -0.19858898893E-01  0.13808792930E+00  0.44650290396E-01 0.  0.
         14    1    1    2    0    0 -0.12995736737E-01  0.52151808396E-02  0.16450792267E-02  0.14099417370E-01  0.00000000000E+00 0.  1.
     999901    1    3    3    0    0  0.13726222722E+00 -0.40401701892E-01  0.18213819666E-01  0.89174265333E+00  0.88000000000E+00 0.  1.
        -11    1    4    4    0    0 -0.24750022744E-01  0.26934603615E-01 -0.19440263826E-02  0.36634367161E-01  0.51100000000E-03 0. -1.
         11    1    4    4    0    0 -0.99516467741E-01  0.82519174379E-02 -0.17914872510E-01  0.10145356214E+00  0.51100000000E-03 0.  1.
</event>
<event>
 8    1  0.2001339E+004  0.1043930E+01  0.7957747E-01            NaN
         13   -1    0    0    0    0  0.00000000000E+00  0.00000000000E+00  0.74505805969E-08  0.10566000000E+00  0.10566000000E+00 0.  1.
     999900   -1    0    0    0    0 -0.00000000000E+00 -0.00000000000E+00 -0.74505805969E-08  0.93827000000E+00  0.93827000000E+00 0. -1.
     999902    2    1    2    0    0 -0.10468006886E-02 -0.29455461925E-02 -0.41395993303E-02  0.10387426773E+01  0.10387297249E+01 0.  0.
     999903    2    3    3    0    0 -0.10366772983E+00 -0.85790679317E-01  0.43348112889E-01  0.14764815147E+00  0.42589656886E-01 0.  0.
         14    1    1    2    0    0  0.10468006886E-02  0.29455461925E-02  0.41395993303E-02  0.51873226880E-02  0.00000000000E+00 0.  1.
     999901    1    3    3    0    0  0.10262092915E+00  0.82845133124E-01 -0.47487712219E-01  0.89109452585E+00  0.88000000000E+00 0. -1.
        -11    1    4    4    0    0 -0.61884730696E-01 -0.34227396775E-01  0.39875353384E-01  0.81188296643E-01  0.51100000000E-03 0. -1.
         11    1    4    4    0    0 -0.41782999139E-01 -0.51563282542E-01  0.34727595045E-02  0.66459854823E-01  0.51100000000E-03 0.  1.
</event>
<event>
 8    1  0.2001339E+004  0.1043930E+01  0.7957747E-01            NaN
         13   -1    0    0    0    0  0.00000000000E+00  0.00000000000E+00  0.74505805969E-08  0.10566000000E+00  0.10566000000E+00 0.  1.
     999900   -1    0    0    0    0 -0.00000000000E+00 -0.00000000000E+00 -0.74505805969E-08  0.93827000000E+00  0.93827000000E+00 0. -1.
     999902    2    1    2    0    0 -0.11995369590E-03 -0.11036196688E-01 -0.81619233925E-02  0.10302030550E+01  0.10301115985E+01 0.  0.
     999903    2    3    3    0    0 -0.10350837657E+00 -0.84480562090E-01 -0.12411696816E-01  0.14110165392E+00  0.43642606808E-01 0.  0.
         14    1    1    2    0    0  0.11995369590E-03  0.11036196688E-01  0.81619233925E-02  0.13726945024E-01  0.00000000000E+00 0.  1.
     999901    1    3    3    0    0  0.10338842287E+00  0.73444365402E-01  0.42497734232E-02  0.88910140106E+00  0.88000000000E+00 0. -1.
        -11    1    4    4    0    0 -0.79661112881E-01 -0.42860738531E-01  0.35913691314E-02  0.90532286319E-01  0.51100000000E-03 0. -1.
         11    1    4    4    0    0 -0.23847263688E-01 -0.41619823559E-01 -0.16003065947E-01  0.50569367597E-01  0.51100000000E-03 0.  1.
</event>
<event>
 8    1  0.2001339E+004  0.1043930E+01  0.7957747E-01            NaN
         13   -1    0    0    0    0  0.00000000000E+00  0.00000000000E+00  0.74505805969E-08  0.10566000000E+00  0.10566000000E+00 0. -1.
     999900   -1    0    0    0    0 -0.00000000000E+00 -0.00000000000E+00 -0.74505805969E-08  0.93827000000E+00  0.93827000000E+00 0. -1.
     999902    2    1    2    0    0 -0.71539451827E-02  0.12088253299E-01  0.13649410969E-02  0.10298173155E+01  0.10297206104E+01 0.  0.
     999903    2    3    3    0    0  0.58968585773E-01 -0.11356369136E+00  0.25949254651E-01  0.13809707419E+00  0.44982574167E-01 0.  0.
         14    1    1    2    0    0  0.71539451827E-02 -0.12088253299E-01 -0.13649410969E-02  0.14112684496E-01  0.00000000000E+00 0.  1.
     999901    1    3    3    0    0 -0.66122530956E-01  0.12565194466E+00 -0.24584313554E-01  0.89172024131E+00  0.88000000000E+00 0. -1.
        -11    1    4    4    0    0  0.22763937656E-01 -0.21674739634E-01  0.23590431852E-01  0.39303445038E-01  0.51100000000E-03 0.  1.
         11    1    4    4    0    0  0.36204648117E-01 -0.91888951728E-01  0.23588227989E-02  0.98793629152E-01  0.51100000000E-03 0. -1.
</event>
<event>
 8    1  0.2001339E+004  0.1043930E+01  0.7957747E-01            NaN
         13   -1    0    0    0    0  0.00000000000E+00  0.00000000000E+00  0.74505805969E-08  0.10566000000E+00  0.10566000000E+00 0. -1.
     999900   -1    0    0    0    0 -0.00000000000E+00 -0.00000000000E+00 -0.74505805969E-08  0.93827000000E+00  0.93827000000E+00 0. -1.
     999902    2    1    2    0    0 -0.56476961139E-02 -0.67319101139E-02 -0.32838646656E-02  0.10345492297E+01  0.10345066987E+01 0.  0.
     999903    2    3    3    0    0 -0.32354171729E-01 -0.68320358878E-01 -0.11510594045E+00  0.14493664572E+00  0.45197233106E-01 0.  0.
         14    1    1    2    0    0  0.56476961139E-02  0.67319101139E-02  0.32838646656E-02  0.93807703478E-02  0.00000000000E+00 0. -1.
     999901    1    3    3    0    0  0.26706475616E-01  0.61588448764E-01  0.11182207578E+00  0.88961258393E+00  0.88000000000E+00 0.  1.
        -11    1    4    4    0    0 -0.92298109135E-04 -0.43486548029E-01 -0.38052171447E-01  0.57786825932E-01  0.51100000000E-03 0.  1.
         11    1    4    4    0    0 -0.32261873620E-01 -0.24833810849E-01 -0.77053769000E-01  0.87149819787E-01  0.51100000000E-03 0. -1.
</event>
<event>
 8    1  0.2001339E+004  0.1043930E+01  0.7957747E-01            NaN
         13   -1    0    0    0    0  0.00000000000E+00  0.00000000000E+00  0.74505805969E-08  0.10566000000E+00  0.10566000000E+00 0. -1.
     999900   -1    0    0    0    0 -0.00000000000E+00 -0.00000000000E+00 -0.74505805969E-08  0.93827000000E+00  0.93827000000E+00 0. -1.
     999902    2    1    2    0    0  0.23237986655E-02  0.13110749624E-01 -0.26364417587E-02  0.10303563998E+01  0.10302669887E+01 0.  0.
     999903    2    3    3    0    0 -0.12953786024E-01  0.10148698213E+00  0.86484614353E-01  0.14131965949E+00  0.44991660606E-01 0.  0.
         14    1    1    2    0    0 -0.23237986655E-02 -0.13110749624E-01  0.26364417587E-02  0.13573600152E-01  0.00000000000E+00 0. -1.
     999901    1    3    3    0    0  0.15277584690E-01 -0.88376232506E-01 -0.89121056112E-01  0.88903674036E+00  0.88000000000E+00 0. -1.
        -11    1    4    4    0    0 -0.20745779919E-01  0.87684182376E-01  0.53683444786E-01  0.10488601713E+00  0.51100000000E-03 0.  1.
         11    1    4    4    0    0  0.77919938947E-02  0.13802799754E-01  0.32801169567E-01  0.36433642364E-01  0.51100000000E-03 0. -1.
</event>
<event>
 8    1  0.2001339E+004  0.1043930E+01  0.7957747E-01            NaN
         13   -1    0    0    0    0  0.00000000000E+00  0.00000000000E+00  0.74505805969E-08  0.10566000000E+00  0.10566000000E+00 0.  1.
     999900   -1    0    0    0    0 -0.00000000000E+00 -0.00000000000E+00 -0.74505805969E-08  0.93827000000E+00  0.93827000000E+00 0.  1.
     999902    2    1    2    0    0  0.59392308666E-03 -0.71225007207E-02  0.13151489193E-01  0.10289618863E+01  0.10288530113E+01 0.  0.
     999903    2    3    3    0    0  0.37814882284E-01 -0.12546649759E+00  0.22443011251E-01  0.14021162112E+00  0.44539898994E-01 0.  0.
         14    1    1    2    0    0 -0.59392308666E-03  0.71225007207E-02 -0.13151489193E-01  0.14968113747E-01  0.00000000000E+00 0.  1.
     999901    1    3    3    0    0 -0.37220959197E-01  0.11834399687E+00 -0.92915220576E-02  0.88875026514E+00  0.88000000000E+00 0. -1.
        -11    1    4    4    0    0  0.12943445611E-01 -0.98301622073E-01  0.45361779459E-02  0.99255124391E-01  0.51100000000E-03 0. -1.
         11    1    4    4    0    0  0.24871436673E-01 -0.27164875517E-01  0.17906833305E-01  0.40956496726E-01  0.51100000000E-03 0.  1.
</event>
<event>
 8    1  0.2001339E+004  0.1043930E+01  0.7957747E-01            NaN
         13   -1    0    0    0    0  0.00000000000E+00  0.00000000000E+00  0.74505805969E-08  0.10566000000E+00  0.10566000000E+00 0. -1.
     999900   -1    0    0    0    0 -0.00000000000E+00 -0.00000000000E+00 -0.74505805969E-08  0.93827000000E+00  0.93827000000E+00 0.  1.
     999902    2    1    2    0    0  0.82963752514E-02  0.10391218614E-01  0.12819034739E-02  0.10305714618E+01  0.10304848797E+01 0.  0.
     999903    2    3    3    0    0  0.11212315267E+00  0.40477500058E-01 -0.61671134433E-01  0.14172486703E+00  0.45525594307E-01 0.  0.
         14    1    1    2    0    0 -0.82963752514E-02 -0.10391218614E-01 -0.12819034739E-02  0.13358538210E-01  0.00000000000E+00 0.  1.
     999901    1    3    3    0    0 -0.10382677741E+00 -0.30086281444E-01  0.62953037907E-01  0.88884659476E+00  0.88000000000E+00 0. -1.
        -11    1    4    4    0    0  0.37154496254E-01  0.16549801875E-01 -0.46140786439E-01  0.61510859432E-01  0.51100000000E-03 0. -1.
         11    1    4    4    0    0  0.74968656412E-01  0.23927698183E-01 -0.15530347995E-01  0.80214007595E-01  0.51100000000E-03 0.  1.
</event>
<event>
 8    1  0.2001339E+004  0.1043930E+01  0.7957747E-01            NaN
         13   -1    0    0    0    0  0.00000000000E+00  0.00000000000E+00  0.74505805969E-08  0.10566000000E+00  0.10566000000E+00 0. -1.
     999900   -1    0    0    0    0 -0.00000000000E+00 -0.00000000000E+00 -0.74505805969E-08  0.93827000000E+00  0.93827000000E+00 0.  1.
     999902    2    1    2    0    0  0.11688063711E-01 -0.82403377918E-02 -0.88601307620E-02  0.10271069231E+01  0.10269691405E+01 0.  0.
     999903    2    3    3    0    0  0.37746676495E-01 -0.54670856449E-01 -0.11419499631E+00  0.13922727004E+00  0.43932008953E-01 0.  0.
         14    1    1    2    0    0 -0.11688063711E-01  0.82403377918E-02  0.88601307620E-02  0.16823076929E-01  0.00000000000E+00 0. -1.
     999901    1    3    3    0    0 -0.26058612784E-01  0.46430518657E-01  0.10533486555E+00  0.88787965303E+00  0.88000000000E+00 0. -1.
        -11    1    4    4    0    0  0.29545194915E-01 -0.61202786530E-02 -0.38340390315E-01  0.48791628420E-01  0.51100000000E-03 0.  1.
         11    1    4    4    0    0  0.82014815791E-02 -0.48550577796E-01 -0.75854605993E-01  0.90435641623E-01  0.51100000000E-03 0. -1.
</event>
<event>
 8    1  0.2001339E+004  0.1043930E+01  0.7957747E-01            NaN
         13   -1    0    0    0    0  0.00000000000E+00  0.00000000000E+00  0.74505805969E-08  0.10566000000E+00  0.10566000000E+00 0.  1.
     999900   -1    0    0    0    0 -0.00000000000E+00 -0.00000000000E+00 -0.74505805969E-08  0.93827000000E+00  0.93827000000E+00 0. -1.
     999902    2    1    2    0    0 -0.12545886439E-02  0.12859785655E-01  0.38754087894E-02  0.10304404903E+01  0.10303521908E+01 0.  0.
     999903    2    3    3    0    0 -0.27474719583E-01 -0.10178232418E+00 -0.78357007465E-01  0.13881698289E+00  0.44898022085E-01 0.  0.
         14    1    1    2    0    0  0.12545886439E-02 -0.12859785655E-01 -0.38754087894E-02  0.13489509741E-01  0.00000000000E+00 0.  1.
     999901    1    3    3    0    0  0.26220130939E-01  0.11464210984E+00  0.82232416254E-01  0.89162350737E+00  0.88000000000E+00 0.  1.
        -11    1    4    4    0    0 -0.35890873864E-01 -0.80381230913E-01 -0.46600470103E-01  0.99605030218E-01  0.51100000000E-03 0. -1.
         11    1    4    4    0    0  0.84161542809E-02 -0.21401093269E-01 -0.31756537362E-01  0.39211952670E-01  0.51100000000E-03 0.  1.
</event>
<event>
 8    1  0.2001339E+004  0.1043930E+01  0.7957747E-01            NaN
         13   -1    0    0    0    0  0.00000000000E+00  0.00000000000E+00  0.74505805969E-08  0.10566000000E+00  0.10566000000E+00 0.  1.
     999900   -1    0    0    0    0 -0.00000000000E+00 -0.00000000000E+00 -0.74505805969E-08  0.93827000000E+00  0.93827000000E+00 0.  1.
     999902    2    1    2    0    0  0.84804149536E-03 -0.16398496561E-02  0.12835926766E-01  0.10309619895E+01  0.10308804268E+01 0.  0.
     999903    2    3    3    0    0 -0.98351155653E-02  0.74858697162E-01  0.11170404365E+00  0.14206319768E+00  0.44761643484E-01 0.  0.
         14    1    1    2    0    0 -0.84804149536E-03  0.16398496561E-02 -0.12835926766E-01  0.12968010534E-01  0.00000000000E+00 0. -1.
     999901    1    3    3    0    0  0.10683157061E-01 -0.76498546818E-01 -0.98868116883E-01  0.88889879179E+00  0.88000000000E+00 0.  1.
        -11    1    4    4    0    0 -0.83936726808E-02  0.59364468410E-01  0.48934357885E-01  0.77391384232E-01  0.51100000000E-03 0.  1.
         11    1    4    4    0    0 -0.14414428845E-02  0.15494228752E-01  0.62769685764E-01  0.64671813444E-01  0.51100000000E-03 0. -1.
</event>
<event>
 7    1  0.2001339E+004  0.1043930E+01  0.7957747E-01            NaN
         13   -1    0    0    0    0  0.00000000000E+00  0.00000000000E+00  0.74505805969E-08  0.10566000000E+00  0.10566000000E+00 0.  1.
     999900   -1    0    0    0    0 -0.00000000000E+00 -0.00000000000E+00 -0.74505805969E-08  0.93827000000E+00  0.93827000000E+00 0.  1.
     999902    2    1    2    0    0  0.44750436183E-02 -0.72324026280E-02 -0.10822783066E-01  0.10301653243E+01  0.10300733610E+01 0.  0.
         14    1    1    2    0    0 -0.44750436183E-02  0.72324026280E-02  0.10822783066E-01  0.13764675676E-01  0.00000000000E+00 0.  1.
     999901    1    3    3    0    0 -0.19540324001E-01  0.11124467956E+00  0.55932461387E-01  0.88898011408E+00  0.88000000000E+00 0. -1.
        -11    1    3    3    0    0  0.29020614827E-01 -0.84620407442E-01 -0.41323145525E-01  0.98542746652E-01  0.51100000000E-03 0.  1.
         11    1    3    3    0    0 -0.50052472078E-02 -0.33856674744E-01 -0.25432098928E-01  0.42642463593E-01  0.51100000000E-03 0. -1.
</event>
<event>
 8    1  0.2001339E+004  0.1043930E+01  0.7957747E-01            NaN
         13   -1    0    0    0    0  0.00000000000E+00  0.00000000000E+00  0.74505805969E-08  0.10566000000E+00  0.10566000000E+00 0.  1.
     999900   -1    0    0    0    0 -0.00000000000E+00 -0.00000000000E+00 -0.74505805969E-08  0.93827000000E+00  0.93827000000E+00 0. -1.
     999902    2    1    2    0    0 -0.54962308385E-02  0.98482952475E-02  0.76591519156E-02  0.10302969490E+01  0.10302067477E+01 0.  0.
     999903    2    3    3    0    0 -0.12072994288E+00 -0.52283391480E-01  0.20998200824E-01  0.14051209568E+00  0.44648095862E-01 0.  0.
         14    1    1    2    0    0  0.54962308385E-02 -0.98482952475E-02 -0.76591519156E-02  0.13633051044E-01  0.00000000000E+00 0. -1.
     999901    1    3    3    0    0  0.11523371204E+00  0.62131686727E-01 -0.13339048908E-01  0.88978485327E+00  0.88000000000E+00 0. -1.
        -11    1    4    4    0    0 -0.39290402539E-01 -0.16533372944E-01  0.28459990297E-01  0.51257392846E-01  0.51100000000E-03 0. -1.
         11    1    4    4    0    0 -0.81439540337E-01 -0.35750018536E-01 -0.74617894735E-02  0.89254702839E-01  0.51100000000E-03 0.  1.
</event>
<event>
 8    1  0.2001339E+004  0.1043930E+01  0.7957747E-01            NaN
         13   -1    0    0    0    0  0.00000000000E+00  0.00000000000E+00  0.74505805969E-08  0.10566000000E+00  0.10566000000E+00 0.  1.
     999900   -1    0    0    0    0 -0.00000000000E+00 -0.00000000000E+00 -0.74505805969E-08  0.93827000000E+00  0.93827000000E+00 0.  1.
     999902    2    1    2    0    0 -0.87686428065E-02 -0.17847179496E-02 -0.10690909189E-01  0.10299883411E+01  0.10298939814E+01 0.  0.
     999903    2    3    3    0    0  0.13310421661E-03 -0.11026398011E+00 -0.74519161910E-01  0.14098832010E+00  0.46545009237E-01 0.  0.
         14    1    1    2    0    0  0.87686428065E-02  0.17847179496E-02  0.10690909189E-01  0.13941658944E-01  0.00000000000E+00 0.  1.
     999901    1    3    3    0    0 -0.89017470231E-02  0.10847926216E+00  0.63828252721E-01  0.88900002096E+00  0.88000000000E+00 0.  1.
        -11    1    4    4    0    0 -0.15883565131E-01 -0.96383660858E-01 -0.67169776174E-01  0.11855014835E+00  0.51100000000E-03 0. -1.
         11    1    4    4    0    0  0.16016669348E-01 -0.13880319255E-01 -0.73493857361E-02  0.22438171746E-01  0.51100000000E-03 0.  1.
</event>
<event>
 8    1  0.2001339E+004  0.1043930E+01  0.7957747E-01            NaN
         13   -1    0    0    0    0  0.00000000000E+00  0.00000000000E+00  0.74505805969E-08  0.10566000000E+00  0.10566000000E+00 0.  1.
     999900   -1    0    0    0    0 -0.00000000000E+00 -0.00000000000E+00 -0.74505805969E-08  0.93827000000E+00  0.93827000000E+00 0. -1.
     999902    2    1    2    0    0 -0.17199026059E-02 -0.72058462987E-02  0.11281712931E-01  0.10304333585E+01  0.10303449650E+01 0.  0.
     999903    2    3    3    0    0 -0.16037200098E-01  0.73267650718E-01 -0.10801503240E+00  0.13863030725E+00  0.43883646534E-01 0.  0.
         14    1    1    2    0    0  0.17199026059E-02  0.72058462987E-02 -0.11281712931E-01  0.13496641527E-01  0.00000000000E+00 0. -1.
     999901    1    3    3    0    0  0.14317297492E-01 -0.80473497017E-01  0.11929674534E+00  0.89180305123E+00  0.88000000000E+00 0.  1.
        -11    1    4    4    0    0  0.50138916040E-02  0.20810153449E-01 -0.62473322235E-01  0.66040735214E-01  0.51100000000E-03 0. -1.
         11    1    4    4    0    0 -0.21051091702E-01  0.52457497269E-01 -0.45541710170E-01  0.72589572032E-01  0.51100000000E-03 0.  1.
</event>
<event>
 8    1  0.2001339E+004  0.1043930E+01  0.7957747E-01            NaN
         13   -1    0    0    0    0  0.00000000000E+00  0.00000000000E+00  0.74505805969E-08  0.10566000000E+00  0.10566000000E+00 0.  1.
     999900   -1    0    0    0    0 -0.00000000000E+00 -0.00000000000E+00 -0.74505805969E-08  0.93827000000E+00  0.93827000000E+00 0. -1.
     999902    2    1    2    0    0  0.85425167911E-02  0.13092206521E-02  0.13191709393E-01  0.10281594626E+01  0.10280385065E+01 0.  0.
     999903    2    3    3    0    0 -0.12118828472E-01  0.10726265040E+00 -0.72289272728E-01  0.13745186822E+00  0.44890254517E-01 0.  0.
         14    1    1    2    0    0 -0.85425167911E-02 -0.13092206521E-02 -0.13191709393E-01  0.15770537358E-01  0.00000000000E+00 0. -1.
     999901    1    3    3    0    0  0.20661345263E-01 -0.10595342975E+00  0.85480982121E-01  0.89070759443E+00  0.88000000000E+00 0.  1.
        -11    1    4    4    0    0  0.15182901306E-01  0.29602104760E-01 -0.11826225729E-01  0.35311837028E-01  0.51100000000E-03 0.  1.
         11    1    4    4    0    0 -0.27301729779E-01  0.77660545639E-01 -0.60463046999E-01  0.10214003119E+00  0.51100000000E-03 0. -1.
</event>
<event>
 8    1  0.2001339E+004  0.1043930E+01  0.7957747E-01            NaN
         13   -1    0    0    0    0  0.00000000000E+00  0.00000000000E+00  0.74505805969E-08  0.10566000000E+00  0.10566000000E+00 0.  1.
     999900   -1    0    0    0    0 -0.00000000000E+00 -0.00000000000E+00 -0.74505805969E-08  0.93827000000E+00  0.93827000000E+00 0. -1.
     999902    2    1    2    0    0  0.88075631577E-02  0.11626616250E-01  0.14967536278E-02  0.10292674066E+01  0.10291629621E+01 0.  0.
     999903    2    3    3    0    0 -0.10003938471E-01 -0.81657916663E-01 -0.10147217124E+00  0.13816781835E+00  0.45007225543E-01 0.  0.
         14    1    1    2    0    0 -0.88075631577E-02 -0.11626616250E-01 -0.14967536278E-02  0.14662593414E-01  0.00000000000E+00 0. -1.
     999901    1    3    3    0    0  0.18811501629E-01  0.93284532913E-01  0.10296892487E+00  0.89109958824E+00  0.88000000000E+00 0.  1.
        -11    1    4    4    0    0 -0.18216079125E-01 -0.17657956610E-01 -0.48283514534E-01  0.54545282721E-01  0.51100000000E-03 0. -1.
         11    1    4    4    0    0  0.82121406543E-02 -0.63999960053E-01 -0.53188656708E-01  0.83622535625E-01  0.51100000000E-03 0.  1.
</event>
<event>
 8    1  0.2001339E+004  0.1043930E+01  0.7957747E-01            NaN
         13   -1    0    0    0    0  0.00000000000E+00  0.00000000000E+00  0.74505805969E-08  0.10566000000E+00  0.10566000000E+00 0. -1.
     999900   -1    0    0    0    0 -0.00000000000E+00 -0.00000000000E+00 -0.74505805969E-08  0.93827000000E+00  0.93827000000E+00 0. -1.
     999902    2    1    2    0    0  0.13515681536E-01  0.35349895311E-02 -0.25016281504E-02  0.10297374688E+01  0.10296396587E+01 0.  0.
     999903    2    3    3    0    0 -0.77059663786E-01  0.15307091426E-01  0.10490026875E+00  0.13851491353E+00  0.44830972072E-01 0.  0.
         14    1    1    2    0    0 -0.13515681536E-01 -0.35349895311E-02  0.25016281504E-02  0.14192531197E-01  0.00000000000E+00 0.  1.
     999901    1    3    3    0    0  0.90575345322E-01 -0.11772101895E-01 -0.10740189690E+00  0.89122255527E+00  0.88000000000E+00 0. -1.
        -11    1    4    4    0    0  0.50391044818E-02 -0.21120355531E-02  0.12707233010E-01  0.13841537484E-01  0.51100000000E-03 0.  1.
         11    1    4    4    0    0 -0.82098768268E-01  0.17419126980E-01  0.92193035739E-01  0.12467337605E+00  0.51100000000E-03 0. -1.
</event>
<event>
 8    1  0.2257954E+004  0.1043930E+01  0.7957747E-01            NaN
         13   -1    0    0    0    0  0.00000000000E+00  0.00000000000E+00  0.74505805969E-08  0.10566000000E+00  0.10566000000E+00 0. -1.
     999900   -1    0    0    0    0 -0.00000000000E+00 -0.00000000000E+00 -0.74505805969E-08  0.93827000000E+00  0.93827000000E+00 0.  1.
     999902    2    1    2    0    0 -0.17204765664E-01 -0.19602786247E-01 -0.58091257487E-02  0.10172088636E+01  0.10168578332E+01 0.  0.
     999903    2    3    3    0    0 -0.38630129701E-01  0.18673952433E-01 -0.11393041252E+00  0.12950713010E+00  0.44169609817E-01 0.  0.
         14    1    1    2    0    0  0.17204765664E-01  0.19602786247E-01  0.58091257487E-02  0.26721136430E-01  0.00000000000E+00 0. -1.
     999901    1    3    3    0    0  0.21425364037E-01 -0.38276738679E-01  0.10812128677E+00  0.88770173347E+00  0.88000000000E+00 0. -1.
        -11    1    4    4    0    0 -0.50866360882E-02 -0.12796974767E-01 -0.41278055698E-01  0.43517530181E-01  0.51100000000E-03 0.  1.
         11    1    4    4    0    0 -0.33543493612E-01  0.31470927200E-01 -0.72652356818E-01  0.85989599922E-01  0.51100000000E-03 0. -1.
</event>
<event>
 8    1  0.2001339E+004  0.1043930E+01  0.7957747E-01            NaN
         13   -1    0    0    0    0  0.00000000000E+00  0.00000000000E+00  0.74505805969E-08  0.10566000000E+00  0.10566000000E+00 0.  1.
     999900   -1    0    0    0    0 -0.00000000000E+00 -0.00000000000E+00 -0.74505805969E-08  0.93827000000E+00  0.93827000000E+00 0.  1.
     999902    2    1    2    0    0 -0.24532083766E-03  0.29009722991E-02  0.13033814326E-01  0.10305749958E+01  0.10304884598E+01 0.  0.
     999903    2    3    3    0    0  0.93107854984E-01 -0.21321179962E-01 -0.90735158743E-01  0.13924479439E+00  0.45084125327E-01 0.  0.
         14    1    1    2    0    0  0.24532083766E-03 -0.29009722991E-02 -0.13033814326E-01  0.13355004248E-01  0.00000000000E+00 0. -1.
     999901    1    3    3    0    0 -0.93353175821E-01  0.24222152261E-01  0.10376897307E+00  0.89133020137E+00  0.88000000000E+00 0. -1.
        -11    1    4    4    0    0  0.27356522005E-01  0.57435774966E-02 -0.50032001550E-01  0.57313438902E-01  0.51100000000E-03 0.  1.
         11    1    4    4    0    0  0.65751332978E-01 -0.27064757459E-01 -0.40703157193E-01  0.81931355483E-01  0.51100000000E-03 0. -1.
</event>
<event>
 8    1  0.2645622E+004  0.1043930E+01  0.7957747E-01            NaN
         13   -1    0    0    0    0  0.00000000000E+00  0.00000000000E+00  0.74505805969E-08  0.10566000000E+00  0.10566000000E+00 0.  1.
     999900   -1    0    0    0    0 -0.00000000000E+00 -0.00000000000E+00 -0.74505805969E-08  0.93827000000E+00  0.93827000000E+00 0.  1.
     999902    2    1    2    0    0  0.10747859755E-01  0.35054242388E-03  0.76119659893E-02  0.10307549708E+01  0.10306707662E+01 0.  0.
     999903    2    3    3    0    0  0.12658865370E-01  0.24354410131E-01 -0.12945961825E+00  0.13981812854E+00  0.45121304808E-01 0.  0.
         14    1    1    2    0    0 -0.10747859755E-01 -0.35054242388E-03 -0.76119659893E-02  0.13175029242E-01  0.00000000000E+00 0. -1.
     999901    1    3    3    0    0 -0.19110056151E-02 -0.24003867707E-01  0.13707158424E+00  0.89093684221E+00  0.88000000000E+00 0. -1.
        -11    1    4    4    0    0  0.17485782628E-01 -0.85660857833E-02 -0.44632451231E-01  0.48697507571E-01  0.51100000000E-03 0.  1.
         11    1    4    4    0    0 -0.48269172578E-02  0.32920495914E-01 -0.84827167017E-01  0.91120620974E-01  0.51100000000E-03 0. -1.
</event>
<event>
 8    1  0.2001339E+004  0.1043930E+01  0.7957747E-01            NaN
         13   -1    0    0    0    0  0.00000000000E+00  0.00000000000E+00  0.74505805969E-08  0.10566000000E+00  0.10566000000E+00 0. -1.
     999900   -1    0    0    0    0 -0.00000000000E+00 -0.00000000000E+00 -0.74505805969E-08  0.93827000000E+00  0.93827000000E+00 0.  1.
     999902    2    1    2    0    0  0.34111258734E-03 -0.90987062049E-02  0.12229704544E-01  0.10286830828E+01  0.10285700833E+01 0.  0.
     999903    2    3    3    0    0 -0.11184360383E+00 -0.23829380633E-01  0.65917353610E-01  0.13981595712E+00  0.46114783524E-01 0.  0.
         14    1    1    2    0    0 -0.34111258734E-03  0.90987062049E-02 -0.12229704544E-01  0.15246917250E-01  0.00000000000E+00 0.  1.
     999901    1    3    3    0    0  0.11218471642E+00  0.14730674428E-01 -0.53687649066E-01  0.88886712563E+00  0.88000000000E+00 0.  1.
        -11    1    4    4    0    0 -0.15607121016E-01 -0.18226520603E-01  0.18602235018E-02  0.24073010451E-01  0.51100000000E-03 0. -1.
         11    1    4    4    0    0 -0.96236482812E-01 -0.56028600296E-02  0.64057130108E-01  0.11574294667E+00  0.51100000000E-03 0.  1.
</event>
<event>
 8    1  0.2001339E+004  0.1043930E+01  0.7957747E-01            NaN
         13   -1    0    0    0    0  0.00000000000E+00  0.00000000000E+00  0.74505805969E-08  0.10566000000E+00  0.10566000000E+00 0.  1.
     999900   -1    0    0    0    0 -0.00000000000E+00 -0.00000000000E+00 -0.74505805969E-08  0.93827000000E+00  0.93827000000E+00 0.  1.
     999902    2    1    2    0    0  0.10598481923E-01 -0.82829547459E-02  0.46474284707E-02  0.10296985647E+01  0.10296002139E+01 0.  0.
     999903    2    3    3    0    0  0.68997515466E-02 -0.13298841873E+00 -0.13505544299E-02  0.14087849905E+00  0.45949988138E-01 0.  0.
         14    1    1    2    0    0 -0.10598481923E-01  0.82829547459E-02 -0.46474284707E-02  0.14231435268E-01  0.00000000000E+00 0.  1.
     999901    1    3    3    0    0  0.36987303763E-02  0.12470546399E+00  0.59979829006E-02  0.88882006568E+00  0.88000000000E+00 0. -1.
        -11    1    4    4    0    0  0.16346910387E-01 -0.11177417137E+00  0.12787569700E-01  0.11368583871E+00  0.51100000000E-03 0. -1.
         11    1    4    4    0    0 -0.94471588407E-02 -0.21214247364E-01 -0.14138124130E-01  0.27192660339E-01  0.51100000000E-03 0.  1.
</event>
<event>
 8    1  0.2001339E+004  0.1043930E+01  0.7957747E-01            NaN
         13   -1    0    0    0    0  0.00000000000E+00  0.00000000000E+00  0.74505805969E-08  0.10566000000E+00  0.10566000000E+00 0.  1.
     999900   -1    0    0    0    0 -0.00000000000E+00 -0.00000000000E+00 -0.74505805969E-08  0.93827000000E+00  0.93827000000E+00 0. -1.
     999902    2    1    2    0    0  0.59891907453E-02  0.10785792610E-01  0.65650984566E-02  0.10299548705E+01  0.10298600541E+01 0.  0.
     999903    2    3    3    0    0 -0.24828541784E-01 -0.27567315728E-01  0.12332559941E+00  0.14088023459E+00  0.57110626365E-01 0.  0.
         14    1    1    2    0    0 -0.59891907453E-02 -0.10785792610E-01 -0.65650984566E-02  0.13975129543E-01  0.00000000000E+00 0. -1.
     999901    1    3    3    0    0  0.30817732530E-01  0.38353108337E-01 -0.11676050096E+00  0.88907463587E+00  0.88000000000E+00 0. -1.
        -11    1    4    4    0    0 -0.15121368075E-01 -0.43088031759E-01  0.10703363744E+00  0.11636878841E+00  0.51100000000E-03 0. -1.
         11    1    4    4    0    0 -0.97071737089E-02  0.15520716031E-01  0.16291961978E-01  0.24511446176E-01  0.51100000000E-03 0.  1.
</event>
<event>
 8    1  0.2001339E+004  0.1043930E+01  0.7957747E-01            NaN
         13   -1    0    0    0    0  0.00000000000E+00  0.00000000000E+00  0.74505805969E-08  0.10566000000E+00  0.10566000000E+00 0. -1.
     999900   -1    0    0    0    0 -0.00000000000E+00 -0.00000000000E+00 -0.74505805969E-08  0.93827000000E+00  0.93827000000E+00 0.  1.
     999902    2    1    2    0    0 -0.15375875364E-02 -0.21708512224E-02  0.15121255304E-01  0.10285765270E+01  0.10284619307E+01 0.  0.
     999903    2    3    3    0    0 -0.91871978553E-01  0.93796358773E-01  0.28491668403E-02  0.13867731265E+00  0.44554033810E-01 0.  0.
         14    1    1    2    0    0  0.15375875364E-02  0.21708512224E-02 -0.15121255304E-01  0.15353472976E-01  0.00000000000E+00 0.  1.
     999901    1    3    3    0    0  0.90334391017E-01 -0.95967209996E-01  0.12272088464E-01  0.88989921438E+00  0.88000000000E+00 0. -1.
        -11    1    4    4    0    0 -0.68311039482E-01  0.92065748890E-01  0.62080265970E-02  0.11480984692E+00  0.51100000000E-03 0.  1.
         11    1    4    4    0    0 -0.23560939071E-01  0.17306098832E-02 -0.33588597567E-02  0.23867465730E-01  0.51100000000E-03 0. -1.
</event>
<event>
 8    1  0.2001339E+004  0.1043930E+01  0.7957747E-01            NaN
         13   -1    0    0    0    0  0.00000000000E+00  0.00000000000E+00  0.74505805969E-08  0.10566000000E+00  0.10566000000E+00 0.  1.
     999900   -1    0    0    0    0 -0.00000000000E+00 -0.00000000000E+00 -0.74505805969E-08  0.93827000000E+00  0.93827000000E+00 0. -1.
     999902    2    1    2    0    0  0.90306405026E-02  0.89645981396E-02 -0.26996456102E-02  0.10309221341E+01  0.10308400662E+01 0.  0.
     999903    2    3    3    0    0 -0.12671763046E+00  0.21254815215E-01 -0.31755768345E-01  0.13995473812E+00  0.45494778399E-01 0.  0.
         14    1    1    2    0    0 -0.90306405026E-02 -0.89645981396E-02  0.26996456102E-02  0.13007865855E-01  0.00000000000E+00 0.  1.
     999901    1    3    3    0    0  0.13574827096E+00 -0.12290217075E-01  0.29056122735E-01  0.89096739602E+00  0.88000000000E+00 0.  1.
        -11    1    4    4    0    0 -0.10174235318E+00  0.34356211480E-01 -0.30855877562E-01  0.11173272573E+00  0.51100000000E-03 0.  1.
         11    1    4    4    0    0 -0.24975277279E-01 -0.13101396265E-01 -0.89989078313E-03  0.28222012396E-01  0.51100000000E-03 0. -1.
</event>
<event>
 8    1  0.2001339E+004  0.1043930E+01  0.7957747E-01            NaN
         13   -1    0    0    0    0  0.00000000000E+00  0.00000000000E+00  0.74505805969E-08  0.10566000000E+00  0.10566000000E+00 0.  1.
     999900   -1    0    0    0    0 -0.00000000000E+00 -0.00000000000E+00 -0.74505805969E-08  0.93827000000E+00  0.93827000000E+00 0. -1.
     999902    2    1    2    0    0  0.98041735256E-02 -0.77871668176E-02 -0.76676575041E-02  0.10292482168E+01  0.10291434968E+01 0.  0.
     999903    2    3    3    0    0  0.10373034672E+00  0.61264431851E-01  0.53519353053E-01  0.13945380262E+00  0.45494246589E-01 0.  0.
         14    1    1    2    0    0 -0.98041735256E-02  0.77871668176E-02  0.76676575041E-02  0.14681783174E-01  0.00000000000E+00 0.  1.
     999901    1    3    3    0    0 -0.93926173197E-01 -0.69051598669E-01 -0.61187010558E-01  0.88979441421E+00  0.88000000000E+00 0. -1.
        -11    1    4    4    0    0  0.44767150745E-01  0.41799025424E-01  0.65571112205E-02  0.61599619648E-01  0.51100000000E-03 0.  1.
         11    1    4    4    0    0  0.58963195979E-01  0.19465406427E-01  0.46962241833E-01  0.77854182973E-01  0.51100000000E-03 0. -1.
</event>
<event>
 8    1  0.2001339E+004  0.1043930E+01  0.7957747E-01            NaN
         13   -1    0    0    0    0  0.00000000000E+00  0.00000000000E+00  0.74505805969E-08  0.10566000000E+00  0.10566000000E+00 0.  1.
     999900   -1    0    0    0    0 -0.00000000000E+00 -0.00000000000E+00 -0.74505805969E-08  0.93827000000E+00  0.93827000000E+00 0.  1.
     999902    2    1    2    0    0 -0.63910386848E-02 -0.69948144103E-02 -0.91385022729E-02  0.10307662229E+01  0.10306821630E+01 0.  0.
     999903    2    3    3    0    0  0.68812947234E-01 -0.30056180884E-01 -0.11131637955E+00  0.14136879500E+00  0.44217690218E-01 0.  0.
         14    1    1    2    0    0  0.63910386848E-02  0.69948144103E-02  0.91385022729E-02  0.13163777114E-01  0.00000000000E+00 0.  1.
     999901    1    3    3    0    0 -0.75203985918E-01  0.23061366474E-01  0.10217787728E+00  0.88939742788E+00  0.88000000000E+00 0. -1.
        -11    1    4    4    0    0  0.26612977165E-01 -0.76740827563E-02 -0.78941485706E-01  0.83660990827E-01  0.51100000000E-03 0.  1.
         11    1    4    4    0    0  0.42199970068E-01 -0.22382098128E-01 -0.32374893844E-01  0.57707804176E-01  0.51100000000E-03 0. -1.
</event>
<event>
 8    1  0.2001339E+004  0.1043930E+01  0.7957747E-01            NaN
         13   -1    0    0    0    0  0.00000000000E+00  0.00000000000E+00  0.74505805969E-08  0.10566000000E+00  0.10566000000E+00 0. -1.
     999900   -1    0    0    0    0 -0.00000000000E+00 -0.00000000000E+00 -0.74505805969E-08  0.93827000000E+00  0.93827000000E+00 0. -1.
     999902    2    1    2    0    0 -0.71223706532E-03 -0.52038434302E-02 -0.12777492481E-01  0.10301150957E+01  0.10300224554E+01 0.  0.
     999903    2    3    3    0    0  0.10079704218E+00  0.85364632766E-01 -0.17461856366E-02  0.13959363472E+00  0.45123934323E-01 0.  0.
         14    1    1    2    0    0  0.71223706532E-03  0.52038434302E-02  0.12777492481E-01  0.13814904350E-01  0.00000000000E+00 0. -1.
     999901    1    3    3    0    0 -0.10150927925E+00 -0.90568476196E-01 -0.11031306845E-01  0.89052146093E+00  0.88000000000E+00 0. -1.
        -11    1    4    4    0    0  0.38340620463E-01  0.10642188112E-01 -0.12260121263E-01  0.41639296821E-01  0.51100000000E-03 0. -1.
         11    1    4    4    0    0  0.62456421720E-01  0.74722444654E-01  0.10513935627E-01  0.97954337895E-01  0.51100000000E-03 0.  1.
</event>
<event>
 8    1  0.2001339E+004  0.1043930E+01  0.7957747E-01            NaN
         13   -1    0    0    0    0  0.00000000000E+00  0.00000000000E+00  0.74505805969E-08  0.10566000000E+00  0.10566000000E+00 0. -1.
     999900   -1    0    0    0    0 -0.00000000000E+00 -0.00000000000E+00 -0.74505805969E-08  0.93827000000E+00  0.93827000000E+00 0. -1.
     999902    2    1    2    0    0 -0.74553612485E-02  0.41332689918E-02  0.93693085387E-02  0.10312631035E+01  0.10311853075E+01 0.  0.
     999903    2    3    3    0    0  0.33762049733E-01 -0.39239712930E-01 -0.12133578301E+00  0.13959953945E+00  0.45673056654E-01 0.  0.
         14    1    1    2    0    0  0.74553612485E-02 -0.41332689918E-02 -0.93693085387E-02  0.12666896479E-01  0.00000000000E+00 0.  1.
     999901    1    3    3    0    0 -0.41217410981E-01  0.43372981921E-01  0.13070509155E+00  0.89166356407E+00  0.88000000000E+00 0. -1.
        -11    1    4    4    0    0  0.20918992621E-01 -0.42610143041E-01 -0.58318944702E-01  0.75197001099E-01  0.51100000000E-03 0. -1.
         11    1    4    4    0    0  0.12843057112E-01  0.33704301110E-02 -0.63016838309E-01  0.64402538355E-01  0.51100000000E-03 0.  1.
</event>
<event>
 8    1  0.2001339E+004  0.1043930E+01  0.7957747E-01            NaN
         13   -1    0    0    0    0  0.00000000000E+00  0.00000000000E+00  0.74505805969E-08  0.10566000000E+00  0.10566000000E+00 0. -1.
     999900   -1    0    0    0    0 -0.00000000000E+00 -0.00000000000E+00 -0.74505805969E-08  0.93827000000E+00  0.93827000000E+00 0.  1.
     999902    2    1    2    0    0 -0.13174024833E-02 -0.72135710824E-02  0.12049561335E-01  0.10298245725E+01  0.10297279675E+01 0.  0.
     999903    2    3    3    0    0 -0.46691527319E-01 -0.11657107487E+00  0.46242720347E-01  0.14123746535E+00  0.45174309223E-01 0.  0.
         14    1    1    2    0    0  0.13174024833E-02  0.72135710824E-02 -0.12049561335E-01  0.14105427517E-01  0.00000000000E+00 0.  1.
     999901    1    3    3    0    0  0.45374124835E-01  0.10935750379E+00 -0.34193159012E-01  0.88858710713E+00  0.88000000000E+00 0. -1.
        -11    1    4    4    0    0 -0.42557279286E-01 -0.57955079908E-01  0.11068444175E-01  0.72750841128E-01  0.51100000000E-03 0. -1.
         11    1    4    4    0    0 -0.41342480331E-02 -0.58615994962E-01  0.35174276172E-01  0.68486624223E-01  0.51100000000E-03 0.  1.
</event>
<event>
 8    1  0.2001339E+004  0.1043930E+01  0.7957747E-01            NaN
         13   -1    0    0    0    0  0.00000000000E+00  0.00000000000E+00  0.74505805969E-08  0.10566000000E+00  0.10566000000E+00 0.  1.
     999900   -1    0    0    0    0 -0.00000000000E+00 -0.00000000000E+00 -0.74505805969E-08  0.93827000000E+00  0.93827000000E+00 0.  1.
     999902    2    1    2    0    0 -0.82384941482E-02 -0.84252569063E-02 -0.58509431967E-02  0.10307735842E+01  0.10306896190E+01 0.  0.
     999903    2    3    3    0    0 -0.20253657650E-01 -0.13064019130E+00  0.24555696028E-01  0.14172610627E+00  0.44791034395E-01 0.  0.
         14    1    1    2    0    0  0.82384941482E-02  0.84252569063E-02  0.58509431967E-02  0.13156415776E-01  0.00000000000E+00 0.  1.
     999901    1    3    3    0    0  0.12015163501E-01  0.12221493439E+00 -0.30406639225E-01  0.88904747795E+00  0.88000000000E+00 0.  1.
        -11    1    4    4    0    0 -0.82393169531E-02 -0.93074029233E-03  0.57657296349E-02  0.10112239147E-01  0.51100000000E-03 0.  1.
         11    1    4    4    0    0 -0.12014340697E-01 -0.12970945100E+00  0.18789966393E-01  0.13161386713E+00  0.51100000000E-03 0. -1.
</event>
<event>
 8    1  0.2001339E+004  0.1043930E+01  0.7957747E-01            NaN
         13   -1    0    0    0    0  0.00000000000E+00  0.00000000000E+00  0.74505805969E-08  0.10566000000E+00  0.10566000000E+00 0.  1.
     999900   -1    0    0    0    0 -0.00000000000E+00 -0.00000000000E+00 -0.74505805969E-08  0.93827000000E+00  0.93827000000E+00 0. -1.
     999902    2    1    2    0    0  0.26844427540E-02 -0.12041025717E-01 -0.66397089860E-02  0.10299200654E+01  0.10298247728E+01 0.  0.
     999903    2    3    3    0    0 -0.91500480182E-01  0.53998115747E-01 -0.79302541136E-01  0.13946408380E+00  0.43280518282E-01 0.  0.
         14    1    1    2    0    0 -0.26844427540E-02  0.12041025717E-01  0.66397089860E-02  0.14009934640E-01  0.00000000000E+00 0.  1.
     999901    1    3    3    0    0  0.94184922935E-01 -0.66039141464E-01  0.72662832150E-01  0.89045598156E+00  0.88000000000E+00 0.  1.
        -11    1    4    4    0    0 -0.69636880627E-01  0.22094275856E-01 -0.36151869617E-01  0.81514851204E-01  0.51100000000E-03 0. -1.
         11    1    4    4    0    0 -0.21863599555E-01  0.31903839892E-01 -0.43150671519E-01  0.57949232599E-01  0.51100000000E-03 0.  1.
</event>
<event>
 8    1  0.2001339E+004  0.1043930E+01  0.7957747E-01            NaN
         13   -1    0    0    0    0  0.00000000000E+00  0.00000000000E+00  0.74505805969E-08  0.10566000000E+00  0.10566000000E+00 0. -1.
     999900   -1    0    0    0    0 -0.00000000000E+00 -0.00000000000E+00 -0.74505805969E-08  0.93827000000E+00  0.93827000000E+00 0. -1.
     999902    2    1    2    0    0 -0.59830262622E-02 -0.60183432201E-02 -0.11024481554E-01  0.10300175505E+01  0.10299235884E+01 0.  0.
     999903    2    3    3    0    0 -0.10792905846E+00  0.69814468193E-01 -0.33944192122E-01  0.14059699646E+00  0.45744569127E-01 0.  0.
         14    1    1    2    0    0  0.59830262622E-02  0.60183432201E-02  0.11024481554E-01  0.13912449529E-01  0.00000000000E+00 0. -1.
     999901    1    3    3    0    0  0.10194603220E+00 -0.75832811413E-01  0.22919710568E-01  0.88942055401E+00  0.88000000000E+00 0. -1.
        -11    1    4    4    0    0 -0.89774450423E-01  0.37786208478E-01 -0.35689273367E-01  0.10373637190E+00  0.51100000000E-03 0. -1.
         11    1    4    4    0    0 -0.18154608039E-01  0.32028259715E-01  0.17450812456E-02  0.36860624560E-01  0.51100000000E-03 0.  1.
</event>
<event>
 8    1  0.2001339E+004  0.1043930E+01  0.7957747E-01            NaN
         13   -1    0    0    0    0  0.00000000000E+00  0.00000000000E+00  0.74505805969E-08  0.10566000000E+00  0.10566000000E+00 0. -1.
     999900   -1    0    0    0    0 -0.00000000000E+00 -0.00000000000E+00 -0.74505805969E-08  0.93827000000E+00  0.93827000000E+00 0. -1.
     999902    2    1    2    0    0  0.83564461595E-02  0.67017426565E-02  0.83958626541E-02  0.10303199281E+01  0.10302300327E+01 0.  0.
     999903    2    3    3    0    0  0.55899781181E-01  0.10749793148E+00 -0.56160995655E-01  0.14094496313E+00  0.45064779926E-01 0.  0.
         14    1    1    2    0    0 -0.83564461595E-02 -0.67017426565E-02 -0.83958626541E-02  0.13610071887E-01  0.00000000000E+00 0.  1.
     999901    1    3    3    0    0 -0.47543335022E-01 -0.10079618882E+00  0.64556858309E-01  0.88937496498E+00  0.88000000000E+00 0. -1.
        -11    1    4    4    0    0  0.44235542446E-01  0.81360370319E-01 -0.19861151262E-01  0.94715466131E-01  0.51100000000E-03 0.  1.
         11    1    4    4    0    0  0.11664238735E-01  0.26137561162E-01 -0.36299844393E-01  0.46229496998E-01  0.51100000000E-03 0. -1.
</event>
<event>
 8    1  0.2001339E+004  0.1043930E+01  0.7957747E-01            NaN
         13   -1    0    0    0    0  0.00000000000E+00  0.00000000000E+00  0.74505805969E-08  0.10566000000E+00  0.10566000000E+00 0. -1.
     999900   -1    0    0    0    0 -0.00000000000E+00 -0.00000000000E+00 -0.74505805969E-08  0.93827000000E+00  0.93827000000E+00 0. -1.
     999902    2    1    2    0    0  0.62358706333E-03 -0.27493828435E-02 -0.26492985716E-01  0.10172874352E+01  0.10169384935E+01 0.  0.
     999903    2    3    3    0    0 -0.66850857194E-01 -0.10023799470E+00  0.72804194945E-02  0.12869446147E+00  0.44638181138E-01 0.  0.
         14    1    1    2    0    0 -0.62358706333E-03  0.27493828435E-02  0.26492985716E-01  0.26642564797E-01  0.00000000000E+00 0. -1.
     999901    1    3    3    0    0  0.67474444258E-01  0.97488611858E-01 -0.33773405210E-01  0.88859297373E+00  0.88000000000E+00 0.  1.
        -11    1    4    4    0    0 -0.18928939871E-01 -0.39911166400E-01 -0.17861760550E-01  0.47649864417E-01  0.51100000000E-03 0. -1.
         11    1    4    4    0    0 -0.47921917323E-01 -0.60326828301E-01  0.25142180044E-01  0.81044597051E-01  0.51100000000E-03 0.  1.
</event>
<event>
 8    1  0.2001339E+004  0.1043930E+01  0.7957747E-01            NaN
         13   -1    0    0    0    0  0.00000000000E+00  0.00000000000E+00  0.74505805969E-08  0.10566000000E+00  0.10566000000E+00 0. -1.
     999900   -1    0    0    0    0 -0.00000000000E+00 -0.00000000000E+00 -0.74505805969E-08  0.93827000000E+00  0.93827000000E+00 0.  1.
     999902    2    1    2    0    0 -0.15580429082E-01 -0.55888300444E-02 -0.42601327260E-02  0.10268380860E+01  0.10266958271E+01 0.  0.
     999903    2    3    3    0    0  0.67497717096E-01  0.60013575047E-02 -0.10965384905E+00  0.13658860065E+00  0.45172127578E-01 0.  0.
         14    1    1    2    0    0  0.15580429082E-01  0.55888300444E-02  0.42601327260E-02  0.17091913950E-01  0.00000000000E+00 0. -1.
     999901    1    3    3    0    0 -0.83078146178E-01 -0.11590187549E-01  0.10539371632E+00  0.89024948540E+00  0.88000000000E+00 0. -1.
        -11    1    4    4    0    0  0.10875131387E-01 -0.17056044087E-01 -0.29690036184E-01  0.35929604676E-01  0.51100000000E-03 0. -1.
         11    1    4    4    0    0  0.56622585709E-01  0.23057401592E-01 -0.79963812867E-01  0.10065899597E+00  0.51100000000E-03 0.  1.
</event>
<event>
 8    1  0.2001339E+004  0.1043930E+01  0.7957747E-01            NaN
         13   -1    0    0    0    0  0.00000000000E+00  0.00000000000E+00  0.74505805969E-08  0.10566000000E+00  0.10566000000E+00 0. -1.
     999900   -1    0    0    0    0 -0.00000000000E+00 -0.00000000000E+00 -0.74505805969E-08  0.93827000000E+00  0.93827000000E+00 0.  1.
     999902    2    1    2    0    0 -0.30791565582E-02  0.56313307966E-02  0.12640434508E-01  0.10297534815E+01  0.10296558935E+01 0.  0.
     999903    2    3    3    0    0 -0.14937171675E-01  0.86384681561E-01  0.10209658212E+00  0.14146067027E+00  0.43611659510E-01 0.  0.
         14    1    1    2    0    0  0.30791565582E-02 -0.56313307966E-02 -0.12640434508E-01  0.14176518479E-01  0.00000000000E+00 0.  1.
     999901    1    3    3    0    0  0.11858015117E-01 -0.80753350764E-01 -0.89456147613E-01  0.88829281126E+00  0.88000000000E+00 0.  1.
        -11    1    4    4    0    0 -0.29132638809E-01  0.59552904163E-01  0.80052376866E-01  0.10394182604E+00  0.51100000000E-03 0. -1.
         11    1    4    4    0    0  0.14195467134E-01  0.26831777398E-01  0.22044205254E-01  0.37518844222E-01  0.51100000000E-03 0.  1.
</event>
<event>
 8    1  0.2001339E+004  0.1043930E+01  0.7957747E-01            NaN
         13   -1    0    0    0    0  0.00000000000E+00  0.00000000000E+00  0.74505805969E-08  0.10566000000E+00  0.10566000000E+00 0. -1.
     999900   -1    0    0    0    0 -0.00000000000E+00 -0.00000000000E+00 -0.74505805969E-08  0.93827000000E+00  0.93827000000E+00 0.  1.
     999902    2    1    2    0    0 -0.49915326429E-02  0.21214433421E-02  0.12746597420E-01  0.10300775033E+01  0.10299843548E+01 0.  0.
     999903    2    3    3    0    0 -0.15658857542E-01 -0.75213287284E-01  0.11021744763E+00  0.14126086356E+00  0.43640662330E-01 0.  0.
         14    1    1    2    0    0  0.49915326429E-02 -0.21214433421E-02 -0.12746597420E-01  0.13852496734E-01  0.00000000000E+00 0.  1.
     999901    1    3    3    0    0  0.10667324899E-01  0.77334730626E-01 -0.97470850206E-01  0.88881663971E+00  0.88000000000E+00 0. -1.
        -11    1    4    4    0    0  0.62868011931E-02 -0.58798601643E-01  0.61217752987E-01  0.85115649713E-01  0.51100000000E-03 0.  1.
         11    1    4    4    0    0 -0.21945658735E-01 -0.16414685641E-01  0.48999694639E-01  0.56145213845E-01  0.51100000000E-03 0. -1.
</event>
<event>
 8    1  0.2001339E+004  0.1043930E+01  0.7957747E-01            NaN
         13   -1    0    0    0    0  0.00000000000E+00  0.00000000000E+00  0.74505805969E-08  0.10566000000E+00  0.10566000000E+00 0. -1.
     999900   -1    0    0    0    0 -0.00000000000E+00 -0.00000000000E+00 -0.74505805969E-08  0.93827000000E+00  0.93827000000E+00 0. -1.
     999902    2    1    2    0    0  0.59364099279E-02 -0.12787485225E-01  0.17205838784E-02  0.10297271429E+01  0.10296291894E+01 0.  0.
     999903    2    3    3    0    0 -0.88085318976E-01  0.44477691884E-01 -0.87841388894E-01  0.13835699924E+00  0.41100622167E-01 0.  0.
         14    1    1    2    0    0 -0.59364099279E-02  0.12787485225E-01 -0.17205838784E-02  0.14202857111E-01  0.00000000000E+00 0.  1.
     999901    1    3    3    0    0  0.94021728904E-01 -0.57265177109E-01  0.89561972772E-01  0.89137014365E+00  0.88000000000E+00 0.  1.
        -11    1    4    4    0    0 -0.53223147965E-01  0.39113032007E-02 -0.42097131162E-01  0.67973754826E-01  0.51100000000E-03 0.  1.
         11    1    4    4    0    0 -0.34862171011E-01  0.40566388683E-01 -0.45744257732E-01  0.70383244418E-01  0.51100000000E-03 0. -1.
</event>
<event>
 8    1  0.2001339E+004  0.1043930E+01  0.7957747E-01            NaN
         13   -1    0    0    0    0  0.00000000000E+00  0.00000000000E+00  0.74505805969E-08  0.10566000000E+00  0.10566000000E+00 0.  1.
     999900   -1    0    0    0    0 -0.00000000000E+00 -0.00000000000E+00 -0.74505805969E-08  0.93827000000E+00  0.93827000000E+00 0.  1.
     999902    2    1    2    0    0 -0.94425727120E-02  0.79839348863E-02 -0.50997083887E-02  0.10305541852E+01  0.10304673776E+01 0.  0.
     999903    2    3    3    0    0 -0.78698418737E-01  0.35274264105E-01  0.10222024190E+00  0.14091453568E+00  0.44387089262E-01 0.  0.
         14    1    1    2    0    0  0.94425727120E-02 -0.79839348863E-02  0.50997083887E-02  0.13375814792E-01  0.00000000000E+00 0.  1.
     999901    1    3    3    0    0  0.69255846025E-01 -0.27290329218E-01 -0.10731995029E+00  0.88963964953E+00  0.88000000000E+00 0.  1.
        -11    1    4    4    0    0 -0.28126136724E-01 -0.60415116842E-02  0.48323825793E-01  0.56240845395E-01  0.51100000000E-03 0.  1.
         11    1    4    4    0    0 -0.50572282013E-01  0.41315775789E-01  0.53896416106E-01  0.84673690289E-01  0.51100000000E-03 0. -1.
</event>
<event>
 8    1  0.2001339E+004  0.1043930E+01  0.7957747E-01            NaN
         13   -1    0    0    0    0  0.00000000000E+00  0.00000000000E+00  0.74505805969E-08  0.10566000000E+00  0.10566000000E+00 0.  1.
     999900   -1    0    0    0    0 -0.00000000000E+00 -0.00000000000E+00 -0.74505805969E-08  0.93827000000E+00  0.93827000000E+00 0. -1.
     999902    2    1    2    0    0 -0.73811775722E-02 -0.47694729407E-02  0.10858163023E-01  0.10299611289E+01  0.10298663980E+01 0.  0.
     999903    2    3    3    0    0 -0.12470977208E-01  0.16387411675E-01 -0.12938066099E+00  0.13859114538E+00  0.45211476488E-01 0.  0.
         14    1    1    2    0    0  0.73811775722E-02  0.47694729407E-02 -0.10858163023E-01  0.13968871061E-01  0.00000000000E+00 0. -1.
     999901    1    3    3    0    0  0.50897996363E-02 -0.21156884615E-01  0.14023882401E+00  0.89136998356E+00  0.88000000000E+00 0.  1.
        -11    1    4    4    0    0 -0.25581554890E-01 -0.30809792859E-02 -0.76761499097E-01  0.80972200468E-01  0.51100000000E-03 0.  1.
         11    1    4    4    0    0  0.13110577682E-01  0.19468390961E-01 -0.52619161892E-01  0.57618944914E-01  0.51100000000E-03 0. -1.
</event>
<event>
 8    1  0.2001339E+004  0.1043930E+01  0.7957747E-01            NaN
         13   -1    0    0    0    0  0.00000000000E+00  0.00000000000E+00  0.74505805969E-08  0.10566000000E+00  0.10566000000E+00 0.  1.
     999900   -1    0    0    0    0 -0.00000000000E+00 -0.00000000000E+00 -0.74505805969E-08  0.93827000000E+00  0.93827000000E+00 0. -1.
     999902    2    1    2    0    0 -0.77305242287E-02  0.21169950134E-02  0.10127682022E-01  0.10310144042E+01  0.10309335037E+01 0.  0.
     999903    2    3    3    0    0  0.90385411056E-01 -0.15643789257E-01  0.95084034385E-01  0.14131795929E+00  0.50155172693E-01 0.  0.
         14    1    1    2    0    0  0.77305242287E-02 -0.21169950134E-02 -0.10127682022E-01  0.12915595839E-01  0.00000000000E+00 0. -1.
     999901    1    3    3    0    0 -0.98115935285E-01  0.17760784270E-01 -0.84956352363E-01  0.88969644487E+00  0.88000000000E+00 0. -1.
        -11    1    4    4    0    0  0.49832440614E-01  0.13994176250E-01  0.32707854731E-01  0.61230498843E-01  0.51100000000E-03 0. -1.
         11    1    4    4    0    0  0.40552970443E-01 -0.29637965507E-01  0.62376179654E-01  0.80087460444E-01  0.51100000000E-03 0.  1.
</event>
<event>
 8    1  0.2001339E+004  0.1043930E+01  0.7957747E-01            NaN
         13   -1    0    0    0    0  0.00000000000E+00  0.00000000000E+00  0.74505805969E-08  0.10566000000E+00  0.10566000000E+00 0.  1.
     999900   -1    0    0    0    0 -0.00000000000E+00 -0.00000000000E+00 -0.74505805969E-08  0.93827000000E+00  0.93827000000E+00 0.  1.
     999902    2    1    2    0    0  0.25781749973E-02 -0.11656115521E-01 -0.65657706864E-02  0.10303057070E+01  0.10302156223E+01 0.  0.
     999903    2    3    3    0    0  0.11219917337E+00  0.46940741907E-01  0.51125527061E-01  0.13969993516E+00  0.45936528049E-01 0.  0.
         14    1    1    2    0    0 -0.25781749973E-02  0.11656115521E-01  0.65657706864E-02  0.13624293011E-01  0.00000000000E+00 0. -1.
     999901    1    3    3    0    0 -0.10962099837E+00 -0.58596857428E-01 -0.57691297748E-01  0.89060577183E+00  0.88000000000E+00 0.  1.
        -11    1    4    4    0    0  0.81928403025E-01  0.25219902967E-01  0.55593007594E-01  0.10217216031E+00  0.51100000000E-03 0.  1.
         11    1    4    4    0    0  0.30270770347E-01  0.21720838940E-01 -0.44674805326E-02  0.37527774847E-01  0.51100000000E-03 0. -1.
</event>
<event>
 8    1  0.2001339E+004  0.1043930E+01  0.7957747E-01            NaN
         13   -1    0    0    0    0  0.00000000000E+00  0.00000000000E+00  0.74505805969E-08  0.10566000000E+00  0.10566000000E+00 0. -1.
     999900   -1    0    0    0    0 -0.00000000000E+00 -0.00000000000E+00 -0.74505805969E-08  0.93827000000E+00  0.93827000000E+00 0. -1.
     999902    2    1    2    0    0 -0.11160504336E-01 -0.10978287890E-02 -0.81556427384E-02  0.10300636164E+01  0.10299702798E+01 0.  0.
     999903    2    3    3    0    0 -0.60912794403E-03 -0.92657195861E-02  0.13102255422E+00  0.13902567307E+00  0.45552205886E-01 0.  0.
         14    1    1    2    0    0  0.11160504336E-01  0.10978287890E-02  0.81556427384E-02  0.13866383579E-01  0.00000000000E+00 0.  1.
     999901    1    3    3    0    0 -0.10551376392E-01  0.81678907972E-02 -0.13917819696E+00  0.89103794335E+00  0.88000000000E+00 0. -1.
        -11    1    4    4    0    0 -0.10630356510E-02 -0.27830194195E-01  0.81935319187E-01  0.86540784633E-01  0.51100000000E-03 0. -1.
         11    1    4    4    0    0  0.45390770701E-03  0.18564474608E-01  0.49087235036E-01  0.52484888436E-01  0.51100000000E-03 0.  1.
</event>
<event>
 8    1  0.2001339E+004  0.1043930E+01  0.7957747E-01            NaN
         13   -1    0    0    0    0  0.00000000000E+00  0.00000000000E+00  0.74505805969E-08  0.10566000000E+00  0.10566000000E+00 0.  1.
     999900   -1    0    0    0    0 -0.00000000000E+00 -0.00000000000E+00 -0.74505805969E-08  0.93827000000E+00  0.93827000000E+00 0. -1.
     999902    2    1    2    0    0 -0.83985780473E-03  0.11202125634E-01  0.86750661190E-02  0.10297367005E+01  0.10296388797E+01 0.  0.
     999903    2    3    3    0    0  0.60701909461E-01 -0.40563734410E-01 -0.10770469944E+00  0.13843913891E+00  0.47275305794E-01 0.  0.
         14    1    1    2    0    0  0.83985780473E-03 -0.11202125634E-01 -0.86750661190E-02  0.14193299547E-01  0.00000000000E+00 0.  1.
     999901    1    3    3    0    0 -0.61541767266E-01  0.51765860044E-01  0.11637976556E+00  0.89129756155E+00  0.88000000000E+00 0.  1.
        -11    1    4    4    0    0  0.44192415969E-01 -0.31497148053E-01 -0.38048836001E-01  0.66279823526E-01  0.51100000000E-03 0. -1.
         11    1    4    4    0    0  0.16509493493E-01 -0.90665863571E-02 -0.69655863442E-01  0.72159315382E-01  0.51100000000E-03 0.  1.
</event>
<event>
 8    1  0.2001339E+004  0.1043930E+01  0.7957747E-01            NaN
         13   -1    0    0    0    0  0.00000000000E+00  0.00000000000E+00  0.74505805969E-08  0.10566000000E+00  0.10566000000E+00 0. -1.
     999900   -1    0    0    0    0 -0.00000000000E+00 -0.00000000000E+00 -0.74505805969E-08  0.93827000000E+00  0.93827000000E+00 0.  1.
     999902    2    1    2    0    0  0.12504548990E-01 -0.56377536938E-02 -0.23765604998E-02  0.10300089350E+01  0.10299148557E+01 0.  0.
     999903    2    3    3    0    0 -0.13039535153E+00  0.40929596803E-02  0.41247709270E-02  0.13840513524E+00  0.46035504847E-01 0.  0.
         14    1    1    2    0    0 -0.12504548990E-01  0.56377536938E-02  0.23765604998E-02  0.13921065044E-01  0.00000000000E+00 0.  1.
     999901    1    3    3    0    0  0.14289990052E+00 -0.97307133741E-02 -0.65013314268E-02  0.89160379971E+00  0.88000000000E+00 0.  1.
        -11    1    4    4    0    0 -0.69820020979E-01 -0.14201521334E-01 -0.13929392557E-01  0.72600328069E-01  0.51100000000E-03 0. -1.
         11    1    4    4    0    0 -0.60575330553E-01  0.18294481014E-01  0.18054163484E-01  0.65804807174E-01  0.51100000000E-03 0.  1.
</event>
<event>
 8    1  0.2001339E+004  0.1043930E+01  0.7957747E-01            NaN
         13   -1    0    0    0    0  0.00000000000E+00  0.00000000000E+00  0.74505805969E-08  0.10566000000E+00  0.10566000000E+00 0. -1.
     999900   -1    0    0    0    0 -0.00000000000E+00 -0.00000000000E+00 -0.74505805969E-08  0.93827000000E+00  0.93827000000E+00 0. -1.
     999902    2    1    2    0    0 -0.10484771186E-01 -0.22688312741E-02 -0.10745272589E-01  0.10287464923E+01  0.10286344378E+01 0.  0.
     999903    2    3    3    0    0 -0.54863178635E-01 -0.46768651697E-01 -0.11268424013E+00  0.14063544625E+00  0.43397184443E-01 0.  0.
         14    1    1    2    0    0  0.10484771186E-01  0.22688312741E-02  0.10745272589E-01  0.15183507671E-01  0.00000000000E+00 0. -1.
     999901    1    3    3    0    0  0.44378407449E-01  0.44499820423E-01  0.10193896754E+00  0.88811104608E+00  0.88000000000E+00 0.  1.
        -11    1    4    4    0    0 -0.26758931124E-01 -0.88202836543E-02 -0.75313593866E-01  0.80412911529E-01  0.51100000000E-03 0. -1.
         11    1    4    4    0    0 -0.28104247511E-01 -0.37948368042E-01 -0.37370646261E-01  0.60222534721E-01  0.51100000000E-03 0.  1.
</event>
<event>
 8    1  0.2001339E+004  0.1043930E+01  0.7957747E-01            NaN
         13   -1    0    0    0    0  0.00000000000E+00  0.00000000000E+00  0.74505805969E-08  0.10566000000E+00  0.10566000000E+00 0.  1.
     999900   -1    0    0    0    0 -0.00000000000E+00 -0.00000000000E+00 -0.74505805969E-08  0.93827000000E+00  0.93827000000E+00 0. -1.
     999902    2    1    2    0    0 -0.24538110912E-02 -0.12076455036E-01  0.99895330708E-02  0.10280664340E+01  0.10279440354E+01 0.  0.
     999903    2    3    3    0    0 -0.45751028045E-01 -0.94789812727E-01 -0.77446750333E-01  0.13881885757E+00  0.46844539881E-01 0.  0.
         14    1    1    2    0    0  0.24538110912E-02  0.12076455036E-01 -0.99895330708E-02  0.15863565995E-01  0.00000000000E+00 0. -1.
     999901    1    3    3    0    0  0.43297216953E-01  0.82713357691E-01  0.87436283403E-01  0.88924757643E+00  0.88000000000E+00 0.  1.
        -11    1    4    4    0    0 -0.18710168077E-01 -0.78829793728E-01 -0.41315044685E-01  0.90947241888E-01  0.51100000000E-03 0.  1.
         11    1    4    4    0    0 -0.27040859968E-01 -0.15960018999E-01 -0.36131705648E-01  0.47871615684E-01  0.51100000000E-03 0. -1.
</event>
<event>
 8    1  0.2001339E+004  0.1043930E+01  0.7957747E-01            NaN
         13   -1    0    0    0    0  0.00000000000E+00  0.00000000000E+00  0.74505805969E-08  0.10566000000E+00  0.10566000000E+00 0. -1.
     999900   -1    0    0    0    0 -0.00000000000E+00 -0.00000000000E+00 -0.74505805969E-08  0.93827000000E+00  0.93827000000E+00 0.  1.
     999902    2    1    2    0    0  0.58622840959E-02  0.12049773883E-01  0.23341516993E-02  0.10303280998E+01  0.10302383130E+01 0.  0.
     999903    2    3    3    0    0  0.12858436699E+00 -0.36091853865E-01 -0.35527750991E-02  0.14048936054E+00  0.43452006433E-01 0.  0.
         14    1    1    2    0    0 -0.58622840959E-02 -0.12049773883E-01 -0.23341516993E-02  0.13601900220E-01  0.00000000000E+00 0.  1.
     999901    1    3    3    0    0 -0.12272208289E+00  0.48141627748E-01  0.58869267984E-02  0.88983873924E+00  0.88000000000E+00 0. -1.
        -11    1    4    4    0    0  0.10030971027E+00 -0.40586485196E-01  0.10263072228E-01  0.10869633171E+00  0.51100000000E-03 0. -1.
         11    1    4    4    0    0  0.28274656724E-01  0.44946313306E-02 -0.13815847327E-01  0.31793028827E-01  0.51100000000E-03 0.  1.
</event>
<event>
 8    1  0.2001339E+004  0.1043930E+01  0.7957747E-01            NaN
         13   -1    0    0    0    0  0.00000000000E+00  0.00000000000E+00  0.74505805969E-08  0.10566000000E+00  0.10566000000E+00 0. -1.
     999900   -1    0    0    0    0 -0.00000000000E+00 -0.00000000000E+00 -0.74505805969E-08  0.93827000000E+00  0.93827000000E+00 0.  1.
     999902    2    1    2    0    0  0.14045563094E-02  0.10585020261E-01 -0.76288622592E-02  0.10308069298E+01  0.10307233923E+01 0.  0.
     999903    2    3    3    0    0 -0.11557694089E-01 -0.16140396618E-01  0.13039857316E+00  0.13955284662E+00  0.45575392709E-01 0.  0.
         14    1    1    2    0    0 -0.14045563094E-02 -0.10585020261E-01  0.76288622592E-02  0.13123070209E-01  0.00000000000E+00 0. -1.
     999901    1    3    3    0    0  0.12962250398E-01  0.26725416879E-01 -0.13802743542E+00  0.89125408317E+00  0.88000000000E+00 0.  1.
        -11    1    4    4    0    0 -0.12514427914E-01  0.75610795592E-02  0.12356970705E-01  0.19150370130E-01  0.51100000000E-03 0. -1.
         11    1    4    4    0    0  0.95673382513E-03 -0.23701476177E-01  0.11804160246E+00  0.12040247649E+00  0.51100000000E-03 0.  1.
</event>
<event>
 8    1  0.2001339E+004  0.1043930E+01  0.7957747E-01            NaN
         13   -1    0    0    0    0  0.00000000000E+00  0.00000000000E+00  0.74505805969E-08  0.10566000000E+00  0.10566000000E+00 0.  1.
     999900   -1    0    0    0    0 -0.00000000000E+00 -0.00000000000E+00 -0.74505805969E-08  0.93827000000E+00  0.93827000000E+00 0.  1.
     999902    2    1    2    0    0 -0.71064797748E-02 -0.51780041405E-02  0.10356105442E-01  0.10303446144E+01  0.10302550469E+01 0.  0.
     999903    2    3    3    0    0  0.84535923602E-01  0.16815497976E-01 -0.98726101351E-01  0.13861541108E+00  0.45147599604E-01 0.  0.
         14    1    1    2    0    0  0.71064797748E-02  0.51780041405E-02 -0.10356105442E-01  0.13585385589E-01  0.00000000000E+00 0. -1.
     999901    1    3    3    0    0 -0.91642403377E-01 -0.21993502117E-01  0.10908220679E+00  0.89172920333E+00  0.88000000000E+00 0. -1.
        -11    1    4    4    0    0  0.56488217359E-01  0.17897340489E-03 -0.33466739205E-01  0.65659991516E-01  0.51100000000E-03 0.  1.
         11    1    4    4    0    0  0.28047706243E-01  0.16636524571E-01 -0.65259362146E-01  0.72955419565E-01  0.51100000000E-03 0. -1.
</event>
<event>
 8    1  0.2001339E+004  0.1043930E+01  0.7957747E-01            NaN
         13   -1    0    0    0    0  0.00000000000E+00  0.00000000000E+00  0.74505805969E-08  0.10566000000E+00  0.10566000000E+00 0. -1.
     999900   -1    0    0    0    0 -0.00000000000E+00 -0.00000000000E+00 -0.74505805969E-08  0.93827000000E+00  0.93827000000E+00 0. -1.
     999902    2    1    2    0    0 -0.99794154966E-02  0.86243366249E-02  0.19819168163E-02  0.10305922374E+01  0.10305059262E+01 0.  0.
     999903    2    3    3    0    0 -0.61299060171E-01 -0.54520300867E-01  0.10513804229E+00  0.14083826167E+00  0.45292052611E-01 0.  0.
         14    1    1    2    0    0  0.99794154966E-02 -0.86243366249E-02 -0.19819168163E-02  0.13337762561E-01  0.00000000000E+00 0. -1.
     999901    1    3    3    0    0  0.51319644674E-01  0.63144637492E-01 -0.10315612547E+00  0.88975397577E+00  0.88000000000E+00 0. -1.
        -11    1    4    4    0    0 -0.31001979642E-01 -0.40127965507E-01  0.30928075730E-01  0.59398513001E-01  0.51100000000E-03 0. -1.
         11    1    4    4    0    0 -0.30297080529E-01 -0.14392335360E-01  0.74209966558E-01  0.81439748669E-01  0.51100000000E-03 0.  1.
</event>
<event>
 8    1  0.2001339E+004  0.1043930E+01  0.7957747E-01            NaN
         13   -1    0    0    0    0  0.00000000000E+00  0.00000000000E+00  0.74505805969E-08  0.10566000000E+00  0.10566000000E+00 0.  1.
     999900   -1    0    0    0    0 -0.00000000000E+00 -0.00000000000E+00 -0.74505805969E-08  0.93827000000E+00  0.93827000000E+00 0. -1.
     999902    2    1    2    0    0  0.52664836121E-02  0.12340380863E-01 -0.48944633993E-02  0.10296479616E+01  0.10295489052E+01 0.  0.
     999903    2    3    3    0    0 -0.68579072665E-01 -0.93194672143E-01 -0.55842896691E-01  0.13881320897E+00  0.52557984659E-01 0.  0.
         14    1    1    2    0    0 -0.52664836121E-02 -0.12340380863E-01  0.48944633993E-02  0.14282038420E-01  0.00000000000E+00 0.  1.
     999901    1    3    3    0    0  0.73845556277E-01  0.10553505301E+00  0.50948433291E-01  0.89083475261E+00  0.88000000000E+00 0.  1.
        -11    1    4    4    0    0 -0.61695221334E-01 -0.40197923737E-01 -0.32883215894E-01  0.80645771227E-01  0.51100000000E-03 0. -1.
         11    1    4    4    0    0 -0.68838513306E-02 -0.52996748407E-01 -0.22959680797E-01  0.58167437748E-01  0.51100000000E-03 0.  1.
</event>
<event>
 7    1  0.4004084E+004  0.1043930E+01  0.7957747E-01            NaN
         13   -1    0    0    0    0  0.00000000000E+00  0.00000000000E+00  0.74505805969E-08  0.10566000000E+00  0.10566000000E+00 0. -1.
     999900   -1    0    0    0    0 -0.00000000000E+00 -0.00000000000E+00 -0.74505805969E-08  0.93827000000E+00  0.93827000000E+00 0.  1.
     999903    2    1    2    0    0 -0.45576420755E-01 -0.51404959591E-01  0.36258762733E-01  0.89895800645E-01  0.45242425878E-01 0.  0.
         14    1    1    2    0    0  0.32228518173E-01  0.39870196612E-01 -0.52945868518E-01  0.73699219498E-01  0.00000000000E+00 0.  1.
     999901    1    1    2    0    0  0.13347902582E-01  0.11534762980E-01  0.16687105785E-01  0.88033497986E+00  0.88000000000E+00 0. -1.
        -11    1    3    3    0    0 -0.45334341560E-02 -0.32804246260E-01  0.29451042051E-01  0.44320374511E-01  0.51100000000E-03 0.  1.
         11    1    3    3    0    0 -0.41042986599E-01 -0.18600713331E-01  0.68077206821E-02  0.45575426134E-01  0.51100000000E-03 0. -1.
</event>
<event>
 8    1  0.2001339E+004  0.1043930E+01  0.7957747E-01            NaN
         13   -1    0    0    0    0  0.00000000000E+00  0.00000000000E+00  0.74505805969E-08  0.10566000000E+00  0.10566000000E+00 0.  1.
     999900   -1    0    0    0    0 -0.00000000000E+00 -0.00000000000E+00 -0.74505805969E-08  0.93827000000E+00  0.93827000000E+00 0. -1.
     999902    2    1    2    0    0 -0.14460674296E-01 -0.17330273411E-02 -0.23583475094E-02  0.10291761433E+01  0.10290703852E+01 0.  0.
     999903    2    3    3    0    0  0.79200222108E-01 -0.10093652989E+00 -0.25704852449E-01  0.13835699345E+00  0.44956200330E-01 0.  0.
         14    1    1    2    0    0  0.14460674296E-01  0.17330273411E-02  0.23583475094E-02  0.14753856711E-01  0.00000000000E+00 0.  1.
     999901    1    3    3    0    0 -0.93660896405E-01  0.99203502548E-01  0.23346504939E-01  0.89081914984E+00  0.88000000000E+00 0.  1.
        -11    1    4    4    0    0  0.46580431562E-01 -0.39678611140E-01  0.70799936392E-02  0.61599644621E-01  0.51100000000E-03 0.  1.
         11    1    4    4    0    0  0.32619790547E-01 -0.61257918749E-01 -0.32784846088E-01  0.76757348826E-01  0.51100000000E-03 0. -1.
</event>
<event>
 8    1  0.2001339E+004  0.1043930E+01  0.7957747E-01            NaN
         13   -1    0    0    0    0  0.00000000000E+00  0.00000000000E+00  0.74505805969E-08  0.10566000000E+00  0.10566000000E+00 0.  1.
     999900   -1    0    0    0    0 -0.00000000000E+00 -0.00000000000E+00 -0.74505805969E-08  0.93827000000E+00  0.93827000000E+00 0. -1.
     999902    2    1    2    0    0  0.11125014186E-01  0.18044015967E-01 -0.15051048403E-01  0.10179321826E+01  0.10176001385E+01 0.  0.
     999903    2    3    3    0    0 -0.81756976838E-01  0.14177074929E-01  0.84735571847E-01  0.12742705229E+00  0.46608409142E-01 0.  0.
         14    1    1    2    0    0 -0.11125014186E-01 -0.18044015967E-01  0.15051048403E-01  0.25997817426E-01  0.00000000000E+00 0. -1.
     999901    1    3    3    0    0  0.92881991024E-01  0.38669410381E-02 -0.99786620250E-01  0.89050513029E+00  0.88000000000E+00 0. -1.
        -11    1    4    4    0    0 -0.33558737299E-01  0.23806490293E-01  0.18939332799E-01  0.45297872765E-01  0.51100000000E-03 0.  1.
         11    1    4    4    0    0 -0.48198239539E-01 -0.96294153636E-02  0.65796239048E-01  0.82129179520E-01  0.51100000000E-03 0. -1.
</event>
<event>
 8    1  0.2697256E+004  0.1043930E+01  0.7957747E-01            NaN
         13   -1    0    0    0    0  0.00000000000E+00  0.00000000000E+00  0.74505805969E-08  0.10566000000E+00  0.10566000000E+00 0.  1.
     999900   -1    0    0    0    0 -0.00000000000E+00 -0.00000000000E+00 -0.74505805969E-08  0.93827000000E+00  0.93827000000E+00 0.  1.
     999902    2    1    2    0    0 -0.10408112448E-01 -0.14896952007E-02  0.80252241154E-02  0.10307030495E+01  0.10306181757E+01 0.  0.
     999903    2    3    3    0    0 -0.39014390571E-01  0.11766817108E+00  0.51284163017E-01  0.14115920461E+00  0.43908251088E-01 0.  0.
         14    1    1    2    0    0  0.10408112448E-01  0.14896952007E-02 -0.80252241154E-02  0.13226950466E-01  0.00000000000E+00 0. -1.
     999901    1    3    3    0    0  0.28606278124E-01 -0.11915786628E+00 -0.43258938901E-01  0.88954384492E+00  0.88000000000E+00 0.  1.
        -11    1    4    4    0    0 -0.34263451073E-01  0.73098039253E-01  0.52528826921E-01  0.96316385941E-01  0.51100000000E-03 0. -1.
         11    1    4    4    0    0 -0.47509394983E-02  0.44570131826E-01 -0.12446639041E-02  0.44842818671E-01  0.51100000000E-03 0.  1.
</event>
<event>
 8    1  0.2001339E+004  0.1043930E+01  0.7957747E-01            NaN
         13   -1    0    0    0    0  0.00000000000E+00  0.00000000000E+00  0.74505805969E-08  0.10566000000E+00  0.10566000000E+00 0.  1.
     999900   -1    0    0    0    0 -0.00000000000E+00 -0.00000000000E+00 -0.74505805969E-08  0.93827000000E+00  0.93827000000E+00 0. -1.
     999902    2    1    2    0    0  0.77982560919E-02  0.94461076096E-02  0.60226424706E-02  0.10302803125E+01  0.10301898894E+01 0.  0.
     999903    2    3    3    0    0  0.59495510286E-01 -0.10807849955E+00 -0.46705322988E-01  0.13940160148E+00  0.45063749170E-01 0.  0.
         14    1    1    2    0    0 -0.77982560919E-02 -0.94461076096E-02 -0.60226424706E-02  0.13649687519E-01  0.00000000000E+00 0. -1.
     999901    1    3    3    0    0 -0.51697254194E-01  0.11752460716E+00  0.52727965459E-01  0.89087871100E+00  0.88000000000E+00 0.  1.
        -11    1    4    4    0    0  0.19827903550E-01 -0.79042798856E-01 -0.35985469524E-01  0.89084931094E-01  0.51100000000E-03 0.  1.
         11    1    4    4    0    0  0.39667606736E-01 -0.29035700694E-01 -0.10719853465E-01  0.50316670382E-01  0.51100000000E-03 0. -1.
</event>
<event>
 8    1  0.2001339E+004  0.1043930E+01  0.7957747E-01            NaN
         13   -1    0    0    0    0  0.00000000000E+00  0.00000000000E+00  0.74505805969E-08  0.10566000000E+00  0.10566000000E+00 0.  1.
     999900   -1    0    0    0    0 -0.00000000000E+00 -0.00000000000E+00 -0.74505805969E-08  0.93827000000E+00  0.93827000000E+00 0. -1.
     999902    2    1    2    0    0  0.15221815993E-01 -0.84220534979E-04  0.15007540796E-02  0.10286341496E+01  0.10285204183E+01 0.  0.
     999903    2    3    3    0    0  0.85791842007E-02 -0.12888175769E+00 -0.26691661735E-01  0.13878711648E+00  0.43189223501E-01 0.  0.
         14    1    1    2    0    0 -0.15221815993E-01  0.84220534979E-04 -0.15007540796E-02  0.15295850353E-01  0.00000000000E+00 0. -1.
     999901    1    3    3    0    0  0.66426317922E-02  0.12879753716E+00  0.28192415815E-01  0.88984703317E+00  0.88000000000E+00 0.  1.
        -11    1    4    4    0    0  0.26207550206E-01 -0.81878378806E-01 -0.15663514308E-01  0.87387135238E-01  0.51100000000E-03 0. -1.
         11    1    4    4    0    0 -0.17628366005E-01 -0.47003378884E-01 -0.11028147427E-01  0.51399981237E-01  0.51100000000E-03 0.  1.
</event>
<event>
 8    1  0.2001339E+004  0.1043930E+01  0.7957747E-01            NaN
         13   -1    0    0    0    0  0.00000000000E+00  0.00000000000E+00  0.74505805969E-08  0.10566000000E+00  0.10566000000E+00 0.  1.
     999900   -1    0    0    0    0 -0.00000000000E+00 -0.00000000000E+00 -0.74505805969E-08  0.93827000000E+00  0.93827000000E+00 0. -1.
     999902    2    1    2    0    0  0.31139457796E-02  0.13620225863E-01  0.31160255065E-02  0.10296150838E+01  0.10295155676E+01 0.  0.
     999903    2    3    3    0    0  0.79990317820E-01  0.10327369273E+00 -0.33787206049E-01  0.14095903718E+00  0.40791767710E-01 0.  0.
         14    1    1    2    0    0 -0.31139457796E-02 -0.13620225863E-01 -0.31160255065E-02  0.14314916201E-01  0.00000000000E+00 0.  1.
     999901    1    3    3    0    0 -0.76876372040E-01 -0.89653466872E-01  0.36903231556E-01  0.88865604662E+00  0.88000000000E+00 0.  1.
        -11    1    4    4    0    0  0.24897730383E-01  0.87819473951E-02 -0.13702457638E-01  0.29749588982E-01  0.51100000000E-03 0.  1.
         11    1    4    4    0    0  0.55092587437E-01  0.94491745340E-01 -0.20084748411E-01  0.11120944819E+00  0.51100000000E-03 0. -1.
</event>
<event>
 8    1  0.2001339E+004  0.1043930E+01  0.7957747E-01            NaN
         13   -1    0    0    0    0  0.00000000000E+00  0.00000000000E+00  0.74505805969E-08  0.10566000000E+00  0.10566000000E+00 0. -1.
     999900   -1    0    0    0    0 -0.00000000000E+00 -0.00000000000E+00 -0.74505805969E-08  0.93827000000E+00  0.93827000000E+00 0.  1.
     999902    2    1    2    0    0 -0.10473158796E-01  0.10289001635E-01 -0.48431572808E-02  0.10284701558E+01  0.10283539540E+01 0.  0.
     999903    2    3    3    0    0  0.64333711509E-01  0.10229886908E+00  0.49852135234E-01  0.13883345548E+00  0.46750485788E-01 0.  0.
         14    1    1    2    0    0  0.10473158796E-01 -0.10289001635E-01  0.48431572808E-02  0.15459844186E-01  0.00000000000E+00 0. -1.
     999901    1    3    3    0    0 -0.74806870305E-01 -0.92009867449E-01 -0.54695292515E-01  0.88963670033E+00  0.88000000000E+00 0.  1.
        -11    1    4    4    0    0  0.54113540007E-01  0.82972343360E-01  0.58809099253E-01  0.11520180663E+00  0.51100000000E-03 0. -1.
         11    1    4    4    0    0  0.10220171502E-01  0.19326525724E-01 -0.89569640187E-02  0.23631648853E-01  0.51100000000E-03 0.  1.
</event>
<event>
 7    1  0.2001339E+004  0.1043930E+01  0.7957747E-01            NaN
         13   -1    0    0    0    0  0.00000000000E+00  0.00000000000E+00  0.74505805969E-08  0.10566000000E+00  0.10566000000E+00 0. -1.
     999900   -1    0    0    0    0 -0.00000000000E+00 -0.00000000000E+00 -0.74505805969E-08  0.93827000000E+00  0.93827000000E+00 0.  1.
     999903    2    1    2    0    0  0.22574490671E-01 -0.69993271807E-01 -0.37457479293E-01  0.10193403657E+00  0.59823234021E-01 0.  0.
         14    1    1    2    0    0  0.14997166657E-01  0.10860014291E-01  0.56036048682E-01  0.59016045869E-01  0.00000000000E+00 0. -1.
     999901    1    1    2    0    0 -0.37571657328E-01  0.59133257516E-01 -0.18578569388E-01  0.88297991756E+00  0.88000000000E+00 0. -1.
        -11    1    3    3    0    0 -0.10344231118E-01 -0.99149732013E-02 -0.29711188670E-01  0.32989781209E-01  0.51100000000E-03 0.  1.
         11    1    3    3    0    0  0.32918721789E-01 -0.60078298606E-01 -0.77462906227E-02  0.68944255359E-01  0.51100000000E-03 0. -1.
</event>
<event>
 8    1  0.2001339E+004  0.1043930E+01  0.7957747E-01            NaN
         13   -1    0    0    0    0  0.00000000000E+00  0.00000000000E+00  0.74505805969E-08  0.10566000000E+00  0.10566000000E+00 0. -1.
     999900   -1    0    0    0    0 -0.00000000000E+00 -0.00000000000E+00 -0.74505805969E-08  0.93827000000E+00  0.93827000000E+00 0.  1.
     999902    2    1    2    0    0 -0.13144366506E-01  0.23792003176E-03 -0.44434145072E-02  0.10300528638E+01  0.10299593814E+01 0.  0.
     999903    2    3    3    0    0  0.12329409219E+00  0.18548620650E-01  0.39589331457E-01  0.13826274416E+00  0.44763676798E-01 0.  0.
         14    1    1    2    0    0  0.13144366506E-01 -0.23792003176E-03  0.44434145072E-02  0.13877136205E-01  0.00000000000E+00 0.  1.
     999901    1    3    3    0    0 -0.13643845869E+00 -0.18310700618E-01 -0.44032745964E-01  0.89179011964E+00  0.88000000000E+00 0. -1.
        -11    1    4    4    0    0  0.45231417389E-01  0.28814512455E-01  0.13345121424E-01  0.55267627358E-01  0.51100000000E-03 0.  1.
         11    1    4    4    0    0  0.78062674797E-01 -0.10265891805E-01  0.26244210033E-01  0.82995116798E-01  0.51100000000E-03 0. -1.
</event>
<event>
 8    1  0.2001339E+004  0.1043930E+01  0.7957747E-01            NaN
         13   -1    0    0    0    0  0.00000000000E+00  0.00000000000E+00  0.74505805969E-08  0.10566000000E+00  0.10566000000E+00 0.  1.
     999900   -1    0    0    0    0 -0.00000000000E+00 -0.00000000000E+00 -0.74505805969E-08  0.93827000000E+00  0.93827000000E+00 0. -1.
     999902    2    1    2    0    0  0.66161098543E-03 -0.39180012527E-02  0.13475544177E-01  0.10298808451E+01  0.10297850146E+01 0.  0.
     999903    2    3    3    0    0  0.36515398159E-02  0.13272531540E+00  0.73680679845E-03  0.13923916007E+00  0.41924428699E-01 0.  0.
         14    1    1    2    0    0 -0.66161098543E-03  0.39180012527E-02 -0.13475544177E-01  0.14049154913E-01  0.00000000000E+00 0. -1.
     999901    1    3    3    0    0 -0.29899288304E-02 -0.13664331665E+00  0.12738737378E-01  0.89064168502E+00  0.88000000000E+00 0. -1.
        -11    1    4    4    0    0 -0.10987353705E-01  0.85171012104E-01 -0.14728372128E-01  0.87132137072E-01  0.51100000000E-03 0. -1.
         11    1    4    4    0    0  0.14638893521E-01  0.47554303296E-01  0.15465178926E-01  0.52107022998E-01  0.51100000000E-03 0.  1.
</event>
<event>
 8    1  0.2001339E+004  0.1043930E+01  0.7957747E-01            NaN
         13   -1    0    0    0    0  0.00000000000E+00  0.00000000000E+00  0.74505805969E-08  0.10566000000E+00  0.10566000000E+00 0. -1.
     999900   -1    0    0    0    0 -0.00000000000E+00 -0.00000000000E+00 -0.74505805969E-08  0.93827000000E+00  0.93827000000E+00 0. -1.
     999902    2    1    2    0    0 -0.13189951028E-01 -0.37761313364E-02 -0.42866044542E-03  0.10302034664E+01  0.10301120155E+01 0.  0.
     999903    2    3    3    0    0 -0.87961552848E-03 -0.46680503164E-01 -0.12457488048E+00  0.14036942934E+00  0.44775358710E-01 0.  0.
         14    1    1    2    0    0  0.13189951028E-01  0.37761313364E-02  0.42866044542E-03  0.13726533639E-01  0.00000000000E+00 0. -1.
     999901    1    3    3    0    0 -0.12310335499E-01  0.42904371828E-01  0.12414622004E+00  0.88983403702E+00  0.88000000000E+00 0. -1.
        -11    1    4    4    0    0 -0.19115990187E-01 -0.33919697517E-01 -0.99441111283E-01  0.10679308355E+00  0.51100000000E-03 0. -1.
         11    1    4    4    0    0  0.18236374659E-01 -0.12760805647E-01 -0.25133769202E-01  0.33576345792E-01  0.51100000000E-03 0.  1.
</event>
<event>
 8    1  0.2001339E+004  0.1043930E+01  0.7957747E-01            NaN
         13   -1    0    0    0    0  0.00000000000E+00  0.00000000000E+00  0.74505805969E-08  0.10566000000E+00  0.10566000000E+00 0. -1.
     999900   -1    0    0    0    0 -0.00000000000E+00 -0.00000000000E+00 -0.74505805969E-08  0.93827000000E+00  0.93827000000E+00 0.  1.
     999902    2    1    2    0    0  0.34345926355E-02 -0.11572885514E-01 -0.72930601711E-02  0.10298262121E+01  0.10297296297E+01 0.  0.
     999903    2    3    3    0    0 -0.65051854210E-01 -0.50113397559E-01 -0.10559949019E+00  0.14087181585E+00  0.44164689779E-01 0.  0.
         14    1    1    2    0    0 -0.34345926355E-02  0.11572885514E-01  0.72930601711E-02  0.14103787872E-01  0.00000000000E+00 0. -1.
     999901    1    3    3    0    0  0.68486446845E-01  0.38540512045E-01  0.98306430016E-01  0.88895439627E+00  0.88000000000E+00 0. -1.
        -11    1    4    4    0    0 -0.56074623794E-01 -0.17493204355E-01 -0.74869047792E-01  0.95163076193E-01  0.51100000000E-03 0. -1.
         11    1    4    4    0    0 -0.89772304157E-02 -0.32620193205E-01 -0.30730442396E-01  0.45708739662E-01  0.51100000000E-03 0.  1.
</event>
<event>
 8    1  0.2001339E+004  0.1043930E+01  0.7957747E-01            NaN
         13   -1    0    0    0    0  0.00000000000E+00  0.00000000000E+00  0.74505805969E-08  0.10566000000E+00  0.10566000000E+00 0. -1.
     999900   -1    0    0    0    0 -0.00000000000E+00 -0.00000000000E+00 -0.74505805969E-08  0.93827000000E+00  0.93827000000E+00 0.  1.
     999902    2    1    2    0    0  0.55999329703E-02  0.50749835873E-02  0.12046076375E-01  0.10297094985E+01  0.10296112998E+01 0.  0.
     999903    2    3    3    0    0  0.48252474809E-01 -0.10873861384E+00  0.59267380361E-01  0.14010136798E+00  0.44310083177E-01 0.  0.
         14    1    1    2    0    0 -0.55999329703E-02 -0.50749835873E-02 -0.12046076375E-01  0.14220501528E-01  0.00000000000E+00 0.  1.
     999901    1    3    3    0    0 -0.42652541839E-01  0.11381359742E+00 -0.47221303986E-01  0.88960813049E+00  0.88000000000E+00 0. -1.
        -11    1    4    4    0    0  0.24608944459E-01 -0.45254823126E-01  0.49882822855E-01  0.71708830004E-01  0.51100000000E-03 0.  1.
         11    1    4    4    0    0  0.23643530350E-01 -0.63483790711E-01  0.93845575058E-02  0.68392537978E-01  0.51100000000E-03 0. -1.
</event>
<event>
 8    1  0.2001339E+004  0.1043930E+01  0.7957747E-01            NaN
         13   -1    0    0    0    0  0.00000000000E+00  0.00000000000E+00  0.74505805969E-08  0.10566000000E+00  0.10566000000E+00 0.  1.
     999900   -1    0    0    0    0 -0.00000000000E+00 -0.00000000000E+00 -0.74505805969E-08  0.93827000000E+00  0.93827000000E+00 0.  1.
     999902    2    1    2    0    0 -0.77230283880E-02 -0.11657717182E-01  0.89495530295E-03  0.10299175597E+01  0.10298222329E+01 0.  0.
     999903    2    3    3    0    0  0.75424063745E-01  0.97057808916E-02 -0.10692964708E+00  0.13918977704E+00  0.46441931822E-01 0.  0.
         14    1    1    2    0    0  0.77230283880E-02  0.11657717182E-01 -0.89495530295E-03  0.14012440272E-01  0.00000000000E+00 0.  1.
     999901    1    3    3    0    0 -0.83147092133E-01 -0.21363498074E-01  0.10782460239E+00  0.89072778269E+00  0.88000000000E+00 0. -1.
        -11    1    4    4    0    0  0.39197826238E-01  0.21205197601E-01 -0.31039333825E-01  0.54312349907E-01  0.51100000000E-03 0.  1.
         11    1    4    4    0    0  0.36226237507E-01 -0.11499416710E-01 -0.75890313258E-01  0.84877427129E-01  0.51100000000E-03 0. -1.
</event>
<event>
 8    1  0.2001339E+004  0.1043930E+01  0.7957747E-01            NaN
         13   -1    0    0    0    0  0.00000000000E+00  0.00000000000E+00  0.74505805969E-08  0.10566000000E+00  0.10566000000E+00 0.  1.
     999900   -1    0    0    0    0 -0.00000000000E+00 -0.00000000000E+00 -0.74505805969E-08  0.93827000000E+00  0.93827000000E+00 0.  1.
     999902    2    1    2    0    0  0.88750527557E-02  0.96432345997E-02 -0.91710296156E-03  0.10307922828E+01  0.10307085576E+01 0.  0.
     999903    2    3    3    0    0  0.11461019864E+00 -0.39226143309E-01  0.57176550972E-01  0.14121765986E+00  0.44711089524E-01 0.  0.
         14    1    1    2    0    0 -0.88750527557E-02 -0.96432345997E-02  0.91710296156E-03  0.13137717184E-01  0.00000000000E+00 0.  1.
     999901    1    3    3    0    0 -0.10573514588E+00  0.48869377909E-01 -0.58093653934E-01  0.88957462295E+00  0.88000000000E+00 0.  1.
        -11    1    4    4    0    0  0.73744894859E-01 -0.45848815042E-01  0.46309129763E-01  0.98413515225E-01  0.51100000000E-03 0.  1.
         11    1    4    4    0    0  0.40865303777E-01  0.66226717327E-02  0.10867421209E-01  0.42804144640E-01  0.51100000000E-03 0. -1.
</event>
<event>
 8    1  0.2001339E+004  0.1043930E+01  0.7957747E-01            NaN
         13   -1    0    0    0    0  0.00000000000E+00  0.00000000000E+00  0.74505805969E-08  0.10566000000E+00  0.10566000000E+00 0. -1.
     999900   -1    0    0    0    0 -0.00000000000E+00 -0.00000000000E+00 -0.74505805969E-08  0.93827000000E+00  0.93827000000E+00 0. -1.
     999902    2    1    2    0    0  0.16454713594E-01 -0.12865482920E-01  0.32723386302E-02  0.10227879459E+01  0.10225694088E+01 0.  0.
     999903    2    3    3    0    0  0.94904261604E-01 -0.53639272972E-01  0.68432604499E-01  0.13596062689E+00  0.43798176119E-01 0.  0.
         14    1    1    2    0    0 -0.16454713594E-01  0.12865482920E-01 -0.32723386302E-02  0.21142054071E-01  0.00000000000E+00 0.  1.
     999901    1    3    3    0    0 -0.78449548010E-01  0.40773790052E-01 -0.65160265869E-01  0.88682731903E+00  0.88000000000E+00 0.  1.
        -11    1    4    4    0    0  0.85953254001E-01 -0.31445544176E-01  0.63831161458E-01  0.11158612107E+00  0.51100000000E-03 0.  1.
         11    1    4    4    0    0  0.89510076025E-02 -0.22193728797E-01  0.46014430415E-02  0.24374505822E-01  0.51100000000E-03 0. -1.
</event>
<event>
 8    1  0.2001339E+004  0.1043930E+01  0.7957747E-01            NaN
         13   -1    0    0    0    0  0.00000000000E+00  0.00000000000E+00  0.74505805969E-08  0.10566000000E+00  0.10566000000E+00 0.  1.
     999900   -1    0    0    0    0 -0.00000000000E+00 -0.00000000000E+00 -0.74505805969E-08  0.93827000000E+00  0.93827000000E+00 0. -1.
     999902    2    1    2    0    0 -0.88071220649E-03  0.51058145231E-02  0.12201157296E-01  0.10306743131E+01  0.10305890677E+01 0.  0.
     999903    2    3    3    0    0  0.49730427866E-01  0.11491294900E+00  0.50561111842E-01  0.14157894116E+00  0.42544908594E-01 0.  0.
         14    1    1    2    0    0  0.88071220649E-03 -0.51058145231E-02 -0.12201157296E-01  0.13255686904E-01  0.00000000000E+00 0. -1.
     999901    1    3    3    0    0 -0.50611140073E-01 -0.10980713447E+00 -0.38359954546E-01  0.88909537193E+00  0.88000000000E+00 0.  1.
        -11    1    4    4    0    0  0.26073625546E-01  0.89681481931E-01  0.20204756881E-01  0.95556765705E-01  0.51100000000E-03 0.  1.
         11    1    4    4    0    0  0.23656802320E-01  0.25231467065E-01  0.30356354962E-01  0.46022175457E-01  0.51100000000E-03 0. -1.
</event>
<event>
 8    1  0.2001339E+004  0.1043930E+01  0.7957747E-01            NaN
         13   -1    0    0    0    0  0.00000000000E+00  0.00000000000E+00  0.74505805969E-08  0.10566000000E+00  0.10566000000E+00 0. -1.
     999900   -1    0    0    0    0 -0.00000000000E+00 -0.00000000000E+00 -0.74505805969E-08  0.93827000000E+00  0.93827000000E+00 0. -1.
     999902    2    1    2    0    0 -0.40290289908E-02  0.10072836455E-01  0.88315161271E-02  0.10299410477E+01  0.10298460424E+01 0.  0.
     999903    2    3    3    0    0  0.50110269847E-01 -0.78030965986E-01 -0.92624499125E-01  0.13809651714E+00  0.43491141769E-01 0.  0.
         14    1    1    2    0    0  0.40290289908E-02 -0.10072836455E-01 -0.88315161271E-02  0.13988952282E-01  0.00000000000E+00 0.  1.
     999901    1    3    3    0    0 -0.54139298838E-01  0.88103802441E-01  0.10145601525E+00  0.89184453057E+00  0.88000000000E+00 0.  1.
        -11    1    4    4    0    0  0.42632285861E-01 -0.54441600321E-01 -0.89570702750E-01  0.11315728680E+00  0.51100000000E-03 0. -1.
         11    1    4    4    0    0  0.74779839865E-02 -0.23589365665E-01 -0.30537963748E-02  0.24939230347E-01  0.51100000000E-03 0.  1.
</event>
<event>
 8    1  0.2001339E+004  0.1043930E+01  0.7957747E-01            NaN
         13   -1    0    0    0    0  0.00000000000E+00  0.00000000000E+00  0.74505805969E-08  0.10566000000E+00  0.10566000000E+00 0. -1.
     999900   -1    0    0    0    0 -0.00000000000E+00 -0.00000000000E+00 -0.74505805969E-08  0.93827000000E+00  0.93827000000E+00 0. -1.
     999902    2    1    2    0    0 -0.17881644457E-02  0.17240027038E-01 -0.14396516219E-01  0.10213983391E+01  0.10211497889E+01 0.  0.
     999903    2    3    3    0    0 -0.21215877872E-01  0.36640979384E-02  0.12194793364E+00  0.13058323430E+00  0.41438429937E-01 0.  0.
         14    1    1    2    0    0  0.17881644457E-02 -0.17240027038E-01  0.14396516219E-01  0.22531660915E-01  0.00000000000E+00 0.  1.
     999901    1    3    3    0    0  0.19427713426E-01  0.13575929099E-01 -0.13634444985E+00  0.89081510478E+00  0.88000000000E+00 0. -1.
        -11    1    4    4    0    0 -0.16725470353E-01  0.16601185661E-01  0.10969989105E+00  0.11220368951E+00  0.51100000000E-03 0. -1.
         11    1    4    4    0    0 -0.44904075185E-02 -0.12937087722E-01  0.12248042589E-01  0.18379544790E-01  0.51100000000E-03 0.  1.
</event>
<event>
 8    1  0.2001339E+004  0.1043930E+01  0.7957747E-01            NaN
         13   -1    0    0    0    0  0.00000000000E+00  0.00000000000E+00  0.74505805969E-08  0.10566000000E+00  0.10566000000E+00 0.  1.
     999900   -1    0    0    0    0 -0.00000000000E+00 -0.00000000000E+00 -0.74505805969E-08  0.93827000000E+00  0.93827000000E+00 0.  1.
     999902    2    1    2    0    0  0.63940030585E-02  0.71487165380E-02 -0.99204627057E-02  0.10301313405E+01  0.10300389195E+01 0.  0.
     999903    2    3    3    0    0 -0.22420514970E-01 -0.58585177142E-01  0.11502023535E+00  0.13841311189E+00  0.44650112345E-01 0.  0.
         14    1    1    2    0    0 -0.63940030585E-02 -0.71487165380E-02  0.99204627057E-02  0.13798659484E-01  0.00000000000E+00 0.  1.
     999901    1    3    3    0    0  0.28814518028E-01  0.65733893680E-01 -0.12494069805E+00  0.89171822862E+00  0.88000000000E+00 0.  1.
        -11    1    4    4    0    0 -0.28966805826E-01 -0.24673021600E-01  0.36944452485E-01  0.53037604820E-01  0.51100000000E-03 0.  1.
         11    1    4    4    0    0  0.65462908560E-02 -0.33912155542E-01  0.78075782863E-01  0.85375507074E-01  0.51100000000E-03 0. -1.
</event>
<event>
 8    1  0.2001339E+004  0.1043930E+01  0.7957747E-01            NaN
         13   -1    0    0    0    0  0.00000000000E+00  0.00000000000E+00  0.74505805969E-08  0.10566000000E+00  0.10566000000E+00 0.  1.
     999900   -1    0    0    0    0 -0.00000000000E+00 -0.00000000000E+00 -0.74505805969E-08  0.93827000000E+00  0.93827000000E+00 0.  1.
     999902    2    1    2    0    0 -0.88339097345E-02  0.66521399797E-02 -0.86123528048E-02  0.10299135258E+01  0.10298181437E+01 0.  0.
     999903    2    3    3    0    0 -0.79282278010E-01  0.98351629875E-01 -0.46353474378E-01  0.14154639378E+00  0.43909159629E-01 0.  0.
         14    1    1    2    0    0  0.88339097345E-02 -0.66521399797E-02  0.86123528048E-02  0.14016474177E-01  0.00000000000E+00 0.  1.
     999901    1    3    3    0    0  0.70448368275E-01 -0.91699489896E-01  0.37741121573E-01  0.88836713204E+00  0.88000000000E+00 0.  1.
        -11    1    4    4    0    0 -0.55646825827E-01  0.51428794939E-01 -0.73899977121E-02  0.76133851608E-01  0.51100000000E-03 0.  1.
         11    1    4    4    0    0 -0.23635452183E-01  0.46922834937E-01 -0.38963476665E-01  0.65412542171E-01  0.51100000000E-03 0. -1.
</event>
<event>
 8    1  0.2001339E+004  0.1043930E+01  0.7957747E-01            NaN
         13   -1    0    0    0    0  0.00000000000E+00  0.00000000000E+00  0.74505805969E-08  0.10566000000E+00  0.10566000000E+00 0. -1.
     999900   -1    0    0    0    0 -0.00000000000E+00 -0.00000000000E+00 -0.74505805969E-08  0.93827000000E+00  0.93827000000E+00 0. -1.
     999902    2    1    2    0    0 -0.98213023932E-02 -0.42659901230E-02  0.74419796159E-02  0.10308900724E+01  0.10308075968E+01 0.  0.
     999903    2    3    3    0    0 -0.12014109026E+00  0.48135570639E-01 -0.36032907290E-01  0.14139221122E+00  0.44073486998E-01 0.  0.
         14    1    1    2    0    0  0.98213023932E-02  0.42659901230E-02 -0.74419796159E-02  0.13039927647E-01  0.00000000000E+00 0.  1.
     999901    1    3    3    0    0  0.11031978787E+00 -0.52401560762E-01  0.43474886906E-01  0.88949786113E+00  0.88000000000E+00 0.  1.
        -11    1    4    4    0    0 -0.77519297969E-01  0.37789969246E-01 -0.26690665004E-02  0.86282723475E-01  0.51100000000E-03 0. -1.
         11    1    4    4    0    0 -0.42621792293E-01  0.10345601393E-01 -0.33363840790E-01  0.55109487747E-01  0.51100000000E-03 0.  1.
</event>
<event>
 8    1  0.2001339E+004  0.1043930E+01  0.7957747E-01            NaN
         13   -1    0    0    0    0  0.00000000000E+00  0.00000000000E+00  0.74505805969E-08  0.10566000000E+00  0.10566000000E+00 0.  1.
     999900   -1    0    0    0    0 -0.00000000000E+00 -0.00000000000E+00 -0.74505805969E-08  0.93827000000E+00  0.93827000000E+00 0. -1.
     999902    2    1    2    0    0 -0.34487171082E-03 -0.38395845842E-02 -0.13189904503E-01  0.10301882779E+01  0.10300966231E+01 0.  0.
     999903    2    3    3    0    0 -0.87157813737E-01 -0.99596351138E-01  0.92469944030E-02  0.14046401740E+00  0.46138006265E-01 0.  0.
         14    1    1    2    0    0  0.34487171082E-03  0.38395845842E-02  0.13189904503E-01  0.13741722130E-01  0.00000000000E+00 0.  1.
     999901    1    3    3    0    0  0.86812942026E-01  0.95756766554E-01 -0.22436898906E-01  0.88972426047E+00  0.88000000000E+00 0. -1.
        -11    1    4    4    0    0 -0.68685095726E-01 -0.44011124938E-01  0.47834185705E-02  0.81717585056E-01  0.51100000000E-03 0.  1.
         11    1    4    4    0    0 -0.18472718011E-01 -0.55585226200E-01  0.44635758325E-02  0.58746432340E-01  0.51100000000E-03 0. -1.
</event>
<event>
 8    1  0.2001339E+004  0.1043930E+01  0.7957747E-01            NaN
         13   -1    0    0    0    0  0.00000000000E+00  0.00000000000E+00  0.74505805969E-08  0.10566000000E+00  0.10566000000E+00 0.  1.
     999900   -1    0    0    0    0 -0.00000000000E+00 -0.00000000000E+00 -0.74505805969E-08  0.93827000000E+00  0.93827000000E+00 0. -1.
     999902    2    1    2    0    0 -0.15178186479E-01 -0.34734968469E-02  0.83237271308E-02  0.10262742089E+01  0.10261223246E+01 0.  0.
     999903    2    3    3    0    0 -0.11719181502E+00 -0.36307069413E-01  0.47142845663E-01  0.13892323673E+00  0.45001033426E-01 0.  0.
         14    1    1    2    0    0  0.15178186479E-01  0.34734968469E-02 -0.83237271308E-02  0.17655791075E-01  0.00000000000E+00 0. -1.
     999901    1    3    3    0    0  0.10201362854E+00  0.32833572566E-01 -0.38819118532E-01  0.88735097220E+00  0.88000000000E+00 0.  1.
        -11    1    4    4    0    0 -0.51189868879E-01 -0.15947496399E-02  0.38031608212E-01  0.63793496898E-01  0.51100000000E-03 0.  1.
         11    1    4    4    0    0 -0.66001946138E-01 -0.34712319773E-01  0.91112374509E-02  0.75129739830E-01  0.51100000000E-03 0. -1.
</event>
<event>
 8    1  0.2001339E+004  0.1043930E+01  0.7957747E-01            NaN
         13   -1    0    0    0    0  0.00000000000E+00  0.00000000000E+00  0.74505805969E-08  0.10566000000E+00  0.10566000000E+00 0. -1.
     999900   -1    0    0    0    0 -0.00000000000E+00 -0.00000000000E+00 -0.74505805969E-08  0.93827000000E+00  0.93827000000E+00 0. -1.
     999902    2    1    2    0    0  0.14165992285E-01  0.95149382692E-03 -0.59307320439E-03  0.10297197075E+01  0.10296216507E+01 0.  0.
     999903    2    3    3    0    0  0.11275490944E+00 -0.46583016603E-01  0.54826510853E-01  0.14120936169E+00  0.45282342017E-01 0.  0.
         14    1    1    2    0    0 -0.14165992285E-01 -0.95149382692E-03  0.59307320439E-03  0.14210292528E-01  0.00000000000E+00 0. -1.
     999901    1    3    3    0    0 -0.98588917150E-01  0.47534510430E-01 -0.55419584057E-01  0.88851034578E+00  0.88000000000E+00 0. -1.
        -11    1    4    4    0    0  0.92541858478E-01 -0.36985974752E-01  0.22964737760E-01  0.10227217706E+00  0.51100000000E-03 0. -1.
         11    1    4    4    0    0  0.20213050957E-01 -0.95970418511E-02  0.31861773093E-01  0.38937184630E-01  0.51100000000E-03 0.  1.
</event>
<event>
 8    1  0.2001339E+004  0.1043930E+01  0.7957747E-01            NaN
         13   -1    0    0    0    0  0.00000000000E+00  0.00000000000E+00  0.74505805969E-08  0.10566000000E+00  0.10566000000E+00 0.  1.
     999900   -1    0    0    0    0 -0.00000000000E+00 -0.00000000000E+00 -0.74505805969E-08  0.93827000000E+00  0.93827000000E+00 0. -1.
     999902    2    1    2    0    0  0.49042916628E-02 -0.13895600653E-02  0.13292700675E-01  0.10296934679E+01  0.10295950462E+01 0.  0.
     999903    2    3    3    0    0  0.10686523927E-01 -0.85591910060E-01  0.99896265666E-01  0.14142343725E+00  0.50804998254E-01 0.  0.
         14    1    1    2    0    0 -0.49042916628E-02  0.13895600653E-02 -0.13292700675E-01  0.14236532061E-01  0.00000000000E+00 0. -1.
     999901    1    3    3    0    0 -0.57822322644E-02  0.84202349994E-01 -0.86603564991E-01  0.88827003069E+00  0.88000000000E+00 0. -1.
        -11    1    4    4    0    0  0.19240940649E-01 -0.68971544974E-02  0.15079954394E-01  0.25405721457E-01  0.51100000000E-03 0. -1.
         11    1    4    4    0    0 -0.85544167221E-02 -0.78694755562E-01  0.84816311272E-01  0.11601771579E+00  0.51100000000E-03 0.  1.
</event>
<event>
 8    1  0.2001339E+004  0.1043930E+01  0.7957747E-01            NaN
         13   -1    0    0    0    0  0.00000000000E+00  0.00000000000E+00  0.74505805969E-08  0.10566000000E+00  0.10566000000E+00 0.  1.
     999900   -1    0    0    0    0 -0.00000000000E+00 -0.00000000000E+00 -0.74505805969E-08  0.93827000000E+00  0.93827000000E+00 0.  1.
     999902    2    1    2    0    0  0.31173995888E-03  0.11629714107E-01 -0.80653190348E-02  0.10297738422E+01  0.10296765363E+01 0.  0.
     999903    2    3    3    0    0  0.11957605827E-01  0.10092356437E+00 -0.88036651636E-01  0.14157091950E+00  0.44309401208E-01 0.  0.
         14    1    1    2    0    0 -0.31173995888E-03 -0.11629714107E-01  0.80653190348E-02  0.14156157782E-01  0.00000000000E+00 0.  1.
     999901    1    3    3    0    0 -0.11645865868E-01 -0.89293850259E-01  0.79971332602E-01  0.88820292272E+00  0.88000000000E+00 0.  1.
        -11    1    4    4    0    0 -0.84721735141E-02  0.29483625033E-01 -0.48532195698E-01  0.57416870425E-01  0.51100000000E-03 0.  1.
         11    1    4    4    0    0  0.20429779341E-01  0.71439939333E-01 -0.39504455939E-01  0.84154049076E-01  0.51100000000E-03 0. -1.
</event>
<event>
 8    1  0.2001339E+004  0.1043930E+01  0.7957747E-01            NaN
         13   -1    0    0    0    0  0.00000000000E+00  0.00000000000E+00  0.74505805969E-08  0.10566000000E+00  0.10566000000E+00 0. -1.
     999900   -1    0    0    0    0 -0.00000000000E+00 -0.00000000000E+00 -0.74505805969E-08  0.93827000000E+00  0.93827000000E+00 0. -1.
     999902    2    1    2    0    0 -0.76163472273E-02 -0.58162820838E-02  0.95503687859E-02  0.10304004979E+01  0.10303116707E+01 0.  0.
     999903    2    3    3    0    0  0.10474240703E+00  0.70762552604E-01  0.40640151868E-02  0.13994055629E+00  0.59904360406E-01 0.  0.
         14    1    1    2    0    0  0.76163472273E-02  0.58162820838E-02 -0.95503687859E-02  0.13529502072E-01  0.00000000000E+00 0. -1.
     999901    1    3    3    0    0 -0.11235875425E+00 -0.76578834688E-01  0.54863535991E-02  0.89045994163E+00  0.88000000000E+00 0. -1.
        -11    1    4    4    0    0  0.44246465569E-01  0.40752884114E-01 -0.26596930263E-01  0.65773893752E-01  0.51100000000E-03 0. -1.
         11    1    4    4    0    0  0.60495941457E-01  0.30009668491E-01  0.30660945449E-01  0.74166662541E-01  0.51100000000E-03 0.  1.
</event>
<event>
 8    1  0.2001339E+004  0.1043930E+01  0.7957747E-01            NaN
         13   -1    0    0    0    0  0.00000000000E+00  0.00000000000E+00  0.74505805969E-08  0.10566000000E+00  0.10566000000E+00 0. -1.
     999900   -1    0    0    0    0 -0.00000000000E+00 -0.00000000000E+00 -0.74505805969E-08  0.93827000000E+00  0.93827000000E+00 0.  1.
     999902    2    1    2    0    0 -0.95134453348E-02 -0.10344581343E-01  0.41889968015E-02  0.10292649497E+01  0.10291604700E+01 0.  0.
     999903    2    3    3    0    0  0.12575515210E+00 -0.22528265323E-01 -0.29575374438E-01  0.13820599075E+00  0.43638424442E-01 0.  0.
         14    1    1    2    0    0  0.95134453348E-02  0.10344581343E-01 -0.41889968015E-02  0.14665050273E-01  0.00000000000E+00 0. -1.
     999901    1    3    3    0    0 -0.13526859744E+00  0.12183683980E-01  0.33764371240E-01  0.89105895898E+00  0.88000000000E+00 0.  1.
        -11    1    4    4    0    0  0.24017986191E-01 -0.12996300000E-01 -0.23177094262E-01  0.35821868932E-01  0.51100000000E-03 0. -1.
         11    1    4    4    0    0  0.10173716591E+00 -0.95319653235E-02 -0.63982801761E-02  0.10238412182E+00  0.51100000000E-03 0.  1.
</event>
<event>
 8    1  0.2001339E+004  0.1043930E+01  0.7957747E-01            NaN
         13   -1    0    0    0    0  0.00000000000E+00  0.00000000000E+00  0.74505805969E-08  0.10566000000E+00  0.10566000000E+00 0.  1.
     999900   -1    0    0    0    0 -0.00000000000E+00 -0.00000000000E+00 -0.74505805969E-08  0.93827000000E+00  0.93827000000E+00 0. -1.
     999902    2    1    2    0    0 -0.46012022097E-02 -0.41171035154E-02 -0.12837999234E-01  0.10296844453E+01  0.10295858979E+01 0.  0.
     999903    2    3    3    0    0  0.78345847867E-01  0.91850203271E-01 -0.54199155062E-01  0.13962788405E+00  0.44540609293E-01 0.  0.
         14    1    1    2    0    0  0.46012022097E-02  0.41171035154E-02  0.12837999234E-01  0.14245554657E-01  0.00000000000E+00 0.  1.
     999901    1    3    3    0    0 -0.82947050076E-01 -0.95967306787E-01  0.41361155827E-01  0.89005656129E+00  0.88000000000E+00 0.  1.
        -11    1    4    4    0    0  0.61904966377E-01  0.44991309573E-01 -0.46010059625E-01  0.89295181880E-01  0.51100000000E-03 0. -1.
         11    1    4    4    0    0  0.16440881489E-01  0.46858893698E-01 -0.81890954373E-02  0.50332702171E-01  0.51100000000E-03 0.  1.
</event>
<event>
 8    1  0.2001339E+004  0.1043930E+01  0.7957747E-01            NaN
         13   -1    0    0    0    0  0.00000000000E+00  0.00000000000E+00  0.74505805969E-08  0.10566000000E+00  0.10566000000E+00 0.  1.
     999900   -1    0    0    0    0 -0.00000000000E+00 -0.00000000000E+00 -0.74505805969E-08  0.93827000000E+00  0.93827000000E+00 0.  1.
     999902    2    1    2    0    0 -0.60959762670E-02 -0.58091004160E-02  0.10980760153E-01  0.10300922376E+01  0.10299992885E+01 0.  0.
     999903    2    3    3    0    0  0.13064776525E+00 -0.27904795975E-02  0.73632244566E-02  0.13951879905E+00  0.48318245743E-01 0.  0.
         14    1    1    2    0    0  0.60959762670E-02  0.58091004160E-02 -0.10980760153E-01  0.13837762385E-01  0.00000000000E+00 0.  1.
     999901    1    3    3    0    0 -0.13674374152E+00 -0.30186208185E-02  0.36175356964E-02  0.89057343857E+00  0.88000000000E+00 0. -1.
        -11    1    4    4    0    0  0.98529926908E-01  0.14215645021E-01  0.19014416988E-01  0.10135107416E+00  0.51100000000E-03 0.  1.
         11    1    4    4    0    0  0.32117838344E-01 -0.17006124618E-01 -0.11651192531E-01  0.38167724884E-01  0.51100000000E-03 0. -1.
</event>
<event>
 8    1  0.2001339E+004  0.1043930E+01  0.7957747E-01            NaN
         13   -1    0    0    0    0  0.00000000000E+00  0.00000000000E+00  0.74505805969E-08  0.10566000000E+00  0.10566000000E+00 0. -1.
     999900   -1    0    0    0    0 -0.00000000000E+00 -0.00000000000E+00 -0.74505805969E-08  0.93827000000E+00  0.93827000000E+00 0.  1.
     999902    2    1    2    0    0  0.96307160509E-02  0.68751380451E-02  0.90453920905E-02  0.10290357953E+01  0.10289280008E+01 0.  0.
     999903    2    3    3    0    0 -0.51543648299E-02 -0.95815550212E-01  0.91057664778E-01  0.13915378689E+00  0.43186698777E-01 0.  0.
         14    1    1    2    0    0 -0.96307160509E-02 -0.68751380451E-02 -0.90453920905E-02  0.14894204674E-01  0.00000000000E+00 0. -1.
     999901    1    3    3    0    0  0.14785080881E-01  0.10269068826E+00 -0.82012272687E-01  0.88988200844E+00  0.88000000000E+00 0.  1.
        -11    1    4    4    0    0  0.20557081093E-03 -0.33758828524E-01  0.61607771649E-01  0.70252967277E-01  0.51100000000E-03 0. -1.
         11    1    4    4    0    0 -0.53599356409E-02 -0.62056721688E-01  0.29449893129E-01  0.68900819611E-01  0.51100000000E-03 0.  1.
</event>
<event>
 8    1  0.2001339E+004  0.1043930E+01  0.7957747E-01            NaN
         13   -1    0    0    0    0  0.00000000000E+00  0.00000000000E+00  0.74505805969E-08  0.10566000000E+00  0.10566000000E+00 0.  1.
     999900   -1    0    0    0    0 -0.00000000000E+00 -0.00000000000E+00 -0.74505805969E-08  0.93827000000E+00  0.93827000000E+00 0.  1.
     999902    2    1    2    0    0  0.87090476916E-02 -0.82149714789E-02 -0.66296817340E-02  0.10302447544E+01  0.10301538564E+01 0.  0.
     999903    2    3    3    0    0  0.19072708641E-02 -0.12478508063E+00 -0.48947974510E-01  0.14152337372E+00  0.45365262818E-01 0.  0.
         14    1    1    2    0    0 -0.87090476916E-02  0.82149714789E-02  0.66296817340E-02  0.13685245631E-01  0.00000000000E+00 0.  1.
     999901    1    3    3    0    0  0.68017768275E-02  0.11657010915E+00  0.42318292776E-01  0.88872138065E+00  0.88000000000E+00 0.  1.
        -11    1    4    4    0    0 -0.99885805933E-02 -0.57454527741E-01 -0.15735952507E-02  0.58339796222E-01  0.51100000000E-03 0.  1.
         11    1    4    4    0    0  0.11895851457E-01 -0.67330552891E-01 -0.47374379259E-01  0.83183577500E-01  0.51100000000E-03 0. -1.
</event>
<event>
 8    1  0.2001339E+004  0.1043930E+01  0.7957747E-01            NaN
         13   -1    0    0    0    0  0.00000000000E+00  0.00000000000E+00  0.74505805969E-08  0.10566000000E+00  0.10566000000E+00 0.  1.
     999900   -1    0    0    0    0 -0.00000000000E+00 -0.00000000000E+00 -0.74505805969E-08  0.93827000000E+00  0.93827000000E+00 0.  1.
     999902    2    1    2    0    0  0.14801997307E-01 -0.77376499142E-03  0.76646387611E-02  0.10272433429E+01  0.10271078040E+01 0.  0.
     999903    2    3    3    0    0  0.16545742944E-01 -0.12543927580E+00 -0.27992412362E-01  0.13774013579E+00  0.46690430857E-01 0.  0.
         14    1    1    2    0    0 -0.14801997307E-01  0.77376499142E-03 -0.76646387611E-02  0.16686657061E-01  0.00000000000E+00 0. -1.
     999901    1    3    3    0    0 -0.17437456365E-02  0.12466551081E+00  0.35657051124E-01  0.88950320715E+00  0.88000000000E+00 0.  1.
        -11    1    4    4    0    0 -0.59084979208E-03 -0.32041255398E-01  0.12640556343E-01  0.34453387883E-01  0.51100000000E-03 0. -1.
         11    1    4    4    0    0  0.17136592736E-01 -0.93398020406E-01 -0.40632968705E-01  0.10328674791E+00  0.51100000000E-03 0.  1.
</event>
<event>
 8    1  0.2001339E+004  0.1043930E+01  0.7957747E-01            NaN
         13   -1    0    0    0    0  0.00000000000E+00  0.00000000000E+00  0.74505805969E-08  0.10566000000E+00  0.10566000000E+00 0. -1.
     999900   -1    0    0    0    0 -0.00000000000E+00 -0.00000000000E+00 -0.74505805969E-08  0.93827000000E+00  0.93827000000E+00 0. -1.
     999902    2    1    2    0    0 -0.11542566987E-01 -0.47265445256E-02  0.70323143151E-02  0.10296113227E+01  0.10295117538E+01 0.  0.
     999903    2    3    3    0    0  0.76362977417E-01  0.89313694947E-01  0.59185278158E-01  0.13871801648E+00  0.43949408652E-01 0.  0.
         14    1    1    2    0    0  0.11542566987E-01  0.47265445256E-02 -0.70323143151E-02  0.14318677328E-01  0.00000000000E+00 0. -1.
     999901    1    3    3    0    0 -0.87905544404E-01 -0.94040239473E-01 -0.52152963843E-01  0.89089330619E+00  0.88000000000E+00 0.  1.
        -11    1    4    4    0    0  0.23844224964E-01  0.83976008685E-02  0.27078510056E-01  0.37048260314E-01  0.51100000000E-03 0.  1.
         11    1    4    4    0    0  0.52518752453E-01  0.80916094079E-01  0.32106768102E-01  0.10166975617E+00  0.51100000000E-03 0. -1.
</event>
<event>
 8    1  0.2001339E+004  0.1043930E+01  0.7957747E-01            NaN
         13   -1    0    0    0    0  0.00000000000E+00  0.00000000000E+00  0.74505805969E-08  0.10566000000E+00  0.10566000000E+00 0.  1.
     999900   -1    0    0    0    0 -0.00000000000E+00 -0.00000000000E+00 -0.74505805969E-08  0.93827000000E+00  0.93827000000E+00 0. -1.
     999902    2    1    2    0    0 -0.55252766692E-02  0.12346912155E-02 -0.10359958521E-01  0.10321239894E+01  0.10320564654E+01 0.  0.
     999903    2    3    3    0    0  0.11515668223E+00  0.35389857084E-01  0.56867851468E-01  0.14069239420E+00  0.45242610537E-01 0.  0.
         14    1    1    2    0    0  0.55252766692E-02 -0.12346912155E-02  0.10359958521E-01  0.11806010555E-01  0.00000000000E+00 0.  1.
     999901    1    3    3    0    0 -0.12068195890E+00 -0.34155165868E-01 -0.67227809990E-01  0.89143159524E+00  0.88000000000E+00 0. -1.
        -11    1    4    4    0    0  0.22212697996E-01  0.43341489427E-02 -0.70304565682E-02  0.23703949879E-01  0.51100000000E-03 0.  1.
         11    1    4    4    0    0  0.92943984238E-01  0.31055708141E-01  0.63898308037E-01  0.11698844432E+00  0.51100000000E-03 0. -1.
</event>
<event>
 8    1  0.2001339E+004  0.1043930E+01  0.7957747E-01            NaN
         13   -1    0    0    0    0  0.00000000000E+00  0.00000000000E+00  0.74505805969E-08  0.10566000000E+00  0.10566000000E+00 0. -1.
     999900   -1    0    0    0    0 -0.00000000000E+00 -0.00000000000E+00 -0.74505805969E-08  0.93827000000E+00  0.93827000000E+00 0. -1.
     999902    2    1    2    0    0 -0.68438728391E-02 -0.20360129727E-02 -0.11870762330E-01  0.10300772406E+01  0.10299840886E+01 0.  0.
     999903    2    3    3    0    0 -0.13733463825E-01  0.11716632621E+00  0.56028925362E-01  0.13942184613E+00  0.48812443870E-01 0.  0.
         14    1    1    2    0    0  0.68438728391E-02  0.20360129727E-02  0.11870762330E-01  0.13852759384E-01  0.00000000000E+00 0. -1.
     999901    1    3    3    0    0  0.68895909864E-02 -0.11920233918E+00 -0.67899687692E-01  0.89065539448E+00  0.88000000000E+00 0.  1.
        -11    1    4    4    0    0  0.20358587903E-03  0.11306743770E+00  0.51020701782E-01  0.12404700741E+00  0.51100000000E-03 0. -1.
         11    1    4    4    0    0 -0.13937049705E-01  0.40988885076E-02  0.50082235801E-02  0.15374838727E-01  0.51100000000E-03 0.  1.
</event>
<event>
 8    1  0.2001339E+004  0.1043930E+01  0.7957747E-01            NaN
         13   -1    0    0    0    0  0.00000000000E+00  0.00000000000E+00  0.74505805969E-08  0.10566000000E+00  0.10566000000E+00 0. -1.
     999900   -1    0    0    0    0 -0.00000000000E+00 -0.00000000000E+00 -0.74505805969E-08  0.93827000000E+00  0.93827000000E+00 0. -1.
     999902    2    1    2    0    0 -0.86269523615E-02  0.85563515469E-02 -0.62953851508E-02  0.10302454345E+01  0.10301545457E+01 0.  0.
     999903    2    3    3    0    0 -0.12018617975E+00 -0.57416211855E-01 -0.68075477188E-02  0.14075226271E+00  0.44983525499E-01 0.  0.
         14    1    1    2    0    0  0.86269523615E-02 -0.85563515469E-02  0.62953851508E-02  0.13684565504E-01  0.00000000000E+00 0. -1.
     999901    1    3    3    0    0  0.11155922739E+00  0.65972563402E-01  0.51216256801E-03  0.88949317178E+00  0.88000000000E+00 0. -1.
        -11    1    4    4    0    0 -0.74899546677E-01 -0.11173298147E-01 -0.64481613338E-03  0.75732830350E-01  0.51100000000E-03 0.  1.
         11    1    4    4    0    0 -0.45286633073E-01 -0.46242913708E-01 -0.61627315854E-02  0.65019432364E-01  0.51100000000E-03 0. -1.
</event>
<event>
 8    1  0.2001339E+004  0.1043930E+01  0.7957747E-01            NaN
         13   -1    0    0    0    0  0.00000000000E+00  0.00000000000E+00  0.74505805969E-08  0.10566000000E+00  0.10566000000E+00 0.  1.
     999900   -1    0    0    0    0 -0.00000000000E+00 -0.00000000000E+00 -0.74505805969E-08  0.93827000000E+00  0.93827000000E+00 0.  1.
     999902    2    1    2    0    0 -0.42386353364E-02  0.58873009526E-02 -0.12482145905E-01  0.10294928843E+01  0.10293916498E+01 0.  0.
     999903    2    3    3    0    0  0.11673809311E+00  0.54522776467E-01  0.25728071914E-01  0.13906557173E+00  0.45571745840E-01 0.  0.
         14    1    1    2    0    0  0.42386353364E-02 -0.58873009526E-02  0.12482145905E-01  0.14437115655E-01  0.00000000000E+00 0.  1.
     999901    1    3    3    0    0 -0.12097672845E+00 -0.48635475515E-01 -0.38210217819E-01  0.89042731261E+00  0.88000000000E+00 0.  1.
        -11    1    4    4    0    0  0.45274995469E-01  0.13561532390E-02  0.20831309879E-01  0.49858489333E-01  0.51100000000E-03 0.  1.
         11    1    4    4    0    0  0.71463097644E-01  0.53166623228E-01  0.48967620356E-02  0.89207082398E-01  0.51100000000E-03 0. -1.
</event>
<event>
 8    1  0.2001339E+004  0.1043930E+01  0.7957747E-01            NaN
         13   -1    0    0    0    0  0.00000000000E+00  0.00000000000E+00  0.74505805969E-08  0.10566000000E+00  0.10566000000E+00 0. -1.
     999900   -1    0    0    0    0 -0.00000000000E+00 -0.00000000000E+00 -0.74505805969E-08  0.93827000000E+00  0.93827000000E+00 0.  1.
     999902    2    1    2    0    0  0.11068406341E-01 -0.37680971127E-02  0.12066654618E-03  0.10322371503E+01  0.10321709217E+01 0.  0.
     999903    2    3    3    0    0  0.67984224343E-01  0.99107424699E-01  0.61919735984E-01  0.14226978663E+00  0.44300136505E-01 0.  0.
         14    1    1    2    0    0 -0.11068406341E-01  0.37680971127E-02 -0.12066654618E-03  0.11692849746E-01  0.00000000000E+00 0.  1.
     999901    1    3    3    0    0 -0.56915818002E-01 -0.10287552181E+00 -0.61799069438E-01  0.88996736362E+00  0.88000000000E+00 0.  1.
        -11    1    4    4    0    0  0.34099595656E-02  0.36119207113E-01  0.28243066131E-01  0.45979961420E-01  0.51100000000E-03 0. -1.
         11    1    4    4    0    0  0.64574264777E-01  0.62988217586E-01  0.33676669853E-01  0.96289825213E-01  0.51100000000E-03 0.  1.
</event>
<event>
 8    1  0.2001339E+004  0.1043930E+01  0.7957747E-01            NaN
         13   -1    0    0    0    0  0.00000000000E+00  0.00000000000E+00  0.74505805969E-08  0.10566000000E+00  0.10566000000E+00 0. -1.
     999900   -1    0    0    0    0 -0.00000000000E+00 -0.00000000000E+00 -0.74505805969E-08  0.93827000000E+00  0.93827000000E+00 0.  1.
     999902    2    1    2    0    0 -0.73709478646E-02  0.11557427102E-01 -0.13310313837E-03  0.10302215096E+01  0.10301303005E+01 0.  0.
     999903    2    3    3    0    0  0.93979895986E-01  0.61951882967E-01 -0.70405064791E-01  0.14019356431E+00  0.45023390294E-01 0.  0.
         14    1    1    2    0    0  0.73709478646E-02 -0.11557427102E-01  0.13310313837E-03  0.13708490438E-01  0.00000000000E+00 0.  1.
     999901    1    3    3    0    0 -0.10135084385E+00 -0.50394455865E-01  0.70271961653E-01  0.89002794525E+00  0.88000000000E+00 0. -1.
        -11    1    4    4    0    0  0.49285169489E-01  0.47169276389E-01 -0.19715006628E-01  0.71013457696E-01  0.51100000000E-03 0.  1.
         11    1    4    4    0    0  0.44694726497E-01  0.14782606579E-01 -0.50690058163E-01  0.69180106616E-01  0.51100000000E-03 0. -1.
</event>
<event>
 8    1  0.2001339E+004  0.1043930E+01  0.7957747E-01            NaN
         13   -1    0    0    0    0  0.00000000000E+00  0.00000000000E+00  0.74505805969E-08  0.10566000000E+00  0.10566000000E+00 0.  1.
     999900   -1    0    0    0    0 -0.00000000000E+00 -0.00000000000E+00 -0.74505805969E-08  0.93827000000E+00  0.93827000000E+00 0.  1.
     999902    2    1    2    0    0  0.81717645950E-02 -0.96211728139E-02 -0.48936403467E-02  0.10303914469E+01  0.10303025000E+01 0.  0.
     999903    2    3    3    0    0 -0.60210143961E-01  0.11552447794E+00  0.15014201548E-01  0.13868867052E+00  0.45143711003E-01 0.  0.
         14    1    1    2    0    0 -0.81717645950E-02  0.96211728139E-02  0.48936403467E-02  0.13538553052E-01  0.00000000000E+00 0.  1.
     999901    1    3    3    0    0  0.68381908556E-01 -0.12514565075E+00 -0.19907841895E-01  0.89170277643E+00  0.88000000000E+00 0.  1.
        -11    1    4    4    0    0 -0.28792948241E-01  0.75860774733E-01 -0.10841979962E-01  0.81863915506E-01  0.51100000000E-03 0. -1.
         11    1    4    4    0    0 -0.31417195719E-01  0.39663703208E-01  0.25856181511E-01  0.56824755013E-01  0.51100000000E-03 0.  1.
</event>
<event>
 8    1  0.2001339E+004  0.1043930E+01  0.7957747E-01            NaN
         13   -1    0    0    0    0  0.00000000000E+00  0.00000000000E+00  0.74505805969E-08  0.10566000000E+00  0.10566000000E+00 0. -1.
     999900   -1    0    0    0    0 -0.00000000000E+00 -0.00000000000E+00 -0.74505805969E-08  0.93827000000E+00  0.93827000000E+00 0. -1.
     999902    2    1    2    0    0 -0.92649058512E-02  0.35311803294E-02  0.10795996654E-01  0.10292718535E+01  0.10291674728E+01 0.  0.
     999903    2    3    3    0    0  0.16530339001E-01 -0.39677522733E-01 -0.12297887896E+00  0.13774052819E+00  0.44733550247E-01 0.  0.
         14    1    1    2    0    0  0.92649058512E-02 -0.35311803294E-02 -0.10795996654E-01  0.14658146496E-01  0.00000000000E+00 0.  1.
     999901    1    3    3    0    0 -0.25795244852E-01  0.43208703062E-01  0.13377487561E+00  0.89153132532E+00  0.88000000000E+00 0.  1.
        -11    1    4    4    0    0  0.80060979486E-03 -0.31366895477E-01 -0.11312547072E+00  0.11739742908E+00  0.51100000000E-03 0.  1.
         11    1    4    4    0    0  0.15729729206E-01 -0.83106272557E-02 -0.98534082331E-02  0.20343099102E-01  0.51100000000E-03 0. -1.
</event>
<event>
 8    1  0.2001339E+004  0.1043930E+01  0.7957747E-01            NaN
         13   -1    0    0    0    0  0.00000000000E+00  0.00000000000E+00  0.74505805969E-08  0.10566000000E+00  0.10566000000E+00 0.  1.
     999900   -1    0    0    0    0 -0.00000000000E+00 -0.00000000000E+00 -0.74505805969E-08  0.93827000000E+00  0.93827000000E+00 0.  1.
     999902    2    1    2    0    0 -0.16404114327E-03  0.53811246728E-02 -0.13007387906E-01  0.10298525161E+01  0.10297562961E+01 0.  0.
     999903    2    3    3    0    0 -0.37982348325E-01  0.12342481290E+00 -0.29225024313E-01  0.14101757733E+00  0.48533615630E-01 0.  0.
         14    1    1    2    0    0  0.16404114327E-03 -0.53811246728E-02  0.13007387906E-01  0.14077483880E-01  0.00000000000E+00 0.  1.
     999901    1    3    3    0    0  0.37818307182E-01 -0.11804368823E+00  0.16217636406E-01  0.88883493879E+00  0.88000000000E+00 0. -1.
        -11    1    4    4    0    0 -0.25150213039E-01  0.65801585497E-01 -0.39992959473E-01  0.81006665147E-01  0.51100000000E-03 0. -1.
         11    1    4    4    0    0 -0.12832135286E-01  0.57623227401E-01  0.10767935161E-01  0.60010912181E-01  0.51100000000E-03 0.  1.
</event>
<event>
 8    1  0.2001339E+004  0.1043930E+01  0.7957747E-01            NaN
         13   -1    0    0    0    0  0.00000000000E+00  0.00000000000E+00  0.74505805969E-08  0.10566000000E+00  0.10566000000E+00 0. -1.
     999900   -1    0    0    0    0 -0.00000000000E+00 -0.00000000000E+00 -0.74505805969E-08  0.93827000000E+00  0.93827000000E+00 0.  1.
     999902    2    1    2    0    0 -0.20239512960E-02  0.37967912054E-02 -0.13641878892E-01  0.10296257048E+01  0.10295263372E+01 0.  0.
     999903    2    3    3    0    0  0.11236541437E+00 -0.23173146676E-02  0.66936494158E-01  0.13855040858E+00  0.45654848308E-01 0.  0.
         14    1    1    2    0    0  0.20239512960E-02 -0.37967912054E-02  0.13641878892E-01  0.14304295230E-01  0.00000000000E+00 0. -1.
     999901    1    3    3    0    0 -0.11438936567E+00  0.61141058730E-02 -0.80578373050E-01  0.89107529619E+00  0.88000000000E+00 0.  1.
        -11    1    4    4    0    0  0.79470568670E-01 -0.19460317606E-01  0.58285699407E-01  0.10045774795E+00  0.51100000000E-03 0.  1.
         11    1    4    4    0    0  0.32894845705E-01  0.17143002939E-01  0.86507947505E-02  0.38092660639E-01  0.51100000000E-03 0. -1.
</event>
<event>
 8    1  0.2001339E+004  0.1043930E+01  0.7957747E-01            NaN
         13   -1    0    0    0    0  0.00000000000E+00  0.00000000000E+00  0.74505805969E-08  0.10566000000E+00  0.10566000000E+00 0.  1.
     999900   -1    0    0    0    0 -0.00000000000E+00 -0.00000000000E+00 -0.74505805969E-08  0.93827000000E+00  0.93827000000E+00 0.  1.
     999902    2    1    2    0    0  0.12813157657E-01  0.53202598770E-02 -0.20265305562E-02  0.10299089801E+01  0.10298135356E+01 0.  0.
     999903    2    3    3    0    0  0.19353248431E-02  0.45599583882E-01  0.12426209875E+00  0.13991484014E+00  0.45299291083E-01 0.  0.
         14    1    1    2    0    0 -0.12813157657E-01 -0.53202598770E-02  0.20265305562E-02  0.14021019948E-01  0.00000000000E+00 0.  1.
     999901    1    3    3    0    0  0.10877832814E-01 -0.40279324005E-01 -0.12628862931E+00  0.88999413991E+00  0.88000000000E+00 0.  1.
        -11    1    4    4    0    0  0.18249236647E-01  0.29090025243E-02  0.39645793991E-01  0.43744108587E-01  0.51100000000E-03 0. -1.
         11    1    4    4    0    0 -0.16313911804E-01  0.42690581357E-01  0.84616304758E-01  0.96170731551E-01  0.51100000000E-03 0.  1.
</event>
<event>
 8    1  0.2001339E+004  0.1043930E+01  0.7957747E-01            NaN
         13   -1    0    0    0    0  0.00000000000E+00  0.00000000000E+00  0.74505805969E-08  0.10566000000E+00  0.10566000000E+00 0. -1.
     999900   -1    0    0    0    0 -0.00000000000E+00 -0.00000000000E+00 -0.74505805969E-08  0.93827000000E+00  0.93827000000E+00 0. -1.
     999902    2    1    2    0    0  0.40131887995E-02 -0.10858727763E-01 -0.12478681237E-01  0.10269083920E+01  0.10267673108E+01 0.  0.
     999903    2    3    3    0    0 -0.59153097086E-01 -0.54078110126E-01  0.10179808195E+00  0.13622490542E+00  0.42081403018E-01 0.  0.
         14    1    1    2    0    0 -0.40131887995E-02  0.10858727763E-01  0.12478681237E-01  0.17021607985E-01  0.00000000000E+00 0. -1.
     999901    1    3    3    0    0  0.63166285885E-01  0.43219382363E-01 -0.11427676318E+00  0.89068348659E+00  0.88000000000E+00 0. -1.
        -11    1    4    4    0    0 -0.36153005448E-01 -0.90842277760E-02  0.27311942710E-01  0.46214352022E-01  0.51100000000E-03 0. -1.
         11    1    4    4    0    0 -0.23000091638E-01 -0.44993882350E-01  0.74486139236E-01  0.90010553401E-01  0.51100000000E-03 0.  1.
</event>
<event>
 8    1  0.2001339E+004  0.1043930E+01  0.7957747E-01            NaN
         13   -1    0    0    0    0  0.00000000000E+00  0.00000000000E+00  0.74505805969E-08  0.10566000000E+00  0.10566000000E+00 0. -1.
     999900   -1    0    0    0    0 -0.00000000000E+00 -0.00000000000E+00 -0.74505805969E-08  0.93827000000E+00  0.93827000000E+00 0. -1.
     999902    2    1    2    0    0  0.13995908547E-01 -0.29862988900E-02 -0.19299245233E-01  0.10199036748E+01  0.10196206361E+01 0.  0.
     999903    2    3    3    0    0  0.22453064177E-01 -0.72691905289E-01  0.95151455336E-01  0.12971866148E+00  0.44551975236E-01 0.  0.
         14    1    1    2    0    0 -0.13995908547E-01  0.29862988900E-02  0.19299245233E-01  0.24026325222E-01  0.00000000000E+00 0. -1.
     999901    1    3    3    0    0 -0.84571556304E-02  0.69705606399E-01 -0.11445070057E+00  0.89018501330E+00  0.88000000000E+00 0.  1.
        -11    1    4    4    0    0  0.22588079370E-01 -0.21946052538E-01  0.60685252381E-01  0.68372593407E-01  0.51100000000E-03 0. -1.
         11    1    4    4    0    0 -0.13501519255E-03 -0.50745852752E-01  0.34466202954E-01  0.61346068070E-01  0.51100000000E-03 0.  1.
</event>
<event>
 8    1  0.2001339E+004  0.1043930E+01  0.7957747E-01            NaN
         13   -1    0    0    0    0  0.00000000000E+00  0.00000000000E+00  0.74505805969E-08  0.10566000000E+00  0.10566000000E+00 0.  1.
     999900   -1    0    0    0    0 -0.00000000000E+00 -0.00000000000E+00 -0.74505805969E-08  0.93827000000E+00  0.93827000000E+00 0. -1.
     999902    2    1    2    0    0  0.12260717882E-01  0.32188761278E-02 -0.56108413848E-02  0.10300675360E+01  0.10299742525E+01 0.  0.
     999903    2    3    3    0    0  0.79103087011E-01  0.86268047140E-01 -0.67281817238E-01  0.14149093472E+00  0.42348168147E-01 0.  0.
         14    1    1    2    0    0 -0.12260717882E-01 -0.32188761278E-02  0.56108413848E-02  0.13862463978E-01  0.00000000000E+00 0. -1.
     999901    1    3    3    0    0 -0.66842369129E-01 -0.83049171012E-01  0.61670975853E-01  0.88857660130E+00  0.88000000000E+00 0. -1.
        -11    1    4    4    0    0  0.44881935032E-01  0.64458032965E-01 -0.62984762860E-01  0.10068052234E+00  0.51100000000E-03 0.  1.
         11    1    4    4    0    0  0.34221151979E-01  0.21810014175E-01 -0.42970543786E-02  0.40810412377E-01  0.51100000000E-03 0. -1.
</event>
<event>
 8    1  0.2001339E+004  0.1043930E+01  0.7957747E-01            NaN
         13   -1    0    0    0    0  0.00000000000E+00  0.00000000000E+00  0.74505805969E-08  0.10566000000E+00  0.10566000000E+00 0.  1.
     999900   -1    0    0    0    0 -0.00000000000E+00 -0.00000000000E+00 -0.74505805969E-08  0.93827000000E+00  0.93827000000E+00 0.  1.
     999902    2    1    2    0    0  0.12256915672E-01  0.36078870614E-02  0.38121130314E-02  0.10305965445E+01  0.10305102893E+01 0.  0.
     999903    2    3    3    0    0  0.35413982060E-01  0.40326354970E-01  0.12283310145E+00  0.14152371770E+00  0.45394127697E-01 0.  0.
         14    1    1    2    0    0 -0.12256915672E-01 -0.36078870614E-02 -0.38121130314E-02  0.13333455538E-01  0.00000000000E+00 0.  1.
     999901    1    3    3    0    0 -0.23157066388E-01 -0.36718467908E-01 -0.11902098841E+00  0.88907282677E+00  0.88000000000E+00 0.  1.
        -11    1    4    4    0    0  0.44222748524E-01  0.29219393383E-01  0.76512849528E-01  0.93080082190E-01  0.51100000000E-03 0.  1.
         11    1    4    4    0    0 -0.88087664640E-02  0.11106961586E-01  0.46320251918E-01  0.48443635506E-01  0.51100000000E-03 0. -1.
</event>
<event>
 8    1  0.2001339E+004  0.1043930E+01  0.7957747E-01            NaN
         13   -1    0    0    0    0  0.00000000000E+00  0.00000000000E+00  0.74505805969E-08  0.10566000000E+00  0.10566000000E+00 0.  1.
     999900   -1    0    0    0    0 -0.00000000000E+00 -0.00000000000E+00 -0.74505805969E-08  0.93827000000E+00  0.93827000000E+00 0. -1.
     999902    2    1    2    0    0 -0.23898111894E-02 -0.11701702773E-03  0.14069354088E-01  0.10296586435E+01  0.10295597363E+01 0.  0.
     999903    2    3    3    0    0  0.28125426139E-01  0.12237258825E+00  0.42764106511E-01  0.14018786161E+00  0.45362735642E-01 0.  0.
         14    1    1    2    0    0  0.23898111894E-02  0.11701702773E-03 -0.14069354088E-01  0.14271356451E-01  0.00000000000E+00 0. -1.
     999901    1    3    3    0    0 -0.30515237329E-01 -0.12248960528E+00 -0.28694752424E-01  0.88947078194E+00  0.88000000000E+00 0. -1.
        -11    1    4    4    0    0 -0.32304530395E-02  0.61304885771E-01  0.36091667454E-01  0.71215127795E-01  0.51100000000E-03 0. -1.
         11    1    4    4    0    0  0.31355879179E-01  0.61067702483E-01  0.66724390575E-02  0.68972733812E-01  0.51100000000E-03 0.  1.
</event>
<event>
 8    1  0.2001339E+004  0.1043930E+01  0.7957747E-01            NaN
         13   -1    0    0    0    0  0.00000000000E+00  0.00000000000E+00  0.74505805969E-08  0.10566000000E+00  0.10566000000E+00 0.  1.
     999900   -1    0    0    0    0 -0.00000000000E+00 -0.00000000000E+00 -0.74505805969E-08  0.93827000000E+00  0.93827000000E+00 0. -1.
     999902    2    1    2    0    0  0.45094909628E-02  0.57152145298E-02 -0.11804578468E-01  0.10300610686E+01  0.10299676974E+01 0.  0.
     999903    2    3    3    0    0 -0.29241128843E-01  0.10104669163E+00 -0.83355789964E-01  0.14138409086E+00  0.44449926010E-01 0.  0.
         14    1    1    2    0    0 -0.45094909628E-02 -0.57152145298E-02  0.11804578468E-01  0.13868931418E-01  0.00000000000E+00 0.  1.
     999901    1    3    3    0    0  0.33750619805E-01 -0.95331477103E-01  0.71551211495E-01  0.88867697772E+00  0.88000000000E+00 0.  1.
        -11    1    4    4    0    0  0.90233940018E-02  0.41864280078E-01 -0.23106629071E-01  0.48664329994E-01  0.51100000000E-03 0. -1.
         11    1    4    4    0    0 -0.38264522844E-01  0.59182411554E-01 -0.60249160893E-01  0.92719760867E-01  0.51100000000E-03 0.  1.
</event>
<event>
 8    1  0.2001339E+004  0.1043930E+01  0.7957747E-01            NaN
         13   -1    0    0    0    0  0.00000000000E+00  0.00000000000E+00  0.74505805969E-08  0.10566000000E+00  0.10566000000E+00 0.  1.
     999900   -1    0    0    0    0 -0.00000000000E+00 -0.00000000000E+00 -0.74505805969E-08  0.93827000000E+00  0.93827000000E+00 0.  1.
     999902    2    1    2    0    0 -0.11871543094E-01 -0.53164599296E-02 -0.21798274915E-02  0.10307409921E+01  0.10306566076E+01 0.  0.
     999903    2    3    3    0    0  0.27400237591E-01 -0.83874549093E-01 -0.10029649184E+00  0.14094296672E+00  0.44942414144E-01 0.  0.
         14    1    1    2    0    0  0.11871543094E-01  0.53164599296E-02  0.21798274915E-02  0.13189007905E-01  0.00000000000E+00 0. -1.
     999901    1    3    3    0    0 -0.39271780685E-01  0.78558089164E-01  0.98116664344E-01  0.88979802537E+00  0.88000000000E+00 0. -1.
        -11    1    4    4    0    0 -0.35477444390E-02 -0.40727977631E-01 -0.66297014966E-01  0.77890371465E-01  0.51100000000E-03 0.  1.
         11    1    4    4    0    0  0.30947982030E-01 -0.43146571462E-01 -0.33999476870E-01  0.63052595260E-01  0.51100000000E-03 0. -1.
</event>
<event>
 8    1  0.2001339E+004  0.1043930E+01  0.7957747E-01            NaN
         13   -1    0    0    0    0  0.00000000000E+00  0.00000000000E+00  0.74505805969E-08  0.10566000000E+00  0.10566000000E+00 0.  1.
     999900   -1    0    0    0    0 -0.00000000000E+00 -0.00000000000E+00 -0.74505805969E-08  0.93827000000E+00  0.93827000000E+00 0. -1.
     999902    2    1    2    0    0  0.95901823232E-02 -0.83728728094E-02 -0.46119969341E-02  0.10303894272E+01  0.10303004535E+01 0.  0.
     999903    2    3    3    0    0  0.11057388033E-01 -0.13177008483E+00 -0.19737204014E-01  0.14164998478E+00  0.46792519473E-01 0.  0.
         14    1    1    2    0    0 -0.95901823232E-02  0.83728728094E-02  0.46119969341E-02  0.13540572802E-01  0.00000000000E+00 0.  1.
     999901    1    3    3    0    0 -0.14672057098E-02  0.12339721202E+00  0.15125207080E-01  0.88873944242E+00  0.88000000000E+00 0. -1.
        -11    1    4    4    0    0  0.21403256203E-02 -0.59863096618E-01  0.14311466136E-01  0.61589370142E-01  0.51100000000E-03 0.  1.
         11    1    4    4    0    0  0.89170624126E-02 -0.71906988212E-01 -0.34048670150E-01  0.80060614635E-01  0.51100000000E-03 0. -1.
</event>
<event>
 8    1  0.2001339E+004  0.1043930E+01  0.7957747E-01            NaN
         13   -1    0    0    0    0  0.00000000000E+00  0.00000000000E+00  0.74505805969E-08  0.10566000000E+00  0.10566000000E+00 0. -1.
     999900   -1    0    0    0    0 -0.00000000000E+00 -0.00000000000E+00 -0.74505805969E-08  0.93827000000E+00  0.93827000000E+00 0. -1.
     999902    2    1    2    0    0  0.40825961239E-02  0.13835984086E-01  0.31881383109E-02  0.10291561626E+01  0.10290501157E+01 0.  0.
     999903    2    3    3    0    0 -0.50949651879E-01 -0.46981340918E-01 -0.11038806093E+00  0.13807432099E+00  0.45561833819E-01 0.  0.
         14    1    1    2    0    0 -0.40825961239E-02 -0.13835984086E-01 -0.31881383109E-02  0.14773837438E-01  0.00000000000E+00 0.  1.
     999901    1    3    3    0    0  0.55032248003E-01  0.60817325004E-01  0.11357619924E+00  0.89108184157E+00  0.88000000000E+00 0.  1.
        -11    1    4    4    0    0 -0.33621965268E-01 -0.15587350419E-01 -0.23014076458E-01  0.43626951278E-01  0.51100000000E-03 0. -1.
         11    1    4    4    0    0 -0.17327686610E-01 -0.31393990499E-01 -0.87373984471E-01  0.94447369715E-01  0.51100000000E-03 0.  1.
</event>
<event>
 8    1  0.2001339E+004  0.1043930E+01  0.7957747E-01            NaN
         13   -1    0    0    0    0  0.00000000000E+00  0.00000000000E+00  0.74505805969E-08  0.10566000000E+00  0.10566000000E+00 0.  1.
     999900   -1    0    0    0    0 -0.00000000000E+00 -0.00000000000E+00 -0.74505805969E-08  0.93827000000E+00  0.93827000000E+00 0. -1.
     999902    2    1    2    0    0  0.70564553563E-02 -0.13537665806E-01  0.42063409794E-02  0.10280947462E+01  0.10279727876E+01 0.  0.
     999903    2    3    3    0    0 -0.98482913411E-01  0.75905077309E-01  0.34854677998E-01  0.13675985786E+00  0.45032711979E-01 0.  0.
         14    1    1    2    0    0 -0.70564553563E-02  0.13537665806E-01 -0.42063409794E-02  0.15835253775E-01  0.00000000000E+00 0. -1.
     999901    1    3    3    0    0  0.10553936877E+00 -0.89442743116E-01 -0.30648337019E-01  0.89133488837E+00  0.88000000000E+00 0. -1.
        -11    1    4    4    0    0 -0.84693861695E-01  0.55226742119E-01  0.99950838378E-02  0.10160317946E+00  0.51100000000E-03 0.  1.
         11    1    4    4    0    0 -0.13789051716E-01  0.20678335191E-01  0.24859594160E-01  0.35156678403E-01  0.51100000000E-03 0. -1.
</event>
<event>
 8    1  0.2001339E+004  0.1043930E+01  0.7957747E-01            NaN
         13   -1    0    0    0    0  0.00000000000E+00  0.00000000000E+00  0.74505805969E-08  0.10566000000E+00  0.10566000000E+00 0.  1.
     999900   -1    0    0    0    0 -0.00000000000E+00 -0.00000000000E+00 -0.74505805969E-08  0.93827000000E+00  0.93827000000E+00 0. -1.
     999902    2    1    2    0    0 -0.39709194419E-02 -0.11974504972E-01 -0.51126599513E-02  0.10303176430E+01  0.10302277172E+01 0.  0.
     999903    2    3    3    0    0 -0.21535057343E-01 -0.12185324923E+00 -0.51974093344E-01  0.14207340223E+00  0.46600130881E-01 0.  0.
         14    1    1    2    0    0  0.39709194419E-02  0.11974504972E-01  0.51126599513E-02  0.13612356971E-01  0.00000000000E+00 0.  1.
     999901    1    3    3    0    0  0.17564137901E-01  0.10987874426E+00  0.46861433393E-01  0.88824424080E+00  0.88000000000E+00 0.  1.
        -11    1    4    4    0    0 -0.26681369778E-01 -0.11578670359E+00 -0.35893292666E-01  0.12412512155E+00  0.51100000000E-03 0. -1.
         11    1    4    4    0    0  0.51463124350E-02 -0.60665456449E-02 -0.16080800678E-01  0.17948280675E-01  0.51100000000E-03 0.  1.
</event>
<event>
 8    1  0.2001339E+004  0.1043930E+01  0.7957747E-01            NaN
         13   -1    0    0    0    0  0.00000000000E+00  0.00000000000E+00  0.74505805969E-08  0.10566000000E+00  0.10566000000E+00 0. -1.
     999900   -1    0    0    0    0 -0.00000000000E+00 -0.00000000000E+00 -0.74505805969E-08  0.93827000000E+00  0.93827000000E+00 0. -1.
     999902    2    1    2    0    0  0.92200959742E-02  0.61849656022E-02 -0.81303710590E-02  0.10301689353E+01  0.10300770206E+01 0.  0.
     999903    2    3    3    0    0  0.95702186921E-01  0.89257985713E-01  0.28810166677E-01  0.14126799474E+00  0.44729453819E-01 0.  0.
         14    1    1    2    0    0 -0.92200959742E-02 -0.61849656022E-02  0.81303710590E-02  0.13761064742E-01  0.00000000000E+00 0. -1.
     999901    1    3    3    0    0 -0.86482090947E-01 -0.83073020111E-01 -0.36940537736E-01  0.88890094052E+00  0.88000000000E+00 0. -1.
        -11    1    4    4    0    0  0.56120060988E-02  0.16615777895E-01  0.17835630955E-01  0.25018983594E-01  0.51100000000E-03 0. -1.
         11    1    4    4    0    0  0.90090180823E-01  0.72642207818E-01  0.10974535723E-01  0.11624901115E+00  0.51100000000E-03 0.  1.
</event>
<event>
 8    1  0.2001339E+004  0.1043930E+01  0.7957747E-01            NaN
         13   -1    0    0    0    0  0.00000000000E+00  0.00000000000E+00  0.74505805969E-08  0.10566000000E+00  0.10566000000E+00 0. -1.
     999900   -1    0    0    0    0 -0.00000000000E+00 -0.00000000000E+00 -0.74505805969E-08  0.93827000000E+00  0.93827000000E+00 0.  1.
     999902    2    1    2    0    0 -0.30442885062E-02 -0.91055928081E-02  0.97487624977E-02  0.10302472414E+01  0.10301563767E+01 0.  0.
     999903    2    3    3    0    0  0.75692092540E-01  0.92543595945E-01  0.54885928096E-01  0.13975898263E+00  0.47185782809E-01 0.  0.
         14    1    1    2    0    0  0.30442885062E-02  0.91055928081E-02 -0.97487624977E-02  0.13682758608E-01  0.00000000000E+00 0. -1.
     999901    1    3    3    0    0 -0.78736381046E-01 -0.10164918875E+00 -0.45137165599E-01  0.89048825876E+00  0.88000000000E+00 0.  1.
        -11    1    4    4    0    0  0.42811090801E-02  0.31846172122E-01  0.21275007103E-02  0.32207048204E-01  0.51100000000E-03 0. -1.
         11    1    4    4    0    0  0.71410983460E-01  0.60697423823E-01  0.52758427386E-01  0.10755193443E+00  0.51100000000E-03 0.  1.
</event>
<event>
 8    1  0.2001339E+004  0.1043930E+01  0.7957747E-01            NaN
         13   -1    0    0    0    0  0.00000000000E+00  0.00000000000E+00  0.74505805969E-08  0.10566000000E+00  0.10566000000E+00 0.  1.
     999900   -1    0    0    0    0 -0.00000000000E+00 -0.00000000000E+00 -0.74505805969E-08  0.93827000000E+00  0.93827000000E+00 0.  1.
     999902    2    1    2    0    0  0.27155135125E-02 -0.98354839865E-02 -0.10555252068E-01  0.10292492607E+01  0.10291445558E+01 0.  0.
     999903    2    3    3    0    0  0.12845839918E+00 -0.25957285780E-01  0.16300584455E-01  0.13975928230E+00  0.45734089394E-01 0.  0.
         14    1    1    2    0    0 -0.27155135125E-02  0.98354839865E-02  0.10555252068E-01  0.14680739256E-01  0.00000000000E+00 0.  1.
     999901    1    3    3    0    0 -0.12574288566E+00  0.16121801793E-01 -0.26855836523E-01  0.88948997844E+00  0.88000000000E+00 0. -1.
        -11    1    4    4    0    0  0.30476935831E-01 -0.26945051241E-01  0.19903072206E-02  0.40732073945E-01  0.51100000000E-03 0. -1.
         11    1    4    4    0    0  0.97981463346E-01  0.98776546164E-03  0.14310277235E-01  0.99027208360E-01  0.51100000000E-03 0.  1.
</event>
<event>
 8    1  0.2001339E+004  0.1043930E+01  0.7957747E-01            NaN
         13   -1    0    0    0    0  0.00000000000E+00  0.00000000000E+00  0.74505805969E-08  0.10566000000E+00  0.10566000000E+00 0. -1.
     999900   -1    0    0    0    0 -0.00000000000E+00 -0.00000000000E+00 -0.74505805969E-08  0.93827000000E+00  0.93827000000E+00 0.  1.
     999902    2    1    2    0    0  0.31667377034E-02  0.13114456961E-01 -0.60153742391E-02  0.10291583401E+01  0.10290523247E+01 0.  0.
     999903    2    3    3    0    0 -0.68195862884E-01 -0.10207440334E+00 -0.43598673877E-01  0.13799415842E+00  0.45515753997E-01 0.  0.
         14    1    1    2    0    0 -0.31667377034E-02 -0.13114456961E-01  0.60153742391E-02  0.14771659904E-01  0.00000000000E+00 0. -1.
     999901    1    3    3    0    0  0.71362600587E-01  0.11518886030E+00  0.37583299638E-01  0.89116418168E+00  0.88000000000E+00 0.  1.
        -11    1    4    4    0    0 -0.17071757735E-01 -0.63572068205E-01 -0.13190392042E-01  0.67134941209E-01  0.51100000000E-03 0. -1.
         11    1    4    4    0    0 -0.51124105148E-01 -0.38502335133E-01 -0.30408281835E-01  0.70859217206E-01  0.51100000000E-03 0.  1.
</event>
<event>
 8    1  0.2001339E+004  0.1043930E+01  0.7957747E-01            NaN
         13   -1    0    0    0    0  0.00000000000E+00  0.00000000000E+00  0.74505805969E-08  0.10566000000E+00  0.10566000000E+00 0. -1.
     999900   -1    0    0    0    0 -0.00000000000E+00 -0.00000000000E+00 -0.74505805969E-08  0.93827000000E+00  0.93827000000E+00 0.  1.
     999902    2    1    2    0    0  0.60688738782E-02  0.11391689428E-01 -0.56084926455E-02  0.10298567272E+01  0.10297605651E+01 0.  0.
     999903    2    3    3    0    0  0.20459920961E-01  0.11765034660E+00  0.59811350796E-01  0.14093729305E+00  0.45007893386E-01 0.  0.
         14    1    1    2    0    0 -0.60688738782E-02 -0.11391689428E-01  0.56084926455E-02  0.14073272822E-01  0.00000000000E+00 0.  1.
     999901    1    3    3    0    0 -0.14391047083E-01 -0.10625865717E+00 -0.65419843442E-01  0.88891943413E+00  0.88000000000E+00 0.  1.
        -11    1    4    4    0    0  0.13215412542E-02  0.10191242835E+00  0.41159296854E-01  0.10991923563E+00  0.51100000000E-03 0. -1.
         11    1    4    4    0    0  0.19138379706E-01  0.15737918249E-01  0.18652053942E-01  0.31018057416E-01  0.51100000000E-03 0.  1.
</event>
<event>
 8    1  0.2173542E+004  0.1043930E+01  0.7957747E-01            NaN
         13   -1    0    0    0    0  0.00000000000E+00  0.00000000000E+00  0.74505805969E-08  0.10566000000E+00  0.10566000000E+00 0. -1.
     999900   -1    0    0    0    0 -0.00000000000E+00 -0.00000000000E+00 -0.74505805969E-08  0.93827000000E+00  0.93827000000E+00 0. -1.
     999902    2    1    2    0    0  0.13057569549E-01 -0.34873471066E-02  0.33495404695E-02  0.10300058794E+01  0.10299117586E+01 0.  0.
     999903    2    3    3    0    0 -0.59338599180E-01  0.11064943352E+00 -0.38183414277E-01  0.13871838582E+00  0.44949426548E-01 0.  0.
         14    1    1    2    0    0 -0.13057569549E-01  0.34873471066E-02 -0.33495404695E-02  0.13924120573E-01  0.00000000000E+00 0.  1.
     999901    1    3    3    0    0  0.72396168729E-01 -0.11413678063E+00  0.41532954746E-01  0.89128749361E+00  0.88000000000E+00 0.  1.
        -11    1    4    4    0    0 -0.27123700468E-01  0.14864382029E-01 -0.17581867301E-01  0.35581289451E-01  0.51100000000E-03 0.  1.
         11    1    4    4    0    0 -0.32214898712E-01  0.95785051490E-01 -0.20601546976E-01  0.10313709637E+00  0.51100000000E-03 0. -1.
</event>
<event>
 8    1  0.2001339E+004  0.1043930E+01  0.7957747E-01            NaN
         13   -1    0    0    0    0  0.00000000000E+00  0.00000000000E+00  0.74505805969E-08  0.10566000000E+00  0.10566000000E+00 0.  1.
     999900   -1    0    0    0    0 -0.00000000000E+00 -0.00000000000E+00 -0.74505805969E-08  0.93827000000E+00  0.93827000000E+00 0. -1.
     999902    2    1    2    0    0 -0.99145314223E-02  0.58645186169E-02 -0.71117997974E-02  0.10303923411E+01  0.10303034060E+01 0.  0.
     999903    2    3    3    0    0 -0.33074158949E-01 -0.10984708242E+00 -0.66415822139E-01  0.14053701015E+00  0.46683062085E-01 0.  0.
         14    1    1    2    0    0  0.99145314223E-02 -0.58645186169E-02  0.71117997974E-02  0.13537658892E-01  0.00000000000E+00 0.  1.
     999901    1    3    3    0    0  0.23159627526E-01  0.11571160104E+00  0.59304022341E-01  0.88985533095E+00  0.88000000000E+00 0.  1.
        -11    1    4    4    0    0  0.48011543032E-02 -0.62934336000E-01 -0.39863963901E-01  0.74653723747E-01  0.51100000000E-03 0.  1.
         11    1    4    4    0    0 -0.37875313252E-01 -0.46912746422E-01 -0.26551858238E-01  0.65883286406E-01  0.51100000000E-03 0. -1.
</event>
<event>
 8    1  0.2001339E+004  0.1043930E+01  0.7957747E-01            NaN
         13   -1    0    0    0    0  0.00000000000E+00  0.00000000000E+00  0.74505805969E-08  0.10566000000E+00  0.10566000000E+00 0.  1.
     999900   -1    0    0    0    0 -0.00000000000E+00 -0.00000000000E+00 -0.74505805969E-08  0.93827000000E+00  0.93827000000E+00 0.  1.
     999902    2    1    2    0    0  0.42449574395E-02  0.12045525306E-01  0.68087679970E-02  0.10294567949E+01  0.10293550500E+01 0.  0.
     999903    2    3    3    0    0 -0.50520162182E-02 -0.79221537232E-02  0.13257254214E+00  0.14024272125E+00  0.44768946259E-01 0.  0.
         14    1    1    2    0    0 -0.42449574395E-02 -0.12045525306E-01 -0.68087679970E-02  0.14473205077E-01  0.00000000000E+00 0.  1.
     999901    1    3    3    0    0  0.92969736577E-02  0.19967679029E-01 -0.12576377414E+00  0.88921407367E+00  0.88000000000E+00 0.  1.
        -11    1    4    4    0    0 -0.21942715631E-01  0.10844218168E-02  0.39317945985E-01  0.45042432632E-01  0.51100000000E-03 0.  1.
         11    1    4    4    0    0  0.16890699413E-01 -0.90065755400E-02  0.93254596150E-01  0.95200288622E-01  0.51100000000E-03 0. -1.
</event>
<event>
 8    1  0.2001339E+004  0.1043930E+01  0.7957747E-01            NaN
         13   -1    0    0    0    0  0.00000000000E+00  0.00000000000E+00  0.74505805969E-08  0.10566000000E+00  0.10566000000E+00 0. -1.
     999900   -1    0    0    0    0 -0.00000000000E+00 -0.00000000000E+00 -0.74505805969E-08  0.93827000000E+00  0.93827000000E+00 0. -1.
     999902    2    1    2    0    0  0.70438982228E-02 -0.11267566000E-01  0.42524098516E-02  0.10299780275E+01  0.10298835272E+01 0.  0.
     999903    2    3    3    0    0 -0.25927626604E-01 -0.79082668219E-01  0.10403107305E+00  0.14113507676E+00  0.46586859710E-01 0.  0.
         14    1    1    2    0    0 -0.70438982228E-02  0.11267566000E-01 -0.42524098516E-02  0.13951972451E-01  0.00000000000E+00 0.  1.
     999901    1    3    3    0    0  0.32971524826E-01  0.67815102219E-01 -0.99778663200E-01  0.88884295079E+00  0.88000000000E+00 0.  1.
        -11    1    4    4    0    0 -0.27506172774E-01 -0.35639276804E-01  0.26488045171E-01  0.52236244599E-01  0.51100000000E-03 0. -1.
         11    1    4    4    0    0  0.15785461704E-02 -0.43443391415E-01  0.77543027880E-01  0.88898832160E-01  0.51100000000E-03 0.  1.
</event>
<event>
 8    1  0.2001339E+004  0.1043930E+01  0.7957747E-01            NaN
         13   -1    0    0    0    0  0.00000000000E+00  0.00000000000E+00  0.74505805969E-08  0.10566000000E+00  0.10566000000E+00 0.  1.
     999900   -1    0    0    0    0 -0.00000000000E+00 -0.00000000000E+00 -0.74505805969E-08  0.93827000000E+00  0.93827000000E+00 0.  1.
     999902    2    1    2    0    0 -0.10046128773E-01 -0.21495141806E-03 -0.97081838159E-02  0.10299578942E+01  0.10298631191E+01 0.  0.
     999903    2    3    3    0    0  0.83945566602E-01 -0.84977899602E-01 -0.56751058536E-01  0.13965893978E+00  0.44898053882E-01 0.  0.
         14    1    1    2    0    0  0.10046128773E-01  0.21495141806E-03  0.97081838159E-02  0.13972105798E-01  0.00000000000E+00 0.  1.
     999901    1    3    3    0    0 -0.93991695375E-01  0.84762948184E-01  0.47042874720E-01  0.89029895442E+00  0.88000000000E+00 0.  1.
        -11    1    4    4    0    0  0.79401987739E-01 -0.54729810583E-01 -0.37260257508E-01  0.10338576176E+00  0.51100000000E-03 0. -1.
         11    1    4    4    0    0  0.45435788632E-02 -0.30248089019E-01 -0.19490801028E-01  0.36273178023E-01  0.51100000000E-03 0.  1.
</event>
<event>
 8    1  0.2001339E+004  0.1043930E+01  0.7957747E-01            NaN
         13   -1    0    0    0    0  0.00000000000E+00  0.00000000000E+00  0.74505805969E-08  0.10566000000E+00  0.10566000000E+00 0. -1.
     999900   -1    0    0    0    0 -0.00000000000E+00 -0.00000000000E+00 -0.74505805969E-08  0.93827000000E+00  0.93827000000E+00 0.  1.
     999902    2    1    2    0    0 -0.12064215724E-01  0.10276027215E-02  0.42630989487E-02  0.10310935176E+01  0.10310136113E+01 0.  0.
     999903    2    3    3    0    0  0.73647821074E-01  0.64710044046E-01  0.90091704363E-01  0.14049340749E+00  0.44838499112E-01 0.  0.
         14    1    1    2    0    0  0.12064215724E-01 -0.10276027215E-02 -0.42630989487E-02  0.12836482424E-01  0.00000000000E+00 0. -1.
     999901    1    3    3    0    0 -0.85712036798E-01 -0.63682441324E-01 -0.85828605414E-01  0.89060011009E+00  0.88000000000E+00 0.  1.
        -11    1    4    4    0    0  0.65910512931E-01  0.58576425799E-01  0.54748306604E-01  0.10379321544E+00  0.51100000000E-03 0.  1.
         11    1    4    4    0    0  0.77373081429E-02  0.61336182461E-02  0.35343397759E-01  0.36700192046E-01  0.51100000000E-03 0. -1.
</event>
<event>
 8    1  0.2001339E+004  0.1043930E+01  0.7957747E-01            NaN
         13   -1    0    0    0    0  0.00000000000E+00  0.00000000000E+00  0.74505805969E-08  0.10566000000E+00  0.10566000000E+00 0.  1.
     999900   -1    0    0    0    0 -0.00000000000E+00 -0.00000000000E+00 -0.74505805969E-08  0.93827000000E+00  0.93827000000E+00 0. -1.
     999902    2    1    2    0    0  0.77382682192E-02  0.75880686579E-02 -0.82145887424E-02  0.10303307703E+01  0.10302410189E+01 0.  0.
     999903    2    3    3    0    0 -0.32523229502E-01 -0.62329839888E-01 -0.11358098691E+00  0.14038044582E+00  0.43165490659E-01 0.  0.
         14    1    1    2    0    0 -0.77382682192E-02 -0.75880686579E-02  0.82145887424E-02  0.13599229728E-01  0.00000000000E+00 0.  1.
     999901    1    3    3    0    0  0.40261497721E-01  0.69917908546E-01  0.10536639816E+00  0.88995032445E+00  0.88000000000E+00 0.  1.
        -11    1    4    4    0    0 -0.73091227708E-02 -0.30156194696E-01 -0.85033526604E-01  0.90519506858E-01  0.51100000000E-03 0.  1.
         11    1    4    4    0    0 -0.25214106731E-01 -0.32173645192E-01 -0.28547460302E-01  0.49860938959E-01  0.51100000000E-03 0. -1.
</event>
<event>
 8    1  0.2001339E+004  0.1043930E+01  0.7957747E-01            NaN
         13   -1    0    0    0    0  0.00000000000E+00  0.00000000000E+00  0.74505805969E-08  0.10566000000E+00  0.10566000000E+00 0. -1.
     999900   -1    0    0    0    0 -0.00000000000E+00 -0.00000000000E+00 -0.74505805969E-08  0.93827000000E+00  0.93827000000E+00 0.  1.
     999902    2    1    2    0    0  0.12124453242E-01 -0.79377960081E-02  0.22350945860E-02  0.10292668960E+01  0.10291624442E+01 0.  0.
     999903    2    3    3    0    0 -0.11122649242E+00 -0.30172626665E-01  0.61070317121E-01  0.13844063519E+00  0.46416654588E-01 0.  0.
         14    1    1    2    0    0 -0.12124453242E-01  0.79377960081E-02 -0.22350945860E-02  0.14663104026E-01  0.00000000000E+00 0.  1.
     999901    1    3    3    0    0  0.12335094566E+00  0.22234830657E-01 -0.58835222535E-01  0.89082626078E+00  0.88000000000E+00 0.  1.
        -11    1    4    4    0    0 -0.78099976632E-01 -0.35556525163E-01  0.25475407158E-01  0.89516089741E-01  0.51100000000E-03 0. -1.
         11    1    4    4    0    0 -0.33126515786E-01  0.53838984982E-02  0.35594909963E-01  0.48924545450E-01  0.51100000000E-03 0.  1.
</event>
<event>
 8    1  0.2001339E+004  0.1043930E+01  0.7957747E-01            NaN
         13   -1    0    0    0    0  0.00000000000E+00  0.00000000000E+00  0.74505805969E-08  0.10566000000E+00  0.10566000000E+00 0. -1.
     999900   -1    0    0    0    0 -0.00000000000E+00 -0.00000000000E+00 -0.74505805969E-08  0.93827000000E+00  0.93827000000E+00 0.  1.
     999902    2    1    2    0    0 -0.15579861119E-02  0.15701351570E-02 -0.13738346974E-01  0.10300147270E+01  0.10299207266E+01 0.  0.
     999903    2    3    3    0    0  0.12334671536E-01 -0.12817212105E+00 -0.36018342923E-01  0.14011447573E+00  0.41886854101E-01 0.  0.
         14    1    1    2    0    0  0.15579861119E-02 -0.15701351570E-02  0.13738346974E-01  0.13915273002E-01  0.00000000000E+00 0. -1.
     999901    1    3    3    0    0 -0.13892657648E-01  0.12974225621E+00  0.22279995949E-01  0.88990025127E+00  0.88000000000E+00 0. -1.
        -11    1    4    4    0    0  0.14869844963E-01 -0.26122201228E-01 -0.21602213943E-01  0.37018893209E-01  0.51100000000E-03 0. -1.
         11    1    4    4    0    0 -0.25351734269E-02 -0.10204991982E+00 -0.14416128980E-01  0.10309558252E+00  0.51100000000E-03 0.  1.
</event>
<event>
 7    1  0.2099907E+004  0.1043930E+01  0.7957747E-01            NaN
         13   -1    0    0    0    0  0.00000000000E+00  0.00000000000E+00  0.74505805969E-08  0.10566000000E+00  0.10566000000E+00 0.  1.
     999900   -1    0    0    0    0 -0.00000000000E+00 -0.00000000000E+00 -0.74505805969E-08  0.93827000000E+00  0.93827000000E+00 0.  1.
     999903    2    1    2    0    0 -0.61612202643E-01 -0.71669719203E-01 -0.19227855704E-01  0.10658441386E+00  0.45364244496E-01 0.  0.
         14    1    1    2    0    0 -0.20035324711E-01  0.39775220509E-01  0.28622460850E-01  0.52940793987E-01  0.00000000000E+00 0.  1.
     999901    1    1    2    0    0  0.81647527354E-01  0.31894498694E-01 -0.93946051464E-02  0.88440479215E+00  0.88000000000E+00 0. -1.
        -11    1    3    3    0    0 -0.19024432856E-01  0.25505198692E-03 -0.12401855560E-01  0.22716981299E-01  0.51100000000E-03 0.  1.
         11    1    3    3    0    0 -0.42587769787E-01 -0.71924771190E-01 -0.68260001438E-02  0.83867432565E-01  0.51100000000E-03 0. -1.
</event>
<event>
 8    1  0.2001339E+004  0.1043930E+01  0.7957747E-01            NaN
         13   -1    0    0    0    0  0.00000000000E+00  0.00000000000E+00  0.74505805969E-08  0.10566000000E+00  0.10566000000E+00 0.  1.
     999900   -1    0    0    0    0 -0.00000000000E+00 -0.00000000000E+00 -0.74505805969E-08  0.93827000000E+00  0.93827000000E+00 0.  1.
     999902    2    1    2    0    0 -0.31234418289E-02  0.12585010805E-01 -0.35179844380E-02  0.10304944278E+01  0.10304068377E+01 0.  0.
     999903    2    3    3    0    0  0.84806270378E-01 -0.91755628336E-01  0.40797131183E-01  0.13887655408E+00  0.44845206362E-01 0.  0.
         14    1    1    2    0    0  0.31234418289E-02 -0.12585010805E-01  0.35179844380E-02  0.13435572199E-01  0.00000000000E+00 0. -1.
     999901    1    3    3    0    0 -0.87929712207E-01  0.10434063914E+00 -0.44315115621E-01  0.89161787372E+00  0.88000000000E+00 0.  1.
        -11    1    4    4    0    0  0.54880841861E-01 -0.86111975186E-01  0.28378310671E-01  0.10598475698E+00  0.51100000000E-03 0.  1.
         11    1    4    4    0    0  0.29925428517E-01 -0.56436531500E-02  0.12418820512E-01  0.32891797103E-01  0.51100000000E-03 0. -1.
</event>
<event>
 8    1  0.2001339E+004  0.1043930E+01  0.7957747E-01            NaN
         13   -1    0    0    0    0  0.00000000000E+00  0.00000000000E+00  0.74505805969E-08  0.10566000000E+00  0.10566000000E+00 0. -1.
     999900   -1    0    0    0    0 -0.00000000000E+00 -0.00000000000E+00 -0.74505805969E-08  0.93827000000E+00  0.93827000000E+00 0.  1.
     999902    2    1    2    0    0 -0.97815742711E-02  0.87550867598E-02  0.62680269334E-02  0.10293828731E+01  0.10292800788E+01 0.  0.
     999903    2    3    3    0    0  0.31542732283E-01  0.98884477358E-02  0.12853582980E+00  0.13996823502E+00  0.44462590022E-01 0.  0.
         14    1    1    2    0    0  0.97815742711E-02 -0.87550867598E-02 -0.62680269334E-02  0.14547126900E-01  0.00000000000E+00 0. -1.
     999901    1    3    3    0    0 -0.41324306554E-01 -0.11333609760E-02 -0.12226780287E+00  0.88941463808E+00  0.88000000000E+00 0.  1.
        -11    1    4    4    0    0 -0.75969307572E-02 -0.60436679939E-02  0.48451747258E-01  0.49417327054E-01  0.51100000000E-03 0. -1.
         11    1    4    4    0    0  0.39139663040E-01  0.15932115730E-01  0.80084082547E-01  0.90550907963E-01  0.51100000000E-03 0.  1.
</event>
<event>
 7    1  0.2001339E+004  0.1043930E+01  0.7957747E-01            NaN
         13   -1    0    0    0    0  0.00000000000E+00  0.00000000000E+00  0.74505805969E-08  0.10566000000E+00  0.10566000000E+00 0.  1.
     999900   -1    0    0    0    0 -0.00000000000E+00 -0.00000000000E+00 -0.74505805969E-08  0.93827000000E+00  0.93827000000E+00 0. -1.
     999903    2    1    2    0    0 -0.44044886785E-01 -0.66849117433E-02 -0.48800586012E-01  0.80091377669E-01  0.45260263862E-01 0.  0.
         14    1    1    2    0    0 -0.62294568455E-01  0.34213355076E-02  0.45852582381E-01  0.77425952410E-01  0.00000000000E+00 0. -1.
     999901    1    1    2    0    0  0.10633945524E+00  0.32635762357E-02  0.29480036313E-02  0.88641266992E+00  0.88000000000E+00 0. -1.
        -11    1    3    3    0    0 -0.87417030473E-02  0.35113060716E-02 -0.41582784815E-01  0.42639603147E-01  0.51100000000E-03 0. -1.
         11    1    3    3    0    0 -0.35303183738E-01 -0.10196217815E-01 -0.72178011969E-02  0.37451774522E-01  0.51100000000E-03 0.  1.
</event>
<event>
 8    1  0.2001339E+004  0.1043930E+01  0.7957747E-01            NaN
         13   -1    0    0    0    0  0.00000000000E+00  0.00000000000E+00  0.74505805969E-08  0.10566000000E+00  0.10566000000E+00 0.  1.
     999900   -1    0    0    0    0 -0.00000000000E+00 -0.00000000000E+00 -0.74505805969E-08  0.93827000000E+00  0.93827000000E+00 0. -1.
     999902    2    1    2    0    0  0.10274412026E-02  0.83530567451E-02  0.11575717626E-01  0.10296182415E+01  0.10295187695E+01 0.  0.
     999903    2    3    3    0    0 -0.12327285463E-01 -0.90561338859E-01 -0.92767254043E-01  0.13785041180E+00  0.45206797576E-01 0.  0.
         14    1    1    2    0    0 -0.10274412026E-02 -0.83530567451E-02 -0.11575717626E-01  0.14311758486E-01  0.00000000000E+00 0. -1.
     999901    1    3    3    0    0  0.13354726666E-01  0.98914395604E-01  0.10434297167E+00  0.89176782972E+00  0.88000000000E+00 0.  1.
        -11    1    4    4    0    0 -0.25893594236E-01 -0.73550156694E-01 -0.59450210081E-01  0.98054537742E-01  0.51100000000E-03 0. -1.
         11    1    4    4    0    0  0.13566308773E-01 -0.17011182165E-01 -0.33317043962E-01  0.39795874054E-01  0.51100000000E-03 0.  1.
</event>
<event>
 8    1  0.2001339E+004  0.1043930E+01  0.7957747E-01            NaN
         13   -1    0    0    0    0  0.00000000000E+00  0.00000000000E+00  0.74505805969E-08  0.10566000000E+00  0.10566000000E+00 0.  1.
     999900   -1    0    0    0    0 -0.00000000000E+00 -0.00000000000E+00 -0.74505805969E-08  0.93827000000E+00  0.93827000000E+00 0. -1.
     999902    2    1    2    0    0  0.12867341239E-01 -0.40899599114E-02 -0.19113436064E-02  0.10302936707E+01  0.10302034257E+01 0.  0.
     999903    2    3    3    0    0 -0.89908110722E-02 -0.10160645683E+00  0.84095968870E-01  0.14047093340E+00  0.47489413533E-01 0.  0.
         14    1    1    2    0    0 -0.12867341239E-01  0.40899599114E-02  0.19113436064E-02  0.13636329308E-01  0.00000000000E+00 0.  1.
     999901    1    3    3    0    0  0.21858152311E-01  0.97516496921E-01 -0.86007312476E-01  0.88982273729E+00  0.88000000000E+00 0. -1.
        -11    1    4    4    0    0  0.18975950589E-01 -0.31721653912E-01  0.23161294176E-01  0.43624038059E-01  0.51100000000E-03 0.  1.
         11    1    4    4    0    0 -0.27966761661E-01 -0.69884802920E-01  0.60934674694E-01  0.96846895346E-01  0.51100000000E-03 0. -1.
</event>
<event>
 8    1  0.2001339E+004  0.1043930E+01  0.7957747E-01            NaN
         13   -1    0    0    0    0  0.00000000000E+00  0.00000000000E+00  0.74505805969E-08  0.10566000000E+00  0.10566000000E+00 0.  1.
     999900   -1    0    0    0    0 -0.00000000000E+00 -0.00000000000E+00 -0.74505805969E-08  0.93827000000E+00  0.93827000000E+00 0. -1.
     999902    2    1    2    0    0  0.12531790499E-01  0.26669667790E-03  0.72046824290E-02  0.10294723256E+01  0.10293708005E+01 0.  0.
     999903    2    3    3    0    0  0.46334324845E-01 -0.86984557129E-02 -0.12306285743E+00  0.13919561736E+00  0.44815401639E-01 0.  0.
         14    1    1    2    0    0 -0.12531790499E-01 -0.26669667790E-03 -0.72046824290E-02  0.14457674402E-01  0.00000000000E+00 0. -1.
     999901    1    3    3    0    0 -0.33802534347E-01  0.89651523908E-02  0.13026753986E+00  0.89027670824E+00  0.88000000000E+00 0.  1.
        -11    1    4    4    0    0  0.28799481486E-01 -0.26307566538E-01 -0.87559208478E-01  0.95856008165E-01  0.51100000000E-03 0. -1.
         11    1    4    4    0    0  0.17534843360E-01  0.17609110825E-01 -0.35503648949E-01  0.43339609198E-01  0.51100000000E-03 0.  1.
</event>
<event>
 8    1  0.2001339E+004  0.1043930E+01  0.7957747E-01            NaN
         13   -1    0    0    0    0  0.00000000000E+00  0.00000000000E+00  0.74505805969E-08  0.10566000000E+00  0.10566000000E+00 0. -1.
     999900   -1    0    0    0    0 -0.00000000000E+00 -0.00000000000E+00 -0.74505805969E-08  0.93827000000E+00  0.93827000000E+00 0. -1.
     999902    2    1    2    0    0 -0.58266243511E-03 -0.11092150895E-02  0.13991918700E-01  0.10298820947E+01  0.10297862814E+01 0.  0.
     999903    2    3    3    0    0 -0.54079597356E-01  0.11647368803E+00 -0.29431301948E-01  0.13939164714E+00  0.45531383741E-01 0.  0.
         14    1    1    2    0    0  0.58266243511E-03  0.11092150895E-02 -0.13991918700E-01  0.14047905272E-01  0.00000000000E+00 0.  1.
     999901    1    3    3    0    0  0.53496934921E-01 -0.11758290312E+00  0.43423220648E-01  0.89049044759E+00  0.88000000000E+00 0.  1.
        -11    1    4    4    0    0 -0.67975085232E-02  0.64793542226E-01 -0.22822110378E-01  0.69032739185E-01  0.51100000000E-03 0.  1.
         11    1    4    4    0    0 -0.47282088833E-01  0.51680145801E-01 -0.66091915701E-02  0.70358907956E-01  0.51100000000E-03 0. -1.
</event>
<event>
 8    1  0.2001339E+004  0.1043930E+01  0.7957747E-01            NaN
         13   -1    0    0    0    0  0.00000000000E+00  0.00000000000E+00  0.74505805969E-08  0.10566000000E+00  0.10566000000E+00 0. -1.
     999900   -1    0    0    0    0 -0.00000000000E+00 -0.00000000000E+00 -0.74505805969E-08  0.93827000000E+00  0.93827000000E+00 0. -1.
     999902    2    1    2    0    0  0.76777664510E-02  0.84345526281E-02  0.69384052773E-02  0.10305796725E+01  0.10304931975E+01 0.  0.
     999903    2    3    3    0    0 -0.12343095848E-01 -0.13131307819E+00  0.13022447152E-02  0.13930979110E+00  0.44833531367E-01 0.  0.
         14    1    1    2    0    0 -0.76777664510E-02 -0.84345526281E-02 -0.69384052773E-02  0.13350327468E-01  0.00000000000E+00 0.  1.
     999901    1    3    3    0    0  0.20020862299E-01  0.13974763082E+00  0.56361605621E-02  0.89126988143E+00  0.88000000000E+00 0. -1.
        -11    1    4    4    0    0  0.12012837464E-01 -0.83280185067E-01 -0.84842970789E-02  0.84570337038E-01  0.51100000000E-03 0.  1.
         11    1    4    4    0    0 -0.24355933312E-01 -0.48032893125E-01  0.97865417941E-02  0.54739454059E-01  0.51100000000E-03 0. -1.
</event>
<event>
 8    1  0.2001339E+004  0.1043930E+01  0.7957747E-01            NaN
         13   -1    0    0    0    0  0.00000000000E+00  0.00000000000E+00  0.74505805969E-08  0.10566000000E+00  0.10566000000E+00 0.  1.
     999900   -1    0    0    0    0 -0.00000000000E+00 -0.00000000000E+00 -0.74505805969E-08  0.93827000000E+00  0.93827000000E+00 0. -1.
     999902    2    1    2    0    0  0.21509365190E-02 -0.99900002150E-02  0.37352097332E-02  0.10330498151E+01  0.10329925179E+01 0.  0.
     999903    2    3    3    0    0 -0.55731647461E-01  0.22929148616E-01  0.12233137474E+00  0.14260098766E+00  0.41693093582E-01 0.  0.
         14    1    1    2    0    0 -0.21509365190E-02  0.99900002150E-02 -0.37352097332E-02  0.10880184923E-01  0.00000000000E+00 0. -1.
     999901    1    3    3    0    0  0.57882583979E-01 -0.32919148831E-01 -0.11859616500E+00  0.89044882741E+00  0.88000000000E+00 0. -1.
        -11    1    4    4    0    0 -0.46960521136E-01  0.12629616838E-02  0.61212182528E-01  0.77162672507E-01  0.51100000000E-03 0. -1.
         11    1    4    4    0    0 -0.87711263248E-02  0.21666186932E-01  0.61119192210E-01  0.65438315157E-01  0.51100000000E-03 0.  1.
</event>
<event>
 8    1  0.2001339E+004  0.1043930E+01  0.7957747E-01            NaN
         13   -1    0    0    0    0  0.00000000000E+00  0.00000000000E+00  0.74505805969E-08  0.10566000000E+00  0.10566000000E+00 0.  1.
     999900   -1    0    0    0    0 -0.00000000000E+00 -0.00000000000E+00 -0.74505805969E-08  0.93827000000E+00  0.93827000000E+00 0.  1.
     999902    2    1    2    0    0  0.12712080101E-02 -0.12583569732E-01  0.48874538604E-02  0.10303708923E+01  0.10302816733E+01 0.  0.
     999903    2    3    3    0    0 -0.14856518191E-01  0.12595511180E+00 -0.28023589358E-01  0.13877894155E+00  0.48876034373E-01 0.  0.
         14    1    1    2    0    0 -0.12712080101E-02  0.12583569732E-01 -0.48874538604E-02  0.13559107723E-01  0.00000000000E+00 0. -1.
     999901    1    3    3    0    0  0.16127726201E-01 -0.13853868153E+00  0.32911043218E-01  0.89159195073E+00  0.88000000000E+00 0. -1.
        -11    1    4    4    0    0  0.13138164672E-01  0.79544716522E-01 -0.80959586658E-02  0.81029494415E-01  0.51100000000E-03 0.  1.
         11    1    4    4    0    0 -0.27994682862E-01  0.46410395280E-01 -0.19927630692E-01  0.57749447137E-01  0.51100000000E-03 0. -1.
</event>
<event>
 8    1  0.2001339E+004  0.1043930E+01  0.7957747E-01            NaN
         13   -1    0    0    0    0  0.00000000000E+00  0.00000000000E+00  0.74505805969E-08  0.10566000000E+00  0.10566000000E+00 0. -1.
     999900   -1    0    0    0    0 -0.00000000000E+00 -0.00000000000E+00 -0.74505805969E-08  0.93827000000E+00  0.93827000000E+00 0.  1.
     999902    2    1    2    0    0 -0.11189791161E-01 -0.43802471047E-02 -0.39490692162E-02  0.10312811606E+01  0.10312035876E+01 0.  0.
     999903    2    3    3    0    0  0.86224503516E-01  0.43027545958E-02 -0.10123372224E+00  0.14053470786E+00  0.45261008502E-01 0.  0.
         14    1    1    2    0    0  0.11189791161E-01  0.43802471047E-02  0.39490692162E-02  0.12648839417E-01  0.00000000000E+00 0. -1.
     999901    1    3    3    0    0 -0.97414294677E-01 -0.86830017005E-02  0.97284653025E-01  0.89074645272E+00  0.88000000000E+00 0. -1.
        -11    1    4    4    0    0  0.63887494014E-01 -0.11543090638E-01 -0.48251939385E-01  0.80891072488E-01  0.51100000000E-03 0.  1.
         11    1    4    4    0    0  0.22337009503E-01  0.15845845234E-01 -0.52981782856E-01  0.59643635372E-01  0.51100000000E-03 0. -1.
</event>
<event>
 8    1  0.2001339E+004  0.1043930E+01  0.7957747E-01            NaN
         13   -1    0    0    0    0  0.00000000000E+00  0.00000000000E+00  0.74505805969E-08  0.10566000000E+00  0.10566000000E+00 0.  1.
     999900   -1    0    0    0    0 -0.00000000000E+00 -0.00000000000E+00 -0.74505805969E-08  0.93827000000E+00  0.93827000000E+00 0.  1.
     999902    2    1    2    0    0 -0.55428605017E-02  0.14312982764E-01 -0.51802574280E-03  0.10285724895E+01  0.10284578324E+01 0.  0.
     999903    2    3    3    0    0  0.61447767357E-01  0.89713208877E-01  0.74928601890E-01  0.13960391191E+00  0.45284311624E-01 0.  0.
         14    1    1    2    0    0  0.55428605017E-02 -0.14312982764E-01  0.51802574280E-03  0.15357510501E-01  0.00000000000E+00 0.  1.
     999901    1    3    3    0    0 -0.66990627859E-01 -0.75400226113E-01 -0.75446627632E-01  0.88896857759E+00  0.88000000000E+00 0.  1.
        -11    1    4    4    0    0  0.47840236234E-01  0.37102058762E-01  0.24005434186E-01  0.65128894961E-01  0.51100000000E-03 0. -1.
         11    1    4    4    0    0  0.13607531123E-01  0.52611150115E-01  0.50923167703E-01  0.74475016949E-01  0.51100000000E-03 0.  1.
</event>
<event>
 8    1  0.2001339E+004  0.1043930E+01  0.7957747E-01            NaN
         13   -1    0    0    0    0  0.00000000000E+00  0.00000000000E+00  0.74505805969E-08  0.10566000000E+00  0.10566000000E+00 0.  1.
     999900   -1    0    0    0    0 -0.00000000000E+00 -0.00000000000E+00 -0.74505805969E-08  0.93827000000E+00  0.93827000000E+00 0.  1.
     999902    2    1    2    0    0 -0.69256500322E-02 -0.58044220826E-02  0.10762743370E-01  0.10298767944E+01  0.10297809082E+01 0.  0.
     999903    2    3    3    0    0 -0.10450721637E+00  0.45485748354E-02  0.82753224107E-01  0.14150076139E+00  0.47243217141E-01 0.  0.
         14    1    1    2    0    0  0.69256500322E-02  0.58044220826E-02 -0.10762743370E-01  0.14053205646E-01  0.00000000000E+00 0. -1.
     999901    1    3    3    0    0  0.97581566341E-01 -0.10352996918E-01 -0.71990480737E-01  0.88837603297E+00  0.88000000000E+00 0. -1.
        -11    1    4    4    0    0 -0.90864897064E-01  0.74934921310E-02  0.87871614363E-01  0.12662647304E+00  0.51100000000E-03 0.  1.
         11    1    4    4    0    0 -0.13642319309E-01 -0.29449172957E-02 -0.51183902561E-02  0.14874288346E-01  0.51100000000E-03 0. -1.
</event>
<event>
 8    1  0.2001339E+004  0.1043930E+01  0.7957747E-01            NaN
         13   -1    0    0    0    0  0.00000000000E+00  0.00000000000E+00  0.74505805969E-08  0.10566000000E+00  0.10566000000E+00 0. -1.
     999900   -1    0    0    0    0 -0.00000000000E+00 -0.00000000000E+00 -0.74505805969E-08  0.93827000000E+00  0.93827000000E+00 0. -1.
     999902    2    1    2    0    0 -0.15387425855E-01 -0.13557290845E-02 -0.58756465069E-02  0.10274032309E+01  0.10272702978E+01 0.  0.
     999903    2    3    3    0    0  0.80011446914E-01  0.70808450429E-01  0.71033106683E-01  0.13598662230E+00  0.45066516504E-01 0.  0.
         14    1    1    2    0    0  0.15387425855E-01  0.13557290845E-02  0.58756465069E-02  0.16526769124E-01  0.00000000000E+00 0. -1.
     999901    1    3    3    0    0 -0.95398872769E-01 -0.72164179513E-01 -0.76908753189E-01  0.89141660858E+00  0.88000000000E+00 0. -1.
        -11    1    4    4    0    0  0.72155960417E-01  0.72160293115E-01  0.50306640298E-01  0.11377438071E+00  0.51100000000E-03 0.  1.
         11    1    4    4    0    0  0.78554864976E-02 -0.13518426864E-02  0.20726466384E-01  0.22212241592E-01  0.51100000000E-03 0. -1.
</event>
<event>
 8    1  0.2001339E+004  0.1043930E+01  0.7957747E-01            NaN
         13   -1    0    0    0    0  0.00000000000E+00  0.00000000000E+00  0.74505805969E-08  0.10566000000E+00  0.10566000000E+00 0.  1.
     999900   -1    0    0    0    0 -0.00000000000E+00 -0.00000000000E+00 -0.74505805969E-08  0.93827000000E+00  0.93827000000E+00 0.  1.
     999902    2    1    2    0    0 -0.13331697764E-01  0.70772962876E-02 -0.31564349494E-02  0.10285097092E+01  0.10283941056E+01 0.  0.
     999903    2    3    3    0    0 -0.26453531931E-01  0.94683668561E-01  0.87959523962E-01  0.13938138492E+00  0.45005623686E-01 0.  0.
         14    1    1    2    0    0  0.13331697764E-01 -0.70772962876E-02  0.31564349494E-02  0.15420290840E-01  0.00000000000E+00 0. -1.
     999901    1    3    3    0    0  0.13121834167E-01 -0.87606372273E-01 -0.91115958911E-01  0.88912832424E+00  0.88000000000E+00 0.  1.
        -11    1    4    4    0    0  0.35051601274E-03  0.32600134002E-01  0.60485143065E-02  0.33162286483E-01  0.51100000000E-03 0. -1.
         11    1    4    4    0    0 -0.26804047943E-01  0.62083534559E-01  0.81911009655E-01  0.10621909844E+00  0.51100000000E-03 0.  1.
</event>
<event>
 8    1  0.2001339E+004  0.1043930E+01  0.7957747E-01            NaN
         13   -1    0    0    0    0  0.00000000000E+00  0.00000000000E+00  0.74505805969E-08  0.10566000000E+00  0.10566000000E+00 0. -1.
     999900   -1    0    0    0    0 -0.00000000000E+00 -0.00000000000E+00 -0.74505805969E-08  0.93827000000E+00  0.93827000000E+00 0. -1.
     999902    2    1    2    0    0 -0.70399883737E-03  0.12345211497E-01 -0.62556647317E-02  0.10300723955E+01  0.10299791778E+01 0.  0.
     999903    2    3    3    0    0 -0.12797053266E+00 -0.32923705992E-01 -0.53642636182E-02  0.13976523495E+00  0.45222980120E-01 0.  0.
         14    1    1    2    0    0  0.70399883737E-03 -0.12345211497E-01  0.62556647317E-02  0.13857604501E-01  0.00000000000E+00 0. -1.
     999901    1    3    3    0    0  0.12726653383E+00  0.45268917490E-01 -0.89140111351E-03  0.89030716055E+00  0.88000000000E+00 0.  1.
        -11    1    4    4    0    0 -0.10170921349E+00 -0.13949731592E-01  0.11380880449E-01  0.10329155183E+00  0.51100000000E-03 0. -1.
         11    1    4    4    0    0 -0.26261319178E-01 -0.18973974400E-01 -0.16745144067E-01  0.36473683120E-01  0.51100000000E-03 0.  1.
</event>
<event>
 8    1  0.2001339E+004  0.1043930E+01  0.7957747E-01            NaN
         13   -1    0    0    0    0  0.00000000000E+00  0.00000000000E+00  0.74505805969E-08  0.10566000000E+00  0.10566000000E+00 0. -1.
     999900   -1    0    0    0    0 -0.00000000000E+00 -0.00000000000E+00 -0.74505805969E-08  0.93827000000E+00  0.93827000000E+00 0.  1.
     999902    2    1    2    0    0  0.69222314460E-02 -0.88334924033E-02  0.84203647236E-02  0.10298996608E+01  0.10298040886E+01 0.  0.
     999903    2    3    3    0    0  0.58650908718E-01  0.10962154881E+00  0.45171964784E-01  0.13969848524E+00  0.44926020522E-01 0.  0.
         14    1    1    2    0    0 -0.69222314460E-02  0.88334924033E-02 -0.84203647236E-02  0.14030339209E-01  0.00000000000E+00 0.  1.
     999901    1    3    3    0    0 -0.51728677272E-01 -0.11845504121E+00 -0.36751600061E-01  0.89020117555E+00  0.88000000000E+00 0.  1.
        -11    1    4    4    0    0  0.31851140267E-04  0.32169962159E-01 -0.90989425160E-03  0.32186899639E-01  0.51100000000E-03 0.  1.
         11    1    4    4    0    0  0.58619057578E-01  0.77451586650E-01  0.46081859036E-01  0.10751158560E+00  0.51100000000E-03 0. -1.
</event>
<event>
 8    1  0.2001339E+004  0.1043930E+01  0.7957747E-01            NaN
         13   -1    0    0    0    0  0.00000000000E+00  0.00000000000E+00  0.74505805969E-08  0.10566000000E+00  0.10566000000E+00 0. -1.
     999900   -1    0    0    0    0 -0.00000000000E+00 -0.00000000000E+00 -0.74505805969E-08  0.93827000000E+00  0.93827000000E+00 0. -1.
     999902    2    1    2    0    0 -0.60060995048E-02 -0.15268465474E-01 -0.34057986174E-02  0.10271729497E+01  0.10270362554E+01 0.  0.
     999903    2    3    3    0    0  0.11081923683E+00 -0.52582667599E-01  0.42567619460E-01  0.13747970819E+00  0.45197652087E-01 0.  0.
         14    1    1    2    0    0  0.60060995048E-02  0.15268465474E-01  0.34057986174E-02  0.16757050260E-01  0.00000000000E+00 0.  1.
     999901    1    3    3    0    0 -0.11682533633E+00  0.37314202126E-01 -0.45973418078E-01  0.88969324155E+00  0.88000000000E+00 0. -1.
        -11    1    4    4    0    0  0.66604757889E-01 -0.27083697523E-01  0.14198084487E-02  0.71916600462E-01  0.51100000000E-03 0. -1.
         11    1    4    4    0    0  0.44214478941E-01 -0.25498970076E-01  0.41147811012E-01  0.65563107728E-01  0.51100000000E-03 0.  1.
</event>
<event>
 8    1  0.2001339E+004  0.1043930E+01  0.7957747E-01            NaN
         13   -1    0    0    0    0  0.00000000000E+00  0.00000000000E+00  0.74505805969E-08  0.10566000000E+00  0.10566000000E+00 0. -1.
     999900   -1    0    0    0    0 -0.00000000000E+00 -0.00000000000E+00 -0.74505805969E-08  0.93827000000E+00  0.93827000000E+00 0.  1.
     999902    2    1    2    0    0  0.84640098163E-02  0.94328543319E-02 -0.47950757069E-02  0.10303796880E+01  0.10302905855E+01 0.  0.
     999903    2    3    3    0    0  0.11107366010E+00  0.75316222875E-01  0.77615232126E-02  0.14188262741E+00  0.45393251945E-01 0.  0.
         14    1    1    2    0    0 -0.84640098163E-02 -0.94328543319E-02  0.47950757069E-02  0.13550311954E-01  0.00000000000E+00 0. -1.
     999901    1    3    3    0    0 -0.10260965028E+00 -0.65883368543E-01 -0.12556598920E-01  0.88849706064E+00  0.88000000000E+00 0. -1.
        -11    1    4    4    0    0  0.71758668154E-01  0.53600867389E-01  0.26209928312E-01  0.93325135431E-01  0.51100000000E-03 0.  1.
         11    1    4    4    0    0  0.39314991946E-01  0.21715355486E-01 -0.18448405100E-01  0.48557491979E-01  0.51100000000E-03 0. -1.
</event>
<event>
 8    1  0.2001339E+004  0.1043930E+01  0.7957747E-01            NaN
         13   -1    0    0    0    0  0.00000000000E+00  0.00000000000E+00  0.74505805969E-08  0.10566000000E+00  0.10566000000E+00 0.  1.
     999900   -1    0    0    0    0 -0.00000000000E+00 -0.00000000000E+00 -0.74505805969E-08  0.93827000000E+00  0.93827000000E+00 0.  1.
     999902    2    1    2    0    0 -0.37829076880E-02 -0.10431066039E-01 -0.84081758679E-02  0.10300082562E+01  0.10299141677E+01 0.  0.
     999903    2    3    3    0    0 -0.31498232839E-01 -0.77785943789E-01 -0.10534956262E+00  0.14169386856E+00  0.43998071788E-01 0.  0.
         14    1    1    2    0    0  0.37829076880E-02  0.10431066039E-01  0.84081758679E-02  0.13921743810E-01  0.00000000000E+00 0.  1.
     999901    1    3    3    0    0  0.27715325151E-01  0.67354877751E-01  0.96941386748E-01  0.88831438763E+00  0.88000000000E+00 0. -1.
        -11    1    4    4    0    0 -0.16416840110E-01 -0.62687335958E-01 -0.10085383280E+00  0.11987898665E+00  0.51100000000E-03 0.  1.
         11    1    4    4    0    0 -0.15081392729E-01 -0.15098607832E-01 -0.44957298123E-02  0.21814881908E-01  0.51100000000E-03 0. -1.
</event>
<event>
 8    1  0.2001339E+004  0.1043930E+01  0.7957747E-01            NaN
         13   -1    0    0    0    0  0.00000000000E+00  0.00000000000E+00  0.74505805969E-08  0.10566000000E+00  0.10566000000E+00 0.  1.
     999900   -1    0    0    0    0 -0.00000000000E+00 -0.00000000000E+00 -0.74505805969E-08  0.93827000000E+00  0.93827000000E+00 0.  1.
     999902    2    1    2    0    0  0.27608742748E-03 -0.65709672280E-02 -0.12387171359E-01  0.10299051703E+01  0.10298096736E+01 0.  0.
     999903    2    3    3    0    0 -0.11824078675E-01 -0.84626033707E-01  0.10052420731E+00  0.13918187606E+00  0.44329493010E-01 0.  0.
         14    1    1    2    0    0 -0.27608742748E-03  0.65709672280E-02  0.12387171359E-01  0.14024829726E-01  0.00000000000E+00 0.  1.
     999901    1    3    3    0    0  0.12100166103E-01  0.78055066479E-01 -0.11291137867E+00  0.89072329421E+00  0.88000000000E+00 0.  1.
        -11    1    4    4    0    0 -0.15978591116E-02 -0.70668554190E-01  0.52264463430E-01  0.87911506434E-01  0.51100000000E-03 0. -1.
         11    1    4    4    0    0 -0.10226219564E-01 -0.13957479517E-01  0.48259743881E-01  0.51270369625E-01  0.51100000000E-03 0.  1.
</event>
<event>
 8    1  0.2001339E+004  0.1043930E+01  0.7957747E-01            NaN
         13   -1    0    0    0    0  0.00000000000E+00  0.00000000000E+00  0.74505805969E-08  0.10566000000E+00  0.10566000000E+00 0.  1.
     999900   -1    0    0    0    0 -0.00000000000E+00 -0.00000000000E+00 -0.74505805969E-08  0.93827000000E+00  0.93827000000E+00 0. -1.
     999902    2    1    2    0    0 -0.11184755244E-03  0.10648366841E-01  0.85378964638E-02  0.10302809743E+01  0.10301905601E+01 0.  0.
     999903    2    3    3    0    0 -0.37568520221E-01 -0.63819552922E-01  0.11120667271E+00  0.14039932430E+00  0.43136030921E-01 0.  0.
         14    1    1    2    0    0  0.11184755244E-03 -0.10648366841E-01 -0.85378964638E-02  0.13649025690E-01  0.00000000000E+00 0. -1.
     999901    1    3    3    0    0  0.37456672668E-01  0.74467919763E-01 -0.10266877624E+00  0.88988165001E+00  0.88000000000E+00 0. -1.
        -11    1    4    4    0    0  0.86036041418E-02 -0.21105767806E-01  0.30189121313E-01  0.37830141496E-01  0.51100000000E-03 0.  1.
         11    1    4    4    0    0 -0.46172124362E-01 -0.42713785116E-01  0.81017551395E-01  0.10256918281E+00  0.51100000000E-03 0. -1.
</event>
<event>
 8    1  0.2001339E+004  0.1043930E+01  0.7957747E-01            NaN
         13   -1    0    0    0    0  0.00000000000E+00  0.00000000000E+00  0.74505805969E-08  0.10566000000E+00  0.10566000000E+00 0. -1.
     999900   -1    0    0    0    0 -0.00000000000E+00 -0.00000000000E+00 -0.74505805969E-08  0.93827000000E+00  0.93827000000E+00 0. -1.
     999902    2    1    2    0    0  0.42685490057E-02  0.13527232944E-01  0.18451977646E-02  0.10296257595E+01  0.10295263927E+01 0.  0.
     999903    2    3    3    0    0 -0.10796917885E+00  0.75463565438E-01 -0.15865901350E-01  0.14016125774E+00  0.45181390596E-01 0.  0.
         14    1    1    2    0    0 -0.42685490057E-02 -0.13527232944E-01 -0.18451977646E-02  0.14304240508E-01  0.00000000000E+00 0. -1.
     999901    1    3    3    0    0  0.11223772786E+00 -0.61936332495E-01  0.17711099115E-01  0.88946450175E+00  0.88000000000E+00 0.  1.
        -11    1    4    4    0    0 -0.25900213842E-01  0.21216349398E-02 -0.15165157097E-01  0.30092615750E-01  0.51100000000E-03 0.  1.
         11    1    4    4    0    0 -0.82068965010E-01  0.73341930499E-01 -0.70074425339E-03  0.11006864199E+00  0.51100000000E-03 0. -1.
</event>
<event>
 8    1  0.2001339E+004  0.1043930E+01  0.7957747E-01            NaN
         13   -1    0    0    0    0  0.00000000000E+00  0.00000000000E+00  0.74505805969E-08  0.10566000000E+00  0.10566000000E+00 0. -1.
     999900   -1    0    0    0    0 -0.00000000000E+00 -0.00000000000E+00 -0.74505805969E-08  0.93827000000E+00  0.93827000000E+00 0. -1.
     999902    2    1    2    0    0 -0.23068085863E-02  0.95358374746E-02 -0.10720769837E-01  0.10293976751E+01  0.10292950913E+01 0.  0.
     999903    2    3    3    0    0  0.21227256526E-01  0.72573127313E-01 -0.10866522134E+00  0.14141081271E+00  0.49713503134E-01 0.  0.
         14    1    1    2    0    0  0.23068085863E-02 -0.95358374746E-02  0.10720769837E-01  0.14532324937E-01  0.00000000000E+00 0. -1.
     999901    1    3    3    0    0 -0.23534065112E-01 -0.63037289839E-01  0.97944451507E-01  0.88798686235E+00  0.88000000000E+00 0.  1.
        -11    1    4    4    0    0 -0.15107442068E-02  0.64231599635E-01 -0.64519074682E-01  0.91054669615E-01  0.51100000000E-03 0. -1.
         11    1    4    4    0    0  0.22738000733E-01  0.83415276779E-02 -0.44146146661E-01  0.50356143095E-01  0.51100000000E-03 0.  1.
</event>
<event>
 8    1  0.2001339E+004  0.1043930E+01  0.7957747E-01            NaN
         13   -1    0    0    0    0  0.00000000000E+00  0.00000000000E+00  0.74505805969E-08  0.10566000000E+00  0.10566000000E+00 0.  1.
     999900   -1    0    0    0    0 -0.00000000000E+00 -0.00000000000E+00 -0.74505805969E-08  0.93827000000E+00  0.93827000000E+00 0. -1.
     999902    2    1    2    0    0 -0.25804802800E-02  0.92719294530E-02  0.81558298879E-02  0.10313147269E+01  0.10312375676E+01 0.  0.
     999903    2    3    3    0    0  0.48328916107E-01  0.21257392555E-01  0.12424821129E+00  0.14215059189E+00  0.44515299567E-01 0.  0.
         14    1    1    2    0    0  0.25804802800E-02 -0.92719294530E-02 -0.81558298879E-02  0.12615273101E-01  0.00000000000E+00 0. -1.
     999901    1    3    3    0    0 -0.50909396387E-01 -0.11985463102E-01 -0.11609238140E+00  0.88916413501E+00  0.88000000000E+00 0. -1.
        -11    1    4    4    0    0  0.32096731135E-01  0.33890033258E-01  0.70049686018E-01  0.84178109601E-01  0.51100000000E-03 0. -1.
         11    1    4    4    0    0  0.16232184972E-01 -0.12632640703E-01  0.54198525272E-01  0.57972482289E-01  0.51100000000E-03 0.  1.
</event>
<event>
 8    1  0.2001339E+004  0.1043930E+01  0.7957747E-01            NaN
         13   -1    0    0    0    0  0.00000000000E+00  0.00000000000E+00  0.74505805969E-08  0.10566000000E+00  0.10566000000E+00 0. -1.
     999900   -1    0    0    0    0 -0.00000000000E+00 -0.00000000000E+00 -0.74505805969E-08  0.93827000000E+00  0.93827000000E+00 0. -1.
     999902    2    1    2    0    0 -0.10768618090E-01  0.17264810839E-02 -0.78199309034E-02  0.10305100450E+01  0.10304226597E+01 0.  0.
     999903    2    3    3    0    0 -0.37529613812E-01  0.11329609213E+00  0.59166149573E-01  0.14053753758E+00  0.44784928376E-01 0.  0.
         14    1    1    2    0    0  0.10768618090E-01 -0.17264810839E-02  0.78199309034E-02  0.13419954986E-01  0.00000000000E+00 0. -1.
     999901    1    3    3    0    0  0.26760995722E-01 -0.11156961105E+00 -0.66986080476E-01  0.88997250743E+00  0.88000000000E+00 0. -1.
        -11    1    4    4    0    0 -0.33966626958E-02  0.61637478409E-01  0.12458640912E-01  0.62977733497E-01  0.51100000000E-03 0.  1.
         11    1    4    4    0    0 -0.34132951116E-01  0.51658613724E-01  0.46707508661E-01  0.77559804087E-01  0.51100000000E-03 0. -1.
</event>
<event>
 8    1  0.2001339E+004  0.1043930E+01  0.7957747E-01            NaN
         13   -1    0    0    0    0  0.00000000000E+00  0.00000000000E+00  0.74505805969E-08  0.10566000000E+00  0.10566000000E+00 0.  1.
     999900   -1    0    0    0    0 -0.00000000000E+00 -0.00000000000E+00 -0.74505805969E-08  0.93827000000E+00  0.93827000000E+00 0. -1.
     999902    2    1    2    0    0  0.10783123491E-01  0.12530710211E-02 -0.78840441825E-02  0.10305134396E+01  0.10304260988E+01 0.  0.
     999903    2    3    3    0    0 -0.12502607195E+00  0.35003309516E-01  0.21485512755E-01  0.13897219716E+00  0.44664236039E-01 0.  0.
         14    1    1    2    0    0 -0.10783123491E-01 -0.12530710211E-02  0.78840441825E-02  0.13416560360E-01  0.00000000000E+00 0.  1.
     999901    1    3    3    0    0  0.13580919544E+00 -0.33750238495E-01 -0.29369556937E-01  0.89154124248E+00  0.88000000000E+00 0. -1.
        -11    1    4    4    0    0 -0.11978989058E+00  0.20105949003E-01  0.17997047157E-01  0.12279259708E+00  0.51100000000E-03 0. -1.
         11    1    4    4    0    0 -0.52361813741E-02  0.14897360513E-01  0.34884655984E-02  0.16179600084E-01  0.51100000000E-03 0.  1.
</event>
<event>
 8    1  0.2001339E+004  0.1043930E+01  0.7957747E-01            NaN
         13   -1    0    0    0    0  0.00000000000E+00  0.00000000000E+00  0.74505805969E-08  0.10566000000E+00  0.10566000000E+00 0.  1.
     999900   -1    0    0    0    0 -0.00000000000E+00 -0.00000000000E+00 -0.74505805969E-08  0.93827000000E+00  0.93827000000E+00 0.  1.
     999902    2    1    2    0    0  0.11385155421E-01 -0.55364511312E-02 -0.69541863582E-02  0.10294858052E+01  0.10293844706E+01 0.  0.
     999903    2    3    3    0    0 -0.94247089295E-01  0.81268658000E-01  0.37600453691E-01  0.13781410888E+00  0.45736482974E-01 0.  0.
         14    1    1    2    0    0 -0.11385155421E-01  0.55364511312E-02  0.69541863582E-02  0.14444194785E-01  0.00000000000E+00 0. -1.
     999901    1    3    3    0    0  0.10563224472E+00 -0.86805109131E-01 -0.44554640050E-01  0.89167169634E+00  0.88000000000E+00 0.  1.
        -11    1    4    4    0    0 -0.48855496723E-01  0.57356928783E-01  0.42100664769E-01  0.86309929524E-01  0.51100000000E-03 0. -1.
         11    1    4    4    0    0 -0.45391592572E-01  0.23911729217E-01 -0.45002110774E-02  0.51504179356E-01  0.51100000000E-03 0.  1.
</event>
<event>
 8    1  0.2001339E+004  0.1043930E+01  0.7957747E-01            NaN
         13   -1    0    0    0    0  0.00000000000E+00  0.00000000000E+00  0.74505805969E-08  0.10566000000E+00  0.10566000000E+00 0. -1.
     999900   -1    0    0    0    0 -0.00000000000E+00 -0.00000000000E+00 -0.74505805969E-08  0.93827000000E+00  0.93827000000E+00 0.  1.
     999902    2    1    2    0    0  0.10303549944E-01 -0.50773135325E-04 -0.15345310590E-01  0.10254463782E+01  0.10252797814E+01 0.  0.
     999903    2    3    3    0    0 -0.44708603178E-01  0.11819414382E+00 -0.20924235963E-01  0.13581762312E+00  0.45165122263E-01 0.  0.
         14    1    1    2    0    0 -0.10303549944E-01  0.50773135325E-04  0.15345310590E-01  0.18483621844E-01  0.00000000000E+00 0. -1.
     999901    1    3    3    0    0  0.55012153122E-01 -0.11824491695E+00  0.55789253727E-02  0.88962875503E+00  0.88000000000E+00 0. -1.
        -11    1    4    4    0    0 -0.30380020064E-01  0.84148098437E-01 -0.35298928239E-01  0.96177562588E-01  0.51100000000E-03 0. -1.
         11    1    4    4    0    0 -0.14328583114E-01  0.34046045380E-01  0.14374692276E-01  0.39640060533E-01  0.51100000000E-03 0.  1.
</event>
<event>
 8    1  0.2001339E+004  0.1043930E+01  0.7957747E-01            NaN
         13   -1    0    0    0    0  0.00000000000E+00  0.00000000000E+00  0.74505805969E-08  0.10566000000E+00  0.10566000000E+00 0. -1.
     999900   -1    0    0    0    0 -0.00000000000E+00 -0.00000000000E+00 -0.74505805969E-08  0.93827000000E+00  0.93827000000E+00 0.  1.
     999902    2    1    2    0    0 -0.25326700719E-02 -0.13224974149E-01  0.29491236283E-02  0.10301455272E+01  0.10300532975E+01 0.  0.
     999903    2    3    3    0    0  0.17109716377E-01  0.43094334529E-01  0.12415813409E+00  0.13983697843E+00  0.44601280394E-01 0.  0.
         14    1    1    2    0    0  0.25326700719E-02  0.13224974149E-01 -0.29491236283E-02  0.13784472754E-01  0.00000000000E+00 0. -1.
     999901    1    3    3    0    0 -0.19642386449E-01 -0.56319308678E-01 -0.12120901046E+00  0.89030854881E+00  0.88000000000E+00 0.  1.
        -11    1    4    4    0    0  0.21286509752E-01  0.28385899842E-01  0.36693848852E-01  0.51044828062E-01  0.51100000000E-03 0. -1.
         11    1    4    4    0    0 -0.41767933754E-02  0.14708434687E-01  0.87464285239E-01  0.88792150369E-01  0.51100000000E-03 0.  1.
</event>
<event>
 8    1  0.2001339E+004  0.1043930E+01  0.7957747E-01            NaN
         13   -1    0    0    0    0  0.00000000000E+00  0.00000000000E+00  0.74505805969E-08  0.10566000000E+00  0.10566000000E+00 0. -1.
     999900   -1    0    0    0    0 -0.00000000000E+00 -0.00000000000E+00 -0.74505805969E-08  0.93827000000E+00  0.93827000000E+00 0. -1.
     999902    2    1    2    0    0  0.12514865448E-01 -0.55775184110E-02 -0.81827189907E-03  0.10302041070E+01  0.10301126647E+01 0.  0.
     999903    2    3    3    0    0  0.10079219421E+00 -0.54554311551E-01  0.69939359394E-01  0.14161069302E+00  0.45020384983E-01 0.  0.
         14    1    1    2    0    0 -0.12514865448E-01  0.55775184110E-02  0.81827189907E-03  0.13725892966E-01  0.00000000000E+00 0. -1.
     999901    1    3    3    0    0 -0.88277328759E-01  0.48976793140E-01 -0.70757631293E-01  0.88859341401E+00  0.88000000000E+00 0. -1.
        -11    1    4    4    0    0  0.80788262944E-01 -0.25261133189E-01  0.34323072007E-01  0.91341133519E-01  0.51100000000E-03 0. -1.
         11    1    4    4    0    0  0.20003931263E-01 -0.29293178361E-01  0.35616287387E-01  0.50269559504E-01  0.51100000000E-03 0.  1.
</event>
<event>
 8    1  0.2001339E+004  0.1043930E+01  0.7957747E-01            NaN
         13   -1    0    0    0    0  0.00000000000E+00  0.00000000000E+00  0.74505805969E-08  0.10566000000E+00  0.10566000000E+00 0.  1.
     999900   -1    0    0    0    0 -0.00000000000E+00 -0.00000000000E+00 -0.74505805969E-08  0.93827000000E+00  0.93827000000E+00 0. -1.
     999902    2    1    2    0    0  0.80391679282E-02  0.10933963401E-01  0.57583949187E-02  0.10291875820E+01  0.10290819890E+01 0.  0.
     999903    2    3    3    0    0 -0.12767932414E+00  0.15389307282E-01  0.23502234901E-01  0.13859553002E+00  0.46016576432E-01 0.  0.
         14    1    1    2    0    0 -0.80391679282E-02 -0.10933963401E-01 -0.57583949187E-02  0.14742418006E-01  0.00000000000E+00 0. -1.
     999901    1    3    3    0    0  0.13571849206E+00 -0.44553438807E-02 -0.17743839982E-01  0.89059205197E+00  0.88000000000E+00 0. -1.
        -11    1    4    4    0    0 -0.11338053679E+00  0.24761662692E-01  0.94123100452E-02  0.11643512685E+00  0.51100000000E-03 0. -1.
         11    1    4    4    0    0 -0.14298787341E-01 -0.93723554098E-02  0.14089924856E-01  0.22160403173E-01  0.51100000000E-03 0.  1.
</event>
<event>
 8    1  0.2001339E+004  0.1043930E+01  0.7957747E-01            NaN
         13   -1    0    0    0    0  0.00000000000E+00  0.00000000000E+00  0.74505805969E-08  0.10566000000E+00  0.10566000000E+00 0. -1.
     999900   -1    0    0    0    0 -0.00000000000E+00 -0.00000000000E+00 -0.74505805969E-08  0.93827000000E+00  0.93827000000E+00 0. -1.
     999902    2    1    2    0    0 -0.13411116645E-02 -0.13485895812E-01 -0.24941506138E-02  0.10301499872E+01  0.10300578175E+01 0.  0.
     999903    2    3    3    0    0 -0.65225795321E-01 -0.23559587231E-01  0.11314886019E+00  0.14023086836E+00  0.45305334717E-01 0.  0.
         14    1    1    2    0    0  0.13411116645E-02  0.13485895812E-01  0.24941506138E-02  0.13780012831E-01  0.00000000000E+00 0. -1.
     999901    1    3    3    0    0  0.63884683656E-01  0.10073691419E-01 -0.11564301081E+00  0.88991911880E+00  0.88000000000E+00 0. -1.
        -11    1    4    4    0    0 -0.53758200646E-01  0.12571656541E-02  0.87719316402E-01  0.10289054472E+00  0.51100000000E-03 0. -1.
         11    1    4    4    0    0 -0.11467594675E-01 -0.24816752885E-01  0.25429543791E-01  0.37340323643E-01  0.51100000000E-03 0.  1.
</event>
<event>
 8    1  0.2001339E+004  0.1043930E+01  0.7957747E-01            NaN
         13   -1    0    0    0    0  0.00000000000E+00  0.00000000000E+00  0.74505805969E-08  0.10566000000E+00  0.10566000000E+00 0.  1.
     999900   -1    0    0    0    0 -0.00000000000E+00 -0.00000000000E+00 -0.74505805969E-08  0.93827000000E+00  0.93827000000E+00 0.  1.
     999902    2    1    2    0    0 -0.10399755472E-01 -0.78669167575E-03 -0.73877782539E-02  0.10311490350E+01  0.10310698228E+01 0.  0.
     999903    2    3    3    0    0 -0.12100560716E+00  0.54246103415E-01  0.19217836555E-01  0.14212140797E+00  0.47372699532E-01 0.  0.
         14    1    1    2    0    0  0.10399755472E-01  0.78669167575E-03  0.73877782539E-02  0.12780964956E-01  0.00000000000E+00 0.  1.
     999901    1    3    3    0    0  0.11060585169E+00 -0.55032795091E-01 -0.26605614809E-01  0.88902762708E+00  0.88000000000E+00 0. -1.
        -11    1    4    4    0    0 -0.13962224736E-01  0.34777987507E-02  0.18758519014E-01  0.23647028573E-01  0.51100000000E-03 0. -1.
         11    1    4    4    0    0 -0.10704338243E+00  0.50768304664E-01  0.45931754045E-03  0.11847437940E+00  0.51100000000E-03 0.  1.
</event>
<event>
 8    1  0.2001339E+004  0.1043930E+01  0.7957747E-01            NaN
         13   -1    0    0    0    0  0.00000000000E+00  0.00000000000E+00  0.74505805969E-08  0.10566000000E+00  0.10566000000E+00 0.  1.
     999900   -1    0    0    0    0 -0.00000000000E+00 -0.00000000000E+00 -0.74505805969E-08  0.93827000000E+00  0.93827000000E+00 0. -1.
     999902    2    1    2    0    0 -0.17261687543E-02 -0.13353747862E-01 -0.19560316532E-02  0.10303238139E+01  0.10302339701E+01 0.  0.
     999903    2    3    3    0    0  0.84335783517E-01  0.12490149203E-01  0.10084229808E+00  0.13979472215E+00  0.45878830084E-01 0.  0.
         14    1    1    2    0    0  0.17261687543E-02  0.13353747862E-01  0.19560316532E-02  0.13606186106E-01  0.00000000000E+00 0. -1.
     999901    1    3    3    0    0 -0.86061952272E-01 -0.25843897065E-01 -0.10279832974E+00  0.89052909174E+00  0.88000000000E+00 0. -1.
        -11    1    4    4    0    0  0.43876122296E-01  0.25637792124E-01  0.73004776767E-01  0.88951498270E-01  0.51100000000E-03 0. -1.
         11    1    4    4    0    0  0.40459661221E-01 -0.13147642921E-01  0.27837521316E-01  0.50843223880E-01  0.51100000000E-03 0.  1.
</event>
<event>
 8    1  0.2001339E+004  0.1043930E+01  0.7957747E-01            NaN
         13   -1    0    0    0    0  0.00000000000E+00  0.00000000000E+00  0.74505805969E-08  0.10566000000E+00  0.10566000000E+00 0.  1.
     999900   -1    0    0    0    0 -0.00000000000E+00 -0.00000000000E+00 -0.74505805969E-08  0.93827000000E+00  0.93827000000E+00 0.  1.
     999902    2    1    2    0    0 -0.63210002163E-02 -0.79848490572E-02 -0.11566629080E-01  0.10285189726E+01  0.10284035089E+01 0.  0.
     999903    2    3    3    0    0 -0.36828681990E-01  0.12412717863E+00 -0.18736548793E-01  0.13810574588E+00  0.44251898200E-01 0.  0.
         14    1    1    2    0    0  0.63210002163E-02  0.79848490572E-02  0.11566629080E-01  0.15411027431E-01  0.00000000000E+00 0. -1.
     999901    1    3    3    0    0  0.30507681773E-01 -0.13211202769E+00  0.71699197131E-02  0.89041322668E+00  0.88000000000E+00 0.  1.
        -11    1    4    4    0    0  0.47210978905E-02  0.34190891027E-01  0.81143801926E-02  0.35459978588E-01  0.51100000000E-03 0.  1.
         11    1    4    4    0    0 -0.41549779880E-01  0.89936287601E-01 -0.26850928986E-01  0.10264576730E+00  0.51100000000E-03 0. -1.
</event>
<event>
 8    1  0.2001339E+004  0.1043930E+01  0.7957747E-01            NaN
         13   -1    0    0    0    0  0.00000000000E+00  0.00000000000E+00  0.74505805969E-08  0.10566000000E+00  0.10566000000E+00 0.  1.
     999900   -1    0    0    0    0 -0.00000000000E+00 -0.00000000000E+00 -0.74505805969E-08  0.93827000000E+00  0.93827000000E+00 0.  1.
     999902    2    1    2    0    0 -0.81607543620E-02 -0.11668181251E-01 -0.16600852078E-02  0.10295947202E+01  0.10294949186E+01 0.  0.
     999903    2    3    3    0    0  0.90650818412E-01 -0.41079602639E-01  0.86159293502E-01  0.13923467955E+00  0.45362622287E-01 0.  0.
         14    1    1    2    0    0  0.81607543620E-02  0.11668181251E-01  0.16600852078E-02  0.14335279850E-01  0.00000000000E+00 0.  1.
     999901    1    3    3    0    0 -0.98811572774E-01  0.29411421388E-01 -0.87819378710E-01  0.89036004060E+00  0.88000000000E+00 0.  1.
        -11    1    4    4    0    0  0.13822079642E-01  0.65745527230E-02  0.27458041128E-01  0.31440098167E-01  0.51100000000E-03 0.  1.
         11    1    4    4    0    0  0.76828738770E-01 -0.47654155362E-01  0.58701252373E-01  0.10779458138E+00  0.51100000000E-03 0. -1.
</event>
<event>
 8    1  0.2001339E+004  0.1043930E+01  0.7957747E-01            NaN
         13   -1    0    0    0    0  0.00000000000E+00  0.00000000000E+00  0.74505805969E-08  0.10566000000E+00  0.10566000000E+00 0.  1.
     999900   -1    0    0    0    0 -0.00000000000E+00 -0.00000000000E+00 -0.74505805969E-08  0.93827000000E+00  0.93827000000E+00 0.  1.
     999902    2    1    2    0    0 -0.72736911288E-02  0.11462799168E-01  0.15207044476E-01  0.10235447958E+01  0.10233417770E+01 0.  0.
     999903    2    3    3    0    0 -0.67984379825E-01 -0.91941465603E-01  0.54519785644E-01  0.13454326528E+00  0.45325205008E-01 0.  0.
         14    1    1    2    0    0  0.72736911288E-02 -0.11462799168E-01 -0.15207044476E-01  0.20385204171E-01  0.00000000000E+00 0. -1.
     999901    1    3    3    0    0  0.60710688697E-01  0.10340426477E+00 -0.39312741168E-01  0.88900153055E+00  0.88000000000E+00 0.  1.
        -11    1    4    4    0    0 -0.53989510977E-02 -0.41255495106E-01  0.11185137759E-01  0.43087503723E-01  0.51100000000E-03 0.  1.
         11    1    4    4    0    0 -0.62585428728E-01 -0.50685970497E-01  0.43334647885E-01  0.91455761560E-01  0.51100000000E-03 0. -1.
</event>
<event>
 8    1  0.2001339E+004  0.1043930E+01  0.7957747E-01            NaN
         13   -1    0    0    0    0  0.00000000000E+00  0.00000000000E+00  0.74505805969E-08  0.10566000000E+00  0.10566000000E+00 0. -1.
     999900   -1    0    0    0    0 -0.00000000000E+00 -0.00000000000E+00 -0.74505805969E-08  0.93827000000E+00  0.93827000000E+00 0. -1.
     999902    2    1    2    0    0 -0.11428872345E-01  0.88964667917E-02  0.16857629323E-02  0.10293489150E+01  0.10292456367E+01 0.  0.
     999903    2    3    3    0    0  0.51976265806E-01  0.11174883339E+00 -0.47822601163E-01  0.13971421522E+00  0.45207596489E-01 0.  0.
         14    1    1    2    0    0  0.11428872345E-01 -0.88964667917E-02 -0.16857629323E-02  0.14581085046E-01  0.00000000000E+00 0. -1.
     999901    1    3    3    0    0 -0.63405138151E-01 -0.10285236660E+00  0.49508364095E-01  0.88963469974E+00  0.88000000000E+00 0. -1.
        -11    1    4    4    0    0  0.24330564645E-01  0.75698886596E-01 -0.50511672019E-01  0.94201846792E-01  0.51100000000E-03 0. -1.
         11    1    4    4    0    0  0.27645701161E-01  0.36049946796E-01  0.26890708559E-02  0.45512368426E-01  0.51100000000E-03 0.  1.
</event>
<event>
 8    1  0.2001339E+004  0.1043930E+01  0.7957747E-01            NaN
         13   -1    0    0    0    0  0.00000000000E+00  0.00000000000E+00  0.74505805969E-08  0.10566000000E+00  0.10566000000E+00 0. -1.
     999900   -1    0    0    0    0 -0.00000000000E+00 -0.00000000000E+00 -0.74505805969E-08  0.93827000000E+00  0.93827000000E+00 0.  1.
     999902    2    1    2    0    0  0.11759331074E-01 -0.19236213002E-02 -0.46345511264E-02  0.10311448035E+01  0.10310655384E+01 0.  0.
     999903    2    3    3    0    0 -0.11612492753E+00  0.62227028633E-01  0.10905155581E-01  0.13945473850E+00  0.44401574115E-01 0.  0.
         14    1    1    2    0    0 -0.11759331074E-01  0.19236213002E-02  0.46345511264E-02  0.12785196532E-01  0.00000000000E+00 0. -1.
     999901    1    3    3    0    0  0.12788425861E+00 -0.64150649934E-01 -0.15539706707E-01  0.89169006497E+00  0.88000000000E+00 0.  1.
        -11    1    4    4    0    0 -0.35421156769E-01  0.36989745939E-01  0.18729969491E-01  0.54534140954E-01  0.51100000000E-03 0. -1.
         11    1    4    4    0    0 -0.80703770763E-01  0.25237282695E-01 -0.78248139100E-02  0.84920597542E-01  0.51100000000E-03 0.  1.
</event>
<event>
 8    1  0.2001339E+004  0.1043930E+01  0.7957747E-01            NaN
         13   -1    0    0    0    0  0.00000000000E+00  0.00000000000E+00  0.74505805969E-08  0.10566000000E+00  0.10566000000E+00 0. -1.
     999900   -1    0    0    0    0 -0.00000000000E+00 -0.00000000000E+00 -0.74505805969E-08  0.93827000000E+00  0.93827000000E+00 0. -1.
     999902    2    1    2    0    0  0.95266901675E-02  0.70804442725E-02 -0.18937616386E-02  0.10319101477E+01  0.10318401407E+01 0.  0.
     999903    2    3    3    0    0  0.47344438794E-01 -0.16037302705E-01 -0.12620202226E+00  0.14206906299E+00  0.41928239591E-01 0.  0.
         14    1    1    2    0    0 -0.95266901675E-02 -0.70804442725E-02  0.18937616386E-02  0.12019852320E-01  0.00000000000E+00 0. -1.
     999901    1    3    3    0    0 -0.37817748627E-01  0.23117746978E-01  0.12430826062E+00  0.88984108469E+00  0.88000000000E+00 0.  1.
        -11    1    4    4    0    0  0.47717082704E-01 -0.51468977646E-03 -0.78158551327E-01  0.91576225921E-01  0.51100000000E-03 0. -1.
         11    1    4    4    0    0 -0.37264390982E-03 -0.15522612929E-01 -0.48043470931E-01  0.50492837074E-01  0.51100000000E-03 0.  1.
</event>
<event>
 8    1  0.2001339E+004  0.1043930E+01  0.7957747E-01            NaN
         13   -1    0    0    0    0  0.00000000000E+00  0.00000000000E+00  0.74505805969E-08  0.10566000000E+00  0.10566000000E+00 0.  1.
     999900   -1    0    0    0    0 -0.00000000000E+00 -0.00000000000E+00 -0.74505805969E-08  0.93827000000E+00  0.93827000000E+00 0. -1.
     999902    2    1    2    0    0  0.71672972922E-02  0.49553594550E-02  0.11485010723E-01  0.10295136479E+01  0.10294127063E+01 0.  0.
     999903    2    3    3    0    0  0.16637905244E-01 -0.11597815248E+00  0.61425058785E-01  0.13978974960E+00  0.45170615504E-01 0.  0.
         14    1    1    2    0    0 -0.71672972922E-02 -0.49553594550E-02 -0.11485010723E-01  0.14416352143E-01  0.00000000000E+00 0. -1.
     999901    1    3    3    0    0 -0.94706079521E-02  0.12093351193E+00 -0.49940048062E-01  0.88972389825E+00  0.88000000000E+00 0. -1.
        -11    1    4    4    0    0  0.26467094064E-01 -0.35022459237E-01  0.18623347504E-01  0.47688257595E-01  0.51100000000E-03 0. -1.
         11    1    4    4    0    0 -0.98291888202E-02 -0.80955693238E-01  0.42801711281E-01  0.92101492008E-01  0.51100000000E-03 0.  1.
</event>
<event>
 8    1  0.2001339E+004  0.1043930E+01  0.7957747E-01            NaN
         13   -1    0    0    0    0  0.00000000000E+00  0.00000000000E+00  0.74505805969E-08  0.10566000000E+00  0.10566000000E+00 0. -1.
     999900   -1    0    0    0    0 -0.00000000000E+00 -0.00000000000E+00 -0.74505805969E-08  0.93827000000E+00  0.93827000000E+00 0. -1.
     999902    2    1    2    0    0 -0.49790530628E-02 -0.65335062244E-02 -0.98707344560E-02  0.10310883073E+01  0.10310083357E+01 0.  0.
     999903    2    3    3    0    0  0.12857442893E+00  0.30819491543E-01 -0.12521035195E-01  0.14022423063E+00  0.44998152171E-01 0.  0.
         14    1    1    2    0    0  0.49790530628E-02  0.65335062244E-02  0.98707344560E-02  0.12841692711E-01  0.00000000000E+00 0. -1.
     999901    1    3    3    0    0 -0.13355348199E+00 -0.37352997768E-01  0.26503007394E-02  0.89086407666E+00  0.88000000000E+00 0.  1.
        -11    1    4    4    0    0  0.74721434030E-01 -0.41203475046E-02 -0.98367227477E-04  0.74836760781E-01  0.51100000000E-03 0.  1.
         11    1    4    4    0    0  0.53852994899E-01  0.34939839048E-01 -0.12422667968E-01  0.65387469845E-01  0.51100000000E-03 0. -1.
</event>
<event>
 7    1  0.2360621E+004  0.1043930E+01  0.7957747E-01            NaN
         13   -1    0    0    0    0  0.00000000000E+00  0.00000000000E+00  0.74505805969E-08  0.10566000000E+00  0.10566000000E+00 0.  1.
     999900   -1    0    0    0    0 -0.00000000000E+00 -0.00000000000E+00 -0.74505805969E-08  0.93827000000E+00  0.93827000000E+00 0.  1.
     999903    2    1    2    0    0  0.85624152799E-01  0.35254194474E-01  0.51300686023E-01  0.11510541043E+00  0.45201121161E-01 0.  0.
         14    1    1    2    0    0  0.24214625589E-01  0.15068897267E-01  0.24148862742E-01  0.37370942308E-01  0.00000000000E+00 0.  1.
     999901    1    1    2    0    0 -0.10983877839E+00 -0.50323091741E-01 -0.75449548765E-01  0.89145364726E+00  0.88000000000E+00 0.  1.
        -11    1    3    3    0    0  0.69636006314E-01  0.42496256013E-01  0.28692152245E-01  0.86478933111E-01  0.51100000000E-03 0.  1.
         11    1    3    3    0    0  0.15988146485E-01 -0.72420615390E-02  0.22608533778E-01  0.28626477324E-01  0.51100000000E-03 0. -1.
</event>
<event>
 8    1  0.2001339E+004  0.1043930E+01  0.7957747E-01            NaN
         13   -1    0    0    0    0  0.00000000000E+00  0.00000000000E+00  0.74505805969E-08  0.10566000000E+00  0.10566000000E+00 0. -1.
     999900   -1    0    0    0    0 -0.00000000000E+00 -0.00000000000E+00 -0.74505805969E-08  0.93827000000E+00  0.93827000000E+00 0.  1.
     999902    2    1    2    0    0  0.50951554921E-02 -0.13136895431E-01 -0.44187425111E-02  0.10291630126E+01  0.10290570648E+01 0.  0.
     999903    2    3    3    0    0  0.55950693290E-01  0.18429677208E-01  0.11601753413E+00  0.13894526905E+00  0.48739988531E-01 0.  0.
         14    1    1    2    0    0 -0.50951554921E-02  0.13136895431E-01  0.44187425111E-02  0.14766987385E-01  0.00000000000E+00 0. -1.
     999901    1    3    3    0    0 -0.50855537798E-01 -0.31566572639E-01 -0.12043627665E+00  0.89021774357E+00  0.88000000000E+00 0.  1.
        -11    1    4    4    0    0  0.18398990579E-01 -0.12489538267E-01  0.63862177837E-01  0.67625071531E-01  0.51100000000E-03 0. -1.
         11    1    4    4    0    0  0.37551702712E-01  0.30919215475E-01  0.52155356297E-01  0.71320197515E-01  0.51100000000E-03 0.  1.
</event>
<event>
 8    1  0.2001339E+004  0.1043930E+01  0.7957747E-01            NaN
         13   -1    0    0    0    0  0.00000000000E+00  0.00000000000E+00  0.74505805969E-08  0.10566000000E+00  0.10566000000E+00 0.  1.
     999900   -1    0    0    0    0 -0.00000000000E+00 -0.00000000000E+00 -0.74505805969E-08  0.93827000000E+00  0.93827000000E+00 0.  1.
     999902    2    1    2    0    0  0.24097989064E-02 -0.73158764845E-02 -0.11352003601E-01  0.10302115028E+01  0.10301201597E+01 0.  0.
     999903    2    3    3    0    0  0.56987665448E-01 -0.88186278852E-01  0.80809089733E-01  0.14003599617E+00  0.45338255900E-01 0.  0.
         14    1    1    2    0    0 -0.24097989064E-02  0.73158764845E-02  0.11352003601E-01  0.13718497194E-01  0.00000000000E+00 0.  1.
     999901    1    3    3    0    0 -0.54577866541E-01  0.80870402368E-01 -0.92161093334E-01  0.89017550664E+00  0.88000000000E+00 0.  1.
        -11    1    4    4    0    0  0.58254393793E-01 -0.51837312134E-01  0.56072926300E-01  0.96047464883E-01  0.51100000000E-03 0. -1.
         11    1    4    4    0    0 -0.12667283458E-02 -0.36348966718E-01  0.24736163433E-01  0.43988531285E-01  0.51100000000E-03 0.  1.
</event>
<event>
 8    1  0.2001339E+004  0.1043930E+01  0.7957747E-01            NaN
         13   -1    0    0    0    0  0.00000000000E+00  0.00000000000E+00  0.74505805969E-08  0.10566000000E+00  0.10566000000E+00 0.  1.
     999900   -1    0    0    0    0 -0.00000000000E+00 -0.00000000000E+00 -0.74505805969E-08  0.93827000000E+00  0.93827000000E+00 0. -1.
     999902    2    1    2    0    0 -0.13508630087E-01 -0.83722551954E-03 -0.43311073348E-02  0.10297193517E+01  0.10296212900E+01 0.  0.
     999903    2    3    3    0    0 -0.68562947287E-01 -0.58583666780E-01  0.97759507170E-01  0.14023178977E+00  0.44442208153E-01 0.  0.
         14    1    1    2    0    0  0.13508630087E-01  0.83722551954E-03  0.43311073348E-02  0.14210648266E-01  0.00000000000E+00 0. -1.
     999901    1    3    3    0    0  0.55054317200E-01  0.57746441260E-01 -0.10209061451E+00  0.88948756197E+00  0.88000000000E+00 0.  1.
        -11    1    4    4    0    0 -0.51591894696E-01 -0.60396136970E-01  0.93397552966E-01  0.12260824189E+00  0.51100000000E-03 0.  1.
         11    1    4    4    0    0 -0.16971052591E-01  0.18124701898E-02  0.43619542043E-02  0.17623547875E-01  0.51100000000E-03 0. -1.
</event>
<event>
 8    1  0.2001339E+004  0.1043930E+01  0.7957747E-01            NaN
         13   -1    0    0    0    0  0.00000000000E+00  0.00000000000E+00  0.74505805969E-08  0.10566000000E+00  0.10566000000E+00 0.  1.
     999900   -1    0    0    0    0 -0.00000000000E+00 -0.00000000000E+00 -0.74505805969E-08  0.93827000000E+00  0.93827000000E+00 0.  1.
     999902    2    1    2    0    0  0.76099558051E-02 -0.55245330825E-02  0.77014986535E-02  0.10317749609E+01  0.10317033610E+01 0.  0.
     999903    2    3    3    0    0 -0.12439394331E-01 -0.12849279535E+00 -0.39546208144E-01  0.14174377285E+00  0.43153882501E-01 0.  0.
         14    1    1    2    0    0 -0.76099558051E-02  0.55245330825E-02 -0.77014986535E-02  0.12155039064E-01  0.00000000000E+00 0. -1.
     999901    1    3    3    0    0  0.20049350136E-01  0.12296826227E+00  0.47247706797E-01  0.89003118808E+00  0.88000000000E+00 0.  1.
        -11    1    4    4    0    0 -0.60551791576E-02 -0.77847813127E-01 -0.45460263024E-01  0.90353991823E-01  0.51100000000E-03 0. -1.
         11    1    4    4    0    0 -0.63842151730E-02 -0.50644982225E-01  0.59140548797E-02  0.51389781028E-01  0.51100000000E-03 0.  1.
</event>
<event>
 8    1  0.2001339E+004  0.1043930E+01  0.7957747E-01            NaN
         13   -1    0    0    0    0  0.00000000000E+00  0.00000000000E+00  0.74505805969E-08  0.10566000000E+00  0.10566000000E+00 0. -1.
     999900   -1    0    0    0    0 -0.00000000000E+00 -0.00000000000E+00 -0.74505805969E-08  0.93827000000E+00  0.93827000000E+00 0.  1.
     999902    2    1    2    0    0  0.41037619137E-02 -0.13034154109E-01  0.45860763385E-02  0.10295160439E+01  0.10294151361E+01 0.  0.
     999903    2    3    3    0    0 -0.39747584028E-01 -0.44634994303E-01  0.11902507834E+00  0.14046158051E+00  0.44613150234E-01 0.  0.
         14    1    1    2    0    0 -0.41037619137E-02  0.13034154109E-01 -0.45860763385E-02  0.14413956131E-01  0.00000000000E+00 0. -1.
     999901    1    3    3    0    0  0.43851345941E-01  0.31600840194E-01 -0.11443900200E+00  0.88905446336E+00  0.88000000000E+00 0.  1.
        -11    1    4    4    0    0 -0.23018763551E-01 -0.43962676483E-01  0.11160529464E+00  0.12214165264E+00  0.51100000000E-03 0. -1.
         11    1    4    4    0    0 -0.16728820477E-01 -0.67231782012E-03  0.74197836996E-02  0.18319927864E-01  0.51100000000E-03 0.  1.
</event>
<event>
 8    1  0.2001339E+004  0.1043930E+01  0.7957747E-01            NaN
         13   -1    0    0    0    0  0.00000000000E+00  0.00000000000E+00  0.74505805969E-08  0.10566000000E+00  0.10566000000E+00 0. -1.
     999900   -1    0    0    0    0 -0.00000000000E+00 -0.00000000000E+00 -0.74505805969E-08  0.93827000000E+00  0.93827000000E+00 0.  1.
     999902    2    1    2    0    0 -0.56908076040E-02  0.10587636522E-01  0.42669086359E-02  0.10311750070E+01  0.10310961183E+01 0.  0.
     999903    2    3    3    0    0  0.72276376333E-01 -0.45591623661E-01  0.10207310330E+00  0.14055665841E+00  0.45108592118E-01 0.  0.
         14    1    1    2    0    0  0.56908076040E-02 -0.10587636522E-01 -0.42669086359E-02  0.12754993046E-01  0.00000000000E+00 0.  1.
     999901    1    3    3    0    0 -0.77967183937E-01  0.56179260182E-01 -0.97806194663E-01  0.89061834854E+00  0.88000000000E+00 0.  1.
        -11    1    4    4    0    0  0.47595437732E-02 -0.20200551139E-01  0.85632098066E-02  0.22456740780E-01  0.51100000000E-03 0. -1.
         11    1    4    4    0    0  0.67516832559E-01 -0.25391072522E-01  0.93509893493E-01  0.11809991763E+00  0.51100000000E-03 0.  1.
</event>
<event>
 8    1  0.2001339E+004  0.1043930E+01  0.7957747E-01            NaN
         13   -1    0    0    0    0  0.00000000000E+00  0.00000000000E+00  0.74505805969E-08  0.10566000000E+00  0.10566000000E+00 0.  1.
     999900   -1    0    0    0    0 -0.00000000000E+00 -0.00000000000E+00 -0.74505805969E-08  0.93827000000E+00  0.93827000000E+00 0. -1.
     999902    2    1    2    0    0 -0.11859297957E-01 -0.62134735032E-02  0.34176160106E-02  0.10301122469E+01  0.10300195682E+01 0.  0.
     999903    2    3    3    0    0 -0.18906568629E-01  0.43955520652E-01 -0.12322913247E+00  0.13960340873E+00  0.44879243598E-01 0.  0.
         14    1    1    2    0    0  0.11859297957E-01  0.62134735032E-02 -0.34176160106E-02  0.13817753081E-01  0.00000000000E+00 0. -1.
     999901    1    3    3    0    0  0.70472706725E-02 -0.50168994155E-01  0.12664674848E+00  0.89050883819E+00  0.88000000000E+00 0.  1.
        -11    1    4    4    0    0 -0.19730884599E-02  0.46794333532E-01 -0.10240824838E+00  0.11261133685E+00  0.51100000000E-03 0.  1.
         11    1    4    4    0    0 -0.16933480169E-01 -0.28388128797E-02 -0.20820884087E-01  0.26992071880E-01  0.51100000000E-03 0. -1.
</event>
<event>
 8    1  0.2001339E+004  0.1043930E+01  0.7957747E-01            NaN
         13   -1    0    0    0    0  0.00000000000E+00  0.00000000000E+00  0.74505805969E-08  0.10566000000E+00  0.10566000000E+00 0.  1.
     999900   -1    0    0    0    0 -0.00000000000E+00 -0.00000000000E+00 -0.74505805969E-08  0.93827000000E+00  0.93827000000E+00 0.  1.
     999902    2    1    2    0    0 -0.93927804264E-02  0.12110443708E-01 -0.14243385309E-01  0.10230072565E+01  0.10227932761E+01 0.  0.
     999903    2    3    3    0    0  0.63433337285E-01 -0.56060548318E-01 -0.93420614194E-01  0.13383912776E+00  0.44932478303E-01 0.  0.
         14    1    1    2    0    0  0.93927804264E-02 -0.12110443708E-01  0.14243385309E-01  0.20922743510E-01  0.00000000000E+00 0. -1.
     999901    1    3    3    0    0 -0.72826117711E-01  0.68170992026E-01  0.79177228885E-01  0.88916812873E+00  0.88000000000E+00 0. -1.
        -11    1    4    4    0    0  0.46141101477E-01 -0.15106001785E-01 -0.32523104767E-01  0.58439763861E-01  0.51100000000E-03 0. -1.
         11    1    4    4    0    0  0.17292235807E-01 -0.40954546533E-01 -0.60897509427E-01  0.75399363899E-01  0.51100000000E-03 0.  1.
</event>
<event>
 8    1  0.2001339E+004  0.1043930E+01  0.7957747E-01            NaN
         13   -1    0    0    0    0  0.00000000000E+00  0.00000000000E+00  0.74505805969E-08  0.10566000000E+00  0.10566000000E+00 0.  1.
     999900   -1    0    0    0    0 -0.00000000000E+00 -0.00000000000E+00 -0.74505805969E-08  0.93827000000E+00  0.93827000000E+00 0. -1.
     999902    2    1    2    0    0 -0.63873358217E-02 -0.12169352044E-01 -0.16142999271E-02  0.10300917504E+01  0.10299987947E+01 0.  0.
     999903    2    3    3    0    0  0.22445433876E-01 -0.12855860196E+00 -0.31266486695E-01  0.14146526064E+00  0.44762876778E-01 0.  0.
         14    1    1    2    0    0  0.63873358217E-02  0.12169352044E-01  0.16142999271E-02  0.13838249612E-01  0.00000000000E+00 0. -1.
     999901    1    3    3    0    0 -0.28832769697E-01  0.11638924992E+00  0.29652186767E-01  0.88862648975E+00  0.88000000000E+00 0. -1.
        -11    1    4    4    0    0  0.13749704770E-01 -0.12222473103E+00 -0.38036821897E-01  0.12874393267E+00  0.51100000000E-03 0. -1.
         11    1    4    4    0    0  0.86957291059E-02 -0.63338709260E-02  0.67703352025E-02  0.12721327971E-01  0.51100000000E-03 0.  1.
</event>
<event>
 8    1  0.2001339E+004  0.1043930E+01  0.7957747E-01            NaN
         13   -1    0    0    0    0  0.00000000000E+00  0.00000000000E+00  0.74505805969E-08  0.10566000000E+00  0.10566000000E+00 0. -1.
     999900   -1    0    0    0    0 -0.00000000000E+00 -0.00000000000E+00 -0.74505805969E-08  0.93827000000E+00  0.93827000000E+00 0.  1.
     999902    2    1    2    0    0  0.62756906619E-02  0.12284961836E-01  0.11670390990E-02  0.10300856307E+01  0.10299925922E+01 0.  0.
     999903    2    3    3    0    0 -0.52499943797E-01  0.11448182091E+00  0.45511148251E-01  0.14111702991E+00  0.44501911147E-01 0.  0.
         14    1    1    2    0    0 -0.62756906619E-02 -0.12284961836E-01 -0.11670390990E-02  0.13844369283E-01  0.00000000000E+00 0.  1.
     999901    1    3    3    0    0  0.58775634459E-01 -0.10219685908E+00 -0.44344109152E-01  0.88896860081E+00  0.88000000000E+00 0.  1.
        -11    1    4    4    0    0 -0.34155370105E-01  0.90946250530E-01  0.14760176777E-01  0.98264610781E-01  0.51100000000E-03 0.  1.
         11    1    4    4    0    0 -0.18344573692E-01  0.23535570384E-01  0.30750971473E-01  0.42852419124E-01  0.51100000000E-03 0. -1.
</event>
<event>
 8    1  0.2001339E+004  0.1043930E+01  0.7957747E-01            NaN
         13   -1    0    0    0    0  0.00000000000E+00  0.00000000000E+00  0.74505805969E-08  0.10566000000E+00  0.10566000000E+00 0.  1.
     999900   -1    0    0    0    0 -0.00000000000E+00 -0.00000000000E+00 -0.74505805969E-08  0.93827000000E+00  0.93827000000E+00 0.  1.
     999902    2    1    2    0    0  0.16784255579E-02 -0.10400268317E-01 -0.11540110785E-02  0.10333321495E+01  0.10332778023E+01 0.  0.
     999903    2    3    3    0    0  0.10202513271E+00 -0.17974414552E-01 -0.87242739743E-01  0.14342311004E+00  0.47187769325E-01 0.  0.
         14    1    1    2    0    0 -0.16784255579E-02  0.10400268317E-01  0.11540110785E-02  0.10597850489E-01  0.00000000000E+00 0. -1.
     999901    1    3    3    0    0 -0.10034670715E+00  0.75741462352E-02  0.86088728664E-01  0.88990903947E+00  0.88000000000E+00 0. -1.
        -11    1    4    4    0    0  0.34003670386E-01 -0.26888738531E-01 -0.46756374236E-01  0.63762634138E-01  0.51100000000E-03 0.  1.
         11    1    4    4    0    0  0.68021462321E-01  0.89143239791E-02 -0.40486365506E-01  0.79660475904E-01  0.51100000000E-03 0. -1.
</event>
<event>
 8    1  0.2001339E+004  0.1043930E+01  0.7957747E-01            NaN
         13   -1    0    0    0    0  0.00000000000E+00  0.00000000000E+00  0.74505805969E-08  0.10566000000E+00  0.10566000000E+00 0.  1.
     999900   -1    0    0    0    0 -0.00000000000E+00 -0.00000000000E+00 -0.74505805969E-08  0.93827000000E+00  0.93827000000E+00 0. -1.
     999902    2    1    2    0    0  0.13884798949E-01  0.30867701648E-03  0.31504371464E-02  0.10296889264E+01  0.10295904414E+01 0.  0.
     999903    2    3    3    0    0  0.12526048693E+00  0.36923388633E-01 -0.29716852158E-01  0.14130531573E+00  0.45061898963E-01 0.  0.
         14    1    1    2    0    0 -0.13884798949E-01 -0.30867701648E-03 -0.31504371464E-02  0.14241073610E-01  0.00000000000E+00 0.  1.
     999901    1    3    3    0    0 -0.11137568798E+00 -0.36614711617E-01  0.32867289304E-01  0.88838361066E+00  0.88000000000E+00 0.  1.
        -11    1    4    4    0    0  0.64938767869E-01  0.12319504876E-01  0.70904462401E-02  0.66478186811E-01  0.51100000000E-03 0.  1.
         11    1    4    4    0    0  0.60321719059E-01  0.24603883758E-01 -0.36807298398E-01  0.74827128921E-01  0.51100000000E-03 0. -1.
</event>
<event>
 8    1  0.2001339E+004  0.1043930E+01  0.7957747E-01            NaN
         13   -1    0    0    0    0  0.00000000000E+00  0.00000000000E+00  0.74505805969E-08  0.10566000000E+00  0.10566000000E+00 0. -1.
     999900   -1    0    0    0    0 -0.00000000000E+00 -0.00000000000E+00 -0.74505805969E-08  0.93827000000E+00  0.93827000000E+00 0.  1.
     999902    2    1    2    0    0 -0.76402945165E-03 -0.99550585285E-02  0.77592917481E-02  0.10312850983E+01  0.10312075739E+01 0.  0.
     999903    2    3    3    0    0  0.98463405919E-01  0.58184798706E-01  0.68218299682E-01  0.14103546153E+00  0.46440842931E-01 0.  0.
         14    1    1    2    0    0  0.76402945165E-03  0.99550585285E-02 -0.77592917481E-02  0.12644901729E-01  0.00000000000E+00 0.  1.
     999901    1    3    3    0    0 -0.99227435371E-01 -0.68139857235E-01 -0.60459007934E-01  0.89024963674E+00  0.88000000000E+00 0.  1.
        -11    1    4    4    0    0  0.59299189347E-01  0.90065521791E-02  0.26440841649E-01  0.65550675568E-01  0.51100000000E-03 0. -1.
         11    1    4    4    0    0  0.39164216572E-01  0.49178246527E-01  0.41777458033E-01  0.75484785963E-01  0.51100000000E-03 0.  1.
</event>
<event>
 8    1  0.2001339E+004  0.1043930E+01  0.7957747E-01            NaN
         13   -1    0    0    0    0  0.00000000000E+00  0.00000000000E+00  0.74505805969E-08  0.10566000000E+00  0.10566000000E+00 0.  1.
     999900   -1    0    0    0    0 -0.00000000000E+00 -0.00000000000E+00 -0.74505805969E-08  0.93827000000E+00  0.93827000000E+00 0. -1.
     999902    2    1    2    0    0  0.14170013803E-01  0.45613250399E-02  0.26923338449E-02  0.10288024213E+01  0.10286911968E+01 0.  0.
     999903    2    3    3    0    0  0.13085218289E+00  0.16419044071E-01  0.19232175045E-01  0.14086723193E+00  0.45626984345E-01 0.  0.
         14    1    1    2    0    0 -0.14170013803E-01 -0.45613250399E-02 -0.26923338449E-02  0.15127578750E-01  0.00000000000E+00 0.  1.
     999901    1    3    3    0    0 -0.11668216909E+00 -0.11857719031E-01 -0.16539841200E-01  0.88793518932E+00  0.88000000000E+00 0. -1.
        -11    1    4    4    0    0  0.64356774389E-01  0.17699090678E-01 -0.11276603760E-01  0.67693981519E-01  0.51100000000E-03 0.  1.
         11    1    4    4    0    0  0.66495408499E-01 -0.12800466074E-02  0.30508778805E-01  0.73173250413E-01  0.51100000000E-03 0. -1.
</event>
<event>
 8    1  0.2001339E+004  0.1043930E+01  0.7957747E-01            NaN
         13   -1    0    0    0    0  0.00000000000E+00  0.00000000000E+00  0.74505805969E-08  0.10566000000E+00  0.10566000000E+00 0. -1.
     999900   -1    0    0    0    0 -0.00000000000E+00 -0.00000000000E+00 -0.74505805969E-08  0.93827000000E+00  0.93827000000E+00 0.  1.
     999902    2    1    2    0    0  0.14198450038E-01  0.14475141014E-02 -0.19560982402E-02  0.10295245288E+01  0.10294237406E+01 0.  0.
     999903    2    3    3    0    0 -0.78658304009E-01 -0.41364714750E-01  0.96003266536E-01  0.13820455209E+00  0.44561223243E-01 0.  0.
         14    1    1    2    0    0 -0.14198450038E-01 -0.14475141014E-02  0.19560982402E-02  0.14405471213E-01  0.00000000000E+00 0.  1.
     999901    1    3    3    0    0  0.92856754047E-01  0.42812228851E-01 -0.97959364776E-01  0.89131997670E+00  0.88000000000E+00 0.  1.
        -11    1    4    4    0    0 -0.69122731114E-01 -0.15842322617E-01  0.59004354829E-01  0.92253488565E-01  0.51100000000E-03 0. -1.
         11    1    4    4    0    0 -0.95355728947E-02 -0.25522392132E-01  0.36998911707E-01  0.45951063525E-01  0.51100000000E-03 0.  1.
</event>
<event>
 8    1  0.2001339E+004  0.1043930E+01  0.7957747E-01            NaN
         13   -1    0    0    0    0  0.00000000000E+00  0.00000000000E+00  0.74505805969E-08  0.10566000000E+00  0.10566000000E+00 0. -1.
     999900   -1    0    0    0    0 -0.00000000000E+00 -0.00000000000E+00 -0.74505805969E-08  0.93827000000E+00  0.93827000000E+00 0. -1.
     999902    2    1    2    0    0 -0.50245369529E-02  0.13456658797E-01  0.24668389976E-02  0.10293556070E+01  0.10292524242E+01 0.  0.
     999903    2    3    3    0    0 -0.15962720614E-01  0.57117616738E-01  0.11902771213E+00  0.14052921208E+00  0.45427223124E-01 0.  0.
         14    1    1    2    0    0  0.50245369529E-02 -0.13456658797E-01 -0.24668389976E-02  0.14574393030E-01  0.00000000000E+00 0.  1.
     999901    1    3    3    0    0  0.10938183661E-01 -0.43660957941E-01 -0.11656087313E+00  0.88882639489E+00  0.88000000000E+00 0. -1.
        -11    1    4    4    0    0  0.32011852912E-02 -0.69919647793E-02  0.14427229898E-01  0.16356687998E-01  0.51100000000E-03 0.  1.
         11    1    4    4    0    0 -0.19163905905E-01  0.64109581517E-01  0.10460048223E+00  0.12417252408E+00  0.51100000000E-03 0. -1.
</event>
<event>
 8    1  0.2001339E+004  0.1043930E+01  0.7957747E-01            NaN
         13   -1    0    0    0    0  0.00000000000E+00  0.00000000000E+00  0.74505805969E-08  0.10566000000E+00  0.10566000000E+00 0. -1.
     999900   -1    0    0    0    0 -0.00000000000E+00 -0.00000000000E+00 -0.74505805969E-08  0.93827000000E+00  0.93827000000E+00 0. -1.
     999902    2    1    2    0    0  0.23323565763E-03  0.13410634663E-01  0.55628645771E-02  0.10294094978E+01  0.10293070821E+01 0.  0.
     999903    2    3    3    0    0  0.72019282865E-01 -0.10468495797E+00  0.30626138483E-01  0.13827091530E+00  0.45112837760E-01 0.  0.
         14    1    1    2    0    0 -0.23323565763E-03 -0.13410634663E-01 -0.55628645771E-02  0.14520502169E-01  0.00000000000E+00 0. -1.
     999901    1    3    3    0    0 -0.71786047207E-01  0.11809559263E+00 -0.25063273906E-01  0.89113858253E+00  0.88000000000E+00 0. -1.
        -11    1    4    4    0    0  0.72301019990E-01 -0.76164438456E-01  0.31780430645E-01  0.10972108307E+00  0.51100000000E-03 0.  1.
         11    1    4    4    0    0 -0.28173712565E-03 -0.28520519513E-01 -0.11542921623E-02  0.28549832232E-01  0.51100000000E-03 0. -1.
</event>
<event>
 8    1  0.2001339E+004  0.1043930E+01  0.7957747E-01            NaN
         13   -1    0    0    0    0  0.00000000000E+00  0.00000000000E+00  0.74505805969E-08  0.10566000000E+00  0.10566000000E+00 0. -1.
     999900   -1    0    0    0    0 -0.00000000000E+00 -0.00000000000E+00 -0.74505805969E-08  0.93827000000E+00  0.93827000000E+00 0. -1.
     999902    2    1    2    0    0 -0.11102132566E-01  0.81647908433E-02  0.35715446860E-02  0.10296935296E+01  0.10295951087E+01 0.  0.
     999903    2    3    3    0    0  0.10184703037E+00 -0.11423477834E-01 -0.81466462309E-01  0.13819329054E+00  0.44241243516E-01 0.  0.
         14    1    1    2    0    0  0.11102132566E-01 -0.81647908433E-02 -0.35715446860E-02  0.14236470366E-01  0.00000000000E+00 0.  1.
     999901    1    3    3    0    0 -0.11294916293E+00  0.19588268677E-01  0.85038006995E-01  0.89150023910E+00  0.88000000000E+00 0.  1.
        -11    1    4    4    0    0  0.58329701107E-01  0.11717767386E-01 -0.59783781873E-01  0.84344660766E-01  0.51100000000E-03 0.  1.
         11    1    4    4    0    0  0.43517329260E-01 -0.23141245220E-01 -0.21682680436E-01  0.53848629770E-01  0.51100000000E-03 0. -1.
</event>
<event>
 8    1  0.2001339E+004  0.1043930E+01  0.7957747E-01            NaN
         13   -1    0    0    0    0  0.00000000000E+00  0.00000000000E+00  0.74505805969E-08  0.10566000000E+00  0.10566000000E+00 0.  1.
     999900   -1    0    0    0    0 -0.00000000000E+00 -0.00000000000E+00 -0.74505805969E-08  0.93827000000E+00  0.93827000000E+00 0.  1.
     999902    2    1    2    0    0  0.26767582430E-02 -0.83665813361E-02 -0.11542905798E-01  0.10294247116E+01  0.10293225119E+01 0.  0.
     999903    2    3    3    0    0 -0.31709199839E-01 -0.44064772206E-01  0.11912214493E+00  0.13839715284E+00  0.44905556419E-01 0.  0.
         14    1    1    2    0    0 -0.26767582430E-02  0.83665813361E-02  0.11542905798E-01  0.14505288422E-01  0.00000000000E+00 0.  1.
     999901    1    3    3    0    0  0.34385958082E-01  0.35698190869E-01 -0.13066505073E+00  0.89102755874E+00  0.88000000000E+00 0.  1.
        -11    1    4    4    0    0  0.61236615146E-02 -0.18830939288E-01  0.63672487966E-01  0.66682459085E-01  0.51100000000E-03 0. -1.
         11    1    4    4    0    0 -0.37832861353E-01 -0.25233832917E-01  0.55449656967E-01  0.71714693757E-01  0.51100000000E-03 0.  1.
</event>
<event>
 8    1  0.2001339E+004  0.1043930E+01  0.7957747E-01            NaN
         13   -1    0    0    0    0  0.00000000000E+00  0.00000000000E+00  0.74505805969E-08  0.10566000000E+00  0.10566000000E+00 0.  1.
     999900   -1    0    0    0    0 -0.00000000000E+00 -0.00000000000E+00 -0.74505805969E-08  0.93827000000E+00  0.93827000000E+00 0. -1.
     999902    2    1    2    0    0  0.63381540724E-02  0.97277209205E-02 -0.52678782838E-02  0.10311804395E+01  0.10311016184E+01 0.  0.
     999903    2    3    3    0    0 -0.43921768903E-01  0.34521861261E-01  0.12102216012E+00  0.14039989242E+00  0.44100860121E-01 0.  0.
         14    1    1    2    0    0 -0.63381540724E-02 -0.97277209205E-02  0.52678782838E-02  0.12749560501E-01  0.00000000000E+00 0.  1.
     999901    1    3    3    0    0  0.50259922975E-01 -0.24794140341E-01 -0.12629003840E+00  0.89078054708E+00  0.88000000000E+00 0. -1.
        -11    1    4    4    0    0 -0.94635106433E-02  0.25831658531E-01  0.86817013099E-01  0.91072978982E-01  0.51100000000E-03 0.  1.
         11    1    4    4    0    0 -0.34458258260E-01  0.86902027299E-02  0.34205147020E-01  0.49326913439E-01  0.51100000000E-03 0. -1.
</event>
<event>
 8    1  0.2146090E+004  0.1043930E+01  0.7957747E-01            NaN
         13   -1    0    0    0    0  0.00000000000E+00  0.00000000000E+00  0.74505805969E-08  0.10566000000E+00  0.10566000000E+00 0. -1.
     999900   -1    0    0    0    0 -0.00000000000E+00 -0.00000000000E+00 -0.74505805969E-08  0.93827000000E+00  0.93827000000E+00 0. -1.
     999902    2    1    2    0    0  0.10613001770E-01  0.80223625624E-02  0.40448838193E-02  0.10300247782E+01  0.10299309145E+01 0.  0.
     999903    2    3    3    0    0 -0.41893232730E-01  0.12548327362E+00  0.15469942700E-01  0.14059546554E+00  0.45018561663E-01 0.  0.
         14    1    1    2    0    0 -0.10613001770E-01 -0.80223625624E-02 -0.40448838193E-02  0.13905221781E-01  0.00000000000E+00 0.  1.
     999901    1    3    3    0    0  0.52506234500E-01 -0.11746091106E+00 -0.11425058881E-01  0.88942931268E+00  0.88000000000E+00 0.  1.
        -11    1    4    4    0    0 -0.75192555276E-02  0.53187941417E-01  0.26302905508E-01  0.59813044355E-01  0.51100000000E-03 0.  1.
         11    1    4    4    0    0 -0.34373977202E-01  0.72295332208E-01 -0.10832962808E-01  0.80782421182E-01  0.51100000000E-03 0. -1.
</event>
<event>
 8    1  0.2001339E+004  0.1043930E+01  0.7957747E-01            NaN
         13   -1    0    0    0    0  0.00000000000E+00  0.00000000000E+00  0.74505805969E-08  0.10566000000E+00  0.10566000000E+00 0. -1.
     999900   -1    0    0    0    0 -0.00000000000E+00 -0.00000000000E+00 -0.74505805969E-08  0.93827000000E+00  0.93827000000E+00 0.  1.
     999902    2    1    2    0    0 -0.57665073229E-02  0.12884761804E-01  0.58712989696E-02  0.10286413818E+01  0.10285277588E+01 0.  0.
     999903    2    3    3    0    0  0.11596218659E+00 -0.41188975663E-01 -0.42319712321E-01  0.13731415934E+00  0.43823051822E-01 0.  0.
         14    1    1    2    0    0  0.57665073229E-02 -0.12884761804E-01 -0.58712989696E-02  0.15288618153E-01  0.00000000000E+00 0. -1.
     999901    1    3    3    0    0 -0.12172869391E+00  0.54073737467E-01  0.48191011291E-01  0.89132722250E+00  0.88000000000E+00 0. -1.
        -11    1    4    4    0    0  0.24389970195E-01 -0.29270609077E-01 -0.15666138940E-01  0.41198643572E-01  0.51100000000E-03 0.  1.
         11    1    4    4    0    0  0.91572216393E-01 -0.11918366586E-01 -0.26653573381E-01  0.96115515772E-01  0.51100000000E-03 0. -1.
</event>
<event>
 8    1  0.2001339E+004  0.1043930E+01  0.7957747E-01            NaN
         13   -1    0    0    0    0  0.00000000000E+00  0.00000000000E+00  0.74505805969E-08  0.10566000000E+00  0.10566000000E+00 0.  1.
     999900   -1    0    0    0    0 -0.00000000000E+00 -0.00000000000E+00 -0.74505805969E-08  0.93827000000E+00  0.93827000000E+00 0. -1.
     999902    2    1    2    0    0  0.15787056296E-01 -0.30383585036E-04  0.36674869982E-02  0.10277225162E+01  0.10275947099E+01 0.  0.
     999903    2    3    3    0    0  0.10449751143E+00  0.80392264585E-01 -0.14031452288E-01  0.13943731447E+00  0.43165228059E-01 0.  0.
         14    1    1    2    0    0 -0.15787056296E-01  0.30383585036E-04 -0.36674869982E-02  0.16207483782E-01  0.00000000000E+00 0.  1.
     999901    1    3    3    0    0 -0.88710455135E-01 -0.80422648170E-01  0.17698939286E-01  0.88828520175E+00  0.88000000000E+00 0.  1.
        -11    1    4    4    0    0  0.73979542525E-01  0.49287719824E-01 -0.28766980221E-01  0.93434748941E-01  0.51100000000E-03 0. -1.
         11    1    4    4    0    0  0.30517968907E-01  0.31104544760E-01  0.14735527933E-01  0.46002565531E-01  0.51100000000E-03 0.  1.
</event>
<event>
 8    1  0.2001339E+004  0.1043930E+01  0.7957747E-01            NaN
         13   -1    0    0    0    0  0.00000000000E+00  0.00000000000E+00  0.74505805969E-08  0.10566000000E+00  0.10566000000E+00 0.  1.
     999900   -1    0    0    0    0 -0.00000000000E+00 -0.00000000000E+00 -0.74505805969E-08  0.93827000000E+00  0.93827000000E+00 0.  1.
     999902    2    1    2    0    0  0.81291269849E-02 -0.95165616479E-02 -0.33660631460E-02  0.10309693661E+01  0.10308878968E+01 0.  0.
     999903    2    3    3    0    0 -0.34416563042E-01 -0.12550019078E+00  0.32872894957E-01  0.14160127575E+00  0.45116475640E-01 0.  0.
         14    1    1    2    0    0 -0.81291269849E-02  0.95165616479E-02  0.33660631460E-02  0.12960633944E-01  0.00000000000E+00 0.  1.
     999901    1    3    3    0    0  0.42545690027E-01  0.11598362913E+00 -0.36238958103E-01  0.88936809030E+00  0.88000000000E+00 0.  1.
        -11    1    4    4    0    0 -0.42741375498E-01 -0.94253176480E-01  0.34842172489E-01  0.10920038718E+00  0.51100000000E-03 0. -1.
         11    1    4    4    0    0  0.83248124557E-02 -0.31247014300E-01 -0.19692775318E-02  0.32400888569E-01  0.51100000000E-03 0.  1.
</event>
<event>
 8    1  0.2101664E+004  0.1043930E+01  0.7957747E-01            NaN
         13   -1    0    0    0    0  0.00000000000E+00  0.00000000000E+00  0.74505805969E-08  0.10566000000E+00  0.10566000000E+00 0.  1.
     999900   -1    0    0    0    0 -0.00000000000E+00 -0.00000000000E+00 -0.74505805969E-08  0.93827000000E+00  0.93827000000E+00 0. -1.
     999902    2    1    2    0    0  0.86016607282E-02 -0.81150473891E-02  0.12267197827E-01  0.10268910240E+01  0.10267496523E+01 0.  0.
     999903    2    3    3    0    0  0.12588221909E+00 -0.28981877772E-01  0.23580999779E-01  0.13879296853E+00  0.44957115554E-01 0.  0.
         14    1    1    2    0    0 -0.86016607282E-02  0.81150473891E-02 -0.12267197827E-01  0.17038976024E-01  0.00000000000E+00 0. -1.
     999901    1    3    3    0    0 -0.11728055836E+00  0.20866830383E-01 -0.11313801952E-01  0.88809805545E+00  0.88000000000E+00 0. -1.
        -11    1    4    4    0    0  0.83857163592E-01 -0.40584762540E-01  0.16896435167E-01  0.94683142526E-01  0.51100000000E-03 0. -1.
         11    1    4    4    0    0  0.42025055499E-01  0.11602884769E-01  0.66845646120E-02  0.44109826000E-01  0.51100000000E-03 0.  1.
</event>
<event>
 8    1  0.2001339E+004  0.1043930E+01  0.7957747E-01            NaN
         13   -1    0    0    0    0  0.00000000000E+00  0.00000000000E+00  0.74505805969E-08  0.10566000000E+00  0.10566000000E+00 0.  1.
     999900   -1    0    0    0    0 -0.00000000000E+00 -0.00000000000E+00 -0.74505805969E-08  0.93827000000E+00  0.93827000000E+00 0.  1.
     999902    2    1    2    0    0 -0.37609764481E-02  0.74815004535E-02  0.11265257365E-01  0.10298934828E+01  0.10297978258E+01 0.  0.
     999903    2    3    3    0    0 -0.11034777674E+00  0.64659582783E-01 -0.36986583810E-01  0.14031025491E+00  0.44288449656E-01 0.  0.
         14    1    1    2    0    0  0.37609764481E-02 -0.74815004535E-02 -0.11265257365E-01  0.14036517245E-01  0.00000000000E+00 0. -1.
     999901    1    3    3    0    0  0.10658680029E+00 -0.57178082330E-01  0.48251841175E-01  0.88958322785E+00  0.88000000000E+00 0.  1.
        -11    1    4    4    0    0 -0.10170061821E+00  0.46418750035E-01 -0.19261998101E-01  0.11344162283E+00  0.51100000000E-03 0. -1.
         11    1    4    4    0    0 -0.86471585303E-02  0.18240832749E-01 -0.17724585709E-01  0.26868632075E-01  0.51100000000E-03 0.  1.
</event>
<event>
 8    1  0.2001339E+004  0.1043930E+01  0.7957747E-01            NaN
         13   -1    0    0    0    0  0.00000000000E+00  0.00000000000E+00  0.74505805969E-08  0.10566000000E+00  0.10566000000E+00 0. -1.
     999900   -1    0    0    0    0 -0.00000000000E+00 -0.00000000000E+00 -0.74505805969E-08  0.93827000000E+00  0.93827000000E+00 0. -1.
     999902    2    1    2    0    0 -0.11990534651E-01 -0.67421800026E-02  0.27641353697E-02  0.10298989503E+01  0.10298033683E+01 0.  0.
     999903    2    3    3    0    0 -0.78056880713E-01 -0.10974976251E+00 -0.44857430515E-02  0.14140140672E+00  0.42852642090E-01 0.  0.
         14    1    1    2    0    0  0.11990534651E-01  0.67421800026E-02 -0.27641353697E-02  0.14031049738E-01  0.00000000000E+00 0.  1.
     999901    1    3    3    0    0  0.66066346062E-01  0.10300758251E+00  0.72498784212E-02  0.88849754354E+00  0.88000000000E+00 0. -1.
        -11    1    4    4    0    0 -0.14804933124E-01 -0.31306371092E-01  0.16667029828E-01  0.38435997711E-01  0.51100000000E-03 0.  1.
         11    1    4    4    0    0 -0.63251947589E-01 -0.78443391423E-01 -0.21152772879E-01  0.10296540901E+00  0.51100000000E-03 0. -1.
</event>
<event>
 8    1  0.2001339E+004  0.1043930E+01  0.7957747E-01            NaN
         13   -1    0    0    0    0  0.00000000000E+00  0.00000000000E+00  0.74505805969E-08  0.10566000000E+00  0.10566000000E+00 0. -1.
     999900   -1    0    0    0    0 -0.00000000000E+00 -0.00000000000E+00 -0.74505805969E-08  0.93827000000E+00  0.93827000000E+00 0. -1.
     999902    2    1    2    0    0 -0.11450896205E-01  0.35381319194E-03 -0.84270427368E-02  0.10297080713E+01  0.10296098527E+01 0.  0.
     999903    2    3    3    0    0  0.94419924561E-01 -0.70392169741E-01 -0.55372983804E-01  0.13930504669E+00  0.49694556871E-01 0.  0.
         14    1    1    2    0    0  0.11450896205E-01 -0.35381319194E-03  0.84270427368E-02  0.14221928736E-01  0.00000000000E+00 0. -1.
     999901    1    3    3    0    0 -0.10587082077E+00  0.70745982933E-01  0.46945941067E-01  0.89040302458E+00  0.88000000000E+00 0.  1.
        -11    1    4    4    0    0  0.66400874511E-01 -0.34892897006E-01 -0.10766052469E-01  0.75780996325E-01  0.51100000000E-03 0.  1.
         11    1    4    4    0    0  0.28019050051E-01 -0.35499272735E-01 -0.44606931335E-01  0.63524050364E-01  0.51100000000E-03 0. -1.
</event>
<event>
 8    1  0.2001339E+004  0.1043930E+01  0.7957747E-01            NaN
         13   -1    0    0    0    0  0.00000000000E+00  0.00000000000E+00  0.74505805969E-08  0.10566000000E+00  0.10566000000E+00 0. -1.
     999900   -1    0    0    0    0 -0.00000000000E+00 -0.00000000000E+00 -0.74505805969E-08  0.93827000000E+00  0.93827000000E+00 0.  1.
     999902    2    1    2    0    0 -0.12750404860E-01 -0.74866784214E-03 -0.10481104650E-01  0.10274076853E+01  0.10272748245E+01 0.  0.
     999903    2    3    3    0    0  0.39304642506E-01 -0.11855906428E+00  0.33080660231E-01  0.13696585970E+00  0.45433577831E-01 0.  0.
         14    1    1    2    0    0  0.12750404860E-01  0.74866784214E-03  0.10481104650E-01  0.16522314678E-01  0.00000000000E+00 0. -1.
     999901    1    3    3    0    0 -0.52055047366E-01  0.11781039644E+00 -0.43561764881E-01  0.89044182563E+00  0.88000000000E+00 0.  1.
        -11    1    4    4    0    0 -0.12760775271E-02 -0.68245767672E-01  0.16145290571E-01  0.70143030356E-01  0.51100000000E-03 0.  1.
         11    1    4    4    0    0  0.40580720033E-01 -0.50313296612E-01  0.16935369660E-01  0.66822829339E-01  0.51100000000E-03 0. -1.
</event>
<event>
 8    1  0.2001339E+004  0.1043930E+01  0.7957747E-01            NaN
         13   -1    0    0    0    0  0.00000000000E+00  0.00000000000E+00  0.74505805969E-08  0.10566000000E+00  0.10566000000E+00 0.  1.
     999900   -1    0    0    0    0 -0.00000000000E+00 -0.00000000000E+00 -0.74505805969E-08  0.93827000000E+00  0.93827000000E+00 0. -1.
     999902    2    1    2    0    0 -0.13523886380E-01  0.20330805311E-03 -0.15006075833E-02  0.10303215960E+01  0.10302317227E+01 0.  0.
     999903    2    3    3    0    0 -0.71712101084E-01 -0.22640966049E-02  0.11287684981E+00  0.14101053725E+00  0.44665835010E-01 0.  0.
         14    1    1    2    0    0  0.13523886380E-01 -0.20330805311E-03  0.15006075833E-02  0.13608404024E-01  0.00000000000E+00 0.  1.
     999901    1    3    3    0    0  0.58188214704E-01  0.24674046580E-02 -0.11437745739E+00  0.88931105873E+00  0.88000000000E+00 0. -1.
        -11    1    4    4    0    0 -0.23925251933E-01 -0.22054665523E-01  0.48902225187E-01  0.58741081881E-01  0.51100000000E-03 0. -1.
         11    1    4    4    0    0 -0.47786849151E-01  0.19790568918E-01  0.63974624621E-01  0.82269455366E-01  0.51100000000E-03 0.  1.
</event>
<event>
 8    1  0.2001339E+004  0.1043930E+01  0.7957747E-01            NaN
         13   -1    0    0    0    0  0.00000000000E+00  0.00000000000E+00  0.74505805969E-08  0.10566000000E+00  0.10566000000E+00 0. -1.
     999900   -1    0    0    0    0 -0.00000000000E+00 -0.00000000000E+00 -0.74505805969E-08  0.93827000000E+00  0.93827000000E+00 0.  1.
     999902    2    1    2    0    0  0.69006031672E-02  0.50890796118E-02  0.98930338315E-02  0.10308384312E+01  0.10307552969E+01 0.  0.
     999903    2    3    3    0    0  0.73207258051E-01 -0.79641413611E-01  0.79916462073E-01  0.14152458926E+00  0.44051232224E-01 0.  0.
         14    1    1    2    0    0 -0.69006031672E-02 -0.50890796118E-02 -0.98930338315E-02  0.13091568804E-01  0.00000000000E+00 0.  1.
     999901    1    3    3    0    0 -0.66306654883E-01  0.84730493222E-01 -0.70023428242E-01  0.88931384194E+00  0.88000000000E+00 0.  1.
        -11    1    4    4    0    0  0.82300361727E-02 -0.11949606864E-02 -0.42815010090E-02  0.93676997356E-02  0.51100000000E-03 0. -1.
         11    1    4    4    0    0  0.64977221878E-01 -0.78446452924E-01  0.84197963082E-01  0.13215688952E+00  0.51100000000E-03 0.  1.
</event>
<event>
 8    1  0.2001339E+004  0.1043930E+01  0.7957747E-01            NaN
         13   -1    0    0    0    0  0.00000000000E+00  0.00000000000E+00  0.74505805969E-08  0.10566000000E+00  0.10566000000E+00 0. -1.
     999900   -1    0    0    0    0 -0.00000000000E+00 -0.00000000000E+00 -0.74505805969E-08  0.93827000000E+00  0.93827000000E+00 0.  1.
     999902    2    1    2    0    0 -0.18084120443E-02  0.10338428279E-01  0.10007188530E-01  0.10294283699E+01  0.10293262221E+01 0.  0.
     999903    2    3    3    0    0  0.90347855293E-01 -0.84831316420E-01 -0.41158687018E-01  0.13804292872E+00  0.44751820652E-01 0.  0.
         14    1    1    2    0    0  0.18084120443E-02 -0.10338428279E-01 -0.10007188530E-01  0.14501630104E-01  0.00000000000E+00 0. -1.
     999901    1    3    3    0    0 -0.92156267337E-01  0.95169744699E-01  0.51165875548E-01  0.89138544117E+00  0.88000000000E+00 0. -1.
        -11    1    4    4    0    0  0.43619880623E-01 -0.20308586319E-01  0.54144032299E-03  0.48121584995E-01  0.51100000000E-03 0. -1.
         11    1    4    4    0    0  0.46727974670E-01 -0.64522730101E-01 -0.41700127341E-01  0.89921343727E-01  0.51100000000E-03 0.  1.
</event>
<event>
 8    1  0.2001339E+004  0.1043930E+01  0.7957747E-01            NaN
         13   -1    0    0    0    0  0.00000000000E+00  0.00000000000E+00  0.74505805969E-08  0.10566000000E+00  0.10566000000E+00 0.  1.
     999900   -1    0    0    0    0 -0.00000000000E+00 -0.00000000000E+00 -0.74505805969E-08  0.93827000000E+00  0.93827000000E+00 0. -1.
     999902    2    1    2    0    0 -0.30546768653E-02 -0.85071983983E-02 -0.12739662073E-01  0.10283094217E+01  0.10281907724E+01 0.  0.
     999903    2    3    3    0    0 -0.47121441531E-01 -0.26013954375E-01 -0.12169213839E+00  0.14032349373E+00  0.44548291458E-01 0.  0.
         14    1    1    2    0    0  0.30546768653E-02  0.85071983983E-02  0.12739662073E-01  0.15620578256E-01  0.00000000000E+00 0.  1.
     999901    1    3    3    0    0  0.44066764666E-01  0.17506755977E-01  0.10895247632E+00  0.88798592801E+00  0.88000000000E+00 0.  1.
        -11    1    4    4    0    0 -0.13369175509E-01  0.98322323024E-02 -0.13305350970E-01  0.21276774457E-01  0.51100000000E-03 0. -1.
         11    1    4    4    0    0 -0.33752266022E-01 -0.35846186678E-01 -0.10838678742E+00  0.11904671927E+00  0.51100000000E-03 0.  1.
</event>
<event>
 8    1  0.2001339E+004  0.1043930E+01  0.7957747E-01            NaN
         13   -1    0    0    0    0  0.00000000000E+00  0.00000000000E+00  0.74505805969E-08  0.10566000000E+00  0.10566000000E+00 0.  1.
     999900   -1    0    0    0    0 -0.00000000000E+00 -0.00000000000E+00 -0.74505805969E-08  0.93827000000E+00  0.93827000000E+00 0.  1.
     999902    2    1    2    0    0  0.80016268496E-02 -0.10316678111E-01  0.93036276951E-02  0.10278982388E+01  0.10277732104E+01 0.  0.
     999903    2    3    3    0    0 -0.10740289578E+00  0.50344857609E-01  0.51179345444E-01  0.13730764738E+00  0.46519650897E-01 0.  0.
         14    1    1    2    0    0 -0.80016268496E-02  0.10316678111E-01 -0.93036276951E-02  0.16031761219E-01  0.00000000000E+00 0. -1.
     999901    1    3    3    0    0  0.11540452263E+00 -0.60661535720E-01 -0.41875717749E-01  0.89059059140E+00  0.88000000000E+00 0. -1.
        -11    1    4    4    0    0 -0.31390282783E-01 -0.47663110817E-02  0.33323948287E-02  0.31928569508E-01  0.51100000000E-03 0.  1.
         11    1    4    4    0    0 -0.76012612993E-01  0.55111168691E-01  0.47846950615E-01  0.10537907787E+00  0.51100000000E-03 0. -1.
</event>
<event>
 8    1  0.2001339E+004  0.1043930E+01  0.7957747E-01            NaN
         13   -1    0    0    0    0  0.00000000000E+00  0.00000000000E+00  0.74505805969E-08  0.10566000000E+00  0.10566000000E+00 0.  1.
     999900   -1    0    0    0    0 -0.00000000000E+00 -0.00000000000E+00 -0.74505805969E-08  0.93827000000E+00  0.93827000000E+00 0.  1.
     999902    2    1    2    0    0  0.96133379604E-02  0.54530801322E-02  0.80751517839E-02  0.10302420335E+01  0.10301510992E+01 0.  0.
     999903    2    3    3    0    0  0.90648584631E-01  0.96443667892E-01  0.23819997744E-01  0.14170734179E+00  0.44665774947E-01 0.  0.
         14    1    1    2    0    0 -0.96133379604E-02 -0.54530801322E-02 -0.80751517839E-02  0.13687966467E-01  0.00000000000E+00 0. -1.
     999901    1    3    3    0    0 -0.81035246670E-01 -0.90990587759E-01 -0.15744845960E-01  0.88853469175E+00  0.88000000000E+00 0. -1.
        -11    1    4    4    0    0  0.55194527597E-01  0.41984655564E-01  0.31690472067E-01  0.76247585669E-01  0.51100000000E-03 0.  1.
         11    1    4    4    0    0  0.35454057033E-01  0.54459012327E-01 -0.78704743233E-02  0.65459756117E-01  0.51100000000E-03 0. -1.
</event>
<event>
 8    1  0.2001339E+004  0.1043930E+01  0.7957747E-01            NaN
         13   -1    0    0    0    0  0.00000000000E+00  0.00000000000E+00  0.74505805969E-08  0.10566000000E+00  0.10566000000E+00 0.  1.
     999900   -1    0    0    0    0 -0.00000000000E+00 -0.00000000000E+00 -0.74505805969E-08  0.93827000000E+00  0.93827000000E+00 0. -1.
     999902    2    1    2    0    0 -0.17708122993E-02 -0.37011124851E-02 -0.12468032647E-01  0.10308042296E+01  0.10307206576E+01 0.  0.
     999903    2    3    3    0    0  0.71956318898E-02  0.99245670007E-01  0.86077582382E-01  0.13929445661E+00  0.45739647124E-01 0.  0.
         14    1    1    2    0    0  0.17708122993E-02  0.37011124851E-02  0.12468032647E-01  0.13125770374E-01  0.00000000000E+00 0.  1.
     999901    1    3    3    0    0 -0.89664441891E-02 -0.10294678249E+00 -0.98545615030E-01  0.89150977302E+00  0.88000000000E+00 0. -1.
        -11    1    4    4    0    0  0.14511090274E-01  0.63791084458E-01  0.78706467850E-01  0.10234668241E+00  0.51100000000E-03 0.  1.
         11    1    4    4    0    0 -0.73154583844E-02  0.35454585549E-01  0.73711145320E-02  0.36947774199E-01  0.51100000000E-03 0. -1.
</event>
<event>
 8    1  0.2001339E+004  0.1043930E+01  0.7957747E-01            NaN
         13   -1    0    0    0    0  0.00000000000E+00  0.00000000000E+00  0.74505805969E-08  0.10566000000E+00  0.10566000000E+00 0. -1.
     999900   -1    0    0    0    0 -0.00000000000E+00 -0.00000000000E+00 -0.74505805969E-08  0.93827000000E+00  0.93827000000E+00 0. -1.
     999902    2    1    2    0    0 -0.50447500492E-02 -0.71545271989E-02  0.10254658103E-01  0.10304468707E+01  0.10303586553E+01 0.  0.
     999903    2    3    3    0    0  0.69101106722E-01  0.60588646206E-01 -0.93467166730E-01  0.13868178810E+00  0.45283331324E-01 0.  0.
         14    1    1    2    0    0  0.50447500492E-02  0.71545271989E-02 -0.10254658103E-01  0.13483129285E-01  0.00000000000E+00 0.  1.
     999901    1    3    3    0    0 -0.74145856771E-01 -0.67743173404E-01  0.10372182483E+00  0.89176508261E+00  0.88000000000E+00 0.  1.
        -11    1    4    4    0    0  0.44334445607E-01  0.22412771184E-01 -0.74123816332E-01  0.89232710639E-01  0.51100000000E-03 0. -1.
         11    1    4    4    0    0  0.24766661114E-01  0.38175875021E-01 -0.19343350398E-01  0.49449077464E-01  0.51100000000E-03 0.  1.
</event>
<event>
 8    1  0.2001339E+004  0.1043930E+01  0.7957747E-01            NaN
         13   -1    0    0    0    0  0.00000000000E+00  0.00000000000E+00  0.74505805969E-08  0.10566000000E+00  0.10566000000E+00 0.  1.
     999900   -1    0    0    0    0 -0.00000000000E+00 -0.00000000000E+00 -0.74505805969E-08  0.93827000000E+00  0.93827000000E+00 0.  1.
     999902    2    1    2    0    0  0.88195424775E-03 -0.19954423070E-02  0.13559799118E-01  0.10301958169E+01  0.10301042634E+01 0.  0.
     999903    2    3    3    0    0 -0.11490978727E-01 -0.94641505867E-01 -0.90627616946E-01  0.13913386606E+00  0.45341046605E-01 0.  0.
         14    1    1    2    0    0 -0.88195424775E-03  0.19954423070E-02 -0.13559799118E-01  0.13734183100E-01  0.00000000000E+00 0. -1.
     999901    1    3    3    0    0  0.12372932975E-01  0.92646063560E-01  0.10418741606E+00  0.89106195084E+00  0.88000000000E+00 0. -1.
        -11    1    4    4    0    0 -0.18560070555E-01 -0.25864571630E-01 -0.11018832344E-01  0.33691661755E-01  0.51100000000E-03 0. -1.
         11    1    4    4    0    0  0.70690918278E-02 -0.68776934237E-01 -0.79608784603E-01  0.10544220431E+00  0.51100000000E-03 0.  1.
</event>
<event>
 8    1  0.2001339E+004  0.1043930E+01  0.7957747E-01            NaN
         13   -1    0    0    0    0  0.00000000000E+00  0.00000000000E+00  0.74505805969E-08  0.10566000000E+00  0.10566000000E+00 0. -1.
     999900   -1    0    0    0    0 -0.00000000000E+00 -0.00000000000E+00 -0.74505805969E-08  0.93827000000E+00  0.93827000000E+00 0. -1.
     999902    2    1    2    0    0  0.65587190296E-02 -0.10230367157E-01 -0.81921822489E-02  0.10292743165E+01  0.10291699712E+01 0.  0.
     999903    2    3    3    0    0 -0.20517992537E-01 -0.86065039788E-01  0.97620045570E-01  0.13928539895E+00  0.45194800289E-01 0.  0.
         14    1    1    2    0    0 -0.65587190296E-02  0.10230367157E-01  0.81921822489E-02  0.14655683453E-01  0.00000000000E+00 0. -1.
     999901    1    3    3    0    0  0.27076711566E-01  0.75834672630E-01 -0.10581222782E+00  0.88998891759E+00  0.88000000000E+00 0.  1.
        -11    1    4    4    0    0 -0.10112643611E-01 -0.18377360975E-02  0.26940693950E-01  0.28839295176E-01  0.51100000000E-03 0. -1.
         11    1    4    4    0    0 -0.10405348926E-01 -0.84227303690E-01  0.70679351621E-01  0.11044610378E+00  0.51100000000E-03 0.  1.
</event>
<event>
 8    1  0.2001339E+004  0.1043930E+01  0.7957747E-01            NaN
         13   -1    0    0    0    0  0.00000000000E+00  0.00000000000E+00  0.74505805969E-08  0.10566000000E+00  0.10566000000E+00 0. -1.
     999900   -1    0    0    0    0 -0.00000000000E+00 -0.00000000000E+00 -0.74505805969E-08  0.93827000000E+00  0.93827000000E+00 0. -1.
     999902    2    1    2    0    0 -0.58540330174E-02 -0.13545718465E-01  0.23351179519E-02  0.10289898204E+01  0.10288813544E+01 0.  0.
     999903    2    3    3    0    0 -0.10851782610E+00  0.43004839642E-01 -0.60770987893E-01  0.13897847178E+00  0.44680732273E-01 0.  0.
         14    1    1    2    0    0  0.58540330174E-02  0.13545718465E-01 -0.23351179519E-02  0.14940179622E-01  0.00000000000E+00 0. -1.
     999901    1    3    3    0    0  0.10266379308E+00 -0.56550558107E-01  0.63106105845E-01  0.89001134859E+00  0.88000000000E+00 0.  1.
        -11    1    4    4    0    0 -0.67307079651E-01  0.13453389257E-01 -0.14133152248E-01  0.70080266603E-01  0.51100000000E-03 0. -1.
         11    1    4    4    0    0 -0.41210746445E-01  0.29551450385E-01 -0.46637835646E-01  0.68898205180E-01  0.51100000000E-03 0.  1.
</event>
<event>
 8    1  0.2001339E+004  0.1043930E+01  0.7957747E-01            NaN
         13   -1    0    0    0    0  0.00000000000E+00  0.00000000000E+00  0.74505805969E-08  0.10566000000E+00  0.10566000000E+00 0.  1.
     999900   -1    0    0    0    0 -0.00000000000E+00 -0.00000000000E+00 -0.74505805969E-08  0.93827000000E+00  0.93827000000E+00 0.  1.
     999902    2    1    2    0    0  0.13472458462E-01 -0.22116493787E-02 -0.12137152641E-02  0.10302233726E+01  0.10301321885E+01 0.  0.
     999903    2    3    3    0    0  0.12058272601E+00  0.54917843997E-01  0.22190374023E-01  0.14158163386E+00  0.44685377335E-01 0.  0.
         14    1    1    2    0    0 -0.13472458462E-01  0.22116493787E-02  0.12137152641E-02  0.13706627402E-01  0.00000000000E+00 0. -1.
     999901    1    3    3    0    0 -0.10711026754E+00 -0.57129493375E-01 -0.23404089287E-01  0.88864173874E+00  0.88000000000E+00 0. -1.
        -11    1    4    4    0    0  0.97658231123E-01  0.59498106870E-01  0.89406893916E-02  0.11470550063E+00  0.51100000000E-03 0. -1.
         11    1    4    4    0    0  0.22924494884E-01 -0.45802628735E-02  0.13249684631E-01  0.26876133232E-01  0.51100000000E-03 0.  1.
</event>
<event>
 8    1  0.2001339E+004  0.1043930E+01  0.7957747E-01            NaN
         13   -1    0    0    0    0  0.00000000000E+00  0.00000000000E+00  0.74505805969E-08  0.10566000000E+00  0.10566000000E+00 0. -1.
     999900   -1    0    0    0    0 -0.00000000000E+00 -0.00000000000E+00 -0.74505805969E-08  0.93827000000E+00  0.93827000000E+00 0.  1.
     999902    2    1    2    0    0 -0.55736658804E-02  0.55196186207E-02  0.11139590593E-01  0.10303056681E+01  0.10302155829E+01 0.  0.
     999903    2    3    3    0    0  0.32786051548E-01 -0.12714199362E+00  0.18576141842E-01  0.13950497570E+00  0.43319204561E-01 0.  0.
         14    1    1    2    0    0  0.55736658804E-02 -0.55196186207E-02 -0.11139590593E-01  0.13624331897E-01  0.00000000000E+00 0. -1.
     999901    1    3    3    0    0 -0.38359717429E-01  0.13266161224E+00 -0.74365512487E-02  0.89080069240E+00  0.88000000000E+00 0.  1.
        -11    1    4    4    0    0  0.71867123559E-02 -0.88923002084E-01  0.25956535338E-01  0.92913680273E-01  0.51100000000E-03 0. -1.
         11    1    4    4    0    0  0.25599339192E-01 -0.38218991533E-01 -0.73803934966E-02  0.46591295432E-01  0.51100000000E-03 0.  1.
</event>
<event>
 8    1  0.2001339E+004  0.1043930E+01  0.7957747E-01            NaN
         13   -1    0    0    0    0  0.00000000000E+00  0.00000000000E+00  0.74505805969E-08  0.10566000000E+00  0.10566000000E+00 0. -1.
     999900   -1    0    0    0    0 -0.00000000000E+00 -0.00000000000E+00 -0.74505805969E-08  0.93827000000E+00  0.93827000000E+00 0. -1.
     999902    2    1    2    0    0 -0.52365880081E-02 -0.38291230044E-02  0.12137384811E-01  0.10301677274E+01  0.10300757965E+01 0.  0.
     999903    2    3    3    0    0 -0.92682685630E-01 -0.34846698052E-01  0.91046726398E-01  0.14177840163E+00  0.44802189697E-01 0.  0.
         14    1    1    2    0    0  0.52365880081E-02  0.38291230044E-02 -0.12137384811E-01  0.13762272596E-01  0.00000000000E+00 0.  1.
     999901    1    3    3    0    0  0.87446097622E-01  0.31017575048E-01 -0.78909341586E-01  0.88838932577E+00  0.88000000000E+00 0. -1.
        -11    1    4    4    0    0 -0.53610217182E-01 -0.32215455118E-01  0.30297118696E-01  0.69498686728E-01  0.51100000000E-03 0. -1.
         11    1    4    4    0    0 -0.39072468448E-01 -0.26312429347E-02  0.60749607702E-01  0.72279714906E-01  0.51100000000E-03 0.  1.
</event>
<event>
 8    1  0.2001339E+004  0.1043930E+01  0.7957747E-01            NaN
         13   -1    0    0    0    0  0.00000000000E+00  0.00000000000E+00  0.74505805969E-08  0.10566000000E+00  0.10566000000E+00 0. -1.
     999900   -1    0    0    0    0 -0.00000000000E+00 -0.00000000000E+00 -0.74505805969E-08  0.93827000000E+00  0.93827000000E+00 0. -1.
     999902    2    1    2    0    0 -0.44759892746E-02  0.13165238507E-01 -0.48124928820E-03  0.10300163525E+01  0.10299223742E+01 0.  0.
     999903    2    3    3    0    0 -0.71126863491E-01  0.10508795325E+00  0.43945285507E-01  0.14161000321E+00  0.44941030968E-01 0.  0.
         14    1    1    2    0    0  0.44759892746E-02 -0.13165238507E-01  0.48124928820E-03  0.13913647466E-01  0.00000000000E+00 0. -1.
     999901    1    3    3    0    0  0.66650874217E-01 -0.91922714739E-01 -0.44426534795E-01  0.88840634932E+00  0.88000000000E+00 0.  1.
        -11    1    4    4    0    0 -0.39785662622E-01  0.68536526637E-01  0.45207425229E-02  0.79377910452E-01  0.51100000000E-03 0.  1.
         11    1    4    4    0    0 -0.31341200869E-01  0.36551426608E-01  0.39424542984E-01  0.62232092762E-01  0.51100000000E-03 0. -1.
</event>
<event>
 8    1  0.2001339E+004  0.1043930E+01  0.7957747E-01            NaN
         13   -1    0    0    0    0  0.00000000000E+00  0.00000000000E+00  0.74505805969E-08  0.10566000000E+00  0.10566000000E+00 0. -1.
     999900   -1    0    0    0    0 -0.00000000000E+00 -0.00000000000E+00 -0.74505805969E-08  0.93827000000E+00  0.93827000000E+00 0. -1.
     999902    2    1    2    0    0 -0.60430416265E-02  0.78418784631E-02  0.97916458702E-02  0.10300055704E+01  0.10299114454E+01 0.  0.
     999903    2    3    3    0    0 -0.50574443370E-01 -0.56400472721E-01 -0.10780617691E+00  0.13874838345E+00  0.43475906946E-01 0.  0.
         14    1    1    2    0    0  0.60430416265E-02 -0.78418784631E-02 -0.97916458702E-02  0.13924429567E-01  0.00000000000E+00 0.  1.
     999901    1    3    3    0    0  0.44531401743E-01  0.64242351184E-01  0.11759782278E+00  0.89125718698E+00  0.88000000000E+00 0.  1.
        -11    1    4    4    0    0 -0.36168771523E-01 -0.60294279918E-01 -0.98951840547E-01  0.12138907732E+00  0.51100000000E-03 0. -1.
         11    1    4    4    0    0 -0.14405671847E-01  0.38938071964E-02 -0.88543363616E-02  0.17359306128E-01  0.51100000000E-03 0.  1.
</event>
<event>
 8    1  0.2001339E+004  0.1043930E+01  0.7957747E-01            NaN
         13   -1    0    0    0    0  0.00000000000E+00  0.00000000000E+00  0.74505805969E-08  0.10566000000E+00  0.10566000000E+00 0.  1.
     999900   -1    0    0    0    0 -0.00000000000E+00 -0.00000000000E+00 -0.74505805969E-08  0.93827000000E+00  0.93827000000E+00 0. -1.
     999902    2    1    2    0    0  0.12776469967E-01  0.10459606640E-02 -0.72981466610E-02  0.10291788928E+01  0.10290731744E+01 0.  0.
     999903    2    3    3    0    0  0.73952880354E-01  0.79894877385E-01 -0.77061012143E-01  0.14079465035E+00  0.45083411915E-01 0.  0.
         14    1    1    2    0    0 -0.12776469967E-01 -0.10459606640E-02  0.72981466610E-02  0.14751107186E-01  0.00000000000E+00 0.  1.
     999901    1    3    3    0    0 -0.61176410387E-01 -0.78848916721E-01  0.69762865482E-01  0.88838424246E+00  0.88000000000E+00 0.  1.
        -11    1    4    4    0    0  0.50986461812E-01  0.52176377049E-01 -0.24246519249E-01  0.76877489727E-01  0.51100000000E-03 0.  1.
         11    1    4    4    0    0  0.22966418542E-01  0.27718500335E-01 -0.52814492894E-01  0.63917160623E-01  0.51100000000E-03 0. -1.
</event>
<event>
 8    1  0.2001339E+004  0.1043930E+01  0.7957747E-01            NaN
         13   -1    0    0    0    0  0.00000000000E+00  0.00000000000E+00  0.74505805969E-08  0.10566000000E+00  0.10566000000E+00 0.  1.
     999900   -1    0    0    0    0 -0.00000000000E+00 -0.00000000000E+00 -0.74505805969E-08  0.93827000000E+00  0.93827000000E+00 0. -1.
     999902    2    1    2    0    0 -0.78280696526E-02 -0.11682918807E-01 -0.13351349513E-02  0.10298037177E+01  0.10297068248E+01 0.  0.
     999903    2    3    3    0    0  0.78881876999E-01  0.91531785324E-01 -0.50837812375E-01  0.13816342864E+00  0.43637502258E-01 0.  0.
         14    1    1    2    0    0  0.78280696526E-02  0.11682918807E-01  0.13351349513E-02  0.14126282302E-01  0.00000000000E+00 0. -1.
     999901    1    3    3    0    0 -0.86709946652E-01 -0.10321470413E+00  0.49502677424E-01  0.89164028906E+00  0.88000000000E+00 0.  1.
        -11    1    4    4    0    0  0.65157386717E-01  0.44266553497E-01 -0.37030705417E-01  0.87043363142E-01  0.51100000000E-03 0. -1.
         11    1    4    4    0    0  0.13724490282E-01  0.47265231827E-01 -0.13807106958E-01  0.51120065500E-01  0.51100000000E-03 0.  1.
</event>
<event>
 8    1  0.2001339E+004  0.1043930E+01  0.7957747E-01            NaN
         13   -1    0    0    0    0  0.00000000000E+00  0.00000000000E+00  0.74505805969E-08  0.10566000000E+00  0.10566000000E+00 0. -1.
     999900   -1    0    0    0    0 -0.00000000000E+00 -0.00000000000E+00 -0.74505805969E-08  0.93827000000E+00  0.93827000000E+00 0. -1.
     999902    2    1    2    0    0  0.72425635920E-02  0.23524582595E-02 -0.98161618467E-02  0.10315064007E+01  0.10314315822E+01 0.  0.
     999903    2    3    3    0    0 -0.52361918287E-01  0.21106947037E-01  0.11949814441E+00  0.13986375087E+00  0.45768860508E-01 0.  0.
         14    1    1    2    0    0 -0.72425635920E-02 -0.23524582595E-02  0.98161618467E-02  0.12423599344E-01  0.00000000000E+00 0. -1.
     999901    1    3    3    0    0  0.59604481879E-01 -0.18754488778E-01 -0.12931430625E+00  0.89164264978E+00  0.88000000000E+00 0. -1.
        -11    1    4    4    0    0 -0.37841002352E-01 -0.48075862514E-02  0.91098499682E-01  0.98763617339E-01  0.51100000000E-03 0.  1.
         11    1    4    4    0    0 -0.14520915935E-01  0.25914533289E-01  0.28399644724E-01  0.41100133535E-01  0.51100000000E-03 0. -1.
</event>
<event>
 8    1  0.2001339E+004  0.1043930E+01  0.7957747E-01            NaN
         13   -1    0    0    0    0  0.00000000000E+00  0.00000000000E+00  0.74505805969E-08  0.10566000000E+00  0.10566000000E+00 0. -1.
     999900   -1    0    0    0    0 -0.00000000000E+00 -0.00000000000E+00 -0.74505805969E-08  0.93827000000E+00  0.93827000000E+00 0.  1.
     999902    2    1    2    0    0 -0.49754249476E-02 -0.10820583637E-01  0.64528564214E-02  0.10303845491E+01  0.10302955109E+01 0.  0.
     999903    2    3    3    0    0 -0.82347809714E-01  0.70810957316E-01  0.76739742895E-01  0.14044610135E+00  0.45174835960E-01 0.  0.
         14    1    1    2    0    0  0.49754249476E-02  0.10820583637E-01 -0.64528564214E-02  0.13545450884E-01  0.00000000000E+00 0.  1.
     999901    1    3    3    0    0  0.77372384767E-01 -0.81631540952E-01 -0.70286886474E-01  0.88993844777E+00  0.88000000000E+00 0.  1.
        -11    1    4    4    0    0 -0.71296175238E-01  0.35947798512E-01  0.61655174065E-01  0.10088116986E+00  0.51100000000E-03 0. -1.
         11    1    4    4    0    0 -0.11051634476E-01  0.34863158803E-01  0.15084568830E-01  0.39564931494E-01  0.51100000000E-03 0.  1.
</event>
<event>
 8    1  0.2001339E+004  0.1043930E+01  0.7957747E-01            NaN
         13   -1    0    0    0    0  0.00000000000E+00  0.00000000000E+00  0.74505805969E-08  0.10566000000E+00  0.10566000000E+00 0.  1.
     999900   -1    0    0    0    0 -0.00000000000E+00 -0.00000000000E+00 -0.74505805969E-08  0.93827000000E+00  0.93827000000E+00 0. -1.
     999902    2    1    2    0    0  0.51281160849E-02 -0.75567089146E-02  0.10644004708E-01  0.10299051556E+01  0.10298096588E+01 0.  0.
     999903    2    3    3    0    0 -0.33100156641E-01 -0.33701337956E-01 -0.12208333210E+00  0.13874776860E+00  0.45991333601E-01 0.  0.
         14    1    1    2    0    0 -0.51281160849E-02  0.75567089146E-02 -0.10644004708E-01  0.14024844399E-01  0.00000000000E+00 0. -1.
     999901    1    3    3    0    0  0.38228272726E-01  0.26144629041E-01  0.13272733681E+00  0.89115738700E+00  0.88000000000E+00 0.  1.
        -11    1    4    4    0    0 -0.98399785056E-02 -0.38552888526E-01 -0.57463844506E-01  0.69896387153E-01  0.51100000000E-03 0. -1.
         11    1    4    4    0    0 -0.23260178135E-01  0.48515505702E-02 -0.64619487593E-01  0.68851381450E-01  0.51100000000E-03 0.  1.
</event>
<event>
 7    1  0.3624238E+004  0.1043930E+01  0.7957747E-01            NaN
         13   -1    0    0    0    0  0.00000000000E+00  0.00000000000E+00  0.74505805969E-08  0.10566000000E+00  0.10566000000E+00 0.  1.
     999900   -1    0    0    0    0 -0.00000000000E+00 -0.00000000000E+00 -0.74505805969E-08  0.93827000000E+00  0.93827000000E+00 0. -1.
     999903    2    1    2    0    0 -0.16240283944E-01  0.15497888742E-01  0.10862093276E+00  0.11973164427E+00  0.45091332095E-01 0.  0.
         14    1    1    2    0    0  0.26210408736E-01  0.22355807337E-01  0.87492074233E-02  0.35543160781E-01  0.00000000000E+00 0. -1.
     999901    1    1    2    0    0 -0.99701247912E-02 -0.37853696079E-01 -0.11737014018E+00  0.88865519494E+00  0.88000000000E+00 0. -1.
        -11    1    3    3    0    0 -0.31441235077E-01  0.11589584366E-01  0.61158185702E-01  0.69738472369E-01  0.51100000000E-03 0.  1.
         11    1    3    3    0    0  0.15200951133E-01  0.39083043753E-02  0.47462747053E-01  0.49993171906E-01  0.51100000000E-03 0. -1.
</event>
<event>
 8    1  0.2001339E+004  0.1043930E+01  0.7957747E-01            NaN
         13   -1    0    0    0    0  0.00000000000E+00  0.00000000000E+00  0.74505805969E-08  0.10566000000E+00  0.10566000000E+00 0. -1.
     999900   -1    0    0    0    0 -0.00000000000E+00 -0.00000000000E+00 -0.74505805969E-08  0.93827000000E+00  0.93827000000E+00 0. -1.
     999902    2    1    2    0    0 -0.11539139416E-01  0.53844999794E-03 -0.41252182084E-02  0.10316638232E+01  0.10315909001E+01 0.  0.
     999903    2    3    3    0    0  0.37335704653E-01 -0.97801961009E-01 -0.82990597657E-01  0.14133841369E+00  0.46151158892E-01 0.  0.
         14    1    1    2    0    0  0.11539139416E-01 -0.53844999794E-03  0.41252182084E-02  0.12266176753E-01  0.00000000000E+00 0. -1.
     999901    1    3    3    0    0 -0.48874844069E-01  0.98340411007E-01  0.78865379448E-01  0.89032540955E+00  0.88000000000E+00 0.  1.
        -11    1    4    4    0    0 -0.39385651023E-02 -0.45589028158E-01 -0.20875513165E-01  0.50298309657E-01  0.51100000000E-03 0. -1.
         11    1    4    4    0    0  0.41274269755E-01 -0.52212932851E-01 -0.62115084492E-01  0.91040104038E-01  0.51100000000E-03 0.  1.
</event>
<event>
 8    1  0.2001339E+004  0.1043930E+01  0.7957747E-01            NaN
         13   -1    0    0    0    0  0.00000000000E+00  0.00000000000E+00  0.74505805969E-08  0.10566000000E+00  0.10566000000E+00 0. -1.
     999900   -1    0    0    0    0 -0.00000000000E+00 -0.00000000000E+00 -0.74505805969E-08  0.93827000000E+00  0.93827000000E+00 0. -1.
     999902    2    1    2    0    0  0.85073896455E-02  0.72565799617E-02  0.80263792985E-02  0.10301656840E+01  0.10300737255E+01 0.  0.
     999903    2    3    3    0    0  0.11691759504E+00  0.32361541453E-01  0.57869944086E-01  0.14175845038E+00  0.45050354387E-01 0.  0.
         14    1    1    2    0    0 -0.85073896455E-02 -0.72565799617E-02 -0.80263792985E-02  0.13764316037E-01  0.00000000000E+00 0. -1.
     999901    1    3    3    0    0 -0.10841020540E+00 -0.25104961492E-01 -0.49843564787E-01  0.88840723358E+00  0.88000000000E+00 0. -1.
        -11    1    4    4    0    0  0.11500214605E-01  0.13566081042E-01  0.23133523378E-01  0.29184148363E-01  0.51100000000E-03 0. -1.
         11    1    4    4    0    0  0.10541738044E+00  0.18795460411E-01  0.34736420708E-01  0.11257430202E+00  0.51100000000E-03 0.  1.
</event>
<event>
 8    1  0.2001339E+004  0.1043930E+01  0.7957747E-01            NaN
         13   -1    0    0    0    0  0.00000000000E+00  0.00000000000E+00  0.74505805969E-08  0.10566000000E+00  0.10566000000E+00 0. -1.
     999900   -1    0    0    0    0 -0.00000000000E+00 -0.00000000000E+00 -0.74505805969E-08  0.93827000000E+00  0.93827000000E+00 0. -1.
     999902    2    1    2    0    0 -0.18443236799E-02 -0.55873839311E-02 -0.12425540852E-01  0.10301817472E+01  0.10300900047E+01 0.  0.
     999903    2    3    3    0    0  0.93300939317E-01  0.12591171926E-01 -0.94903389363E-01  0.14103289778E+00  0.44944655480E-01 0.  0.
         14    1    1    2    0    0  0.18443236799E-02  0.55873839311E-02  0.12425540852E-01  0.13748252780E-01  0.00000000000E+00 0. -1.
     999901    1    3    3    0    0 -0.95145262997E-01 -0.18178555857E-01  0.82477848511E-01  0.88914884944E+00  0.88000000000E+00 0.  1.
        -11    1    4    4    0    0  0.88851993373E-01  0.23877053777E-01 -0.86357714636E-01  0.12618520683E+00  0.51100000000E-03 0.  1.
         11    1    4    4    0    0  0.44489459434E-02 -0.11285881852E-01 -0.85456747273E-02  0.14847690956E-01  0.51100000000E-03 0. -1.
</event>
<event>
 8    1  0.2001339E+004  0.1043930E+01  0.7957747E-01            NaN
         13   -1    0    0    0    0  0.00000000000E+00  0.00000000000E+00  0.74505805969E-08  0.10566000000E+00  0.10566000000E+00 0.  1.
     999900   -1    0    0    0    0 -0.00000000000E+00 -0.00000000000E+00 -0.74505805969E-08  0.93827000000E+00  0.93827000000E+00 0. -1.
     999902    2    1    2    0    0  0.53989813793E-02  0.78056355408E-02  0.16128340678E-01  0.10252163601E+01  0.10250455525E+01 0.  0.
     999903    2    3    3    0    0 -0.12659383452E+00 -0.12321978288E-01  0.64574448551E-02  0.13509235157E+00  0.45060123964E-01 0.  0.
         14    1    1    2    0    0 -0.53989813793E-02 -0.78056355408E-02 -0.16128340678E-01  0.18713639923E-01  0.00000000000E+00 0. -1.
     999901    1    3    3    0    0  0.13199281590E+00  0.20127613828E-01  0.96708958231E-02  0.89012400850E+00  0.88000000000E+00 0. -1.
        -11    1    4    4    0    0 -0.48769325161E-01 -0.17597691348E-02 -0.19234463387E-01  0.52457311853E-01  0.51100000000E-03 0. -1.
         11    1    4    4    0    0 -0.77824509362E-01 -0.10562209153E-01  0.25691908242E-01  0.82635039721E-01  0.51100000000E-03 0.  1.
</event>
<event>
 8    1  0.2001339E+004  0.1043930E+01  0.7957747E-01            NaN
         13   -1    0    0    0    0  0.00000000000E+00  0.00000000000E+00  0.74505805969E-08  0.10566000000E+00  0.10566000000E+00 0.  1.
     999900   -1    0    0    0    0 -0.00000000000E+00 -0.00000000000E+00 -0.74505805969E-08  0.93827000000E+00  0.93827000000E+00 0.  1.
     999902    2    1    2    0    0 -0.17425930459E-02  0.13193494385E-01  0.41312433714E-02  0.10299954352E+01  0.10299011722E+01 0.  0.
     999903    2    3    3    0    0 -0.50352829447E-01  0.11420273359E+00 -0.52078987263E-01  0.14110544677E+00  0.40259836064E-01 0.  0.
         14    1    1    2    0    0  0.17425930459E-02 -0.13193494385E-01 -0.41312433714E-02  0.13934564809E-01  0.00000000000E+00 0. -1.
     999901    1    3    3    0    0  0.48610236401E-01 -0.10100923921E+00  0.56210230635E-01  0.88888998842E+00  0.88000000000E+00 0. -1.
        -11    1    4    4    0    0 -0.26539612028E-01  0.82806446222E-01 -0.52722021795E-01  0.10169135286E+00  0.51100000000E-03 0.  1.
         11    1    4    4    0    0 -0.23813217419E-01  0.31396287372E-01  0.64303453160E-03  0.39414093914E-01  0.51100000000E-03 0. -1.
</event>
<event>
 8    1  0.2001339E+004  0.1043930E+01  0.7957747E-01            NaN
         13   -1    0    0    0    0  0.00000000000E+00  0.00000000000E+00  0.74505805969E-08  0.10566000000E+00  0.10566000000E+00 0. -1.
     999900   -1    0    0    0    0 -0.00000000000E+00 -0.00000000000E+00 -0.74505805969E-08  0.93827000000E+00  0.93827000000E+00 0. -1.
     999902    2    1    2    0    0  0.47807102977E-02 -0.90952103627E-02  0.10854063285E-01  0.10289838054E+01  0.10288752515E+01 0.  0.
     999903    2    3    3    0    0 -0.93973643843E-01 -0.62472116389E-01 -0.66774522848E-01  0.13846277033E+00  0.44489221199E-01 0.  0.
         14    1    1    2    0    0 -0.47807102977E-02  0.90952103627E-02 -0.10854063285E-01  0.14946194576E-01  0.00000000000E+00 0.  1.
     999901    1    3    3    0    0  0.98754354140E-01  0.53376906026E-01  0.77628586134E-01  0.89052103509E+00  0.88000000000E+00 0. -1.
        -11    1    4    4    0    0 -0.16863343574E-02 -0.17677383743E-01 -0.16395182058E-01  0.24174299065E-01  0.51100000000E-03 0.  1.
         11    1    4    4    0    0 -0.92287309485E-01 -0.44794732645E-01 -0.50379340790E-01  0.11428847127E+00  0.51100000000E-03 0. -1.
</event>
<event>
 8    1  0.2001339E+004  0.1043930E+01  0.7957747E-01            NaN
         13   -1    0    0    0    0  0.00000000000E+00  0.00000000000E+00  0.74505805969E-08  0.10566000000E+00  0.10566000000E+00 0. -1.
     999900   -1    0    0    0    0 -0.00000000000E+00 -0.00000000000E+00 -0.74505805969E-08  0.93827000000E+00  0.93827000000E+00 0.  1.
     999902    2    1    2    0    0 -0.11381164675E-01 -0.74176036980E-02  0.23173761897E-02  0.10301487814E+01  0.10300565954E+01 0.  0.
     999903    2    3    3    0    0  0.15486617389E-01  0.90162789249E-01 -0.94524982780E-01  0.13906951820E+00  0.45124213442E-01 0.  0.
         14    1    1    2    0    0  0.11381164675E-01  0.74176036980E-02 -0.23173761897E-02  0.13781218611E-01  0.00000000000E+00 0.  1.
     999901    1    3    3    0    0 -0.26867782065E-01 -0.97580392947E-01  0.96842358969E-01  0.89107926319E+00  0.88000000000E+00 0.  1.
        -11    1    4    4    0    0  0.68073908640E-02  0.72386542307E-01 -0.94559710882E-01  0.11928097971E+00  0.51100000000E-03 0. -1.
         11    1    4    4    0    0  0.86792265253E-02  0.17776246941E-01  0.34728102239E-04  0.19788538487E-01  0.51100000000E-03 0.  1.
</event>
<event>
 8    1  0.2001339E+004  0.1043930E+01  0.7957747E-01            NaN
         13   -1    0    0    0    0  0.00000000000E+00  0.00000000000E+00  0.74505805969E-08  0.10566000000E+00  0.10566000000E+00 0. -1.
     999900   -1    0    0    0    0 -0.00000000000E+00 -0.00000000000E+00 -0.74505805969E-08  0.93827000000E+00  0.93827000000E+00 0. -1.
     999902    2    1    2    0    0 -0.33513514534E-03  0.13129160768E-01  0.11503032172E-02  0.10307462837E+01  0.10306619674E+01 0.  0.
     999903    2    3    3    0    0 -0.11600181291E+00  0.32824116419E-01 -0.57726934526E-01  0.14100856912E+00  0.44912964476E-01 0.  0.
         14    1    1    2    0    0  0.33513514534E-03 -0.13129160768E-01 -0.11503032172E-02  0.13183716302E-01  0.00000000000E+00 0. -1.
     999901    1    3    3    0    0  0.11566667776E+00 -0.19694955651E-01  0.58877237743E-01  0.88973771458E+00  0.88000000000E+00 0.  1.
        -11    1    4    4    0    0 -0.12065480652E-01  0.20429137607E-01 -0.73567218302E-02  0.24845683002E-01  0.51100000000E-03 0. -1.
         11    1    4    4    0    0 -0.10393633226E+00  0.12394978812E-01 -0.50370212696E-01  0.11616288612E+00  0.51100000000E-03 0.  1.
</event>
<event>
 8    1  0.2001339E+004  0.1043930E+01  0.7957747E-01            NaN
         13   -1    0    0    0    0  0.00000000000E+00  0.00000000000E+00  0.74505805969E-08  0.10566000000E+00  0.10566000000E+00 0.  1.
     999900   -1    0    0    0    0 -0.00000000000E+00 -0.00000000000E+00 -0.74505805969E-08  0.93827000000E+00  0.93827000000E+00 0.  1.
     999902    2    1    2    0    0 -0.10063551365E-01  0.13138328232E-02 -0.85076709852E-02  0.10306868248E+01  0.10306017413E+01 0.  0.
     999903    2    3    3    0    0  0.23927554914E-01  0.55251337402E-01  0.11872741518E+00  0.13925347520E+00  0.40866772204E-01 0.  0.
         14    1    1    2    0    0  0.10063551365E-01 -0.13138328232E-02  0.85076709852E-02  0.13243175161E-01  0.00000000000E+00 0. -1.
     999901    1    3    3    0    0 -0.33991106279E-01 -0.53937504579E-01 -0.12723508616E+00  0.89143334964E+00  0.88000000000E+00 0.  1.
        -11    1    4    4    0    0 -0.22742890171E-02  0.44065547617E-01  0.67761028639E-01  0.80862618066E-01  0.51100000000E-03 0.  1.
         11    1    4    4    0    0  0.26201843931E-01  0.11185789786E-01  0.50966386538E-01  0.58390857129E-01  0.51100000000E-03 0. -1.
</event>
<event>
 8    1  0.2001339E+004  0.1043930E+01  0.7957747E-01            NaN
         13   -1    0    0    0    0  0.00000000000E+00  0.00000000000E+00  0.74505805969E-08  0.10566000000E+00  0.10566000000E+00 0. -1.
     999900   -1    0    0    0    0 -0.00000000000E+00 -0.00000000000E+00 -0.74505805969E-08  0.93827000000E+00  0.93827000000E+00 0. -1.
     999902    2    1    2    0    0 -0.80192021702E-02 -0.92568744001E-02  0.12918762449E-01  0.10261285464E+01  0.10259741234E+01 0.  0.
     999903    2    3    3    0    0 -0.92303871403E-01  0.72356161104E-01  0.51065094512E-01  0.13752304581E+00  0.50492826468E-01 0.  0.
         14    1    1    2    0    0  0.80192021702E-02  0.92568744001E-02 -0.12918762449E-01  0.17801453602E-01  0.00000000000E+00 0. -1.
     999901    1    3    3    0    0  0.84284669233E-01 -0.81613035504E-01 -0.38146332063E-01  0.88860550059E+00  0.88000000000E+00 0. -1.
        -11    1    4    4    0    0 -0.83706661368E-01  0.37989840882E-01  0.32327162496E-01  0.97444033802E-01  0.51100000000E-03 0.  1.
         11    1    4    4    0    0 -0.85972100352E-02  0.34366320222E-01  0.18737932017E-01  0.40079012005E-01  0.51100000000E-03 0. -1.
</event>
<event>
 8    1  0.2001339E+004  0.1043930E+01  0.7957747E-01            NaN
         13   -1    0    0    0    0  0.00000000000E+00  0.00000000000E+00  0.74505805969E-08  0.10566000000E+00  0.10566000000E+00 0.  1.
     999900   -1    0    0    0    0 -0.00000000000E+00 -0.00000000000E+00 -0.74505805969E-08  0.93827000000E+00  0.93827000000E+00 0.  1.
     999902    2    1    2    0    0  0.71632421320E-02 -0.10253979648E-01  0.15390276030E-02  0.10313274311E+01  0.10312504281E+01 0.  0.
     999903    2    3    3    0    0  0.15744666377E-01  0.97732076370E-02 -0.13229688689E+00  0.14094168265E+00  0.44929739810E-01 0.  0.
         14    1    1    2    0    0 -0.71632421320E-02  0.10253979648E-01 -0.15390276030E-02  0.12602568882E-01  0.00000000000E+00 0. -1.
     999901    1    3    3    0    0 -0.85814242449E-02 -0.20027187285E-01  0.13383591449E+00  0.89038574847E+00  0.88000000000E+00 0. -1.
        -11    1    4    4    0    0  0.95733269111E-02  0.26318801307E-01 -0.10290443058E+00  0.10664853888E+00  0.51100000000E-03 0.  1.
         11    1    4    4    0    0  0.61713394658E-02 -0.16545593670E-01 -0.29392456312E-01  0.34293143771E-01  0.51100000000E-03 0. -1.
</event>
<event>
 8    1  0.2001339E+004  0.1043930E+01  0.7957747E-01            NaN
         13   -1    0    0    0    0  0.00000000000E+00  0.00000000000E+00  0.74505805969E-08  0.10566000000E+00  0.10566000000E+00 0.  1.
     999900   -1    0    0    0    0 -0.00000000000E+00 -0.00000000000E+00 -0.74505805969E-08  0.93827000000E+00  0.93827000000E+00 0. -1.
     999902    2    1    2    0    0  0.94700345335E-02  0.85397829592E-02 -0.43681797294E-02  0.10304507403E+01  0.10303625759E+01 0.  0.
     999903    2    3    3    0    0  0.65214290753E-01  0.90991434413E-01 -0.74686841999E-01  0.14205307532E+00  0.45481941317E-01 0.  0.
         14    1    1    2    0    0 -0.94700345335E-02 -0.85397829592E-02  0.43681797294E-02  0.13479259668E-01  0.00000000000E+00 0. -1.
     999901    1    3    3    0    0 -0.55744256220E-01 -0.82451651454E-01  0.70318662269E-01  0.88839766501E+00  0.88000000000E+00 0.  1.
        -11    1    4    4    0    0 -0.43669814368E-02  0.71910330957E-02 -0.16580714729E-01  0.18600072736E-01  0.51100000000E-03 0.  1.
         11    1    4    4    0    0  0.69581272190E-01  0.83800401318E-01 -0.58106127270E-01  0.12345300259E+00  0.51100000000E-03 0. -1.
</event>
<event>
 8    1  0.2001339E+004  0.1043930E+01  0.7957747E-01            NaN
         13   -1    0    0    0    0  0.00000000000E+00  0.00000000000E+00  0.74505805969E-08  0.10566000000E+00  0.10566000000E+00 0. -1.
     999900   -1    0    0    0    0 -0.00000000000E+00 -0.00000000000E+00 -0.74505805969E-08  0.93827000000E+00  0.93827000000E+00 0.  1.
     999902    2    1    2    0    0  0.10920596751E-01 -0.47166519230E-03  0.83727382575E-02  0.10301610259E+01  0.10300690048E+01 0.  0.
     999903    2    3    3    0    0 -0.11506373110E+00 -0.17927645174E-01 -0.59298487295E-01  0.13844573678E+00  0.45714863674E-01 0.  0.
         14    1    1    2    0    0 -0.10920596751E-01  0.47166519230E-03 -0.83727382575E-02  0.13768974086E-01  0.00000000000E+00 0.  1.
     999901    1    3    3    0    0  0.12598432786E+00  0.17455979981E-01  0.67671225553E-01  0.89171528913E+00  0.88000000000E+00 0. -1.
        -11    1    4    4    0    0 -0.36929119605E-01 -0.13125252492E-01  0.16549510493E-02  0.39230499765E-01  0.51100000000E-03 0. -1.
         11    1    4    4    0    0 -0.78134611499E-01 -0.48023926820E-02 -0.60953438345E-01  0.99215237018E-01  0.51100000000E-03 0.  1.
</event>
<event>
 8    1  0.2001339E+004  0.1043930E+01  0.7957747E-01            NaN
         13   -1    0    0    0    0  0.00000000000E+00  0.00000000000E+00  0.74505805969E-08  0.10566000000E+00  0.10566000000E+00 0.  1.
     999900   -1    0    0    0    0 -0.00000000000E+00 -0.00000000000E+00 -0.74505805969E-08  0.93827000000E+00  0.93827000000E+00 0.  1.
     999902    2    1    2    0    0 -0.85592799017E-02 -0.10381207419E-01 -0.20323790529E-02  0.10303226011E+01  0.10302327412E+01 0.  0.
     999903    2    3    3    0    0 -0.76605175357E-01 -0.73692936794E-01  0.81786537766E-01  0.14146702804E+00  0.44998671509E-01 0.  0.
         14    1    1    2    0    0  0.85592799017E-02  0.10381207419E-01  0.20323790529E-02  0.13607398889E-01  0.00000000000E+00 0. -1.
     999901    1    3    3    0    0  0.68045895455E-01  0.63311729374E-01 -0.83818916819E-01  0.88885557307E+00  0.88000000000E+00 0.  1.
        -11    1    4    4    0    0 -0.53703329707E-01 -0.25235578462E-01  0.28286295429E-01  0.65736273640E-01  0.51100000000E-03 0. -1.
         11    1    4    4    0    0 -0.22901845649E-01 -0.48457358332E-01  0.53500242337E-01  0.75730754399E-01  0.51100000000E-03 0.  1.
</event>
<event>
 8    1  0.2001339E+004  0.1043930E+01  0.7957747E-01            NaN
         13   -1    0    0    0    0  0.00000000000E+00  0.00000000000E+00  0.74505805969E-08  0.10566000000E+00  0.10566000000E+00 0.  1.
     999900   -1    0    0    0    0 -0.00000000000E+00 -0.00000000000E+00 -0.74505805969E-08  0.93827000000E+00  0.93827000000E+00 0. -1.
     999902    2    1    2    0    0 -0.13688333854E-01  0.11867226564E-03 -0.39943500156E-02  0.10296702876E+01  0.10295715428E+01 0.  0.
     999903    2    3    3    0    0 -0.40752305999E-01  0.12185402800E+00  0.16228308928E-01  0.14064784051E+00  0.54857109333E-01 0.  0.
         14    1    1    2    0    0  0.13688333854E-01 -0.11867226564E-03  0.39943500156E-02  0.14259712439E-01  0.00000000000E+00 0.  1.
     999901    1    3    3    0    0  0.27063972146E-01 -0.12173535574E+00 -0.20222658944E-01  0.88902244705E+00  0.88000000000E+00 0. -1.
        -11    1    4    4    0    0 -0.61909535540E-02  0.87596113594E-02 -0.14894818194E-01  0.18362337191E-01  0.51100000000E-03 0.  1.
         11    1    4    4    0    0 -0.34561352445E-01  0.11309441665E+00  0.31123127122E-01  0.12228550332E+00  0.51100000000E-03 0. -1.
</event>
<event>
 8    1  0.2001339E+004  0.1043930E+01  0.7957747E-01            NaN
         13   -1    0    0    0    0  0.00000000000E+00  0.00000000000E+00  0.74505805969E-08  0.10566000000E+00  0.10566000000E+00 0.  1.
     999900   -1    0    0    0    0 -0.00000000000E+00 -0.00000000000E+00 -0.74505805969E-08  0.93827000000E+00  0.93827000000E+00 0. -1.
     999902    2    1    2    0    0  0.20226776318E-02  0.11147010098E-01  0.80836653643E-02  0.10300126474E+01  0.10299186186E+01 0.  0.
     999903    2    3    3    0    0  0.85946597153E-03 -0.81605222100E-01  0.10454936223E+00  0.13989469994E+00  0.44495021895E-01 0.  0.
         14    1    1    2    0    0 -0.20226776318E-02 -0.11147010098E-01 -0.80836653643E-02  0.13917352645E-01  0.00000000000E+00 0. -1.
     999901    1    3    3    0    0  0.11632116602E-02  0.92752232197E-01 -0.96465696864E-01  0.89011794742E+00  0.88000000000E+00 0.  1.
        -11    1    4    4    0    0 -0.18851440624E-01 -0.35978291425E-01  0.30883063513E-01  0.51027825746E-01  0.51100000000E-03 0. -1.
         11    1    4    4    0    0  0.19710906596E-01 -0.45626930675E-01  0.73666298715E-01  0.88866874194E-01  0.51100000000E-03 0.  1.
</event>
<event>
 8    1  0.2001339E+004  0.1043930E+01  0.7957747E-01            NaN
         13   -1    0    0    0    0  0.00000000000E+00  0.00000000000E+00  0.74505805969E-08  0.10566000000E+00  0.10566000000E+00 0.  1.
     999900   -1    0    0    0    0 -0.00000000000E+00 -0.00000000000E+00 -0.74505805969E-08  0.93827000000E+00  0.93827000000E+00 0.  1.
     999902    2    1    2    0    0  0.41616060294E-02 -0.57008368542E-02  0.11288117400E-01  0.10306168449E+01  0.10305308539E+01 0.  0.
     999903    2    3    3    0    0 -0.35666465689E-01  0.94147095743E-01 -0.84629626779E-01  0.13890158840E+00  0.44673315518E-01 0.  0.
         14    1    1    2    0    0 -0.41616060294E-02  0.57008368542E-02 -0.11288117400E-01  0.13313155149E-01  0.00000000000E+00 0. -1.
     999901    1    3    3    0    0  0.39828071718E-01 -0.99847932597E-01  0.95917744180E-01  0.89171525645E+00  0.88000000000E+00 0. -1.
        -11    1    4    4    0    0 -0.38023675209E-01  0.39310282753E-01 -0.49233133185E-01  0.73588455145E-01  0.51100000000E-03 0.  1.
         11    1    4    4    0    0  0.23572095198E-02  0.54836812990E-01 -0.35396493594E-01  0.65313133253E-01  0.51100000000E-03 0. -1.
</event>
<event>
 8    1  0.2001339E+004  0.1043930E+01  0.7957747E-01            NaN
         13   -1    0    0    0    0  0.00000000000E+00  0.00000000000E+00  0.74505805969E-08  0.10566000000E+00  0.10566000000E+00 0. -1.
     999900   -1    0    0    0    0 -0.00000000000E+00 -0.00000000000E+00 -0.74505805969E-08  0.93827000000E+00  0.93827000000E+00 0. -1.
     999902    2    1    2    0    0 -0.11419506941E-01 -0.30094710885E-02 -0.75137853434E-02  0.10299328923E+01  0.10298377753E+01 0.  0.
     999903    2    3    3    0    0  0.99825916627E-01  0.15031622850E-01  0.83652706796E-01  0.13807396024E+00  0.43306810378E-01 0.  0.
         14    1    1    2    0    0  0.11419506941E-01  0.30094710885E-02  0.75137853434E-02  0.13997107744E-01  0.00000000000E+00 0. -1.
     999901    1    3    3    0    0 -0.11124542357E+00 -0.18041093939E-01 -0.91166492140E-01  0.89185893202E+00  0.88000000000E+00 0. -1.
        -11    1    4    4    0    0  0.93536797348E-01  0.44694964424E-02  0.59445359565E-01  0.11091943361E+00  0.51100000000E-03 0. -1.
         11    1    4    4    0    0  0.62891192783E-02  0.10562126408E-01  0.24207347231E-01  0.27154526630E-01  0.51100000000E-03 0.  1.
</event>
<event>
 8    1  0.2001339E+004  0.1043930E+01  0.7957747E-01            NaN
         13   -1    0    0    0    0  0.00000000000E+00  0.00000000000E+00  0.74505805969E-08  0.10566000000E+00  0.10566000000E+00 0. -1.
     999900   -1    0    0    0    0 -0.00000000000E+00 -0.00000000000E+00 -0.74505805969E-08  0.93827000000E+00  0.93827000000E+00 0. -1.
     999902    2    1    2    0    0  0.59970758179E-02 -0.63540397236E-02  0.10557907413E-01  0.10302256887E+01  0.10301345356E+01 0.  0.
     999903    2    3    3    0    0  0.83235237181E-01  0.10299080064E+00 -0.82504167203E-02  0.13990227514E+00  0.44377556126E-01 0.  0.
         14    1    1    2    0    0 -0.59970758179E-02  0.63540397236E-02 -0.10557907413E-01  0.13704311297E-01  0.00000000000E+00 0.  1.
     999901    1    3    3    0    0 -0.77238161363E-01 -0.10934484036E+00  0.18808324134E-01  0.89032341356E+00  0.88000000000E+00 0.  1.
        -11    1    4    4    0    0  0.36559680796E-01  0.37380133300E-01 -0.24522174558E-01  0.57753638773E-01  0.51100000000E-03 0. -1.
         11    1    4    4    0    0  0.46675556385E-01  0.65610667340E-01  0.16271757837E-01  0.82148636366E-01  0.51100000000E-03 0.  1.
</event>
<event>
 8    1  0.2001339E+004  0.1043930E+01  0.7957747E-01            NaN
         13   -1    0    0    0    0  0.00000000000E+00  0.00000000000E+00  0.74505805969E-08  0.10566000000E+00  0.10566000000E+00 0.  1.
     999900   -1    0    0    0    0 -0.00000000000E+00 -0.00000000000E+00 -0.74505805969E-08  0.93827000000E+00  0.93827000000E+00 0. -1.
     999902    2    1    2    0    0  0.14035256077E-02 -0.88343401290E-02 -0.10422946856E-01  0.10301948891E+01  0.10301033231E+01 0.  0.
     999903    2    3    3    0    0 -0.87854713020E-01  0.60523464137E-01 -0.78826843389E-01  0.14033162365E+00  0.45801234121E-01 0.  0.
         14    1    1    2    0    0 -0.14035256077E-02  0.88343401290E-02  0.10422946856E-01  0.13735110877E-01  0.00000000000E+00 0.  1.
     999901    1    3    3    0    0  0.89258238627E-01 -0.69357804266E-01  0.68403896533E-01  0.88986326547E+00  0.88000000000E+00 0.  1.
        -11    1    4    4    0    0 -0.36957211868E-01  0.53326266808E-02 -0.43578710548E-01  0.57390221732E-01  0.51100000000E-03 0. -1.
         11    1    4    4    0    0 -0.50897501152E-01  0.55190837456E-01 -0.35248132841E-01  0.82941401919E-01  0.51100000000E-03 0.  1.
</event>
<event>
 8    1  0.2001339E+004  0.1043930E+01  0.7957747E-01            NaN
         13   -1    0    0    0    0  0.00000000000E+00  0.00000000000E+00  0.74505805969E-08  0.10566000000E+00  0.10566000000E+00 0. -1.
     999900   -1    0    0    0    0 -0.00000000000E+00 -0.00000000000E+00 -0.74505805969E-08  0.93827000000E+00  0.93827000000E+00 0. -1.
     999902    2    1    2    0    0  0.11070842038E-01  0.53955837342E-02 -0.38167036983E-02  0.10310364708E+01  0.10309558483E+01 0.  0.
     999903    2    3    3    0    0  0.11256076861E+00  0.10275051239E-01  0.73034105492E-01  0.14186266259E+00  0.44894667416E-01 0.  0.
         14    1    1    2    0    0 -0.11070842038E-01 -0.53955837342E-02  0.38167036983E-02  0.12893529167E-01  0.00000000000E+00 0.  1.
     999901    1    3    3    0    0 -0.10148992658E+00 -0.48794675051E-02 -0.76850809190E-01  0.88917380825E+00  0.88000000000E+00 0. -1.
        -11    1    4    4    0    0  0.23347296904E-01 -0.21003195759E-02  0.39142877213E-01  0.45628210271E-01  0.51100000000E-03 0.  1.
         11    1    4    4    0    0  0.89213471709E-01  0.12375370815E-01  0.33891228279E-01  0.96234452315E-01  0.51100000000E-03 0. -1.
</event>
<event>
 8    1  0.2001339E+004  0.1043930E+01  0.7957747E-01            NaN
         13   -1    0    0    0    0  0.00000000000E+00  0.00000000000E+00  0.74505805969E-08  0.10566000000E+00  0.10566000000E+00 0. -1.
     999900   -1    0    0    0    0 -0.00000000000E+00 -0.00000000000E+00 -0.74505805969E-08  0.93827000000E+00  0.93827000000E+00 0.  1.
     999902    2    1    2    0    0  0.12337241345E-01  0.53611913692E-02 -0.42593112194E-02  0.10298200167E+01  0.10297233488E+01 0.  0.
     999903    2    3    3    0    0 -0.11772015990E+00 -0.39154532995E-01  0.40034490578E-01  0.13804733365E+00  0.45422377667E-01 0.  0.
         14    1    1    2    0    0 -0.12337241345E-01 -0.53611913692E-02  0.42593112194E-02  0.14109983308E-01  0.00000000000E+00 0. -1.
     999901    1    3    3    0    0  0.13005740124E+00  0.44515724364E-01 -0.44293801797E-01  0.89177268304E+00  0.88000000000E+00 0.  1.
        -11    1    4    4    0    0 -0.24104715880E-01 -0.17576806848E-01 -0.76367660640E-02  0.30798746461E-01  0.51100000000E-03 0. -1.
         11    1    4    4    0    0 -0.93615444017E-01 -0.21577726147E-01  0.47671256642E-01  0.10724858719E+00  0.51100000000E-03 0.  1.
</event>
<event>
 8    1  0.2001339E+004  0.1043930E+01  0.7957747E-01            NaN
         13   -1    0    0    0    0  0.00000000000E+00  0.00000000000E+00  0.74505805969E-08  0.10566000000E+00  0.10566000000E+00 0. -1.
     999900   -1    0    0    0    0 -0.00000000000E+00 -0.00000000000E+00 -0.74505805969E-08  0.93827000000E+00  0.93827000000E+00 0.  1.
     999902    2    1    2    0    0  0.10930641533E-01 -0.26558856028E-03 -0.84619046559E-02  0.10301041802E+01  0.10300113926E+01 0.  0.
     999903    2    3    3    0    0 -0.56301569702E-01  0.40550326449E-01  0.11109259446E+00  0.13854409399E+00  0.45152028848E-01 0.  0.
         14    1    1    2    0    0 -0.10930641533E-01  0.26558856028E-03  0.84619046559E-02  0.13825819759E-01  0.00000000000E+00 0. -1.
     999901    1    3    3    0    0  0.67232211235E-01 -0.40815915009E-01 -0.11955449911E+00  0.89156008626E+00  0.88000000000E+00 0.  1.
        -11    1    4    4    0    0  0.60198415773E-02  0.66960466083E-02  0.27372462742E-01  0.28819930089E-01  0.51100000000E-03 0.  1.
         11    1    4    4    0    0 -0.62321411279E-01  0.33854279840E-01  0.83720131715E-01  0.10972416390E+00  0.51100000000E-03 0. -1.
</event>
<event>
 8    1  0.2302580E+004  0.1043930E+01  0.7957747E-01            NaN
         13   -1    0    0    0    0  0.00000000000E+00  0.00000000000E+00  0.74505805969E-08  0.10566000000E+00  0.10566000000E+00 0. -1.
     999900   -1    0    0    0    0 -0.00000000000E+00 -0.00000000000E+00 -0.74505805969E-08  0.93827000000E+00  0.93827000000E+00 0. -1.
     999902    2    1    2    0    0 -0.21033461997E-02  0.19142934706E-01  0.40826579604E-02  0.10242438599E+01  0.10240546570E+01 0.  0.
     999903    2    3    3    0    0 -0.95046701008E-01  0.86546302188E-01  0.35572087293E-02  0.13678571600E+00  0.46621245937E-01 0.  0.
         14    1    1    2    0    0  0.21033461997E-02 -0.19142934706E-01 -0.40826579604E-02  0.19686140059E-01  0.00000000000E+00 0.  1.
     999901    1    3    3    0    0  0.92943354809E-01 -0.67403367482E-01  0.52544923109E-03  0.88745814394E+00  0.88000000000E+00 0.  1.
        -11    1    4    4    0    0 -0.51958815486E-01  0.34270666990E-01  0.22913115286E-01  0.66328493845E-01  0.51100000000E-03 0.  1.
         11    1    4    4    0    0 -0.43087885522E-01  0.52275635198E-01 -0.19355906557E-01  0.70457222155E-01  0.51100000000E-03 0. -1.
</event>
<event>
 8    1  0.2001339E+004  0.1043930E+01  0.7957747E-01            NaN
         13   -1    0    0    0    0  0.00000000000E+00  0.00000000000E+00  0.74505805969E-08  0.10566000000E+00  0.10566000000E+00 0. -1.
     999900   -1    0    0    0    0 -0.00000000000E+00 -0.00000000000E+00 -0.74505805969E-08  0.93827000000E+00  0.93827000000E+00 0. -1.
     999902    2    1    2    0    0  0.88023786920E-02 -0.73149271580E-02  0.76371582936E-02  0.10301707770E+01  0.10300788871E+01 0.  0.
     999903    2    3    3    0    0 -0.84821315241E-01 -0.48080301897E-01 -0.88499269819E-01  0.13906504556E+00  0.44728013470E-01 0.  0.
         14    1    1    2    0    0 -0.88023786920E-02  0.73149271580E-02 -0.76371582936E-02  0.13759222971E-01  0.00000000000E+00 0.  1.
     999901    1    3    3    0    0  0.93623693933E-01  0.40765374739E-01  0.96136428112E-01  0.89110573147E+00  0.88000000000E+00 0. -1.
        -11    1    4    4    0    0 -0.82369575632E-01 -0.46751300427E-01 -0.63786647351E-01  0.11419031738E+00  0.51100000000E-03 0.  1.
         11    1    4    4    0    0 -0.24517396086E-02 -0.13290014701E-02 -0.24712622468E-01  0.24874728185E-01  0.51100000000E-03 0. -1.
</event>
<event>
 8    1  0.2001339E+004  0.1043930E+01  0.7957747E-01            NaN
         13   -1    0    0    0    0  0.00000000000E+00  0.00000000000E+00  0.74505805969E-08  0.10566000000E+00  0.10566000000E+00 0. -1.
     999900   -1    0    0    0    0 -0.00000000000E+00 -0.00000000000E+00 -0.74505805969E-08  0.93827000000E+00  0.93827000000E+00 0. -1.
     999902    2    1    2    0    0 -0.53841909947E-02  0.28239535701E-02  0.62690445517E-02  0.10351970082E+01  0.10351601715E+01 0.  0.
     999903    2    3    3    0    0 -0.12116516833E-01  0.11979541620E+00  0.67043843087E-01  0.14535363803E+00  0.46206617157E-01 0.  0.
         14    1    1    2    0    0  0.53841909947E-02 -0.28239535701E-02 -0.62690445517E-02  0.87329918141E-02  0.00000000000E+00 0.  1.
     999901    1    3    3    0    0  0.67323258385E-02 -0.11697146263E+00 -0.60774798536E-01  0.88984337016E+00  0.88000000000E+00 0. -1.
        -11    1    4    4    0    0  0.10875248401E-01  0.16576834623E-01 -0.56254656718E-03  0.19840364249E-01  0.51100000000E-03 0. -1.
         11    1    4    4    0    0 -0.22991765234E-01  0.10321858158E+00  0.67606389655E-01  0.12551327378E+00  0.51100000000E-03 0.  1.
</event>
<event>
 8    1  0.2001339E+004  0.1043930E+01  0.7957747E-01            NaN
         13   -1    0    0    0    0  0.00000000000E+00  0.00000000000E+00  0.74505805969E-08  0.10566000000E+00  0.10566000000E+00 0.  1.
     999900   -1    0    0    0    0 -0.00000000000E+00 -0.00000000000E+00 -0.74505805969E-08  0.93827000000E+00  0.93827000000E+00 0.  1.
     999902    2    1    2    0    0  0.21997391494E-02  0.86780182070E-02  0.10721984304E-01  0.10299619006E+01  0.10298671803E+01 0.  0.
     999903    2    3    3    0    0  0.39838730063E-01  0.11779651576E+00  0.50573029264E-01  0.14152977271E+00  0.44831927644E-01 0.  0.
         14    1    1    2    0    0 -0.21997391494E-02 -0.86780182070E-02 -0.10721984304E-01  0.13968099360E-01  0.00000000000E+00 0. -1.
     999901    1    3    3    0    0 -0.37638990914E-01 -0.10911849756E+00 -0.39851044960E-01  0.88843212793E+00  0.88000000000E+00 0.  1.
        -11    1    4    4    0    0  0.27160961304E-01  0.20788042977E-01  0.10234667701E-01  0.35705323044E-01  0.51100000000E-03 0. -1.
         11    1    4    4    0    0  0.12677768759E-01  0.97008472788E-01  0.40338361563E-01  0.10582444967E+00  0.51100000000E-03 0.  1.
</event>
<event>
 8    1  0.2001339E+004  0.1043930E+01  0.7957747E-01            NaN
         13   -1    0    0    0    0  0.00000000000E+00  0.00000000000E+00  0.74505805969E-08  0.10566000000E+00  0.10566000000E+00 0.  1.
     999900   -1    0    0    0    0 -0.00000000000E+00 -0.00000000000E+00 -0.74505805969E-08  0.93827000000E+00  0.93827000000E+00 0. -1.
     999902    2    1    2    0    0 -0.50248394415E-02 -0.12467386187E-01 -0.50662048701E-02  0.10295650718E+01  0.10294648542E+01 0.  0.
     999903    2    3    3    0    0 -0.87471129631E-01 -0.67904594762E-01 -0.75109085091E-01  0.14120890455E+00  0.45125907776E-01 0.  0.
         14    1    1    2    0    0  0.50248394415E-02  0.12467386187E-01  0.50662048701E-02  0.14364928177E-01  0.00000000000E+00 0. -1.
     999901    1    3    3    0    0  0.82446290190E-01  0.55437208575E-01  0.70042880221E-01  0.88835616727E+00  0.88000000000E+00 0.  1.
        -11    1    4    4    0    0 -0.61088843601E-01 -0.39393838926E-01 -0.71877441766E-01  0.10222694906E+00  0.51100000000E-03 0. -1.
         11    1    4    4    0    0 -0.26382286031E-01 -0.28510755835E-01 -0.32316433250E-02  0.38981955493E-01  0.51100000000E-03 0.  1.
</event>
<event>
 8    1  0.2001339E+004  0.1043930E+01  0.7957747E-01            NaN
         13   -1    0    0    0    0  0.00000000000E+00  0.00000000000E+00  0.74505805969E-08  0.10566000000E+00  0.10566000000E+00 0. -1.
     999900   -1    0    0    0    0 -0.00000000000E+00 -0.00000000000E+00 -0.74505805969E-08  0.93827000000E+00  0.93827000000E+00 0.  1.
     999902    2    1    2    0    0  0.14289361525E-01  0.29161089342E-02  0.62115507071E-02  0.10280784100E+01  0.10279561976E+01 0.  0.
     999903    2    3    3    0    0  0.12478769391E+00 -0.36480851841E-01  0.20779328474E-01  0.14017401077E+00  0.48105630651E-01 0.  0.
         14    1    1    2    0    0 -0.14289361525E-01 -0.29161089342E-02 -0.62115507071E-02  0.15851590024E-01  0.00000000000E+00 0.  1.
     999901    1    3    3    0    0 -0.11049833239E+00  0.39396960775E-01 -0.14567777767E-01  0.88790439921E+00  0.88000000000E+00 0. -1.
        -11    1    4    4    0    0  0.90546989859E-01 -0.33087591471E-02  0.89372407032E-02  0.91048562054E-01  0.51100000000E-03 0. -1.
         11    1    4    4    0    0  0.34240704054E-01 -0.33172092694E-01  0.11842087771E-01  0.49125448717E-01  0.51100000000E-03 0.  1.
</event>
<event>
 8    1  0.2001339E+004  0.1043930E+01  0.7957747E-01            NaN
         13   -1    0    0    0    0  0.00000000000E+00  0.00000000000E+00  0.74505805969E-08  0.10566000000E+00  0.10566000000E+00 0. -1.
     999900   -1    0    0    0    0 -0.00000000000E+00 -0.00000000000E+00 -0.74505805969E-08  0.93827000000E+00  0.93827000000E+00 0.  1.
     999902    2    1    2    0    0  0.47497715100E-02  0.72941893389E-02  0.98740660763E-02  0.10307670707E+01  0.10306830217E+01 0.  0.
     999903    2    3    3    0    0  0.33017694401E-01  0.10963336735E+00  0.71372623280E-01  0.14225457478E+00  0.45085134054E-01 0.  0.
         14    1    1    2    0    0 -0.47497715100E-02 -0.72941893389E-02 -0.98740660763E-02  0.13162929324E-01  0.00000000000E+00 0.  1.
     999901    1    3    3    0    0 -0.28267922891E-01 -0.10233917801E+00 -0.61498557204E-01  0.88851249589E+00  0.88000000000E+00 0.  1.
        -11    1    4    4    0    0  0.17666925210E-01  0.68299453484E-01  0.68072313214E-01  0.98035894141E-01  0.51100000000E-03 0. -1.
         11    1    4    4    0    0  0.15350769191E-01  0.41333913865E-01  0.33003100661E-02  0.44218680642E-01  0.51100000000E-03 0.  1.
</event>
<event>
 8    1  0.2001339E+004  0.1043930E+01  0.7957747E-01            NaN
         13   -1    0    0    0    0  0.00000000000E+00  0.00000000000E+00  0.74505805969E-08  0.10566000000E+00  0.10566000000E+00 0. -1.
     999900   -1    0    0    0    0 -0.00000000000E+00 -0.00000000000E+00 -0.74505805969E-08  0.93827000000E+00  0.93827000000E+00 0.  1.
     999902    2    1    2    0    0 -0.25744740461E-02 -0.13032178622E-01  0.24043092723E-02  0.10304301371E+01  0.10303417011E+01 0.  0.
     999903    2    3    3    0    0 -0.57239965140E-02 -0.10104347742E+00  0.88948252320E-01  0.14180999196E+00  0.44223678770E-01 0.  0.
         14    1    1    2    0    0  0.25744740461E-02  0.13032178622E-01 -0.24043092723E-02  0.13499862938E-01  0.00000000000E+00 0. -1.
     999901    1    3    3    0    0  0.31495224679E-02  0.88011298793E-01 -0.86543943048E-01  0.88862014510E+00  0.88000000000E+00 0.  1.
        -11    1    4    4    0    0  0.13852962819E-01 -0.44763953578E-01  0.58306374142E-01  0.74803813441E-01  0.51100000000E-03 0. -1.
         11    1    4    4    0    0 -0.19576959333E-01 -0.56279523838E-01  0.30641878178E-01  0.67006178517E-01  0.51100000000E-03 0.  1.
</event>
<event>
 8    1  0.2001339E+004  0.1043930E+01  0.7957747E-01            NaN
         13   -1    0    0    0    0  0.00000000000E+00  0.00000000000E+00  0.74505805969E-08  0.10566000000E+00  0.10566000000E+00 0. -1.
     999900   -1    0    0    0    0 -0.00000000000E+00 -0.00000000000E+00 -0.74505805969E-08  0.93827000000E+00  0.93827000000E+00 0. -1.
     999902    2    1    2    0    0 -0.12452550691E-01 -0.41648403576E-02 -0.45335449339E-02  0.10300388178E+01  0.10299451447E+01 0.  0.
     999903    2    3    3    0    0 -0.10641278152E+00 -0.71978328324E-01 -0.38505398791E-01  0.14179263513E+00  0.46020928088E-01 0.  0.
         14    1    1    2    0    0  0.12452550691E-01  0.41648403576E-02  0.45335449339E-02  0.13891182224E-01  0.00000000000E+00 0.  1.
     999901    1    3    3    0    0  0.93960230831E-01  0.67813487966E-01  0.33971853857E-01  0.88824618264E+00  0.88000000000E+00 0.  1.
        -11    1    4    4    0    0 -0.11744283148E-01 -0.54455603702E-02  0.99603775675E-02  0.16341742768E-01  0.51100000000E-03 0. -1.
         11    1    4    4    0    0 -0.94668498373E-01 -0.66532767953E-01 -0.48465776358E-01  0.12545089236E+00  0.51100000000E-03 0.  1.
</event>
<event>
 8    1  0.2001339E+004  0.1043930E+01  0.7957747E-01            NaN
         13   -1    0    0    0    0  0.00000000000E+00  0.00000000000E+00  0.74505805969E-08  0.10566000000E+00  0.10566000000E+00 0.  1.
     999900   -1    0    0    0    0 -0.00000000000E+00 -0.00000000000E+00 -0.74505805969E-08  0.93827000000E+00  0.93827000000E+00 0.  1.
     999902    2    1    2    0    0 -0.27096797788E-02 -0.20656223090E-02 -0.14903255015E-01  0.10286422215E+01  0.10285286111E+01 0.  0.
     999903    2    3    3    0    0 -0.12758123623E+00  0.32465037418E-01  0.94972436958E-02  0.13882164614E+00  0.43015128837E-01 0.  0.
         14    1    1    2    0    0  0.27096797788E-02  0.20656223090E-02  0.14903255015E-01  0.15287778455E-01  0.00000000000E+00 0.  1.
     999901    1    3    3    0    0  0.12487155645E+00 -0.34530659727E-01 -0.24400498711E-01  0.88982057540E+00  0.88000000000E+00 0.  1.
        -11    1    4    4    0    0 -0.72843896172E-01  0.24158646958E-01 -0.15131314697E-01  0.78224620408E-01  0.51100000000E-03 0. -1.
         11    1    4    4    0    0 -0.54737340053E-01  0.83063904592E-02  0.24628558393E-01  0.60597025736E-01  0.51100000000E-03 0.  1.
</event>
<event>
 8    1  0.2001339E+004  0.1043930E+01  0.7957747E-01            NaN
         13   -1    0    0    0    0  0.00000000000E+00  0.00000000000E+00  0.74505805969E-08  0.10566000000E+00  0.10566000000E+00 0. -1.
     999900   -1    0    0    0    0 -0.00000000000E+00 -0.00000000000E+00 -0.74505805969E-08  0.93827000000E+00  0.93827000000E+00 0. -1.
     999902    2    1    2    0    0  0.91899841756E-02  0.80800094178E-02 -0.57094414796E-02  0.10304266640E+01  0.10303381822E+01 0.  0.
     999903    2    3    3    0    0 -0.50513407774E-01  0.68769796001E-01 -0.10227292374E+00  0.14106045634E+00  0.46447951589E-01 0.  0.
         14    1    1    2    0    0 -0.91899841756E-02 -0.80800094178E-02  0.57094414796E-02  0.13503336008E-01  0.00000000000E+00 0.  1.
     999901    1    3    3    0    0  0.59703391949E-01 -0.60689786583E-01  0.96563482256E-01  0.88936620765E+00  0.88000000000E+00 0.  1.
        -11    1    4    4    0    0 -0.20316324233E-01  0.62370632888E-01 -0.77072076332E-01  0.10120876913E+00  0.51100000000E-03 0. -1.
         11    1    4    4    0    0 -0.30197083541E-01  0.63991631130E-02 -0.25200847403E-01  0.39851687213E-01  0.51100000000E-03 0.  1.
</event>
<event>
 8    1  0.2001339E+004  0.1043930E+01  0.7957747E-01            NaN
         13   -1    0    0    0    0  0.00000000000E+00  0.00000000000E+00  0.74505805969E-08  0.10566000000E+00  0.10566000000E+00 0.  1.
     999900   -1    0    0    0    0 -0.00000000000E+00 -0.00000000000E+00 -0.74505805969E-08  0.93827000000E+00  0.93827000000E+00 0.  1.
     999902    2    1    2    0    0 -0.13371516313E-01  0.44959816104E-02  0.66893085187E-03  0.10298070128E+01  0.10297101655E+01 0.  0.
     999903    2    3    3    0    0  0.41566675982E-01 -0.95664190931E-01  0.79989437365E-01  0.13888501403E+00  0.44847642660E-01 0.  0.
         14    1    1    2    0    0  0.13371516313E-01 -0.44959816104E-02 -0.66893085187E-03  0.14122987206E-01  0.00000000000E+00 0.  1.
     999901    1    3    3    0    0 -0.54938192295E-01  0.10016017254E+00 -0.79320506513E-01  0.89092199877E+00  0.88000000000E+00 0.  1.
        -11    1    4    4    0    0 -0.42108344476E-02 -0.26277263000E-01  0.36187122261E-01  0.44922094965E-01  0.51100000000E-03 0. -1.
         11    1    4    4    0    0  0.45777510430E-01 -0.69386927931E-01  0.43802315104E-01  0.93962919060E-01  0.51100000000E-03 0.  1.
</event>
<event>
 8    1  0.2001339E+004  0.1043930E+01  0.7957747E-01            NaN
         13   -1    0    0    0    0  0.00000000000E+00  0.00000000000E+00  0.74505805969E-08  0.10566000000E+00  0.10566000000E+00 0.  1.
     999900   -1    0    0    0    0 -0.00000000000E+00 -0.00000000000E+00 -0.74505805969E-08  0.93827000000E+00  0.93827000000E+00 0.  1.
     999902    2    1    2    0    0 -0.79458080078E-02 -0.75915932418E-02 -0.79476220526E-02  0.10303678155E+01  0.10302785557E+01 0.  0.
     999903    2    3    3    0    0  0.86894239252E-01 -0.10065063353E+00  0.49393614771E-02  0.14030001250E+00  0.44480752806E-01 0.  0.
         14    1    1    2    0    0  0.79458080078E-02  0.75915932418E-02  0.79476220526E-02  0.13562184527E-01  0.00000000000E+00 0.  1.
     999901    1    3    3    0    0 -0.94840047260E-01  0.93059040291E-01 -0.12886983530E-01  0.89006780297E+00  0.88000000000E+00 0.  1.
        -11    1    4    4    0    0  0.16665084935E-01 -0.34215767157E-01 -0.16158897493E-01  0.41349907705E-01  0.51100000000E-03 0.  1.
         11    1    4    4    0    0  0.70229154317E-01 -0.66434866376E-01  0.21098258970E-01  0.98950104796E-01  0.51100000000E-03 0. -1.
</event>
<event>
 8    1  0.2001339E+004  0.1043930E+01  0.7957747E-01            NaN
         13   -1    0    0    0    0  0.00000000000E+00  0.00000000000E+00  0.74505805969E-08  0.10566000000E+00  0.10566000000E+00 0. -1.
     999900   -1    0    0    0    0 -0.00000000000E+00 -0.00000000000E+00 -0.74505805969E-08  0.93827000000E+00  0.93827000000E+00 0.  1.
     999902    2    1    2    0    0 -0.13441810246E-02 -0.62755982774E-02  0.12124940497E-01  0.10302112487E+01  0.10301199021E+01 0.  0.
     999903    2    3    3    0    0 -0.10704773799E+00  0.75640515052E-01 -0.96161558897E-02  0.13984269191E+00  0.47778680375E-01 0.  0.
         14    1    1    2    0    0  0.13441810246E-02  0.62755982774E-02 -0.12124940497E-01  0.13718751343E-01  0.00000000000E+00 0.  1.
     999901    1    3    3    0    0  0.10570355697E+00 -0.81916113329E-01  0.21741096386E-01  0.89036855675E+00  0.88000000000E+00 0.  1.
        -11    1    4    4    0    0 -0.19610238950E-01  0.39042549549E-01 -0.10946881469E-01  0.45044172563E-01  0.51100000000E-03 0. -1.
         11    1    4    4    0    0 -0.87437499044E-01  0.36597965503E-01  0.13307255791E-02  0.94798519343E-01  0.51100000000E-03 0.  1.
</event>
<event>
 8    1  0.2001339E+004  0.1043930E+01  0.7957747E-01            NaN
         13   -1    0    0    0    0  0.00000000000E+00  0.00000000000E+00  0.74505805969E-08  0.10566000000E+00  0.10566000000E+00 0. -1.
     999900   -1    0    0    0    0 -0.00000000000E+00 -0.00000000000E+00 -0.74505805969E-08  0.93827000000E+00  0.93827000000E+00 0.  1.
     999902    2    1    2    0    0  0.81296051478E-02  0.94974374499E-02 -0.80829557768E-02  0.10290428924E+01  0.10289352013E+01 0.  0.
     999903    2    3    3    0    0 -0.77503412309E-01  0.50931257501E-01 -0.94432071109E-01  0.13971396292E+00  0.44741518433E-01 0.  0.
         14    1    1    2    0    0 -0.81296051478E-02 -0.94974374499E-02  0.80829557768E-02  0.14887107579E-01  0.00000000000E+00 0. -1.
     999901    1    3    3    0    0  0.85633017457E-01 -0.41433820051E-01  0.86349115332E-01  0.88932892950E+00  0.88000000000E+00 0. -1.
        -11    1    4    4    0    0 -0.51858342949E-01  0.35802849751E-01 -0.32300773040E-01  0.70814778427E-01  0.51100000000E-03 0. -1.
         11    1    4    4    0    0 -0.25645069360E-01  0.15128407750E-01 -0.62131298069E-01  0.68899184497E-01  0.51100000000E-03 0.  1.
</event>
<event>
 8    1  0.2001339E+004  0.1043930E+01  0.7957747E-01            NaN
         13   -1    0    0    0    0  0.00000000000E+00  0.00000000000E+00  0.74505805969E-08  0.10566000000E+00  0.10566000000E+00 0.  1.
     999900   -1    0    0    0    0 -0.00000000000E+00 -0.00000000000E+00 -0.74505805969E-08  0.93827000000E+00  0.93827000000E+00 0.  1.
     999902    2    1    2    0    0  0.14905041701E-02  0.88812718399E-04 -0.11588744584E-01  0.10322454593E+01  0.10321793254E+01 0.  0.
     999903    2    3    3    0    0  0.43053030696E-01  0.11991322778E+00 -0.44090763702E-01  0.14255915767E+00  0.46328957938E-01 0.  0.
         14    1    1    2    0    0 -0.14905041701E-02 -0.88812718399E-04  0.11588744584E-01  0.11684540702E-01  0.00000000000E+00 0.  1.
     999901    1    3    3    0    0 -0.41562526526E-01 -0.11982441506E+00  0.32502019118E-01  0.88968630163E+00  0.88000000000E+00 0. -1.
        -11    1    4    4    0    0  0.37053455646E-01  0.97880399236E-01 -0.15244110930E-01  0.10576471609E+00  0.51100000000E-03 0.  1.
         11    1    4    4    0    0  0.59995750503E-02  0.22032828543E-01 -0.28846652771E-01  0.36794441585E-01  0.51100000000E-03 0. -1.
</event>
<event>
 8    1  0.2001339E+004  0.1043930E+01  0.7957747E-01            NaN
         13   -1    0    0    0    0  0.00000000000E+00  0.00000000000E+00  0.74505805969E-08  0.10566000000E+00  0.10566000000E+00 0. -1.
     999900   -1    0    0    0    0 -0.00000000000E+00 -0.00000000000E+00 -0.74505805969E-08  0.93827000000E+00  0.93827000000E+00 0.  1.
     999902    2    1    2    0    0 -0.17558367602E-01 -0.15866415560E-02 -0.12574656798E-01  0.10222750768E+01  0.10220456922E+01 0.  0.
     999903    2    3    3    0    0 -0.14866697788E-01  0.19625560871E-01  0.12054264627E+00  0.13200690431E+00  0.47844663996E-01 0.  0.
         14    1    1    2    0    0  0.17558367602E-01  0.15866415560E-02  0.12574656798E-01  0.21654923178E-01  0.00000000000E+00 0. -1.
     999901    1    3    3    0    0 -0.26916698142E-02 -0.21212202427E-01 -0.13311730307E+00  0.89026817252E+00  0.88000000000E+00 0.  1.
        -11    1    4    4    0    0 -0.31396617470E-01  0.17679245729E-01  0.69031971696E-01  0.77871545223E-01  0.51100000000E-03 0. -1.
         11    1    4    4    0    0  0.16529919683E-01  0.19463151416E-02  0.51510674571E-01  0.54135359084E-01  0.51100000000E-03 0.  1.
</event>
<event>
 8    1  0.2001339E+004  0.1043930E+01  0.7957747E-01            NaN
         13   -1    0    0    0    0  0.00000000000E+00  0.00000000000E+00  0.74505805969E-08  0.10566000000E+00  0.10566000000E+00 0. -1.
     999900   -1    0    0    0    0 -0.00000000000E+00 -0.00000000000E+00 -0.74505805969E-08  0.93827000000E+00  0.93827000000E+00 0. -1.
     999902    2    1    2    0    0  0.64768710080E-02 -0.43808887690E-02 -0.11439360520E-01  0.10300735570E+01  0.10299803550E+01 0.  0.
     999903    2    3    3    0    0  0.78420010168E-01  0.10396303261E+00  0.15016602577E-01  0.14012179504E+00  0.49503625600E-01 0.  0.
         14    1    1    2    0    0 -0.64768710080E-02  0.43808887690E-02  0.11439360520E-01  0.13856443035E-01  0.00000000000E+00 0. -1.
     999901    1    3    3    0    0 -0.71943139160E-01 -0.10834392138E+00 -0.26455963097E-01  0.88995176193E+00  0.88000000000E+00 0.  1.
        -11    1    4    4    0    0  0.47668465633E-01  0.72476425488E-01 -0.13332183899E-01  0.87767437674E-01  0.51100000000E-03 0. -1.
         11    1    4    4    0    0  0.30751544535E-01  0.31486607123E-01  0.28348786476E-01  0.52354357365E-01  0.51100000000E-03 0.  1.
</event>
<event>
 8    1  0.2001339E+004  0.1043930E+01  0.7957747E-01            NaN
         13   -1    0    0    0    0  0.00000000000E+00  0.00000000000E+00  0.74505805969E-08  0.10566000000E+00  0.10566000000E+00 0. -1.
     999900   -1    0    0    0    0 -0.00000000000E+00 -0.00000000000E+00 -0.74505805969E-08  0.93827000000E+00  0.93827000000E+00 0. -1.
     999902    2    1    2    0    0  0.23516236272E-02 -0.99219435829E-03  0.14366768973E-01  0.10293382683E+01  0.10292348381E+01 0.  0.
     999903    2    3    3    0    0 -0.40245680360E-01  0.10798389780E+00  0.65617493886E-01  0.14011559890E+00  0.45238131917E-01 0.  0.
         14    1    1    2    0    0 -0.23516236272E-02  0.99219435829E-03 -0.14366768973E-01  0.14591731702E-01  0.00000000000E+00 0.  1.
     999901    1    3    3    0    0  0.42597303987E-01 -0.10897609216E+00 -0.51250724913E-01  0.88922266940E+00  0.88000000000E+00 0. -1.
        -11    1    4    4    0    0 -0.29674458186E-01  0.55847623064E-01  0.11599063140E-01  0.64298754710E-01  0.51100000000E-03 0. -1.
         11    1    4    4    0    0 -0.10571222175E-01  0.52136274735E-01  0.54018430746E-01  0.75816844189E-01  0.51100000000E-03 0.  1.
</event>
<event>
 8    1  0.2001339E+004  0.1043930E+01  0.7957747E-01            NaN
         13   -1    0    0    0    0  0.00000000000E+00  0.00000000000E+00  0.74505805969E-08  0.10566000000E+00  0.10566000000E+00 0.  1.
     999900   -1    0    0    0    0 -0.00000000000E+00 -0.00000000000E+00 -0.74505805969E-08  0.93827000000E+00  0.93827000000E+00 0. -1.
     999902    2    1    2    0    0  0.61730136863E-02 -0.63613107583E-02  0.10060719117E-01  0.10305214042E+01  0.10304341677E+01 0.  0.
     999903    2    3    3    0    0 -0.24525480560E-01 -0.82796184124E-01  0.10293618774E+00  0.14180854837E+00  0.45355246038E-01 0.  0.
         14    1    1    2    0    0 -0.61730136863E-02  0.63613107583E-02 -0.10060719117E-01  0.13408595813E-01  0.00000000000E+00 0.  1.
     999901    1    3    3    0    0  0.30698494246E-01  0.76434873366E-01 -0.92875468623E-01  0.88871285581E+00  0.88000000000E+00 0. -1.
        -11    1    4    4    0    0 -0.54778956954E-02 -0.70384982142E-01  0.93567275234E-01  0.11721411676E+00  0.51100000000E-03 0.  1.
         11    1    4    4    0    0 -0.19047584864E-01 -0.12411201982E-01  0.93689125062E-02  0.24594431613E-01  0.51100000000E-03 0. -1.
</event>
<event>
 8    1  0.2001339E+004  0.1043930E+01  0.7957747E-01            NaN
         13   -1    0    0    0    0  0.00000000000E+00  0.00000000000E+00  0.74505805969E-08  0.10566000000E+00  0.10566000000E+00 0. -1.
     999900   -1    0    0    0    0 -0.00000000000E+00 -0.00000000000E+00 -0.74505805969E-08  0.93827000000E+00  0.93827000000E+00 0.  1.
     999902    2    1    2    0    0  0.58250556346E-02  0.43228662474E-02 -0.10714803538E-01  0.10309907009E+01  0.10309095013E+01 0.  0.
     999903    2    3    3    0    0 -0.51918395763E-01  0.49227676552E-01  0.11114013535E+00  0.13958766396E+00  0.44874294291E-01 0.  0.
         14    1    1    2    0    0 -0.58250556346E-02 -0.43228662474E-02  0.10714803538E-01  0.12939299076E-01  0.00000000000E+00 0. -1.
     999901    1    3    3    0    0  0.57743451398E-01 -0.44904810305E-01 -0.12185493889E+00  0.89140303696E+00  0.88000000000E+00 0.  1.
        -11    1    4    4    0    0 -0.40640441082E-01  0.57207253944E-01  0.87062680250E-01  0.11182346251E+00  0.51100000000E-03 0.  1.
         11    1    4    4    0    0 -0.11277954682E-01 -0.79795773912E-02  0.24077455101E-01  0.27764201452E-01  0.51100000000E-03 0. -1.
</event>
<event>
 8    1  0.2001339E+004  0.1043930E+01  0.7957747E-01            NaN
         13   -1    0    0    0    0  0.00000000000E+00  0.00000000000E+00  0.74505805969E-08  0.10566000000E+00  0.10566000000E+00 0.  1.
     999900   -1    0    0    0    0 -0.00000000000E+00 -0.00000000000E+00 -0.74505805969E-08  0.93827000000E+00  0.93827000000E+00 0.  1.
     999902    2    1    2    0    0  0.26157733297E-02 -0.94072107132E-02  0.13248241703E-01  0.10274723637E+01  0.10273405494E+01 0.  0.
     999903    2    3    3    0    0 -0.61733023840E-01  0.90893598585E-01  0.69767665287E-01  0.13764346709E+00  0.44783751712E-01 0.  0.
         14    1    1    2    0    0 -0.26157733297E-02  0.94072107132E-02 -0.13248241703E-01  0.16457636274E-01  0.00000000000E+00 0.  1.
     999901    1    3    3    0    0  0.64348797170E-01 -0.10030080930E+00 -0.56519423584E-01  0.88982889663E+00  0.88000000000E+00 0.  1.
        -11    1    4    4    0    0 -0.26797177462E-01  0.68207852648E-01  0.27437300646E-01  0.78252581239E-01  0.51100000000E-03 0. -1.
         11    1    4    4    0    0 -0.34935846378E-01  0.22685745937E-01  0.42330364640E-01  0.59390885853E-01  0.51100000000E-03 0.  1.
</event>
<event>
 8    1  0.2001339E+004  0.1043930E+01  0.7957747E-01            NaN
         13   -1    0    0    0    0  0.00000000000E+00  0.00000000000E+00  0.74505805969E-08  0.10566000000E+00  0.10566000000E+00 0.  1.
     999900   -1    0    0    0    0 -0.00000000000E+00 -0.00000000000E+00 -0.74505805969E-08  0.93827000000E+00  0.93827000000E+00 0.  1.
     999902    2    1    2    0    0 -0.15703471808E-02 -0.22511092178E-02 -0.13354789670E-01  0.10302960758E+01  0.10302058628E+01 0.  0.
     999903    2    3    3    0    0  0.11990020560E+00  0.53315734056E-01  0.16002376128E-01  0.13973186559E+00  0.45280143742E-01 0.  0.
         14    1    1    2    0    0  0.15703471808E-02  0.22511092178E-02  0.13354789670E-01  0.13633924237E-01  0.00000000000E+00 0.  1.
     999901    1    3    3    0    0 -0.12147055278E+00 -0.55566843274E-01 -0.29357165798E-01  0.89056421018E+00  0.88000000000E+00 0.  1.
        -11    1    4    4    0    0  0.27533510568E-01  0.60306566365E-03  0.18791907463E-01  0.33344486793E-01  0.51100000000E-03 0.  1.
         11    1    4    4    0    0  0.92366695033E-01  0.52712668393E-01 -0.27895313353E-02  0.10638737879E+00  0.51100000000E-03 0. -1.
</event>
<event>
 8    1  0.2001339E+004  0.1043930E+01  0.7957747E-01            NaN
         13   -1    0    0    0    0  0.00000000000E+00  0.00000000000E+00  0.74505805969E-08  0.10566000000E+00  0.10566000000E+00 0.  1.
     999900   -1    0    0    0    0 -0.00000000000E+00 -0.00000000000E+00 -0.74505805969E-08  0.93827000000E+00  0.93827000000E+00 0.  1.
     999902    2    1    2    0    0 -0.98977362892E-02  0.82171828574E-02 -0.55536751477E-02  0.10299181984E+01  0.10298228803E+01 0.  0.
     999903    2    3    3    0    0  0.60658991478E-01  0.55383329899E-02 -0.11757957810E+00  0.14001077002E+00  0.45473862334E-01 0.  0.
         14    1    1    2    0    0  0.98977362892E-02 -0.82171828574E-02  0.55536751477E-02  0.14011801647E-01  0.00000000000E+00 0.  1.
     999901    1    3    3    0    0 -0.70556727767E-01  0.26788498675E-02  0.11202590295E+00  0.88990742833E+00  0.88000000000E+00 0. -1.
        -11    1    4    4    0    0  0.28794559799E-01 -0.84560830765E-02 -0.92122205580E-01  0.96888564325E-01  0.51100000000E-03 0.  1.
         11    1    4    4    0    0  0.31864431680E-01  0.13994416066E-01 -0.25457372521E-01  0.43122205695E-01  0.51100000000E-03 0. -1.
</event>
<event>
 8    1  0.2001339E+004  0.1043930E+01  0.7957747E-01            NaN
         13   -1    0    0    0    0  0.00000000000E+00  0.00000000000E+00  0.74505805969E-08  0.10566000000E+00  0.10566000000E+00 0. -1.
     999900   -1    0    0    0    0 -0.00000000000E+00 -0.00000000000E+00 -0.74505805969E-08  0.93827000000E+00  0.93827000000E+00 0. -1.
     999902    2    1    2    0    0 -0.64349697998E-02  0.11314372922E-01 -0.59783696418E-02  0.10296064259E+01  0.10295067885E+01 0.  0.
     999903    2    3    3    0    0 -0.11453660158E+00 -0.40465360218E-01 -0.52762155215E-01  0.14024945251E+00  0.46151765143E-01 0.  0.
         14    1    1    2    0    0  0.64349697998E-02 -0.11314372922E-01  0.59783696418E-02  0.14323574083E-01  0.00000000000E+00 0. -1.
     999901    1    3    3    0    0  0.10810163178E+00  0.51779733139E-01  0.46783785573E-01  0.88935697341E+00  0.88000000000E+00 0. -1.
        -11    1    4    4    0    0 -0.70646666170E-01 -0.39918265254E-01 -0.51939986755E-01  0.96345434178E-01  0.51100000000E-03 0.  1.
         11    1    4    4    0    0 -0.43889935414E-01 -0.54709496371E-03 -0.82216846038E-03  0.43904018330E-01  0.51100000000E-03 0. -1.
</event>
<event>
 8    1  0.2001339E+004  0.1043930E+01  0.7957747E-01            NaN
         13   -1    0    0    0    0  0.00000000000E+00  0.00000000000E+00  0.74505805969E-08  0.10566000000E+00  0.10566000000E+00 0. -1.
     999900   -1    0    0    0    0 -0.00000000000E+00 -0.00000000000E+00 -0.74505805969E-08  0.93827000000E+00  0.93827000000E+00 0.  1.
     999902    2    1    2    0    0 -0.17125247859E-02 -0.12843925928E-01 -0.61620886020E-02  0.10295818116E+01  0.10294818290E+01 0.  0.
     999903    2    3    3    0    0 -0.17730308654E-01 -0.17110061759E-01 -0.13301114962E+00  0.14033187283E+00  0.37335647179E-01 0.  0.
         14    1    1    2    0    0  0.17125247859E-02  0.12843925928E-01  0.61620886020E-02  0.14348188399E-01  0.00000000000E+00 0.  1.
     999901    1    3    3    0    0  0.16017783868E-01  0.42661358309E-02  0.12684906102E+00  0.88924993877E+00  0.88000000000E+00 0. -1.
        -11    1    4    4    0    0 -0.20918705142E-01  0.32125067114E-02 -0.42125531620E-01  0.47145879560E-01  0.51100000000E-03 0. -1.
         11    1    4    4    0    0  0.31883964885E-02 -0.20322568470E-01 -0.90885618005E-01  0.93185993274E-01  0.51100000000E-03 0.  1.
</event>
<event>
 8    1  0.2001339E+004  0.1043930E+01  0.7957747E-01            NaN
         13   -1    0    0    0    0  0.00000000000E+00  0.00000000000E+00  0.74505805969E-08  0.10566000000E+00  0.10566000000E+00 0. -1.
     999900   -1    0    0    0    0 -0.00000000000E+00 -0.00000000000E+00 -0.74505805969E-08  0.93827000000E+00  0.93827000000E+00 0. -1.
     999902    2    1    2    0    0 -0.12744673240E-01  0.47919341378E-02 -0.44126553688E-02  0.10296170389E+01  0.10295175501E+01 0.  0.
     999903    2    3    3    0    0  0.31473447515E-01 -0.11067517009E+00 -0.64376760420E-01  0.13895234986E+00  0.43861339198E-01 0.  0.
         14    1    1    2    0    0  0.12744673240E-01 -0.47919341378E-02  0.44126553688E-02  0.14312961125E-01  0.00000000000E+00 0. -1.
     999901    1    3    3    0    0 -0.44218120755E-01  0.11546710423E+00  0.59964105051E-01  0.89066468901E+00  0.88000000000E+00 0.  1.
        -11    1    4    4    0    0 -0.54013455272E-02 -0.25003718508E-01  0.62354688836E-04  0.25585649920E-01  0.51100000000E-03 0. -1.
         11    1    4    4    0    0  0.36874793042E-01 -0.85671451584E-01 -0.64439115109E-01  0.11336669994E+00  0.51100000000E-03 0.  1.
</event>
<event>
 8    1  0.2001339E+004  0.1043930E+01  0.7957747E-01            NaN
         13   -1    0    0    0    0  0.00000000000E+00  0.00000000000E+00  0.74505805969E-08  0.10566000000E+00  0.10566000000E+00 0.  1.
     999900   -1    0    0    0    0 -0.00000000000E+00 -0.00000000000E+00 -0.74505805969E-08  0.93827000000E+00  0.93827000000E+00 0. -1.
     999902    2    1    2    0    0 -0.11910865464E-01  0.23242989670E-02 -0.52844765277E-02  0.10306938082E+01  0.10306088149E+01 0.  0.
     999903    2    3    3    0    0 -0.81462933716E-01  0.87040081590E-01  0.60407797524E-01  0.14146395662E+00  0.46376326389E-01 0.  0.
         14    1    1    2    0    0  0.11910865464E-01 -0.23242989670E-02  0.52844765277E-02  0.13236191822E-01  0.00000000000E+00 0.  1.
     999901    1    3    3    0    0  0.69552068252E-01 -0.84715782623E-01 -0.65692274052E-01  0.88922985155E+00  0.88000000000E+00 0. -1.
        -11    1    4    4    0    0 -0.10935536662E-01  0.88317815034E-02  0.27903961730E-01  0.31248656416E-01  0.51100000000E-03 0.  1.
         11    1    4    4    0    0 -0.70527397054E-01  0.78208300087E-01  0.32503835794E-01  0.11021530021E+00  0.51100000000E-03 0. -1.
</event>
<event>
 8    1  0.2175233E+004  0.1043930E+01  0.7957747E-01            NaN
         13   -1    0    0    0    0  0.00000000000E+00  0.00000000000E+00  0.74505805969E-08  0.10566000000E+00  0.10566000000E+00 0.  1.
     999900   -1    0    0    0    0 -0.00000000000E+00 -0.00000000000E+00 -0.74505805969E-08  0.93827000000E+00  0.93827000000E+00 0. -1.
     999902    2    1    2    0    0 -0.36943908708E-02 -0.67647521653E-02  0.89113737040E-02  0.10321476837E+01  0.10320804320E+01 0.  0.
     999903    2    3    3    0    0 -0.55044131825E-01  0.12366556978E+00  0.21003331895E-01  0.14097144961E+00  0.33298349188E-01 0.  0.
         14    1    1    2    0    0  0.36943908708E-02  0.67647521653E-02 -0.89113737040E-02  0.11782316286E-01  0.00000000000E+00 0. -1.
     999901    1    3    3    0    0  0.51349740954E-01 -0.13043032194E+00 -0.12091958191E-01  0.89117623410E+00  0.88000000000E+00 0.  1.
        -11    1    4    4    0    0 -0.18755728276E-01  0.66813076218E-01  0.24069557814E-01  0.73453177135E-01  0.51100000000E-03 0.  1.
         11    1    4    4    0    0 -0.36288403549E-01  0.56852493557E-01 -0.30662259188E-02  0.67518272476E-01  0.51100000000E-03 0. -1.
</event>
<event>
 8    1  0.2001339E+004  0.1043930E+01  0.7957747E-01            NaN
         13   -1    0    0    0    0  0.00000000000E+00  0.00000000000E+00  0.74505805969E-08  0.10566000000E+00  0.10566000000E+00 0. -1.
     999900   -1    0    0    0    0 -0.00000000000E+00 -0.00000000000E+00 -0.74505805969E-08  0.93827000000E+00  0.93827000000E+00 0. -1.
     999902    2    1    2    0    0 -0.44506979703E-02 -0.18061290440E-03  0.13294188234E-01  0.10299094161E+01  0.10298139776E+01 0.  0.
     999903    2    3    3    0    0 -0.78515407870E-01  0.95781716456E-01  0.49474072671E-01  0.14086311020E+00  0.45342314327E-01 0.  0.
         14    1    1    2    0    0  0.44506979703E-02  0.18061290440E-03 -0.13294188234E-01  0.14020583948E-01  0.00000000000E+00 0.  1.
     999901    1    3    3    0    0  0.74064709900E-01 -0.95962329360E-01 -0.36179884437E-01  0.88904630585E+00  0.88000000000E+00 0. -1.
        -11    1    4    4    0    0  0.44811567557E-02  0.40431905687E-02  0.87080728794E-02  0.10607535535E-01  0.51100000000E-03 0.  1.
         11    1    4    4    0    0 -0.82996564626E-01  0.91738525887E-01  0.40765999792E-01  0.13025557467E+00  0.51100000000E-03 0. -1.
</event>
<event>
 8    1  0.2001339E+004  0.1043930E+01  0.7957747E-01            NaN
         13   -1    0    0    0    0  0.00000000000E+00  0.00000000000E+00  0.74505805969E-08  0.10566000000E+00  0.10566000000E+00 0.  1.
     999900   -1    0    0    0    0 -0.00000000000E+00 -0.00000000000E+00 -0.74505805969E-08  0.93827000000E+00  0.93827000000E+00 0.  1.
     999902    2    1    2    0    0  0.39468446042E-02 -0.10443809975E-01  0.88589878912E-02  0.10296775470E+01  0.10295789035E+01 0.  0.
     999903    2    3    3    0    0  0.69819061612E-01 -0.82003243467E-01  0.79578289471E-01  0.14149900580E+00  0.45716858848E-01 0.  0.
         14    1    1    2    0    0 -0.39468446042E-02  0.10443809975E-01 -0.88589878912E-02  0.14252452967E-01  0.00000000000E+00 0.  1.
     999901    1    3    3    0    0 -0.65872217008E-01  0.71559433491E-01 -0.70719301580E-01  0.88817854124E+00  0.88000000000E+00 0. -1.
        -11    1    4    4    0    0  0.30094785529E-02 -0.33821507178E-01  0.30299248153E-01  0.45511063145E-01  0.51100000000E-03 0.  1.
         11    1    4    4    0    0  0.66809583059E-01 -0.48181736289E-01  0.49279041318E-01  0.95987942652E-01  0.51100000000E-03 0. -1.
</event>
<event>
 8    1  0.2001339E+004  0.1043930E+01  0.7957747E-01            NaN
         13   -1    0    0    0    0  0.00000000000E+00  0.00000000000E+00  0.74505805969E-08  0.10566000000E+00  0.10566000000E+00 0.  1.
     999900   -1    0    0    0    0 -0.00000000000E+00 -0.00000000000E+00 -0.74505805969E-08  0.93827000000E+00  0.93827000000E+00 0.  1.
     999902    2    1    2    0    0 -0.12574892209E-01 -0.98502439797E-03 -0.18950712724E-02  0.10311750213E+01  0.10310961328E+01 0.  0.
     999903    2    3    3    0    0  0.61646409633E-01  0.45610758850E-01 -0.10862662254E+00  0.14040479686E+00  0.45090383833E-01 0.  0.
         14    1    1    2    0    0  0.12574892209E-01  0.98502439797E-03  0.18950712724E-02  0.12754978725E-01  0.00000000000E+00 0. -1.
     999901    1    3    3    0    0 -0.74221301842E-01 -0.46595783248E-01  0.10673155127E+00  0.89077022441E+00  0.88000000000E+00 0. -1.
        -11    1    4    4    0    0  0.41541612823E-01  0.53162672691E-01 -0.83122388346E-01  0.10705871253E+00  0.51100000000E-03 0. -1.
         11    1    4    4    0    0  0.20104796810E-01 -0.75519138404E-02 -0.25504234194E-01  0.33346084332E-01  0.51100000000E-03 0.  1.
</event>
<event>
 8    1  0.2001339E+004  0.1043930E+01  0.7957747E-01            NaN
         13   -1    0    0    0    0  0.00000000000E+00  0.00000000000E+00  0.74505805969E-08  0.10566000000E+00  0.10566000000E+00 0. -1.
     999900   -1    0    0    0    0 -0.00000000000E+00 -0.00000000000E+00 -0.74505805969E-08  0.93827000000E+00  0.93827000000E+00 0.  1.
     999902    2    1    2    0    0  0.59268580029E-02  0.30871527824E-02 -0.12238903088E-01  0.10299855062E+01  0.10298911079E+01 0.  0.
     999903    2    3    3    0    0  0.10706050613E+00 -0.26198080438E-01  0.72971735489E-01  0.13962238221E+00  0.44958247751E-01 0.  0.
         14    1    1    2    0    0 -0.59268580029E-02 -0.30871527824E-02  0.12238903088E-01  0.13944493784E-01  0.00000000000E+00 0. -1.
     999901    1    3    3    0    0 -0.10113364813E+00  0.29285233221E-01 -0.85210638577E-01  0.89036312401E+00  0.88000000000E+00 0.  1.
        -11    1    4    4    0    0  0.46519706696E-01 -0.34327611102E-01  0.38785059197E-01  0.69620470646E-01  0.51100000000E-03 0.  1.
         11    1    4    4    0    0  0.60540799437E-01  0.81295306642E-02  0.34186676291E-01  0.70001911560E-01  0.51100000000E-03 0. -1.
</event>
<event>
 8    1  0.2001339E+004  0.1043930E+01  0.7957747E-01            NaN
         13   -1    0    0    0    0  0.00000000000E+00  0.00000000000E+00  0.74505805969E-08  0.10566000000E+00  0.10566000000E+00 0.  1.
     999900   -1    0    0    0    0 -0.00000000000E+00 -0.00000000000E+00 -0.74505805969E-08  0.93827000000E+00  0.93827000000E+00 0. -1.
     999902    2    1    2    0    0 -0.41908218378E-02 -0.12481720602E-01  0.26496809338E-02  0.10304995441E+01  0.10304120211E+01 0.  0.
     999903    2    3    3    0    0 -0.86670009475E-01 -0.50058267712E-01 -0.88860929958E-01  0.14112391749E+00  0.44745664662E-01 0.  0.
         14    1    1    2    0    0  0.41908218378E-02  0.12481720602E-01 -0.26496809338E-02  0.13430455909E-01  0.00000000000E+00 0. -1.
     999901    1    3    3    0    0  0.82479187637E-01  0.37576547109E-01  0.91510610892E-01  0.88937562660E+00  0.88000000000E+00 0. -1.
        -11    1    4    4    0    0 -0.18103322521E-01 -0.34914441856E-01 -0.29314205314E-01  0.49054380952E-01  0.51100000000E-03 0.  1.
         11    1    4    4    0    0 -0.68566686954E-01 -0.15143825855E-01 -0.59546724645E-01  0.92069536538E-01  0.51100000000E-03 0. -1.
</event>
<event>
 8    1  0.2001339E+004  0.1043930E+01  0.7957747E-01            NaN
         13   -1    0    0    0    0  0.00000000000E+00  0.00000000000E+00  0.74505805969E-08  0.10566000000E+00  0.10566000000E+00 0. -1.
     999900   -1    0    0    0    0 -0.00000000000E+00 -0.00000000000E+00 -0.74505805969E-08  0.93827000000E+00  0.93827000000E+00 0.  1.
     999902    2    1    2    0    0  0.79348371636E-02 -0.51560114997E-02 -0.92291347004E-02  0.10307117163E+01  0.10306269544E+01 0.  0.
     999903    2    3    3    0    0  0.12739359720E+00 -0.43618639506E-01 -0.15197284824E-01  0.14178799188E+00  0.41727243580E-01 0.  0.
         14    1    1    2    0    0 -0.79348371636E-02  0.51560114997E-02  0.92291347004E-02  0.13218283652E-01  0.00000000000E+00 0. -1.
     999901    1    3    3    0    0 -0.11945876003E+00  0.38462628006E-01  0.59681501237E-02  0.88892372447E+00  0.88000000000E+00 0. -1.
        -11    1    4    4    0    0  0.79539900208E-01 -0.87456291087E-02 -0.19675620817E-01  0.82404325913E-01  0.51100000000E-03 0.  1.
         11    1    4    4    0    0  0.47853696989E-01 -0.34873010397E-01  0.44783359925E-02  0.59383665969E-01  0.51100000000E-03 0. -1.
</event>
<event>
 8    1  0.2001339E+004  0.1043930E+01  0.7957747E-01            NaN
         13   -1    0    0    0    0  0.00000000000E+00  0.00000000000E+00  0.74505805969E-08  0.10566000000E+00  0.10566000000E+00 0.  1.
     999900   -1    0    0    0    0 -0.00000000000E+00 -0.00000000000E+00 -0.74505805969E-08  0.93827000000E+00  0.93827000000E+00 0.  1.
     999902    2    1    2    0    0 -0.11210657587E-01  0.11675615594E-01 -0.42593036850E-03  0.10277380187E+01  0.10276104587E+01 0.  0.
     999903    2    3    3    0    0  0.13250364839E-01 -0.37150645205E-01 -0.12153832435E+00  0.13776579587E+00  0.51498617629E-01 0.  0.
         14    1    1    2    0    0  0.11210657587E-01 -0.11675615594E-01  0.42593036850E-03  0.16191981340E-01  0.00000000000E+00 0.  1.
     999901    1    3    3    0    0 -0.24461022426E-01  0.48826260799E-01  0.12111239398E+00  0.88997222279E+00  0.88000000000E+00 0. -1.
        -11    1    4    4    0    0 -0.17008501994E-01 -0.19069769647E-01 -0.75963384720E-01  0.80147627498E-01  0.51100000000E-03 0. -1.
         11    1    4    4    0    0  0.30258866833E-01 -0.18080875559E-01 -0.45574939633E-01  0.57618168372E-01  0.51100000000E-03 0.  1.
</event>
<event>
 8    1  0.2001339E+004  0.1043930E+01  0.7957747E-01            NaN
         13   -1    0    0    0    0  0.00000000000E+00  0.00000000000E+00  0.74505805969E-08  0.10566000000E+00  0.10566000000E+00 0.  1.
     999900   -1    0    0    0    0 -0.00000000000E+00 -0.00000000000E+00 -0.74505805969E-08  0.93827000000E+00  0.93827000000E+00 0.  1.
     999902    2    1    2    0    0  0.12183836455E-01  0.24784601048E-02  0.51772202833E-02  0.10304618062E+01  0.10303737874E+01 0.  0.
     999903    2    3    3    0    0  0.12359495228E+00  0.35415315341E-01  0.40592314202E-01  0.14211981007E+00  0.44948277515E-01 0.  0.
         14    1    1    2    0    0 -0.12183836455E-01 -0.24784601048E-02 -0.51772202833E-02  0.13468193832E-01  0.00000000000E+00 0. -1.
     999901    1    3    3    0    0 -0.11141111582E+00 -0.32936855237E-01 -0.35415093919E-01  0.88834199610E+00  0.88000000000E+00 0.  1.
        -11    1    4    4    0    0  0.56102202313E-01  0.38047175051E-01  0.12336909357E-01  0.68902141384E-01  0.51100000000E-03 0.  1.
         11    1    4    4    0    0  0.67492749964E-01 -0.26318597096E-02  0.28255404845E-01  0.73217668682E-01  0.51100000000E-03 0. -1.
</event>
<event>
 8    1  0.2001339E+004  0.1043930E+01  0.7957747E-01            NaN
         13   -1    0    0    0    0  0.00000000000E+00  0.00000000000E+00  0.74505805969E-08  0.10566000000E+00  0.10566000000E+00 0.  1.
     999900   -1    0    0    0    0 -0.00000000000E+00 -0.00000000000E+00 -0.74505805969E-08  0.93827000000E+00  0.93827000000E+00 0.  1.
     999902    2    1    2    0    0 -0.20692053850E-02  0.69519001154E-02 -0.12034524373E-01  0.10298786548E+01  0.10297827942E+01 0.  0.
     999903    2    3    3    0    0 -0.33804906694E-01  0.91696660627E-01 -0.92065565722E-01  0.14162542693E+00  0.45062666085E-01 0.  0.
         14    1    1    2    0    0  0.20692053850E-02 -0.69519001154E-02  0.12034524373E-01  0.14051345239E-01  0.00000000000E+00 0.  1.
     999901    1    3    3    0    0  0.31735701309E-01 -0.84744760512E-01  0.80031041349E-01  0.88825322783E+00  0.88000000000E+00 0. -1.
        -11    1    4    4    0    0 -0.33275401401E-02  0.50710269359E-01 -0.68703515573E-01  0.85457814826E-01  0.51100000000E-03 0.  1.
         11    1    4    4    0    0 -0.30477366554E-01  0.40986391269E-01 -0.23362050149E-01  0.56167612104E-01  0.51100000000E-03 0. -1.
</event>
<event>
 8    1  0.2001339E+004  0.1043930E+01  0.7957747E-01            NaN
         13   -1    0    0    0    0  0.00000000000E+00  0.00000000000E+00  0.74505805969E-08  0.10566000000E+00  0.10566000000E+00 0. -1.
     999900   -1    0    0    0    0 -0.00000000000E+00 -0.00000000000E+00 -0.74505805969E-08  0.93827000000E+00  0.93827000000E+00 0.  1.
     999902    2    1    2    0    0  0.19543471964E-02  0.43908270072E-02 -0.14101887073E-01  0.10290316090E+01  0.10289237534E+01 0.  0.
     999903    2    3    3    0    0 -0.78262936068E-02 -0.30662417255E-01 -0.12948873140E+00  0.14075320969E+00  0.45196236283E-01 0.  0.
         14    1    1    2    0    0 -0.19543471964E-02 -0.43908270072E-02  0.14101887073E-01  0.14898390980E-01  0.00000000000E+00 0. -1.
     999901    1    3    3    0    0  0.97806408032E-02  0.35053244262E-01  0.11538684433E+00  0.88827839933E+00  0.88000000000E+00 0. -1.
        -11    1    4    4    0    0  0.69277303547E-02 -0.27941919220E-01 -0.36149809347E-01  0.46214869191E-01  0.51100000000E-03 0. -1.
         11    1    4    4    0    0 -0.14754023962E-01 -0.27204980348E-02 -0.93338922058E-01  0.94538340501E-01  0.51100000000E-03 0.  1.
</event>
<event>
 8    1  0.2001339E+004  0.1043930E+01  0.7957747E-01            NaN
         13   -1    0    0    0    0  0.00000000000E+00  0.00000000000E+00  0.74505805969E-08  0.10566000000E+00  0.10566000000E+00 0. -1.
     999900   -1    0    0    0    0 -0.00000000000E+00 -0.00000000000E+00 -0.74505805969E-08  0.93827000000E+00  0.93827000000E+00 0.  1.
     999902    2    1    2    0    0 -0.77049291141E-02 -0.10039632936E-01  0.77053354398E-03  0.10312511245E+01  0.10311731804E+01 0.  0.
     999903    2    3    3    0    0  0.98509326372E-01 -0.46410973773E-01  0.77226331103E-01  0.14082997050E+00  0.44845384447E-01 0.  0.
         14    1    1    2    0    0  0.77049291141E-02  0.10039632936E-01 -0.77053354398E-03  0.12678875505E-01  0.00000000000E+00 0. -1.
     999901    1    3    3    0    0 -0.10621425549E+00  0.36371340837E-01 -0.76455797559E-01  0.89042115400E+00  0.88000000000E+00 0.  1.
        -11    1    4    4    0    0  0.97029391742E-01 -0.50647356654E-01  0.63859580215E-01  0.12672081401E+00  0.51100000000E-03 0.  1.
         11    1    4    4    0    0  0.14799346292E-02  0.42363828808E-02  0.13366750888E-01  0.14109156486E-01  0.51100000000E-03 0. -1.
</event>
<event>
 8    1  0.2001339E+004  0.1043930E+01  0.7957747E-01            NaN
         13   -1    0    0    0    0  0.00000000000E+00  0.00000000000E+00  0.74505805969E-08  0.10566000000E+00  0.10566000000E+00 0. -1.
     999900   -1    0    0    0    0 -0.00000000000E+00 -0.00000000000E+00 -0.74505805969E-08  0.93827000000E+00  0.93827000000E+00 0.  1.
     999902    2    1    2    0    0 -0.75095674762E-02  0.75015887771E-02  0.56322387719E-02  0.10319137797E+01  0.10318438153E+01 0.  0.
     999903    2    3    3    0    0  0.83553054275E-01 -0.57269522662E-01 -0.86081173726E-01  0.14011837263E+00  0.44297615888E-01 0.  0.
         14    1    1    2    0    0  0.75095674762E-02 -0.75015887771E-02 -0.56322387719E-02  0.12016220348E-01  0.00000000000E+00 0.  1.
     999901    1    3    3    0    0 -0.91062621751E-01  0.64771111439E-01  0.91713412498E-01  0.89179540702E+00  0.88000000000E+00 0. -1.
        -11    1    4    4    0    0  0.28269899048E-01 -0.30254740763E-01 -0.10621171196E-01  0.42750519639E-01  0.51100000000E-03 0. -1.
         11    1    4    4    0    0  0.55283155226E-01 -0.27014781899E-01 -0.75460002530E-01  0.97367852989E-01  0.51100000000E-03 0.  1.
</event>
<event>
 8    1  0.2001339E+004  0.1043930E+01  0.7957747E-01            NaN
         13   -1    0    0    0    0  0.00000000000E+00  0.00000000000E+00  0.74505805969E-08  0.10566000000E+00  0.10566000000E+00 0.  1.
     999900   -1    0    0    0    0 -0.00000000000E+00 -0.00000000000E+00 -0.74505805969E-08  0.93827000000E+00  0.93827000000E+00 0.  1.
     999902    2    1    2    0    0 -0.13559728428E-01  0.17374502344E-02 -0.16015206233E-02  0.10301659222E+01  0.10300739670E+01 0.  0.
     999903    2    3    3    0    0  0.75185767429E-01 -0.75711431271E-01 -0.77549084110E-01  0.13907550893E+00  0.44079658460E-01 0.  0.
         14    1    1    2    0    0  0.13559728428E-01 -0.17374502344E-02  0.16015206233E-02  0.13764077763E-01  0.00000000000E+00 0.  1.
     999901    1    3    3    0    0 -0.88745495856E-01  0.77448881506E-01  0.75947563487E-01  0.89109041330E+00  0.88000000000E+00 0. -1.
        -11    1    4    4    0    0  0.17009093024E-01  0.28736275015E-02 -0.76184943826E-02  0.18864505246E-01  0.51100000000E-03 0. -1.
         11    1    4    4    0    0  0.58176674405E-01 -0.78585058773E-01 -0.69930589727E-01  0.12021100369E+00  0.51100000000E-03 0.  1.
</event>
<event>
 8    1  0.2001339E+004  0.1043930E+01  0.7957747E-01            NaN
         13   -1    0    0    0    0  0.00000000000E+00  0.00000000000E+00  0.74505805969E-08  0.10566000000E+00  0.10566000000E+00 0.  1.
     999900   -1    0    0    0    0 -0.00000000000E+00 -0.00000000000E+00 -0.74505805969E-08  0.93827000000E+00  0.93827000000E+00 0. -1.
     999902    2    1    2    0    0 -0.11792571816E-01  0.24347779678E-01 -0.39785957620E-02  0.10165857438E+01  0.10162179225E+01 0.  0.
     999903    2    3    3    0    0 -0.31998893808E-01 -0.20061809531E-01 -0.11391162857E+00  0.12840458050E+00  0.45666965762E-01 0.  0.
         14    1    1    2    0    0  0.11792571816E-01 -0.24347779678E-01  0.39785957620E-02  0.27344256243E-01  0.00000000000E+00 0. -1.
     999901    1    3    3    0    0  0.20206321992E-01  0.44409589209E-01  0.10993303281E+00  0.88818116326E+00  0.88000000000E+00 0.  1.
        -11    1    4    4    0    0 -0.32131927647E-01 -0.31863797939E-01 -0.73624286008E-01  0.86420825063E-01  0.51100000000E-03 0. -1.
         11    1    4    4    0    0  0.13303383895E-03  0.11801988408E-01 -0.40287342567E-01  0.41983755436E-01  0.51100000000E-03 0.  1.
</event>
<event>
 8    1  0.2001339E+004  0.1043930E+01  0.7957747E-01            NaN
         13   -1    0    0    0    0  0.00000000000E+00  0.00000000000E+00  0.74505805969E-08  0.10566000000E+00  0.10566000000E+00 0. -1.
     999900   -1    0    0    0    0 -0.00000000000E+00 -0.00000000000E+00 -0.74505805969E-08  0.93827000000E+00  0.93827000000E+00 0.  1.
     999902    2    1    2    0    0 -0.36931462897E-02 -0.12816960800E-01  0.46017446871E-02  0.10298200791E+01  0.10297234121E+01 0.  0.
     999903    2    3    3    0    0 -0.59869299530E-02 -0.62211628196E-02 -0.13146530629E+00  0.13933537493E+00  0.45350565082E-01 0.  0.
         14    1    1    2    0    0  0.36931462897E-02  0.12816960800E-01 -0.46017446871E-02  0.14109920901E-01  0.00000000000E+00 0.  1.
     999901    1    3    3    0    0  0.22937836634E-02 -0.65957979800E-02  0.13606705097E+00  0.89048470417E+00  0.88000000000E+00 0. -1.
        -11    1    4    4    0    0 -0.21102826434E-02 -0.14586374016E-01 -0.10705846722E-01  0.18223388126E-01  0.51100000000E-03 0.  1.
         11    1    4    4    0    0 -0.38766473096E-02  0.83652111960E-02 -0.12075945957E+00  0.12111198681E+00  0.51100000000E-03 0. -1.
</event>
<event>
 8    1  0.2001339E+004  0.1043930E+01  0.7957747E-01            NaN
         13   -1    0    0    0    0  0.00000000000E+00  0.00000000000E+00  0.74505805969E-08  0.10566000000E+00  0.10566000000E+00 0. -1.
     999900   -1    0    0    0    0 -0.00000000000E+00 -0.00000000000E+00 -0.74505805969E-08  0.93827000000E+00  0.93827000000E+00 0.  1.
     999902    2    1    2    0    0  0.31254812923E-02  0.40121328328E-02  0.11929530692E-01  0.10309615943E+01  0.10308800267E+01 0.  0.
     999903    2    3    3    0    0 -0.10257072031E+00  0.15434882614E-01 -0.82030448536E-01  0.13959710999E+00  0.44714319455E-01 0.  0.
         14    1    1    2    0    0 -0.31254812923E-02 -0.40121328328E-02 -0.11929530692E-01  0.12968405673E-01  0.00000000000E+00 0.  1.
     999901    1    3    3    0    0  0.10569620160E+00 -0.11422749781E-01  0.93959979228E-01  0.89136448434E+00  0.88000000000E+00 0. -1.
        -11    1    4    4    0    0 -0.34533291258E-01 -0.15925660947E-01 -0.27228725697E-01  0.46774346663E-01  0.51100000000E-03 0. -1.
         11    1    4    4    0    0 -0.68037429049E-01  0.31360543561E-01 -0.54801722839E-01  0.92822763324E-01  0.51100000000E-03 0.  1.
</event>
<event>
 8    1  0.2001339E+004  0.1043930E+01  0.7957747E-01            NaN
         13   -1    0    0    0    0  0.00000000000E+00  0.00000000000E+00  0.74505805969E-08  0.10566000000E+00  0.10566000000E+00 0.  1.
     999900   -1    0    0    0    0 -0.00000000000E+00 -0.00000000000E+00 -0.74505805969E-08  0.93827000000E+00  0.93827000000E+00 0. -1.
     999902    2    1    2    0    0 -0.32553434663E-02  0.13021637796E-01 -0.53556776550E-02  0.10294785781E+01  0.10293771414E+01 0.  0.
     999903    2    3    3    0    0 -0.25542547332E-01  0.10170823119E+00  0.81838248203E-01  0.14045393726E+00  0.45086845164E-01 0.  0.
         14    1    1    2    0    0  0.32553434663E-02 -0.13021637796E-01  0.53556776550E-02  0.14451421907E-01  0.00000000000E+00 0.  1.
     999901    1    3    3    0    0  0.22287203866E-01 -0.88686593393E-01 -0.87193925858E-01  0.88902464083E+00  0.88000000000E+00 0. -1.
        -11    1    4    4    0    0 -0.21243500635E-01  0.97090814081E-01  0.56476631329E-01  0.11431440638E+00  0.51100000000E-03 0.  1.
         11    1    4    4    0    0 -0.42990466972E-02  0.46174171081E-02  0.25361616874E-01  0.26139530881E-01  0.51100000000E-03 0. -1.
</event>
<event>
 8    1  0.2001339E+004  0.1043930E+01  0.7957747E-01            NaN
         13   -1    0    0    0    0  0.00000000000E+00  0.00000000000E+00  0.74505805969E-08  0.10566000000E+00  0.10566000000E+00 0. -1.
     999900   -1    0    0    0    0 -0.00000000000E+00 -0.00000000000E+00 -0.74505805969E-08  0.93827000000E+00  0.93827000000E+00 0. -1.
     999902    2    1    2    0    0  0.62650730488E-02  0.11947384686E-01  0.18043614754E-02  0.10303194577E+01  0.10302295560E+01 0.  0.
     999903    2    3    3    0    0 -0.30181317158E-01  0.11622541999E+00 -0.59352538257E-01  0.14130741370E+00  0.45008901463E-01 0.  0.
         14    1    1    2    0    0 -0.62650730488E-02 -0.11947384686E-01 -0.18043614754E-02  0.13610542292E-01  0.00000000000E+00 0. -1.
     999901    1    3    3    0    0  0.36446390207E-01 -0.10427803531E+00  0.61156899732E-01  0.88901204401E+00  0.88000000000E+00 0.  1.
        -11    1    4    4    0    0 -0.29414410249E-01  0.84170411945E-01 -0.62792559097E-01  0.10905518042E+00  0.51100000000E-03 0. -1.
         11    1    4    4    0    0 -0.76690690930E-03  0.32055008049E-01  0.34400208402E-02  0.32252233281E-01  0.51100000000E-03 0.  1.
</event>
<event>
 8    1  0.2001339E+004  0.1043930E+01  0.7957747E-01            NaN
         13   -1    0    0    0    0  0.00000000000E+00  0.00000000000E+00  0.74505805969E-08  0.10566000000E+00  0.10566000000E+00 0.  1.
     999900   -1    0    0    0    0 -0.00000000000E+00 -0.00000000000E+00 -0.74505805969E-08  0.93827000000E+00  0.93827000000E+00 0.  1.
     999902    2    1    2    0    0  0.16481159603E-03 -0.39421764403E-02 -0.11520063032E-01  0.10317529819E+01  0.10316811212E+01 0.  0.
     999903    2    3    3    0    0  0.57326149902E-01 -0.16797050597E-01 -0.12380840740E+00  0.14268530242E+00  0.38238010054E-01 0.  0.
         14    1    1    2    0    0 -0.16481159603E-03  0.39421764403E-02  0.11520063032E-01  0.12177018116E-01  0.00000000000E+00 0.  1.
     999901    1    3    3    0    0 -0.57161338306E-01  0.12854874157E-01  0.11228834437E+00  0.88906767946E+00  0.88000000000E+00 0. -1.
        -11    1    4    4    0    0 -0.18476662716E-02  0.13080063089E-02 -0.31304130687E-01  0.31390037755E-01  0.51100000000E-03 0.  1.
         11    1    4    4    0    0  0.59173816173E-01 -0.18105056906E-01 -0.92504276711E-01  0.11129526467E+00  0.51100000000E-03 0. -1.
</event>
<event>
 8    1  0.2001339E+004  0.1043930E+01  0.7957747E-01            NaN
         13   -1    0    0    0    0  0.00000000000E+00  0.00000000000E+00  0.74505805969E-08  0.10566000000E+00  0.10566000000E+00 0. -1.
     999900   -1    0    0    0    0 -0.00000000000E+00 -0.00000000000E+00 -0.74505805969E-08  0.93827000000E+00  0.93827000000E+00 0.  1.
     999902    2    1    2    0    0  0.47757367331E-02 -0.89486325257E-02  0.89529385152E-02  0.10304007431E+01  0.10303119190E+01 0.  0.
     999903    2    3    3    0    0  0.48776497380E-01 -0.23477475240E-02 -0.12259967381E+00  0.13951032980E+00  0.45252552268E-01 0.  0.
         14    1    1    2    0    0 -0.47757367331E-02  0.89486325257E-02 -0.89529385152E-02  0.13529256945E-01  0.00000000000E+00 0.  1.
     999901    1    3    3    0    0 -0.44000760647E-01 -0.66008850017E-02  0.13155261233E+00  0.89089041326E+00  0.88000000000E+00 0. -1.
        -11    1    4    4    0    0  0.42317828943E-01  0.13584021585E-01 -0.60494782886E-01  0.75067996951E-01  0.51100000000E-03 0. -1.
         11    1    4    4    0    0  0.64586684373E-02 -0.15931769109E-01 -0.62104890927E-01  0.64442332849E-01  0.51100000000E-03 0.  1.
</event>
<event>
 8    1  0.2001339E+004  0.1043930E+01  0.7957747E-01            NaN
         13   -1    0    0    0    0  0.00000000000E+00  0.00000000000E+00  0.74505805969E-08  0.10566000000E+00  0.10566000000E+00 0.  1.
     999900   -1    0    0    0    0 -0.00000000000E+00 -0.00000000000E+00 -0.74505805969E-08  0.93827000000E+00  0.93827000000E+00 0. -1.
     999902    2    1    2    0    0 -0.55185000421E-02  0.97311759346E-02  0.91513670265E-02  0.10294767254E+01  0.10293752625E+01 0.  0.
     999903    2    3    3    0    0  0.23199068834E-01  0.10448991943E+00 -0.78257944360E-01  0.13962038535E+00  0.43740211405E-01 0.  0.
         14    1    1    2    0    0  0.55185000421E-02 -0.97311759346E-02 -0.91513670265E-02  0.14453274585E-01  0.00000000000E+00 0. -1.
     999901    1    3    3    0    0 -0.28717568877E-01 -0.94758743494E-01  0.87409311387E-01  0.88985634006E+00  0.88000000000E+00 0.  1.
        -11    1    4    4    0    0 -0.13047975424E-01  0.30135675860E-01 -0.20176361707E-01  0.38545496688E-01  0.51100000000E-03 0.  1.
         11    1    4    4    0    0  0.36247044259E-01  0.74354243568E-01 -0.58081582653E-01  0.10107488866E+00  0.51100000000E-03 0. -1.
</event>
<event>
 8    1  0.2001339E+004  0.1043930E+01  0.7957747E-01            NaN
         13   -1    0    0    0    0  0.00000000000E+00  0.00000000000E+00  0.74505805969E-08  0.10566000000E+00  0.10566000000E+00 0. -1.
     999900   -1    0    0    0    0 -0.00000000000E+00 -0.00000000000E+00 -0.74505805969E-08  0.93827000000E+00  0.93827000000E+00 0.  1.
     999902    2    1    2    0    0 -0.75001066968E-02 -0.66511760362E-02  0.11932117952E-01  0.10283458676E+01  0.10282277755E+01 0.  0.
     999903    2    3    3    0    0  0.10026916571E+00  0.83356466640E-01 -0.45916542861E-03  0.13712808519E+00  0.42446375487E-01 0.  0.
         14    1    1    2    0    0  0.75001066968E-02  0.66511760362E-02 -0.11932117952E-01  0.15584132377E-01  0.00000000000E+00 0.  1.
     999901    1    3    3    0    0 -0.10776927241E+00 -0.90007642676E-01  0.12391283380E-01  0.89121778243E+00  0.88000000000E+00 0.  1.
        -11    1    4    4    0    0  0.57379787737E-01  0.38435249844E-01 -0.20196230921E-01  0.71957329966E-01  0.51100000000E-03 0.  1.
         11    1    4    4    0    0  0.42889377978E-01  0.44921216795E-01  0.19737065492E-01  0.65170755227E-01  0.51100000000E-03 0. -1.
</event>
<event>
 7    1  0.2001339E+004  0.1043930E+01  0.7957747E-01            NaN
         13   -1    0    0    0    0  0.00000000000E+00  0.00000000000E+00  0.74505805969E-08  0.10566000000E+00  0.10566000000E+00 0. -1.
     999900   -1    0    0    0    0 -0.00000000000E+00 -0.00000000000E+00 -0.74505805969E-08  0.93827000000E+00  0.93827000000E+00 0. -1.
     999903    2    1    2    0    0  0.89257006132E-01  0.75603855367E-01  0.66867800169E-02  0.12553750112E+00  0.45079874333E-01 0.  0.
         14    1    1    2    0    0 -0.96488840412E-02  0.16648590646E-01 -0.22819520514E-01  0.29849741209E-01  0.00000000000E+00 0.  1.
     999901    1    1    2    0    0 -0.79608122090E-01 -0.92252446014E-01  0.16132740497E-01  0.88854275767E+00  0.88000000000E+00 0. -1.
        -11    1    3    3    0    0  0.34867346488E-01  0.45644259253E-01 -0.15668112087E-01  0.59538904182E-01  0.51100000000E-03 0. -1.
         11    1    3    3    0    0  0.54389659644E-01  0.29959596115E-01  0.22354892103E-01  0.65998596936E-01  0.51100000000E-03 0.  1.
</event>
<event>
 8    1  0.2001339E+004  0.1043930E+01  0.7957747E-01            NaN
         13   -1    0    0    0    0  0.00000000000E+00  0.00000000000E+00  0.74505805969E-08  0.10566000000E+00  0.10566000000E+00 0. -1.
     999900   -1    0    0    0    0 -0.00000000000E+00 -0.00000000000E+00 -0.74505805969E-08  0.93827000000E+00  0.93827000000E+00 0. -1.
     999902    2    1    2    0    0  0.22787545116E-02  0.11022918677E-01  0.86513367383E-02  0.10297334129E+01  0.10296355465E+01 0.  0.
     999903    2    3    3    0    0  0.80369535101E-01  0.58451441088E-01  0.89712404134E-01  0.14129740990E+00  0.45175319060E-01 0.  0.
         14    1    1    2    0    0 -0.22787545116E-02 -0.11022918677E-01 -0.86513367383E-02  0.14196587113E-01  0.00000000000E+00 0.  1.
     999901    1    3    3    0    0 -0.78090780589E-01 -0.47428522411E-01 -0.81061067396E-01  0.88843600298E+00  0.88000000000E+00 0. -1.
        -11    1    4    4    0    0  0.54279390109E-01  0.30191509430E-01  0.80619385431E-01  0.10177193061E+00  0.51100000000E-03 0. -1.
         11    1    4    4    0    0  0.26090144992E-01  0.28259931659E-01  0.90930187037E-02  0.39525479291E-01  0.51100000000E-03 0.  1.
</event>
<event>
 8    1  0.2001339E+004  0.1043930E+01  0.7957747E-01            NaN
         13   -1    0    0    0    0  0.00000000000E+00  0.00000000000E+00  0.74505805969E-08  0.10566000000E+00  0.10566000000E+00 0. -1.
     999900   -1    0    0    0    0 -0.00000000000E+00 -0.00000000000E+00 -0.74505805969E-08  0.93827000000E+00  0.93827000000E+00 0.  1.
     999902    2    1    2    0    0 -0.83786131382E-03 -0.13940153810E-01 -0.41092289610E-02  0.10293726767E+01  0.10292697372E+01 0.  0.
     999903    2    3    3    0    0  0.29576421119E-01 -0.65623160723E-02  0.12793618418E+00  0.13897082796E+00  0.45026604598E-01 0.  0.
         14    1    1    2    0    0  0.83786131382E-03  0.13940153810E-01  0.41092289610E-02  0.14557323328E-01  0.00000000000E+00 0. -1.
     999901    1    3    3    0    0 -0.30414282433E-01 -0.73778377374E-02 -0.13204541314E+00  0.89040184872E+00  0.88000000000E+00 0.  1.
        -11    1    4    4    0    0  0.24995139252E-01 -0.23940096404E-01  0.99284964040E-01  0.10514585302E+00  0.51100000000E-03 0.  1.
         11    1    4    4    0    0  0.45812818673E-02  0.17377780332E-01  0.28651220141E-01  0.33824974935E-01  0.51100000000E-03 0. -1.
</event>
<event>
 8    1  0.2001339E+004  0.1043930E+01  0.7957747E-01            NaN
         13   -1    0    0    0    0  0.00000000000E+00  0.00000000000E+00  0.74505805969E-08  0.10566000000E+00  0.10566000000E+00 0.  1.
     999900   -1    0    0    0    0 -0.00000000000E+00 -0.00000000000E+00 -0.74505805969E-08  0.93827000000E+00  0.93827000000E+00 0.  1.
     999902    2    1    2    0    0 -0.47075691395E-02 -0.94808192896E-02 -0.90965711892E-02  0.10299731111E+01  0.10298785437E+01 0.  0.
     999903    2    3    3    0    0  0.39614886285E-01  0.45299998311E-01  0.11531525289E+00  0.13843302783E+00  0.47377912384E-01 0.  0.
         14    1    1    2    0    0  0.47075691395E-02  0.94808192896E-02  0.90965711892E-02  0.13956888944E-01  0.00000000000E+00 0. -1.
     999901    1    3    3    0    0 -0.44322455424E-01 -0.54780817601E-01 -0.12441182408E+00  0.89154008323E+00  0.88000000000E+00 0.  1.
        -11    1    4    4    0    0  0.13697433322E-01  0.48459765241E-01  0.72285156735E-01  0.88098657946E-01  0.51100000000E-03 0. -1.
         11    1    4    4    0    0  0.25917452963E-01 -0.31597669294E-02  0.43030096156E-01  0.50334369881E-01  0.51100000000E-03 0.  1.
</event>
<event>
 8    1  0.2001339E+004  0.1043930E+01  0.7957747E-01            NaN
         13   -1    0    0    0    0  0.00000000000E+00  0.00000000000E+00  0.74505805969E-08  0.10566000000E+00  0.10566000000E+00 0. -1.
     999900   -1    0    0    0    0 -0.00000000000E+00 -0.00000000000E+00 -0.74505805969E-08  0.93827000000E+00  0.93827000000E+00 0. -1.
     999902    2    1    2    0    0 -0.74099128902E-02  0.11921493169E-01  0.38429016133E-02  0.10293767632E+01  0.10292738819E+01 0.  0.
     999903    2    3    3    0    0 -0.61931626057E-01 -0.37652052354E-01  0.11079720190E+00  0.13984352831E+00  0.45022095790E-01 0.  0.
         14    1    1    2    0    0  0.74099128902E-02 -0.11921493169E-01 -0.38429016133E-02  0.14553236796E-01  0.00000000000E+00 0. -1.
     999901    1    3    3    0    0  0.54521713167E-01  0.49573545523E-01 -0.10695430029E+00  0.88953323489E+00  0.88000000000E+00 0. -1.
        -11    1    4    4    0    0 -0.58483908911E-01 -0.19099428107E-01  0.10176173450E+00  0.11891537952E+00  0.51100000000E-03 0. -1.
         11    1    4    4    0    0 -0.34477171457E-02 -0.18552624247E-01  0.90354674009E-02  0.20928148798E-01  0.51100000000E-03 0.  1.
</event>
<event>
 8    1  0.2001339E+004  0.1043930E+01  0.7957747E-01            NaN
         13   -1    0    0    0    0  0.00000000000E+00  0.00000000000E+00  0.74505805969E-08  0.10566000000E+00  0.10566000000E+00 0.  1.
     999900   -1    0    0    0    0 -0.00000000000E+00 -0.00000000000E+00 -0.74505805969E-08  0.93827000000E+00  0.93827000000E+00 0.  1.
     999902    2    1    2    0    0 -0.29380682464E-02 -0.12262428830E-01 -0.40937986189E-02  0.10306726023E+01  0.10305873348E+01 0.  0.
     999903    2    3    3    0    0 -0.48443569823E-01 -0.12484817559E+00  0.11909524362E-01  0.14218939630E+00  0.46283271758E-01 0.  0.
         14    1    1    2    0    0  0.29380682464E-02  0.12262428830E-01  0.40937986189E-02  0.13257397669E-01  0.00000000000E+00 0. -1.
     999901    1    3    3    0    0  0.45505501577E-01  0.11258574676E+00 -0.16003322981E-01  0.88848320603E+00  0.88000000000E+00 0.  1.
        -11    1    4    4    0    0 -0.24188469250E-01 -0.10196654862E+00 -0.47619352662E-02  0.10490565395E+00  0.51100000000E-03 0. -1.
         11    1    4    4    0    0 -0.24255100574E-01 -0.22881626971E-01  0.16671459628E-01  0.37283742353E-01  0.51100000000E-03 0.  1.
</event>
<event>
 8    1  0.2001339E+004  0.1043930E+01  0.7957747E-01            NaN
         13   -1    0    0    0    0  0.00000000000E+00  0.00000000000E+00  0.74505805969E-08  0.10566000000E+00  0.10566000000E+00 0.  1.
     999900   -1    0    0    0    0 -0.00000000000E+00 -0.00000000000E+00 -0.74505805969E-08  0.93827000000E+00  0.93827000000E+00 0. -1.
     999902    2    1    2    0    0  0.42723428447E-02  0.91784214913E-02 -0.83316778737E-02  0.10308184329E+01  0.10307350428E+01 0.  0.
     999903    2    3    3    0    0  0.10800717591E+00  0.67335511032E-01 -0.45006721797E-01  0.14206187376E+00  0.44230644057E-01 0.  0.
         14    1    1    2    0    0 -0.42723428447E-02 -0.91784214913E-02  0.83316778737E-02  0.13111567055E-01  0.00000000000E+00 0.  1.
     999901    1    3    3    0    0 -0.10373483307E+00 -0.58157089540E-01  0.36675043923E-01  0.88875655919E+00  0.88000000000E+00 0.  1.
        -11    1    4    4    0    0  0.63353043185E-01  0.44555135653E-01 -0.44537936745E-02  0.77581348229E-01  0.51100000000E-03 0.  1.
         11    1    4    4    0    0  0.44654132726E-01  0.22780375379E-01 -0.40552928122E-01  0.64480525527E-01  0.51100000000E-03 0. -1.
</event>
<event>
 8    1  0.2001339E+004  0.1043930E+01  0.7957747E-01            NaN
         13   -1    0    0    0    0  0.00000000000E+00  0.00000000000E+00  0.74505805969E-08  0.10566000000E+00  0.10566000000E+00 0.  1.
     999900   -1    0    0    0    0 -0.00000000000E+00 -0.00000000000E+00 -0.74505805969E-08  0.93827000000E+00  0.93827000000E+00 0.  1.
     999902    2    1    2    0    0 -0.59295699976E-03  0.50469712085E-02 -0.11728598462E-01  0.10311478430E+01  0.10310686158E+01 0.  0.
     999903    2    3    3    0    0  0.11323656455E+00 -0.53609832032E-01  0.44206303104E-01  0.14012231373E+00  0.44536860341E-01 0.  0.
         14    1    1    2    0    0  0.59295699976E-03 -0.50469712085E-02  0.11728598462E-01  0.12782157027E-01  0.00000000000E+00 0.  1.
     999901    1    3    3    0    0 -0.11382952155E+00  0.58656803240E-01 -0.55934901567E-01  0.89102552924E+00  0.88000000000E+00 0.  1.
        -11    1    4    4    0    0  0.50420381953E-01 -0.38086994451E-01  0.41017351137E-01  0.75336035719E-01  0.51100000000E-03 0. -1.
         11    1    4    4    0    0  0.62816182602E-01 -0.15522837581E-01  0.31889519675E-02  0.64786278014E-01  0.51100000000E-03 0.  1.
</event>
<event>
 8    1  0.2001339E+004  0.1043930E+01  0.7957747E-01            NaN
         13   -1    0    0    0    0  0.00000000000E+00  0.00000000000E+00  0.74505805969E-08  0.10566000000E+00  0.10566000000E+00 0.  1.
     999900   -1    0    0    0    0 -0.00000000000E+00 -0.00000000000E+00 -0.74505805969E-08  0.93827000000E+00  0.93827000000E+00 0.  1.
     999902    2    1    2    0    0 -0.19948280013E-02 -0.13477979776E-01 -0.47122988872E-02  0.10295133070E+01  0.10294123606E+01 0.  0.
     999903    2    3    3    0    0  0.64708774211E-01 -0.51831832281E-01  0.10328753329E+00  0.13957827994E+00  0.44045628625E-01 0.  0.
         14    1    1    2    0    0  0.19948280013E-02  0.13477979776E-01  0.47122988872E-02  0.14416693047E-01  0.00000000000E+00 0.  1.
     999901    1    3    3    0    0 -0.66703602212E-01  0.38353852504E-01 -0.10799983218E+00  0.88993502701E+00  0.88000000000E+00 0.  1.
        -11    1    4    4    0    0  0.22393688763E-01 -0.28433640866E-01  0.15545925159E-01  0.39393986081E-01  0.51100000000E-03 0. -1.
         11    1    4    4    0    0  0.42315085448E-01 -0.23398191415E-01  0.87741608132E-01  0.10018429386E+00  0.51100000000E-03 0.  1.
</event>
<event>
 8    1  0.2001339E+004  0.1043930E+01  0.7957747E-01            NaN
         13   -1    0    0    0    0  0.00000000000E+00  0.00000000000E+00  0.74505805969E-08  0.10566000000E+00  0.10566000000E+00 0.  1.
     999900   -1    0    0    0    0 -0.00000000000E+00 -0.00000000000E+00 -0.74505805969E-08  0.93827000000E+00  0.93827000000E+00 0.  1.
     999902    2    1    2    0    0  0.11166952796E-01  0.67556317643E-02 -0.10000092419E-02  0.10308403318E+01  0.10307572218E+01 0.  0.
     999903    2    3    3    0    0  0.54072418786E-01  0.72981384702E-01 -0.99896995581E-01  0.14179177110E+00  0.43305746031E-01 0.  0.
         14    1    1    2    0    0 -0.11166952796E-01 -0.67556317643E-02  0.10000092419E-02  0.13089668206E-01  0.00000000000E+00 0.  1.
     999901    1    3    3    0    0 -0.42905465991E-01 -0.66225752938E-01  0.98896986339E-01  0.88904856069E+00  0.88000000000E+00 0. -1.
        -11    1    4    4    0    0  0.38696394494E-01  0.51477403348E-01 -0.38719861723E-01  0.75145344600E-01  0.51100000000E-03 0. -1.
         11    1    4    4    0    0  0.15376024293E-01  0.21503981354E-01 -0.61177133858E-01  0.66646426500E-01  0.51100000000E-03 0.  1.
</event>
<event>
 8    1  0.2001339E+004  0.1043930E+01  0.7957747E-01            NaN
         13   -1    0    0    0    0  0.00000000000E+00  0.00000000000E+00  0.74505805969E-08  0.10566000000E+00  0.10566000000E+00 0. -1.
     999900   -1    0    0    0    0 -0.00000000000E+00 -0.00000000000E+00 -0.74505805969E-08  0.93827000000E+00  0.93827000000E+00 0.  1.
     999902    2    1    2    0    0  0.73307315501E-02 -0.98509658294E-02 -0.72684373936E-02  0.10296607556E+01  0.10295618779E+01 0.  0.
     999903    2    3    3    0    0  0.66672475033E-01  0.14035799772E-01  0.11322392052E+00  0.13914942588E+00  0.43596834081E-01 0.  0.
         14    1    1    2    0    0 -0.73307315501E-02  0.98509658294E-02  0.72684373936E-02  0.14269244373E-01  0.00000000000E+00 0.  1.
     999901    1    3    3    0    0 -0.59341743482E-01 -0.23886765602E-01 -0.12049235792E+00  0.89051132975E+00  0.88000000000E+00 0.  1.
        -11    1    4    4    0    0  0.57238520792E-01  0.14351143320E-01  0.11525169140E+00  0.12948133869E+00  0.51100000000E-03 0. -1.
         11    1    4    4    0    0  0.94339542408E-02 -0.31534354759E-03 -0.20277708789E-02  0.96680871897E-02  0.51100000000E-03 0.  1.
</event>
<event>
 8    1  0.2001339E+004  0.1043930E+01  0.7957747E-01            NaN
         13   -1    0    0    0    0  0.00000000000E+00  0.00000000000E+00  0.74505805969E-08  0.10566000000E+00  0.10566000000E+00 0. -1.
     999900   -1    0    0    0    0 -0.00000000000E+00 -0.00000000000E+00 -0.74505805969E-08  0.93827000000E+00  0.93827000000E+00 0.  1.
     999902    2    1    2    0    0  0.10095773127E-01  0.35747722409E-02  0.99118607321E-02  0.10293372410E+01  0.10292337961E+01 0.  0.
     999903    2    3    3    0    0  0.47017588256E-01  0.48932722345E-01 -0.11254139569E+00  0.13893544178E+00  0.45082439132E-01 0.  0.
         14    1    1    2    0    0 -0.10095773127E-01 -0.35747722409E-02 -0.99118607321E-02  0.14592758984E-01  0.00000000000E+00 0.  1.
     999901    1    3    3    0    0 -0.36921815129E-01 -0.45357950104E-01  0.12245325642E+00  0.89040179923E+00  0.88000000000E+00 0. -1.
        -11    1    4    4    0    0  0.31697027525E-01  0.34695985632E-01 -0.34937431906E-01  0.58561064216E-01  0.51100000000E-03 0. -1.
         11    1    4    4    0    0  0.15320560730E-01  0.14236736713E-01 -0.77603963783E-01  0.80374377566E-01  0.51100000000E-03 0.  1.
</event>
<event>
 8    1  0.2001339E+004  0.1043930E+01  0.7957747E-01            NaN
         13   -1    0    0    0    0  0.00000000000E+00  0.00000000000E+00  0.74505805969E-08  0.10566000000E+00  0.10566000000E+00 0.  1.
     999900   -1    0    0    0    0 -0.00000000000E+00 -0.00000000000E+00 -0.74505805969E-08  0.93827000000E+00  0.93827000000E+00 0.  1.
     999902    2    1    2    0    0  0.13138493580E-01 -0.20530214372E-02 -0.63449800639E-02  0.10291959007E+01  0.10290904277E+01 0.  0.
     999903    2    3    3    0    0  0.99036470506E-01  0.78889077795E-01  0.39037430746E-01  0.14015729124E+00  0.45699411418E-01 0.  0.
         14    1    1    2    0    0 -0.13138493580E-01  0.20530214372E-02  0.63449800639E-02  0.14734099313E-01  0.00000000000E+00 0. -1.
     999901    1    3    3    0    0 -0.85897976927E-01 -0.80942099232E-01 -0.45382410810E-01  0.88903860944E+00  0.88000000000E+00 0.  1.
        -11    1    4    4    0    0  0.92208008783E-01  0.82472810242E-01  0.28263996648E-01  0.12689836855E+00  0.51100000000E-03 0. -1.
         11    1    4    4    0    0  0.68284617231E-02 -0.35837324472E-02  0.10773434098E-01  0.13258922695E-01  0.51100000000E-03 0.  1.
</event>
<event>
 8    1  0.2001339E+004  0.1043930E+01  0.7957747E-01            NaN
         13   -1    0    0    0    0  0.00000000000E+00  0.00000000000E+00  0.74505805969E-08  0.10566000000E+00  0.10566000000E+00 0. -1.
     999900   -1    0    0    0    0 -0.00000000000E+00 -0.00000000000E+00 -0.74505805969E-08  0.93827000000E+00  0.93827000000E+00 0.  1.
     999902    2    1    2    0    0 -0.47882565196E-02  0.11760863669E-01  0.72137078953E-02  0.10293257918E+01  0.10292221834E+01 0.  0.
     999903    2    3    3    0    0 -0.24704007947E-01 -0.12825703679E+00  0.12850662663E-01  0.13801584301E+00  0.42697516290E-01 0.  0.
         14    1    1    2    0    0  0.47882565196E-02 -0.11760863669E-01 -0.72137078953E-02  0.14604208172E-01  0.00000000000E+00 0.  1.
     999901    1    3    3    0    0  0.19915751427E-01  0.14001790045E+00 -0.56369547677E-02  0.89130994882E+00  0.88000000000E+00 0. -1.
        -11    1    4    4    0    0  0.61179584289E-02 -0.40883344801E-01 -0.10112367059E-01  0.42560526148E-01  0.51100000000E-03 0.  1.
         11    1    4    4    0    0 -0.30821966376E-01 -0.87373691985E-01  0.22963029722E-01  0.95455316863E-01  0.51100000000E-03 0. -1.
</event>
<event>
 8    1  0.2001339E+004  0.1043930E+01  0.7957747E-01            NaN
         13   -1    0    0    0    0  0.00000000000E+00  0.00000000000E+00  0.74505805969E-08  0.10566000000E+00  0.10566000000E+00 0. -1.
     999900   -1    0    0    0    0 -0.00000000000E+00 -0.00000000000E+00 -0.74505805969E-08  0.93827000000E+00  0.93827000000E+00 0.  1.
     999902    2    1    2    0    0 -0.41656150441E-02 -0.13266761811E-01 -0.17193676315E-02  0.10299187351E+01  0.10298234244E+01 0.  0.
     999903    2    3    3    0    0  0.25296006257E-02 -0.13367284336E+00  0.87690485445E-02  0.14163248778E+00  0.45913368987E-01 0.  0.
         14    1    1    2    0    0  0.41656150441E-02  0.13266761811E-01  0.17193676315E-02  0.14011264850E-01  0.00000000000E+00 0.  1.
     999901    1    3    3    0    0 -0.66952156698E-02  0.12040608155E+00 -0.10488416176E-01  0.88828624737E+00  0.88000000000E+00 0. -1.
        -11    1    4    4    0    0  0.16368950623E-01 -0.59231092617E-01 -0.13068020642E-01  0.62827535059E-01  0.51100000000E-03 0.  1.
         11    1    4    4    0    0 -0.13839349997E-01 -0.74441750744E-01  0.21837069187E-01  0.78804952724E-01  0.51100000000E-03 0. -1.
</event>
<event>
 7    1  0.2001339E+004  0.1043930E+01  0.7957747E-01            NaN
         13   -1    0    0    0    0  0.00000000000E+00  0.00000000000E+00  0.74505805969E-08  0.10566000000E+00  0.10566000000E+00 0. -1.
     999900   -1    0    0    0    0 -0.00000000000E+00 -0.00000000000E+00 -0.74505805969E-08  0.93827000000E+00  0.93827000000E+00 0.  1.
     999903    2    1    2    0    0  0.76652748470E-01 -0.35331438940E-01 -0.42393715115E-01  0.10390485919E+00  0.43301711942E-01 0.  0.
         14    1    1    2    0    0  0.47139504382E-01  0.15244245238E-01  0.10008450148E-01  0.50543930997E-01  0.00000000000E+00 0. -1.
     999901    1    1    2    0    0 -0.12379225285E+00  0.20087193702E-01  0.32385264967E-01  0.88948120981E+00  0.88000000000E+00 0. -1.
        -11    1    3    3    0    0  0.70402048996E-01 -0.13689227233E-01 -0.27096297936E-01  0.76670163219E-01  0.51100000000E-03 0. -1.
         11    1    3    3    0    0  0.62506994741E-02 -0.21642211708E-01 -0.15297417179E-01  0.27234695975E-01  0.51100000000E-03 0.  1.
</event>
<event>
 8    1  0.2108891E+004  0.1043930E+01  0.7957747E-01            NaN
         13   -1    0    0    0    0  0.00000000000E+00  0.00000000000E+00  0.74505805969E-08  0.10566000000E+00  0.10566000000E+00 0.  1.
     999900   -1    0    0    0    0 -0.00000000000E+00 -0.00000000000E+00 -0.74505805969E-08  0.93827000000E+00  0.93827000000E+00 0.  1.
     999902    2    1    2    0    0 -0.10504061282E-01 -0.25064278865E-02 -0.72487049202E-02  0.10309238012E+01  0.10308417544E+01 0.  0.
     999903    2    3    3    0    0  0.93729199336E-01  0.84937849471E-01 -0.39365158892E-01  0.13988926715E+00  0.44942076584E-01 0.  0.
         14    1    1    2    0    0  0.10504061282E-01  0.25064278865E-02  0.72487049202E-02  0.13006198798E-01  0.00000000000E+00 0.  1.
     999901    1    3    3    0    0 -0.10423326062E+00 -0.87444277357E-01  0.32116453972E-01  0.89103453405E+00  0.88000000000E+00 0.  1.
        -11    1    4    4    0    0  0.41416708632E-01  0.12274319937E-01 -0.22747912646E-01  0.48823471144E-01  0.51100000000E-03 0. -1.
         11    1    4    4    0    0  0.52312490704E-01  0.72663529534E-01 -0.16617246246E-01  0.91065796004E-01  0.51100000000E-03 0.  1.
</event>
<event>
 8    1  0.2001339E+004  0.1043930E+01  0.7957747E-01            NaN
         13   -1    0    0    0    0  0.00000000000E+00  0.00000000000E+00  0.74505805969E-08  0.10566000000E+00  0.10566000000E+00 0. -1.
     999900   -1    0    0    0    0 -0.00000000000E+00 -0.00000000000E+00 -0.74505805969E-08  0.93827000000E+00  0.93827000000E+00 0.  1.
     999902    2    1    2    0    0  0.76681246981E-02  0.68468659012E-02  0.80269848598E-02  0.10308872934E+01  0.10308047825E+01 0.  0.
     999903    2    3    3    0    0 -0.26933547824E-01  0.11265247239E+00 -0.66599570729E-01  0.14074054995E+00  0.44231256420E-01 0.  0.
         14    1    1    2    0    0 -0.76681246981E-02 -0.68468659012E-02 -0.80269848598E-02  0.13042706582E-01  0.00000000000E+00 0.  1.
     999901    1    3    3    0    0  0.34601672522E-01 -0.10580560649E+00  0.74626555589E-01  0.89014674347E+00  0.88000000000E+00 0. -1.
        -11    1    4    4    0    0 -0.26151578226E-01  0.41930577438E-01 -0.10640503333E-01  0.50552544942E-01  0.51100000000E-03 0. -1.
         11    1    4    4    0    0 -0.78196959810E-03  0.70721894954E-01 -0.55959067397E-01  0.90188005008E-01  0.51100000000E-03 0.  1.
</event>
<event>
 8    1  0.2001339E+004  0.1043930E+01  0.7957747E-01            NaN
         13   -1    0    0    0    0  0.00000000000E+00  0.00000000000E+00  0.74505805969E-08  0.10566000000E+00  0.10566000000E+00 0.  1.
     999900   -1    0    0    0    0 -0.00000000000E+00 -0.00000000000E+00 -0.74505805969E-08  0.93827000000E+00  0.93827000000E+00 0.  1.
     999902    2    1    2    0    0  0.24911799024E-02  0.12281537990E-01  0.39140438995E-02  0.10308013332E+01  0.10307177240E+01 0.  0.
     999903    2    3    3    0    0 -0.58591819415E-01  0.40273309777E-01 -0.11244348598E+00  0.14060262118E+00  0.45504052136E-01 0.  0.
         14    1    1    2    0    0 -0.24911799024E-02 -0.12281537990E-01 -0.39140438995E-02  0.13128666816E-01  0.00000000000E+00 0. -1.
     999901    1    3    3    0    0  0.61082999318E-01 -0.27991771787E-01  0.11635752988E+00  0.89019871200E+00  0.88000000000E+00 0. -1.
        -11    1    4    4    0    0 -0.40023103421E-01  0.49206835685E-01 -0.78946297379E-01  0.10127161733E+00  0.51100000000E-03 0.  1.
         11    1    4    4    0    0 -0.18568715994E-01 -0.89335259081E-02 -0.33497188600E-01  0.39331003851E-01  0.51100000000E-03 0. -1.
</event>
<event>
 8    1  0.2001339E+004  0.1043930E+01  0.7957747E-01            NaN
         13   -1    0    0    0    0  0.00000000000E+00  0.00000000000E+00  0.74505805969E-08  0.10566000000E+00  0.10566000000E+00 0. -1.
     999900   -1    0    0    0    0 -0.00000000000E+00 -0.00000000000E+00 -0.74505805969E-08  0.93827000000E+00  0.93827000000E+00 0.  1.
     999902    2    1    2    0    0  0.46784913513E-02 -0.12718161694E-01 -0.19236165864E-02  0.10302427717E+01  0.10301518472E+01 0.  0.
     999903    2    3    3    0    0  0.89052759090E-01  0.72588422822E-01 -0.66070714437E-01  0.13978722502E+00  0.44448351419E-01 0.  0.
         14    1    1    2    0    0 -0.46784913513E-02  0.12718161694E-01  0.19236165864E-02  0.13687228315E-01  0.00000000000E+00 0. -1.
     999901    1    3    3    0    0 -0.84374267739E-01 -0.85306584516E-01  0.64147097851E-01  0.89045554666E+00  0.88000000000E+00 0. -1.
        -11    1    4    4    0    0  0.94147037057E-01  0.66725066075E-01 -0.62270708511E-01  0.13112513599E+00  0.51100000000E-03 0. -1.
         11    1    4    4    0    0 -0.50942779665E-02  0.58633567473E-02 -0.38000059266E-02  0.86620890315E-02  0.51100000000E-03 0.  1.
</event>
<event>
 8    1  0.2001339E+004  0.1043930E+01  0.7957747E-01            NaN
         13   -1    0    0    0    0  0.00000000000E+00  0.00000000000E+00  0.74505805969E-08  0.10566000000E+00  0.10566000000E+00 0. -1.
     999900   -1    0    0    0    0 -0.00000000000E+00 -0.00000000000E+00 -0.74505805969E-08  0.93827000000E+00  0.93827000000E+00 0. -1.
     999902    2    1    2    0    0  0.23359553831E-02 -0.15821159573E-03  0.12628145230E-01  0.10310866449E+01  0.10310066525E+01 0.  0.
     999903    2    3    3    0    0 -0.79627131206E-01 -0.97904132622E-01  0.44730969517E-01  0.14130981671E+00  0.45187447999E-01 0.  0.
         14    1    1    2    0    0 -0.23359553831E-02  0.15821159573E-03 -0.12628145230E-01  0.12843355107E-01  0.00000000000E+00 0.  1.
     999901    1    3    3    0    0  0.81963086589E-01  0.97745921026E-01 -0.32102824287E-01  0.88977682818E+00  0.88000000000E+00 0. -1.
        -11    1    4    4    0    0 -0.24789843706E-01 -0.62051619157E-01  0.11357911447E-01  0.67780550783E-01  0.51100000000E-03 0.  1.
         11    1    4    4    0    0 -0.54837287500E-01 -0.35852513465E-01  0.33373058070E-01  0.73529265929E-01  0.51100000000E-03 0. -1.
</event>
<event>
 8    1  0.2001339E+004  0.1043930E+01  0.7957747E-01            NaN
         13   -1    0    0    0    0  0.00000000000E+00  0.00000000000E+00  0.74505805969E-08  0.10566000000E+00  0.10566000000E+00 0.  1.
     999900   -1    0    0    0    0 -0.00000000000E+00 -0.00000000000E+00 -0.74505805969E-08  0.93827000000E+00  0.93827000000E+00 0. -1.
     999902    2    1    2    0    0  0.31445704934E-02  0.12300444304E-01 -0.73292849412E-02  0.10292702704E+01  0.10291658670E+01 0.  0.
     999903    2    3    3    0    0  0.58097483771E-01 -0.11657734357E+00 -0.39904570354E-02  0.13818079418E+00  0.45960999541E-01 0.  0.
         14    1    1    2    0    0 -0.31445704934E-02 -0.12300444304E-01  0.73292849412E-02  0.14659729582E-01  0.00000000000E+00 0.  1.
     999901    1    3    3    0    0 -0.54952913277E-01  0.12887778788E+00 -0.33388279059E-02  0.89108947624E+00  0.88000000000E+00 0.  1.
        -11    1    4    4    0    0  0.13708322703E-01 -0.25049545997E-02 -0.72804603746E-02  0.15730833835E-01  0.51100000000E-03 0.  1.
         11    1    4    4    0    0  0.44389161067E-01 -0.11407238897E+00  0.32900033393E-02  0.12244996035E+00  0.51100000000E-03 0. -1.
</event>
<event>
 8    1  0.2001339E+004  0.1043930E+01  0.7957747E-01            NaN
         13   -1    0    0    0    0  0.00000000000E+00  0.00000000000E+00  0.74505805969E-08  0.10566000000E+00  0.10566000000E+00 0.  1.
     999900   -1    0    0    0    0 -0.00000000000E+00 -0.00000000000E+00 -0.74505805969E-08  0.93827000000E+00  0.93827000000E+00 0.  1.
     999902    2    1    2    0    0 -0.88993452840E-04 -0.41709201923E-02  0.12607865531E-01  0.10306498355E+01  0.10305642730E+01 0.  0.
     999903    2    3    3    0    0 -0.84445578034E-01 -0.23460975165E-01 -0.98683003167E-01  0.13942943796E+00  0.44952864777E-01 0.  0.
         14    1    1    2    0    0  0.88993452840E-04  0.41709201923E-02 -0.12607865531E-01  0.13280164470E-01  0.00000000000E+00 0. -1.
     999901    1    3    3    0    0  0.84356584582E-01  0.19290054973E-01  0.11129086870E+00  0.89122039757E+00  0.88000000000E+00 0. -1.
        -11    1    4    4    0    0 -0.12000992551E-01 -0.23948447071E-02  0.31934167647E-02  0.12657730247E-01  0.51100000000E-03 0. -1.
         11    1    4    4    0    0 -0.72444585483E-01 -0.21066130458E-01 -0.10187641993E+00  0.12677170772E+00  0.51100000000E-03 0.  1.
</event>
<event>
 8    1  0.2001339E+004  0.1043930E+01  0.7957747E-01            NaN
         13   -1    0    0    0    0  0.00000000000E+00  0.00000000000E+00  0.74505805969E-08  0.10566000000E+00  0.10566000000E+00 0.  1.
     999900   -1    0    0    0    0 -0.00000000000E+00 -0.00000000000E+00 -0.74505805969E-08  0.93827000000E+00  0.93827000000E+00 0.  1.
     999902    2    1    2    0    0 -0.74110831590E-02  0.97459366194E-02  0.64665239215E-02  0.10300835793E+01  0.10299905131E+01 0.  0.
     999903    2    3    3    0    0 -0.32396873649E-01  0.10120489224E+00  0.82391488593E-01  0.14174038519E+00  0.44832931712E-01 0.  0.
         14    1    1    2    0    0  0.74110831590E-02 -0.97459366194E-02 -0.64665239215E-02  0.13846420686E-01  0.00000000000E+00 0. -1.
     999901    1    3    3    0    0  0.24985790490E-01 -0.91458955618E-01 -0.75924964671E-01  0.88834319413E+00  0.88000000000E+00 0.  1.
        -11    1    4    4    0    0 -0.25255039583E-01  0.53140322606E-01  0.70281023122E-01  0.91659119804E-01  0.51100000000E-03 0. -1.
         11    1    4    4    0    0 -0.71418340662E-02  0.48064569631E-01  0.12110465470E-01  0.50081265385E-01  0.51100000000E-03 0.  1.
</event>
<event>
 8    1  0.2141591E+004  0.1043930E+01  0.7957747E-01            NaN
         13   -1    0    0    0    0  0.00000000000E+00  0.00000000000E+00  0.74505805969E-08  0.10566000000E+00  0.10566000000E+00 0.  1.
     999900   -1    0    0    0    0 -0.00000000000E+00 -0.00000000000E+00 -0.74505805969E-08  0.93827000000E+00  0.93827000000E+00 0.  1.
     999902    2    1    2    0    0 -0.19164948500E-01 -0.99140875140E-02  0.10961345400E-01  0.10197280275E+01  0.10194407852E+01 0.  0.
     999903    2    3    3    0    0  0.97696403154E-01 -0.29931034609E-01 -0.63848925854E-01  0.12863104599E+00  0.45042276124E-01 0.  0.
         14    1    1    2    0    0  0.19164948500E-01  0.99140875140E-02 -0.10961345400E-01  0.24201972548E-01  0.00000000000E+00 0.  1.
     999901    1    3    3    0    0 -0.11686135165E+00  0.20016947095E-01  0.74810271254E-01  0.89109698146E+00  0.88000000000E+00 0. -1.
        -11    1    4    4    0    0  0.56387660153E-01  0.18971706037E-02 -0.18089826816E-01  0.59250910787E-01  0.51100000000E-03 0.  1.
         11    1    4    4    0    0  0.41308743001E-01 -0.31828205213E-01 -0.45759099038E-01  0.69380135205E-01  0.51100000000E-03 0. -1.
</event>
<event>
 7    1  0.2019197E+004  0.1043930E+01  0.7957747E-01            NaN
         13   -1    0    0    0    0  0.00000000000E+00  0.00000000000E+00  0.74505805969E-08  0.10566000000E+00  0.10566000000E+00 0. -1.
     999900   -1    0    0    0    0 -0.00000000000E+00 -0.00000000000E+00 -0.74505805969E-08  0.93827000000E+00  0.93827000000E+00 0. -1.
     999903    2    1    2    0    0 -0.67736337158E-01  0.43985612130E-01 -0.42395420094E-01  0.99504760810E-01  0.39760285875E-01 0.  0.
         14    1    1    2    0    0  0.44215212745E-01  0.93864789286E-02  0.43155890715E-01  0.62494175153E-01  0.00000000000E+00 0. -1.
     999901    1    1    2    0    0  0.23521124413E-01 -0.53372091058E-01 -0.76047062051E-03  0.88193106404E+00  0.88000000000E+00 0.  1.
        -11    1    3    3    0    0 -0.18758147137E-02 -0.41498868449E-02 -0.11313691340E-01  0.12206595528E-01  0.51100000000E-03 0.  1.
         11    1    3    3    0    0 -0.65860522444E-01  0.48135498975E-01 -0.31081728755E-01  0.87298165281E-01  0.51100000000E-03 0. -1.
</event>
<event>
 8    1  0.2001339E+004  0.1043930E+01  0.7957747E-01            NaN
         13   -1    0    0    0    0  0.00000000000E+00  0.00000000000E+00  0.74505805969E-08  0.10566000000E+00  0.10566000000E+00 0. -1.
     999900   -1    0    0    0    0 -0.00000000000E+00 -0.00000000000E+00 -0.74505805969E-08  0.93827000000E+00  0.93827000000E+00 0. -1.
     999902    2    1    2    0    0 -0.13692521456E-01  0.11388529021E-02  0.49435223576E-03  0.10301813086E+01  0.10300895603E+01 0.  0.
     999903    2    3    3    0    0 -0.82971151171E-01 -0.10036282055E+00  0.31525721524E-01  0.14110028640E+00  0.44255079120E-01 0.  0.
         14    1    1    2    0    0  0.13692521456E-01 -0.11388529021E-02 -0.49435223576E-03  0.13748691352E-01  0.00000000000E+00 0.  1.
     999901    1    3    3    0    0  0.69278629716E-01  0.10150167345E+00 -0.31031369288E-01  0.88908102225E+00  0.88000000000E+00 0. -1.
        -11    1    4    4    0    0 -0.45794026083E-02 -0.94661507549E-02  0.17267888249E-01  0.20224243470E-01  0.51100000000E-03 0. -1.
         11    1    4    4    0    0 -0.78391748563E-01 -0.90896669796E-01  0.14257833275E-01  0.12087604293E+00  0.51100000000E-03 0.  1.
</event>
<event>
 8    1  0.2001339E+004  0.1043930E+01  0.7957747E-01            NaN
         13   -1    0    0    0    0  0.00000000000E+00  0.00000000000E+00  0.74505805969E-08  0.10566000000E+00  0.10566000000E+00 0. -1.
     999900   -1    0    0    0    0 -0.00000000000E+00 -0.00000000000E+00 -0.74505805969E-08  0.93827000000E+00  0.93827000000E+00 0.  1.
     999902    2    1    2    0    0  0.11608711776E-01 -0.20404771778E-02  0.71151513469E-02  0.10301622437E+01  0.10300702389E+01 0.  0.
     999903    2    3    3    0    0 -0.82189225875E-01 -0.80326807220E-01 -0.64210448521E-01  0.13886311105E+00  0.44187295718E-01 0.  0.
         14    1    1    2    0    0 -0.11608711776E-01  0.20404771778E-02 -0.71151513469E-02  0.13767756350E-01  0.00000000000E+00 0.  1.
     999901    1    3    3    0    0  0.93797937651E-01  0.78286330043E-01  0.71325599868E-01  0.89129913260E+00  0.88000000000E+00 0.  1.
        -11    1    4    4    0    0 -0.37474519442E-01 -0.64513212933E-01 -0.48100351546E-01  0.88770486031E-01  0.51100000000E-03 0.  1.
         11    1    4    4    0    0 -0.44714706432E-01 -0.15813594287E-01 -0.16110096975E-01  0.50092625018E-01  0.51100000000E-03 0. -1.
</event>
<event>
 8    1  0.2001339E+004  0.1043930E+01  0.7957747E-01            NaN
         13   -1    0    0    0    0  0.00000000000E+00  0.00000000000E+00  0.74505805969E-08  0.10566000000E+00  0.10566000000E+00 0.  1.
     999900   -1    0    0    0    0 -0.00000000000E+00 -0.00000000000E+00 -0.74505805969E-08  0.93827000000E+00  0.93827000000E+00 0. -1.
     999902    2    1    2    0    0 -0.80680687357E-02 -0.45248883199E-02  0.13846039842E-01  0.10272782383E+01  0.10271432703E+01 0.  0.
     999903    2    3    3    0    0  0.76155985757E-01  0.10374690382E+00  0.11763966540E-01  0.13664879386E+00  0.44399861880E-01 0.  0.
         14    1    1    2    0    0  0.80680687357E-02  0.45248883199E-02 -0.13846039842E-01  0.16651761671E-01  0.00000000000E+00 0. -1.
     999901    1    3    3    0    0 -0.84224054493E-01 -0.10827179214E+00  0.20820733021E-02  0.89062944447E+00  0.88000000000E+00 0.  1.
        -11    1    4    4    0    0  0.19094052587E-01  0.61553101412E-01 -0.14248498477E-02  0.64464396807E-01  0.51100000000E-03 0.  1.
         11    1    4    4    0    0  0.57061933170E-01  0.42193802410E-01  0.13188816388E-01  0.72184397051E-01  0.51100000000E-03 0. -1.
</event>
<event>
 8    1  0.2001339E+004  0.1043930E+01  0.7957747E-01            NaN
         13   -1    0    0    0    0  0.00000000000E+00  0.00000000000E+00  0.74505805969E-08  0.10566000000E+00  0.10566000000E+00 0. -1.
     999900   -1    0    0    0    0 -0.00000000000E+00 -0.00000000000E+00 -0.74505805969E-08  0.93827000000E+00  0.93827000000E+00 0. -1.
     999902    2    1    2    0    0 -0.10650808583E-01 -0.65305141597E-02  0.33045949045E-02  0.10310068546E+01  0.10309258589E+01 0.  0.
     999903    2    3    3    0    0  0.15088853909E-01  0.13138056089E+00 -0.31334954356E-02  0.13987081347E+00  0.45447776358E-01 0.  0.
         14    1    1    2    0    0  0.10650808583E-01  0.65305141597E-02 -0.33045949045E-02  0.12923145366E-01  0.00000000000E+00 0. -1.
     999901    1    3    3    0    0 -0.25739662493E-01 -0.13791107505E+00  0.64380903401E-02  0.89113604116E+00  0.88000000000E+00 0. -1.
        -11    1    4    4    0    0 -0.10480970165E-01  0.60123695316E-01 -0.15959294337E-01  0.63084623094E-01  0.51100000000E-03 0.  1.
         11    1    4    4    0    0  0.25569824074E-01  0.71256865574E-01  0.12825798902E-01  0.76786190381E-01  0.51100000000E-03 0. -1.
</event>
<event>
 8    1  0.2001339E+004  0.1043930E+01  0.7957747E-01            NaN
         13   -1    0    0    0    0  0.00000000000E+00  0.00000000000E+00  0.74505805969E-08  0.10566000000E+00  0.10566000000E+00 0.  1.
     999900   -1    0    0    0    0 -0.00000000000E+00 -0.00000000000E+00 -0.74505805969E-08  0.93827000000E+00  0.93827000000E+00 0. -1.
     999902    2    1    2    0    0 -0.43558071990E-02  0.47614699247E-02 -0.12415044387E-01  0.10299379316E+01  0.10298428836E+01 0.  0.
     999903    2    3    3    0    0  0.88178060169E-01  0.56491424432E-01  0.79269118615E-01  0.13884619074E+00  0.45033545142E-01 0.  0.
         14    1    1    2    0    0  0.43558071990E-02 -0.47614699247E-02  0.12415044387E-01  0.13992068443E-01  0.00000000000E+00 0.  1.
     999901    1    3    3    0    0 -0.92533867368E-01 -0.51729954507E-01 -0.91684163002E-01  0.89109174081E+00  0.88000000000E+00 0. -1.
        -11    1    4    4    0    0  0.18747589113E-01  0.24186559456E-01  0.29788015241E-02  0.30750546912E-01  0.51100000000E-03 0.  1.
         11    1    4    4    0    0  0.69430471056E-01  0.32304864976E-01  0.76290317091E-01  0.10809564383E+00  0.51100000000E-03 0. -1.
</event>
<event>
 8    1  0.2001339E+004  0.1043930E+01  0.7957747E-01            NaN
         13   -1    0    0    0    0  0.00000000000E+00  0.00000000000E+00  0.74505805969E-08  0.10566000000E+00  0.10566000000E+00 0.  1.
     999900   -1    0    0    0    0 -0.00000000000E+00 -0.00000000000E+00 -0.74505805969E-08  0.93827000000E+00  0.93827000000E+00 0.  1.
     999902    2    1    2    0    0  0.16505724964E-02  0.97703984574E-02 -0.10350742007E-01  0.10296009060E+01  0.10295011912E+01 0.  0.
     999903    2    3    3    0    0  0.10517921802E+00 -0.44906716323E-01 -0.66567298071E-01  0.14006840600E+00  0.45920279991E-01 0.  0.
         14    1    1    2    0    0 -0.16505724964E-02 -0.97703984574E-02  0.10350742007E-01  0.14329094029E-01  0.00000000000E+00 0.  1.
     999901    1    3    3    0    0 -0.10352864552E+00  0.54677114780E-01  0.56216556064E-01  0.88953249997E+00  0.88000000000E+00 0.  1.
        -11    1    4    4    0    0 -0.73952454067E-03 -0.69476934366E-02 -0.14469102825E-01  0.16075863840E-01  0.51100000000E-03 0.  1.
         11    1    4    4    0    0  0.10591874256E+00 -0.37959022886E-01 -0.52098195246E-01  0.12399254216E+00  0.51100000000E-03 0. -1.
</event>
<event>
 8    1  0.2001339E+004  0.1043930E+01  0.7957747E-01            NaN
         13   -1    0    0    0    0  0.00000000000E+00  0.00000000000E+00  0.74505805969E-08  0.10566000000E+00  0.10566000000E+00 0.  1.
     999900   -1    0    0    0    0 -0.00000000000E+00 -0.00000000000E+00 -0.74505805969E-08  0.93827000000E+00  0.93827000000E+00 0.  1.
     999902    2    1    2    0    0 -0.73694855692E-04  0.68656797925E-02 -0.14530917729E-01  0.10278585794E+01  0.10277329267E+01 0.  0.
     999903    2    3    3    0    0 -0.67706693106E-01 -0.56847617350E-01 -0.97415428801E-01  0.13909345359E+00  0.45181580025E-01 0.  0.
         14    1    1    2    0    0  0.73694855692E-04 -0.68656797925E-02  0.14530917729E-01  0.16071420596E-01  0.00000000000E+00 0.  1.
     999901    1    3    3    0    0  0.67632998251E-01  0.63713297143E-01  0.82884511072E-01  0.88876512581E+00  0.88000000000E+00 0. -1.
        -11    1    4    4    0    0 -0.25325278772E-01 -0.24811019496E-01 -0.10071943021E-01  0.36860027001E-01  0.51100000000E-03 0.  1.
         11    1    4    4    0    0 -0.42381414334E-01 -0.32036597854E-01 -0.87343485780E-01  0.10223342659E+00  0.51100000000E-03 0. -1.
</event>
<event>
 8    1  0.2001339E+004  0.1043930E+01  0.7957747E-01            NaN
         13   -1    0    0    0    0  0.00000000000E+00  0.00000000000E+00  0.74505805969E-08  0.10566000000E+00  0.10566000000E+00 0. -1.
     999900   -1    0    0    0    0 -0.00000000000E+00 -0.00000000000E+00 -0.74505805969E-08  0.93827000000E+00  0.93827000000E+00 0. -1.
     999902    2    1    2    0    0 -0.71573270590E-02  0.95876691111E-02  0.23500167024E-02  0.10317368335E+01  0.10316647810E+01 0.  0.
     999903    2    3    3    0    0 -0.42402843362E-01  0.18887313343E-01  0.12691965879E+00  0.14221655523E+00  0.44296919366E-01 0.  0.
         14    1    1    2    0    0  0.71573270590E-02 -0.95876691111E-02 -0.23500167024E-02  0.12193166452E-01  0.00000000000E+00 0. -1.
     999901    1    3    3    0    0  0.35245516303E-01 -0.92996442314E-02 -0.12456964209E+00  0.88952027831E+00  0.88000000000E+00 0. -1.
        -11    1    4    4    0    0 -0.16194706467E-01 -0.59942416090E-02  0.10274094945E-01  0.20100189003E-01  0.51100000000E-03 0. -1.
         11    1    4    4    0    0 -0.26208136896E-01  0.24881554951E-01  0.11664556384E+00  0.12211636623E+00  0.51100000000E-03 0.  1.
</event>
<event>
 8    1  0.2001339E+004  0.1043930E+01  0.7957747E-01            NaN
         13   -1    0    0    0    0  0.00000000000E+00  0.00000000000E+00  0.74505805969E-08  0.10566000000E+00  0.10566000000E+00 0. -1.
     999900   -1    0    0    0    0 -0.00000000000E+00 -0.00000000000E+00 -0.74505805969E-08  0.93827000000E+00  0.93827000000E+00 0. -1.
     999902    2    1    2    0    0  0.56374018934E-02 -0.52226070656E-02  0.57831643635E-02  0.10343122604E+01  0.10342675433E+01 0.  0.
     999903    2    3    3    0    0  0.10996037595E+00 -0.82561163918E-01 -0.14145996984E-01  0.14455852664E+00  0.42301635035E-01 0.  0.
         14    1    1    2    0    0 -0.56374018934E-02  0.52226070656E-02 -0.57831643635E-02  0.96177395849E-02  0.00000000000E+00 0.  1.
     999901    1    3    3    0    0 -0.10432297406E+00  0.77338556852E-01  0.19929161347E-01  0.88975373377E+00  0.88000000000E+00 0. -1.
        -11    1    4    4    0    0  0.17701499044E-01 -0.15879381664E-01 -0.19264430154E-01  0.30608450151E-01  0.51100000000E-03 0. -1.
         11    1    4    4    0    0  0.92258876909E-01 -0.66681782253E-01  0.51184331704E-02  0.11395007649E+00  0.51100000000E-03 0.  1.
</event>
<event>
 8    1  0.2001339E+004  0.1043930E+01  0.7957747E-01            NaN
         13   -1    0    0    0    0  0.00000000000E+00  0.00000000000E+00  0.74505805969E-08  0.10566000000E+00  0.10566000000E+00 0.  1.
     999900   -1    0    0    0    0 -0.00000000000E+00 -0.00000000000E+00 -0.74505805969E-08  0.93827000000E+00  0.93827000000E+00 0.  1.
     999902    2    1    2    0    0 -0.16278083973E-02 -0.13848413427E-01  0.22238413676E-02  0.10298100218E+01  0.10297132160E+01 0.  0.
     999903    2    3    3    0    0  0.23698458024E-01 -0.67844114545E-01  0.11246379534E+00  0.14092881320E+00  0.45259080162E-01 0.  0.
         14    1    1    2    0    0  0.16278083973E-02  0.13848413427E-01 -0.22238413676E-02  0.14119978224E-01  0.00000000000E+00 0. -1.
     999901    1    3    3    0    0 -0.25326266422E-01  0.53995701118E-01 -0.11023995397E+00  0.88888120858E+00  0.88000000000E+00 0.  1.
        -11    1    4    4    0    0 -0.20912591746E-02 -0.17529635957E-01  0.32656376471E-02  0.17960707446E-01  0.51100000000E-03 0.  1.
         11    1    4    4    0    0  0.25789717199E-01 -0.50314478588E-01  0.10919815769E+00  0.12296810575E+00  0.51100000000E-03 0. -1.
</event>
<event>
 8    1  0.2001339E+004  0.1043930E+01  0.7957747E-01            NaN
         13   -1    0    0    0    0  0.00000000000E+00  0.00000000000E+00  0.74505805969E-08  0.10566000000E+00  0.10566000000E+00 0. -1.
     999900   -1    0    0    0    0 -0.00000000000E+00 -0.00000000000E+00 -0.74505805969E-08  0.93827000000E+00  0.93827000000E+00 0. -1.
     999902    2    1    2    0    0 -0.56676458092E-02  0.86965234949E-03  0.12884919573E-01  0.10298268210E+01  0.10297302470E+01 0.  0.
     999903    2    3    3    0    0 -0.40051884495E-01 -0.10155601233E+00  0.76833998702E-01  0.14091581460E+00  0.45122348755E-01 0.  0.
         14    1    1    2    0    0  0.56676458092E-02 -0.86965234949E-03 -0.12884919573E-01  0.14103178955E-01  0.00000000000E+00 0.  1.
     999901    1    3    3    0    0  0.34384238686E-01  0.10242566468E+00 -0.63949079129E-01  0.88891100644E+00  0.88000000000E+00 0. -1.
        -11    1    4    4    0    0 -0.26554784796E-01 -0.85393472736E-01  0.38892354308E-01  0.97519629439E-01  0.51100000000E-03 0. -1.
         11    1    4    4    0    0 -0.13497099699E-01 -0.16162539591E-01  0.37941644394E-01  0.43396185163E-01  0.51100000000E-03 0.  1.
</event>
<event>
 8    1  0.2001339E+004  0.1043930E+01  0.7957747E-01            NaN
         13   -1    0    0    0    0  0.00000000000E+00  0.00000000000E+00  0.74505805969E-08  0.10566000000E+00  0.10566000000E+00 0.  1.
     999900   -1    0    0    0    0 -0.00000000000E+00 -0.00000000000E+00 -0.74505805969E-08  0.93827000000E+00  0.93827000000E+00 0. -1.
     999902    2    1    2    0    0  0.34114934655E-02 -0.16252051790E-01 -0.42975271783E-02  0.10267766850E+01  0.10266333935E+01 0.  0.
     999903    2    3    3    0    0 -0.84005906772E-01  0.94374631109E-01  0.14651033968E-01  0.13535135847E+00  0.46279305038E-01 0.  0.
         14    1    1    2    0    0 -0.34114934655E-02  0.16252051790E-01  0.42975271783E-02  0.17153314983E-01  0.00000000000E+00 0. -1.
     999901    1    3    3    0    0  0.87417400237E-01 -0.11062668290E+00 -0.18948561146E-01  0.89142532654E+00  0.88000000000E+00 0.  1.
        -11    1    4    4    0    0 -0.52731017874E-01  0.47680569311E-01 -0.13702653565E-01  0.72401800887E-01  0.51100000000E-03 0. -1.
         11    1    4    4    0    0 -0.31274888897E-01  0.46694061798E-01  0.28353687532E-01  0.62949557587E-01  0.51100000000E-03 0.  1.
</event>
<event>
 8    1  0.2001339E+004  0.1043930E+01  0.7957747E-01            NaN
         13   -1    0    0    0    0  0.00000000000E+00  0.00000000000E+00  0.74505805969E-08  0.10566000000E+00  0.10566000000E+00 0. -1.
     999900   -1    0    0    0    0 -0.00000000000E+00 -0.00000000000E+00 -0.74505805969E-08  0.93827000000E+00  0.93827000000E+00 0. -1.
     999902    2    1    2    0    0  0.30758010389E-02  0.12300512923E-02  0.12580223149E-01  0.10309209419E+01  0.10308388588E+01 0.  0.
     999903    2    3    3    0    0  0.20858361511E-02  0.13203379367E+00 -0.17806690652E-01  0.14073334168E+00  0.45293728530E-01 0.  0.
         14    1    1    2    0    0 -0.30758010389E-02 -0.12300512923E-02 -0.12580223149E-01  0.13009058101E-01  0.00000000000E+00 0.  1.
     999901    1    3    3    0    0  0.98996488779E-03 -0.13080374238E+00  0.30386913800E-01  0.89018760022E+00  0.88000000000E+00 0.  1.
        -11    1    4    4    0    0  0.12418772337E-02  0.31496412636E-02 -0.11160776908E-01  0.11674183541E-01  0.51100000000E-03 0. -1.
         11    1    4    4    0    0  0.84395891739E-03  0.12888415241E+00 -0.66459137437E-02  0.12905915814E+00  0.51100000000E-03 0.  1.
</event>
<event>
 8    1  0.2001339E+004  0.1043930E+01  0.7957747E-01            NaN
         13   -1    0    0    0    0  0.00000000000E+00  0.00000000000E+00  0.74505805969E-08  0.10566000000E+00  0.10566000000E+00 0.  1.
     999900   -1    0    0    0    0 -0.00000000000E+00 -0.00000000000E+00 -0.74505805969E-08  0.93827000000E+00  0.93827000000E+00 0.  1.
     999902    2    1    2    0    0 -0.11246145694E-01 -0.31778769379E-02 -0.10949747951E-02  0.10321922973E+01  0.10321255568E+01 0.  0.
     999903    2    3    3    0    0 -0.18534434685E-01  0.12014850866E+00  0.59117290272E-01  0.14152511288E+00  0.41896469603E-01 0.  0.
         14    1    1    2    0    0  0.11246145694E-01  0.31778769379E-02  0.10949747951E-02  0.11737702697E-01  0.00000000000E+00 0. -1.
     999901    1    3    3    0    0  0.72882889909E-02 -0.12332638560E+00 -0.60212265067E-01  0.89066718442E+00  0.88000000000E+00 0. -1.
        -11    1    4    4    0    0  0.41409853540E-02  0.69385780779E-02 -0.49417103212E-02  0.94854228869E-02  0.51100000000E-03 0.  1.
         11    1    4    4    0    0 -0.22675420039E-01  0.11320993058E+00  0.64059000593E-01  0.13203968999E+00  0.51100000000E-03 0. -1.
</event>
<event>
 8    1  0.2001339E+004  0.1043930E+01  0.7957747E-01            NaN
         13   -1    0    0    0    0  0.00000000000E+00  0.00000000000E+00  0.74505805969E-08  0.10566000000E+00  0.10566000000E+00 0. -1.
     999900   -1    0    0    0    0 -0.00000000000E+00 -0.00000000000E+00 -0.74505805969E-08  0.93827000000E+00  0.93827000000E+00 0.  1.
     999902    2    1    2    0    0 -0.10738005688E-02  0.55188023014E-02  0.13796516853E-01  0.10290318758E+01  0.10289240241E+01 0.  0.
     999903    2    3    3    0    0  0.13002728581E+00  0.90180967618E-02 -0.16422503421E-01  0.13879992342E+00  0.44802890513E-01 0.  0.
         14    1    1    2    0    0  0.10738005688E-02 -0.55188023014E-02 -0.13796516853E-01  0.14898124170E-01  0.00000000000E+00 0.  1.
     999901    1    3    3    0    0 -0.13110108638E+00 -0.34992944604E-02  0.30219020274E-01  0.89023195241E+00  0.88000000000E+00 0. -1.
        -11    1    4    4    0    0  0.97799156193E-01  0.41790612482E-02  0.77871370825E-02  0.98198982326E-01  0.51100000000E-03 0.  1.
         11    1    4    4    0    0  0.32228129615E-01  0.48390355136E-02 -0.24209640504E-01  0.40600941091E-01  0.51100000000E-03 0. -1.
</event>
<event>
 8    1  0.2001339E+004  0.1043930E+01  0.7957747E-01            NaN
         13   -1    0    0    0    0  0.00000000000E+00  0.00000000000E+00  0.74505805969E-08  0.10566000000E+00  0.10566000000E+00 0. -1.
     999900   -1    0    0    0    0 -0.00000000000E+00 -0.00000000000E+00 -0.74505805969E-08  0.93827000000E+00  0.93827000000E+00 0.  1.
     999902    2    1    2    0    0 -0.76276780199E-02  0.54875143494E-02  0.10170895208E-01  0.10300829283E+01  0.10299898532E+01 0.  0.
     999903    2    3    3    0    0 -0.98368354890E-01 -0.82732588536E-01 -0.33035817781E-01  0.13997985727E+00  0.44519442204E-01 0.  0.
         14    1    1    2    0    0  0.76276780199E-02 -0.54875143494E-02 -0.10170895208E-01  0.13847071713E-01  0.00000000000E+00 0.  1.
     999901    1    3    3    0    0  0.90740676870E-01  0.88220102886E-01  0.43206712989E-01  0.89010307102E+00  0.88000000000E+00 0. -1.
        -11    1    4    4    0    0 -0.30985117937E-01 -0.52754054966E-01 -0.23809225696E-01  0.65652175883E-01  0.51100000000E-03 0.  1.
         11    1    4    4    0    0 -0.67383236953E-01 -0.29978533570E-01 -0.92265920848E-02  0.74327681383E-01  0.51100000000E-03 0. -1.
</event>
<event>
 8    1  0.2001339E+004  0.1043930E+01  0.7957747E-01            NaN
         13   -1    0    0    0    0  0.00000000000E+00  0.00000000000E+00  0.74505805969E-08  0.10566000000E+00  0.10566000000E+00 0. -1.
     999900   -1    0    0    0    0 -0.00000000000E+00 -0.00000000000E+00 -0.74505805969E-08  0.93827000000E+00  0.93827000000E+00 0.  1.
     999902    2    1    2    0    0 -0.44999021670E-02  0.79087297385E-02  0.87797024373E-02  0.10312856218E+01  0.10312081038E+01 0.  0.
     999903    2    3    3    0    0 -0.98616947387E-01 -0.34277884150E-01  0.84817739778E-01  0.14200528819E+00  0.45510188303E-01 0.  0.
         14    1    1    2    0    0  0.44999021670E-02 -0.79087297385E-02 -0.87797024373E-02  0.12644378216E-01  0.00000000000E+00 0. -1.
     999901    1    3    3    0    0  0.94117045220E-01  0.42186613889E-01 -0.76038037340E-01  0.88928033359E+00  0.88000000000E+00 0.  1.
        -11    1    4    4    0    0 -0.39735400028E-01 -0.31222735843E-01  0.58866400516E-01  0.77583989841E-01  0.51100000000E-03 0. -1.
         11    1    4    4    0    0 -0.58881547359E-01 -0.30551483068E-02  0.25951339261E-01  0.64421298350E-01  0.51100000000E-03 0.  1.
</event>
<event>
 8    1  0.2001339E+004  0.1043930E+01  0.7957747E-01            NaN
         13   -1    0    0    0    0  0.00000000000E+00  0.00000000000E+00  0.74505805969E-08  0.10566000000E+00  0.10566000000E+00 0. -1.
     999900   -1    0    0    0    0 -0.00000000000E+00 -0.00000000000E+00 -0.74505805969E-08  0.93827000000E+00  0.93827000000E+00 0.  1.
     999902    2    1    2    0    0  0.90022881086E-02  0.88100348528E-03  0.13703023832E-01  0.10275107972E+01  0.10273796028E+01 0.  0.
     999903    2    3    3    0    0 -0.58348100661E-01  0.11089983655E+00 -0.35623788887E-01  0.13673958474E+00  0.41537755152E-01 0.  0.
         14    1    1    2    0    0 -0.90022881086E-02 -0.88100348528E-03 -0.13703023832E-01  0.16419202796E-01  0.00000000000E+00 0.  1.
     999901    1    3    3    0    0  0.67350388770E-01 -0.11001883307E+00  0.49326812718E-01  0.89077121246E+00  0.88000000000E+00 0.  1.
        -11    1    4    4    0    0 -0.73158200286E-02  0.19493181200E-01  0.93124171617E-02  0.22814196685E-01  0.51100000000E-03 0. -1.
         11    1    4    4    0    0 -0.51032280632E-01  0.91406655351E-01 -0.44936206048E-01  0.11392538806E+00  0.51100000000E-03 0.  1.
</event>
<event>
 8    1  0.2001339E+004  0.1043930E+01  0.7957747E-01            NaN
         13   -1    0    0    0    0  0.00000000000E+00  0.00000000000E+00  0.74505805969E-08  0.10566000000E+00  0.10566000000E+00 0. -1.
     999900   -1    0    0    0    0 -0.00000000000E+00 -0.00000000000E+00 -0.74505805969E-08  0.93827000000E+00  0.93827000000E+00 0.  1.
     999902    2    1    2    0    0  0.40172633081E-02 -0.10550435251E-01 -0.10030374796E-01  0.10288283939E+01  0.10287175538E+01 0.  0.
     999903    2    3    3    0    0  0.11599012393E+00 -0.42868129553E-01 -0.49865931829E-01  0.14025131424E+00  0.43502121877E-01 0.  0.
         14    1    1    2    0    0 -0.40172633081E-02  0.10550435251E-01  0.10030374796E-01  0.15101606108E-01  0.00000000000E+00 0. -1.
     999901    1    3    3    0    0 -0.11197286062E+00  0.32317694301E-01  0.39835557033E-01  0.88857707965E+00  0.88000000000E+00 0. -1.
        -11    1    4    4    0    0  0.12939104600E-01 -0.17471468174E-01 -0.21067058494E-01  0.30277957372E-01  0.51100000000E-03 0.  1.
         11    1    4    4    0    0  0.10305101933E+00 -0.25396661378E-01 -0.28798873335E-01  0.10997335687E+00  0.51100000000E-03 0. -1.
</event>
<event>
 8    1  0.2001339E+004  0.1043930E+01  0.7957747E-01            NaN
         13   -1    0    0    0    0  0.00000000000E+00  0.00000000000E+00  0.74505805969E-08  0.10566000000E+00  0.10566000000E+00 0.  1.
     999900   -1    0    0    0    0 -0.00000000000E+00 -0.00000000000E+00 -0.74505805969E-08  0.93827000000E+00  0.93827000000E+00 0.  1.
     999902    2    1    2    0    0  0.12035264766E-01  0.27134013827E-02  0.70910901935E-02  0.10296999717E+01  0.10296016405E+01 0.  0.
     999903    2    3    3    0    0  0.17587930230E-01  0.81088860407E-02 -0.13011704459E+00  0.13903392004E+00  0.44998847823E-01 0.  0.
         14    1    1    2    0    0 -0.12035264766E-01 -0.27134013827E-02 -0.70910901935E-02  0.14230028291E-01  0.00000000000E+00 0.  1.
     999901    1    3    3    0    0 -0.55526654643E-02 -0.53954846581E-02  0.13720813478E+00  0.89066605167E+00  0.88000000000E+00 0. -1.
        -11    1    4    4    0    0  0.69736282772E-02 -0.13569905615E-01 -0.96187307192E-01  0.97391134174E-01  0.51100000000E-03 0. -1.
         11    1    4    4    0    0  0.10614301953E-01  0.21678791655E-01 -0.33929737398E-01  0.41642785864E-01  0.51100000000E-03 0.  1.
</event>
<event>
 8    1  0.2001339E+004  0.1043930E+01  0.7957747E-01            NaN
         13   -1    0    0    0    0  0.00000000000E+00  0.00000000000E+00  0.74505805969E-08  0.10566000000E+00  0.10566000000E+00 0.  1.
     999900   -1    0    0    0    0 -0.00000000000E+00 -0.00000000000E+00 -0.74505805969E-08  0.93827000000E+00  0.93827000000E+00 0.  1.
     999902    2    1    2    0    0  0.44607724210E-02 -0.69713491207E-03  0.12401373835E-01  0.10307323275E+01  0.10306478314E+01 0.  0.
     999903    2    3    3    0    0 -0.10978866771E+00 -0.70646510022E-01  0.26326039354E-01  0.14048531344E+00  0.44705503101E-01 0.  0.
         14    1    1    2    0    0 -0.44607724210E-02  0.69713491207E-03 -0.12401373835E-01  0.13197672548E-01  0.00000000000E+00 0. -1.
     999901    1    3    3    0    0  0.11424944013E+00  0.69949375110E-01 -0.13924665519E-01  0.89024701401E+00  0.88000000000E+00 0. -1.
        -11    1    4    4    0    0 -0.32682584688E-01 -0.37287886208E-02  0.19313551501E-01  0.38148782406E-01  0.51100000000E-03 0. -1.
         11    1    4    4    0    0 -0.77106083025E-01 -0.66917721402E-01  0.70124878528E-02  0.10233653103E+00  0.51100000000E-03 0.  1.
</event>
<event>
 8    1  0.2001339E+004  0.1043930E+01  0.7957747E-01            NaN
         13   -1    0    0    0    0  0.00000000000E+00  0.00000000000E+00  0.74505805969E-08  0.10566000000E+00  0.10566000000E+00 0. -1.
     999900   -1    0    0    0    0 -0.00000000000E+00 -0.00000000000E+00 -0.74505805969E-08  0.93827000000E+00  0.93827000000E+00 0.  1.
     999902    2    1    2    0    0  0.13264717111E-01  0.54751619020E-02  0.90272230835E-03  0.10295513691E+01  0.10294509588E+01 0.  0.
     999903    2    3    3    0    0 -0.11367442594E+00 -0.16808262873E-01 -0.63540974138E-01  0.13783219413E+00  0.41903049183E-01 0.  0.
         14    1    1    2    0    0 -0.13264717111E-01 -0.54751619020E-02 -0.90272230835E-03  0.14378630861E-01  0.00000000000E+00 0.  1.
     999901    1    3    3    0    0  0.12693914306E+00  0.22283424775E-01  0.64443696446E-01  0.89171917500E+00  0.88000000000E+00 0.  1.
        -11    1    4    4    0    0 -0.27534202794E-01 -0.20939361848E-01 -0.88421044342E-02  0.35707606052E-01  0.51100000000E-03 0.  1.
         11    1    4    4    0    0 -0.86140223150E-01  0.41310989757E-02 -0.54698869704E-01  0.10212458808E+00  0.51100000000E-03 0. -1.
</event>
<event>
 8    1  0.2001339E+004  0.1043930E+01  0.7957747E-01            NaN
         13   -1    0    0    0    0  0.00000000000E+00  0.00000000000E+00  0.74505805969E-08  0.10566000000E+00  0.10566000000E+00 0.  1.
     999900   -1    0    0    0    0 -0.00000000000E+00 -0.00000000000E+00 -0.74505805969E-08  0.93827000000E+00  0.93827000000E+00 0. -1.
     999902    2    1    2    0    0 -0.13157996375E-01 -0.49128225545E-02 -0.31124157849E-02  0.10295440407E+01  0.10294435273E+01 0.  0.
     999903    2    3    3    0    0  0.49744684377E-01  0.82415673622E-02 -0.12175156019E+00  0.13926036014E+00  0.45028307106E-01 0.  0.
         14    1    1    2    0    0  0.13157996375E-01  0.49128225545E-02  0.31124157849E-02  0.14385959338E-01  0.00000000000E+00 0.  1.
     999901    1    3    3    0    0 -0.62902680752E-01 -0.13154389917E-01  0.11863914441E+00  0.89028368052E+00  0.88000000000E+00 0.  1.
        -11    1    4    4    0    0  0.16123366366E-02 -0.13865976315E-01 -0.18149180067E-01  0.22902375133E-01  0.51100000000E-03 0. -1.
         11    1    4    4    0    0  0.48132347741E-01  0.22107543677E-01 -0.10360238012E+00  0.11635798501E+00  0.51100000000E-03 0.  1.
</event>
<event>
 8    1  0.2001339E+004  0.1043930E+01  0.7957747E-01            NaN
         13   -1    0    0    0    0  0.00000000000E+00  0.00000000000E+00  0.74505805969E-08  0.10566000000E+00  0.10566000000E+00 0.  1.
     999900   -1    0    0    0    0 -0.00000000000E+00 -0.00000000000E+00 -0.74505805969E-08  0.93827000000E+00  0.93827000000E+00 0. -1.
     999902    2    1    2    0    0 -0.11309984970E-01  0.50199595871E-02  0.96137478459E-02  0.10282602871E+01  0.10281408844E+01 0.  0.
     999903    2    3    3    0    0 -0.22790428100E-01 -0.11842302910E+00  0.51092668806E-01  0.13860278396E+00  0.45352546578E-01 0.  0.
         14    1    1    2    0    0  0.11309984970E-01 -0.50199595871E-02 -0.96137478459E-02  0.15669712886E-01  0.00000000000E+00 0. -1.
     999901    1    3    3    0    0  0.11480443130E-01  0.12344298869E+00 -0.41478920960E-01  0.88965750315E+00  0.88000000000E+00 0. -1.
        -11    1    4    4    0    0  0.13228065561E-01 -0.46884091133E-01  0.20742524872E-01  0.52949156546E-01  0.51100000000E-03 0. -1.
         11    1    4    4    0    0 -0.36018493662E-01 -0.71538937971E-01  0.30350143934E-01  0.85653627415E-01  0.51100000000E-03 0.  1.
</event>
<event>
 8    1  0.2001339E+004  0.1043930E+01  0.7957747E-01            NaN
         13   -1    0    0    0    0  0.00000000000E+00  0.00000000000E+00  0.74505805969E-08  0.10566000000E+00  0.10566000000E+00 0. -1.
     999900   -1    0    0    0    0 -0.00000000000E+00 -0.00000000000E+00 -0.74505805969E-08  0.93827000000E+00  0.93827000000E+00 0. -1.
     999902    2    1    2    0    0 -0.12281624763E-01 -0.42344380543E-02  0.89462565530E-02  0.10281564690E+01  0.10280354666E+01 0.  0.
     999903    2    3    3    0    0 -0.78653832715E-01 -0.68763425165E-01 -0.79695299841E-01  0.13887215810E+00  0.44936638045E-01 0.  0.
         14    1    1    2    0    0  0.12281624763E-01  0.42344380543E-02 -0.89462565530E-02  0.15773530954E-01  0.00000000000E+00 0.  1.
     999901    1    3    3    0    0  0.66372207952E-01  0.64528987111E-01  0.88641556394E-01  0.88928431094E+00  0.88000000000E+00 0.  1.
        -11    1    4    4    0    0 -0.25467171476E-01 -0.20783599152E-02 -0.32638275228E-01  0.41453763807E-01  0.51100000000E-03 0.  1.
         11    1    4    4    0    0 -0.53186661238E-01 -0.66685065250E-01 -0.47057024613E-01  0.97418394297E-01  0.51100000000E-03 0. -1.
</event>
<event>
 8    1  0.2063074E+004  0.1043930E+01  0.7957747E-01            NaN
         13   -1    0    0    0    0  0.00000000000E+00  0.00000000000E+00  0.74505805969E-08  0.10566000000E+00  0.10566000000E+00 0. -1.
     999900   -1    0    0    0    0 -0.00000000000E+00 -0.00000000000E+00 -0.74505805969E-08  0.93827000000E+00  0.93827000000E+00 0. -1.
     999902    2    1    2    0    0  0.86789114973E-02  0.23533190980E-02  0.98162504932E-02  0.10306175851E+01  0.10305316038E+01 0.  0.
     999903    2    3    3    0    0 -0.69803032166E-01  0.11175812373E+00 -0.14653564867E-01  0.14004046966E+00  0.45102823201E-01 0.  0.
         14    1    1    2    0    0 -0.86789114973E-02 -0.23533190980E-02 -0.98162504932E-02  0.13312414856E-01  0.00000000000E+00 0.  1.
     999901    1    3    3    0    0  0.78481943664E-01 -0.10940480463E+00  0.24469815360E-01  0.89057711548E+00  0.88000000000E+00 0.  1.
        -11    1    4    4    0    0 -0.50640251049E-01  0.89223127299E-01  0.78141089016E-02  0.10289082996E+00  0.51100000000E-03 0. -1.
         11    1    4    4    0    0 -0.19162781117E-01  0.22534996429E-01 -0.22467673768E-01  0.37149639699E-01  0.51100000000E-03 0.  1.
</event>
<event>
 8    1  0.2001339E+004  0.1043930E+01  0.7957747E-01            NaN
         13   -1    0    0    0    0  0.00000000000E+00  0.00000000000E+00  0.74505805969E-08  0.10566000000E+00  0.10566000000E+00 0.  1.
     999900   -1    0    0    0    0 -0.00000000000E+00 -0.00000000000E+00 -0.74505805969E-08  0.93827000000E+00  0.93827000000E+00 0. -1.
     999902    2    1    2    0    0 -0.68384974403E-02  0.81292872576E-02  0.72765826171E-02  0.10310537034E+01  0.10309732976E+01 0.  0.
     999903    2    3    3    0    0  0.54856092770E-01  0.12063931799E+00 -0.18857298770E-01  0.14136403325E+00  0.45443989937E-01 0.  0.
         14    1    1    2    0    0  0.68384974403E-02 -0.81292872576E-02 -0.72765826171E-02  0.12876296562E-01  0.00000000000E+00 0.  1.
     999901    1    3    3    0    0 -0.61694590210E-01 -0.11251003073E+00  0.26133881387E-01  0.88968967018E+00  0.88000000000E+00 0.  1.
        -11    1    4    4    0    0  0.48795955915E-01  0.53345784635E-01 -0.13830429757E-01  0.73609509985E-01  0.51100000000E-03 0.  1.
         11    1    4    4    0    0  0.60601368550E-02  0.67293533356E-01 -0.50268690136E-02  0.67754523269E-01  0.51100000000E-03 0. -1.
</event>
<event>
 8    1  0.2001339E+004  0.1043930E+01  0.7957747E-01            NaN
         13   -1    0    0    0    0  0.00000000000E+00  0.00000000000E+00  0.74505805969E-08  0.10566000000E+00  0.10566000000E+00 0. -1.
     999900   -1    0    0    0    0 -0.00000000000E+00 -0.00000000000E+00 -0.74505805969E-08  0.93827000000E+00  0.93827000000E+00 0.  1.
     999902    2    1    2    0    0  0.17109060510E-01 -0.43488218607E-02 -0.65312222008E-02  0.10251074320E+01  0.10249346116E+01 0.  0.
     999903    2    3    3    0    0  0.87642808783E-02 -0.65926326157E-01 -0.11070445658E+00  0.13678683269E+00  0.45078462601E-01 0.  0.
         14    1    1    2    0    0 -0.17109060510E-01  0.43488218607E-02  0.65312222008E-02  0.18822568011E-01  0.00000000000E+00 0.  1.
     999901    1    3    3    0    0  0.83447796317E-02  0.61577504296E-01  0.10417323438E+00  0.88832059930E+00  0.88000000000E+00 0. -1.
        -11    1    4    4    0    0  0.54430694642E-02 -0.20588857969E-01 -0.77807713573E-01  0.80671119307E-01  0.51100000000E-03 0.  1.
         11    1    4    4    0    0  0.33212114141E-02 -0.45337468187E-01 -0.32896743005E-01  0.56115713380E-01  0.51100000000E-03 0. -1.
</event>
<event>
 8    1  0.2001339E+004  0.1043930E+01  0.7957747E-01            NaN
         13   -1    0    0    0    0  0.00000000000E+00  0.00000000000E+00  0.74505805969E-08  0.10566000000E+00  0.10566000000E+00 0. -1.
     999900   -1    0    0    0    0 -0.00000000000E+00 -0.00000000000E+00 -0.74505805969E-08  0.93827000000E+00  0.93827000000E+00 0. -1.
     999902    2    1    2    0    0 -0.80832599049E-02  0.75693051742E-02 -0.71937191965E-02  0.10307245819E+01  0.10306399860E+01 0.  0.
     999903    2    3    3    0    0 -0.43775331061E-01 -0.11778882790E+00 -0.42754166538E-01  0.14041388843E+00  0.45800149783E-01 0.  0.
         14    1    1    2    0    0  0.80832599049E-02 -0.75693051742E-02  0.71937191965E-02  0.13205418107E-01  0.00000000000E+00 0. -1.
     999901    1    3    3    0    0  0.35692071156E-01  0.12535813308E+00  0.35560447342E-01  0.89031069346E+00  0.88000000000E+00 0.  1.
        -11    1    4    4    0    0 -0.15756566034E-01 -0.41958815793E-01 -0.39114342231E-01  0.59489532567E-01  0.51100000000E-03 0. -1.
         11    1    4    4    0    0 -0.28018765027E-01 -0.75830012111E-01 -0.36398243076E-02  0.80924355866E-01  0.51100000000E-03 0.  1.
</event>
<event>
 8    1  0.2001339E+004  0.1043930E+01  0.7957747E-01            NaN
         13   -1    0    0    0    0  0.00000000000E+00  0.00000000000E+00  0.74505805969E-08  0.10566000000E+00  0.10566000000E+00 0. -1.
     999900   -1    0    0    0    0 -0.00000000000E+00 -0.00000000000E+00 -0.74505805969E-08  0.93827000000E+00  0.93827000000E+00 0. -1.
     999902    2    1    2    0    0  0.61401545185E-02  0.85789510401E-02 -0.80105846936E-02  0.10306835150E+01  0.10305983886E+01 0.  0.
     999903    2    3    3    0    0 -0.77800254759E-01  0.10650768062E+00  0.23493478935E-01  0.14072366508E+00  0.43063217367E-01 0.  0.
         14    1    1    2    0    0 -0.61401545185E-02 -0.85789510401E-02  0.80105846936E-02  0.13246485028E-01  0.00000000000E+00 0. -1.
     999901    1    3    3    0    0  0.83940409278E-01 -0.97928729583E-01 -0.31504063629E-01  0.88995984989E+00  0.88000000000E+00 0. -1.
        -11    1    4    4    0    0 -0.62705296899E-01  0.10463110341E+00  0.13995366839E-01  0.12278335992E+00  0.51100000000E-03 0.  1.
         11    1    4    4    0    0 -0.15094957860E-01  0.18765772110E-02  0.94981120964E-02  0.17940305160E-01  0.51100000000E-03 0. -1.
</event>
<event>
 8    1  0.2001339E+004  0.1043930E+01  0.7957747E-01            NaN
         13   -1    0    0    0    0  0.00000000000E+00  0.00000000000E+00  0.74505805969E-08  0.10566000000E+00  0.10566000000E+00 0. -1.
     999900   -1    0    0    0    0 -0.00000000000E+00 -0.00000000000E+00 -0.74505805969E-08  0.93827000000E+00  0.93827000000E+00 0. -1.
     999902    2    1    2    0    0  0.40939494077E-02  0.13551321437E-01  0.49570853628E-02  0.10289309524E+01  0.10288216237E+01 0.  0.
     999903    2    3    3    0    0  0.49939135407E-01  0.12387743725E+00  0.61742148635E-02  0.14085712981E+00  0.44306584007E-01 0.  0.
         14    1    1    2    0    0 -0.40939494077E-02 -0.13551321437E-01 -0.49570853628E-02  0.14999047628E-01  0.00000000000E+00 0.  1.
     999901    1    3    3    0    0 -0.45845185999E-01 -0.11032611581E+00 -0.12171295007E-02  0.88807382256E+00  0.88000000000E+00 0.  1.
        -11    1    4    4    0    0  0.28036783086E-01  0.11246248410E+00  0.72285096265E-02  0.11613089171E+00  0.51100000000E-03 0. -1.
         11    1    4    4    0    0  0.21902352321E-01  0.11414953143E-01 -0.10542947630E-02  0.24726238106E-01  0.51100000000E-03 0.  1.
</event>
<event>
 8    1  0.2001339E+004  0.1043930E+01  0.7957747E-01            NaN
         13   -1    0    0    0    0  0.00000000000E+00  0.00000000000E+00  0.74505805969E-08  0.10566000000E+00  0.10566000000E+00 0.  1.
     999900   -1    0    0    0    0 -0.00000000000E+00 -0.00000000000E+00 -0.74505805969E-08  0.93827000000E+00  0.93827000000E+00 0. -1.
     999902    2    1    2    0    0 -0.40968183758E-02 -0.13235139682E-01  0.53083167629E-02  0.10290931853E+01  0.10289862258E+01 0.  0.
     999903    2    3    3    0    0 -0.49337189062E-01  0.56394458932E-01  0.10844160499E+00  0.13918788289E+00  0.44712322995E-01 0.  0.
         14    1    1    2    0    0  0.40968183758E-02  0.13235139682E-01 -0.53083167629E-02  0.14836814687E-01  0.00000000000E+00 0. -1.
     999901    1    3    3    0    0  0.45240370687E-01 -0.69629598614E-01 -0.10313328823E+00  0.88990530242E+00  0.88000000000E+00 0. -1.
        -11    1    4    4    0    0 -0.17953039863E-01 -0.25449333868E-03  0.45329204803E-01  0.48758325815E-01  0.51100000000E-03 0. -1.
         11    1    4    4    0    0 -0.31384149199E-01  0.56648952271E-01  0.63112400186E-01  0.90429557074E-01  0.51100000000E-03 0.  1.
</event>
<event>
 8    1  0.2001339E+004  0.1043930E+01  0.7957747E-01            NaN
         13   -1    0    0    0    0  0.00000000000E+00  0.00000000000E+00  0.74505805969E-08  0.10566000000E+00  0.10566000000E+00 0. -1.
     999900   -1    0    0    0    0 -0.00000000000E+00 -0.00000000000E+00 -0.74505805969E-08  0.93827000000E+00  0.93827000000E+00 0. -1.
     999902    2    1    2    0    0 -0.37437458873E-02  0.34276989781E-02  0.11296461224E-01  0.10315455424E+01  0.10314711975E+01 0.  0.
     999903    2    3    3    0    0  0.38504855478E-01 -0.11107401141E+00 -0.58508183293E-01  0.14038434802E+00  0.49643708065E-01 0.  0.
         14    1    1    2    0    0  0.37437458873E-02 -0.34276989781E-02 -0.11296461224E-01  0.12384457588E-01  0.00000000000E+00 0.  1.
     999901    1    3    3    0    0 -0.42248601366E-01  0.11450171039E+00  0.69804644517E-01  0.89116119439E+00  0.88000000000E+00 0. -1.
        -11    1    4    4    0    0  0.10671901797E-01 -0.21196136485E-01  0.81256755966E-02  0.25088910195E-01  0.51100000000E-03 0.  1.
         11    1    4    4    0    0  0.27832953681E-01 -0.89877874922E-01 -0.66633858890E-01  0.11529543782E+00  0.51100000000E-03 0. -1.
</event>
<event>
 8    1  0.2001339E+004  0.1043930E+01  0.7957747E-01            NaN
         13   -1    0    0    0    0  0.00000000000E+00  0.00000000000E+00  0.74505805969E-08  0.10566000000E+00  0.10566000000E+00 0.  1.
     999900   -1    0    0    0    0 -0.00000000000E+00 -0.00000000000E+00 -0.74505805969E-08  0.93827000000E+00  0.93827000000E+00 0.  1.
     999902    2    1    2    0    0  0.29885840084E-02 -0.11681993061E-01  0.37467006420E-02  0.10313031096E+01  0.10312258072E+01 0.  0.
     999903    2    3    3    0    0  0.85026576524E-01  0.16918898635E-01 -0.10300850790E+00  0.14060399215E+00  0.40533468433E-01 0.  0.
         14    1    1    2    0    0 -0.29885840084E-02  0.11681993061E-01 -0.37467006420E-02  0.12626890431E-01  0.00000000000E+00 0.  1.
     999901    1    3    3    0    0 -0.82037992516E-01 -0.28600891696E-01  0.10675520854E+00  0.89069911742E+00  0.88000000000E+00 0. -1.
        -11    1    4    4    0    0  0.34527087331E-01 -0.68199893227E-02 -0.19708846154E-01  0.40340200193E-01  0.51100000000E-03 0.  1.
         11    1    4    4    0    0  0.50499489194E-01  0.23738887958E-01 -0.83299661742E-01  0.10026379196E+00  0.51100000000E-03 0. -1.
</event>
<event>
 8    1  0.2001339E+004  0.1043930E+01  0.7957747E-01            NaN
         13   -1    0    0    0    0  0.00000000000E+00  0.00000000000E+00  0.74505805969E-08  0.10566000000E+00  0.10566000000E+00 0.  1.
     999900   -1    0    0    0    0 -0.00000000000E+00 -0.00000000000E+00 -0.74505805969E-08  0.93827000000E+00  0.93827000000E+00 0. -1.
     999902    2    1    2    0    0  0.60614941246E-02 -0.97649445051E-02 -0.42424208219E-02  0.10316787149E+01  0.10316059697E+01 0.  0.
     999903    2    3    3    0    0  0.81397008381E-01  0.83510655214E-01  0.65285558079E-01  0.14083085075E+00  0.44402949464E-01 0.  0.
         14    1    1    2    0    0 -0.60614941246E-02  0.97649445051E-02  0.42424208219E-02  0.12251285102E-01  0.00000000000E+00 0.  1.
     999901    1    3    3    0    0 -0.75335514257E-01 -0.93275599719E-01 -0.69527978900E-01  0.89084786415E+00  0.88000000000E+00 0. -1.
        -11    1    4    4    0    0  0.18983553641E-01  0.25807313147E-01 -0.24586293254E-02  0.32135629757E-01  0.51100000000E-03 0. -1.
         11    1    4    4    0    0  0.62413454740E-01  0.57703342067E-01  0.67744187404E-01  0.10869522099E+00  0.51100000000E-03 0.  1.
</event>
<event>
 8    1  0.2001339E+004  0.1043930E+01  0.7957747E-01            NaN
         13   -1    0    0    0    0  0.00000000000E+00  0.00000000000E+00  0.74505805969E-08  0.10566000000E+00  0.10566000000E+00 0.  1.
     999900   -1    0    0    0    0 -0.00000000000E+00 -0.00000000000E+00 -0.74505805969E-08  0.93827000000E+00  0.93827000000E+00 0. -1.
     999902    2    1    2    0    0 -0.82511290641E-02  0.84334422075E-02 -0.71816131884E-02  0.10301176995E+01  0.10300250944E+01 0.  0.
     999903    2    3    3    0    0 -0.26945202213E-01 -0.10864886325E+00  0.69132764037E-01  0.13889291367E+00  0.44511605193E-01 0.  0.
         14    1    1    2    0    0  0.82511290641E-02 -0.84334422075E-02  0.71816131884E-02  0.13812300543E-01  0.00000000000E+00 0.  1.
     999901    1    3    3    0    0  0.18694073149E-01  0.11708230546E+00 -0.76314377225E-01  0.89122478578E+00  0.88000000000E+00 0. -1.
        -11    1    4    4    0    0 -0.33263088372E-02 -0.82190882545E-01  0.61247090647E-01  0.10255668061E+00  0.51100000000E-03 0.  1.
         11    1    4    4    0    0 -0.23618893376E-01 -0.26457980709E-01  0.78856733898E-02  0.36336233064E-01  0.51100000000E-03 0. -1.
</event>
<event>
 8    1  0.2001339E+004  0.1043930E+01  0.7957747E-01            NaN
         13   -1    0    0    0    0  0.00000000000E+00  0.00000000000E+00  0.74505805969E-08  0.10566000000E+00  0.10566000000E+00 0. -1.
     999900   -1    0    0    0    0 -0.00000000000E+00 -0.00000000000E+00 -0.74505805969E-08  0.93827000000E+00  0.93827000000E+00 0.  1.
     999902    2    1    2    0    0  0.14010462963E-01 -0.91309194124E-02  0.58496198766E-02  0.10262132053E+01  0.10260602604E+01 0.  0.
     999903    2    3    3    0    0  0.38052649478E-01  0.10177050986E+00 -0.66739044664E-01  0.13596252826E+00  0.47185465966E-01 0.  0.
         14    1    1    2    0    0 -0.14010462963E-01  0.91309194124E-02 -0.58496198766E-02  0.17716794700E-01  0.00000000000E+00 0.  1.
     999901    1    3    3    0    0 -0.24042186515E-01 -0.11090142928E+00  0.72588664541E-01  0.89025067704E+00  0.88000000000E+00 0. -1.
        -11    1    4    4    0    0  0.22499536231E-03  0.60819235620E-01 -0.46835641055E-01  0.76765020930E-01  0.51100000000E-03 0. -1.
         11    1    4    4    0    0  0.37827654116E-01  0.40951274243E-01 -0.19903403609E-01  0.59197507331E-01  0.51100000000E-03 0.  1.
</event>
<event>
 8    1  0.2001339E+004  0.1043930E+01  0.7957747E-01            NaN
         13   -1    0    0    0    0  0.00000000000E+00  0.00000000000E+00  0.74505805969E-08  0.10566000000E+00  0.10566000000E+00 0. -1.
     999900   -1    0    0    0    0 -0.00000000000E+00 -0.00000000000E+00 -0.74505805969E-08  0.93827000000E+00  0.93827000000E+00 0. -1.
     999902    2    1    2    0    0 -0.87799374139E-02  0.50699930480E-02 -0.95005020465E-02  0.10300356965E+01  0.10299419811E+01 0.  0.
     999903    2    3    3    0    0  0.60028949169E-01 -0.88519769321E-01  0.74509718472E-01  0.13843521218E+00  0.46619583074E-01 0.  0.
         14    1    1    2    0    0  0.87799374139E-02 -0.50699930480E-02  0.95005020465E-02  0.13894303496E-01  0.00000000000E+00 0. -1.
     999901    1    3    3    0    0 -0.68808886583E-01  0.93589762369E-01 -0.84010220519E-01  0.89160048432E+00  0.88000000000E+00 0. -1.
        -11    1    4    4    0    0  0.58405911570E-01 -0.65119932857E-01  0.38770562835E-01  0.95683195104E-01  0.51100000000E-03 0.  1.
         11    1    4    4    0    0  0.16230375984E-02 -0.23399836463E-01  0.35739155637E-01  0.42752017077E-01  0.51100000000E-03 0. -1.
</event>
<event>
 7    1  0.2001339E+004  0.1043930E+01  0.7957747E-01            NaN
         13   -1    0    0    0    0  0.00000000000E+00  0.00000000000E+00  0.74505805969E-08  0.10566000000E+00  0.10566000000E+00 0. -1.
     999900   -1    0    0    0    0 -0.00000000000E+00 -0.00000000000E+00 -0.74505805969E-08  0.93827000000E+00  0.93827000000E+00 0.  1.
     999903    2    1    2    0    0 -0.52413954777E-01  0.48599400928E-01 -0.22156723852E-01  0.87077872743E-01  0.44525398186E-01 0.  0.
         14    1    1    2    0    0  0.40273885216E-01  0.12215787006E-01 -0.57304046756E-01  0.71098277456E-01  0.00000000000E+00 0.  1.
     999901    1    1    2    0    0  0.12140069561E-01 -0.60815187934E-01  0.79460770608E-01  0.88575384980E+00  0.88000000000E+00 0.  1.
        -11    1    3    3    0    0 -0.10801413802E-01  0.11028080484E-01 -0.26681000951E-01  0.30828980393E-01  0.51100000000E-03 0. -1.
         11    1    3    3    0    0 -0.41612540975E-01  0.37571320444E-01  0.45242770994E-02  0.56248892350E-01  0.51100000000E-03 0.  1.
</event>
<event>
 8    1  0.2001339E+004  0.1043930E+01  0.7957747E-01            NaN
         13   -1    0    0    0    0  0.00000000000E+00  0.00000000000E+00  0.74505805969E-08  0.10566000000E+00  0.10566000000E+00 0. -1.
     999900   -1    0    0    0    0 -0.00000000000E+00 -0.00000000000E+00 -0.74505805969E-08  0.93827000000E+00  0.93827000000E+00 0. -1.
     999902    2    1    2    0    0  0.93209985481E-02  0.94278479796E-02 -0.82290037334E-03  0.10306468341E+01  0.10305612326E+01 0.  0.
     999903    2    3    3    0    0 -0.19842228718E-01  0.11738338004E+00  0.61699398325E-01  0.14136963965E+00  0.44788249704E-01 0.  0.
         14    1    1    2    0    0 -0.93209985481E-02 -0.94278479796E-02  0.82290037334E-03  0.13283165906E-01  0.00000000000E+00 0. -1.
     999901    1    3    3    0    0  0.29163227266E-01 -0.10795553206E+00 -0.62522298698E-01  0.88927719445E+00  0.88000000000E+00 0. -1.
        -11    1    4    4    0    0 -0.94469735390E-02  0.11086942609E+00  0.43623341765E-01  0.11951791505E+00  0.51100000000E-03 0.  1.
         11    1    4    4    0    0 -0.10395255179E-01  0.65139539512E-02  0.18076056559E-01  0.21851724601E-01  0.51100000000E-03 0. -1.
</event>
<event>
 8    1  0.2001339E+004  0.1043930E+01  0.7957747E-01            NaN
         13   -1    0    0    0    0  0.00000000000E+00  0.00000000000E+00  0.74505805969E-08  0.10566000000E+00  0.10566000000E+00 0. -1.
     999900   -1    0    0    0    0 -0.00000000000E+00 -0.00000000000E+00 -0.74505805969E-08  0.93827000000E+00  0.93827000000E+00 0.  1.
     999902    2    1    2    0    0  0.32274411898E-02 -0.11986370378E-01 -0.61119079732E-02  0.10300936395E+01  0.10300007094E+01 0.  0.
     999903    2    3    3    0    0 -0.85288316520E-01 -0.88394311175E-01  0.37867130742E-01  0.14127005265E+00  0.58614477754E-01 0.  0.
         14    1    1    2    0    0 -0.32274411898E-02  0.11986370378E-01  0.61119079732E-02  0.13836360451E-01  0.00000000000E+00 0. -1.
     999901    1    3    3    0    0  0.88515757709E-01  0.76407940797E-01 -0.43979038715E-01  0.88882358690E+00  0.88000000000E+00 0.  1.
        -11    1    4    4    0    0 -0.70460640829E-01 -0.34680457543E-01  0.10650541249E-01  0.79253587877E-01  0.51100000000E-03 0. -1.
         11    1    4    4    0    0 -0.14827675690E-01 -0.53713853632E-01  0.27216589494E-01  0.62016464774E-01  0.51100000000E-03 0.  1.
</event>
<event>
 8    1  0.2001339E+004  0.1043930E+01  0.7957747E-01            NaN
         13   -1    0    0    0    0  0.00000000000E+00  0.00000000000E+00  0.74505805969E-08  0.10566000000E+00  0.10566000000E+00 0. -1.
     999900   -1    0    0    0    0 -0.00000000000E+00 -0.00000000000E+00 -0.74505805969E-08  0.93827000000E+00  0.93827000000E+00 0.  1.
     999902    2    1    2    0    0  0.10053999166E-01 -0.64091231276E-03  0.98385901952E-02  0.10298483976E+01  0.10297521210E+01 0.  0.
     999903    2    3    3    0    0  0.20144881793E-01  0.59720461275E-01  0.11782208292E+00  0.14113823340E+00  0.45448959792E-01 0.  0.
         14    1    1    2    0    0 -0.10053999166E-01  0.64091231276E-03 -0.98385901952E-02  0.14081602354E-01  0.00000000000E+00 0.  1.
     999901    1    3    3    0    0 -0.10090882627E-01 -0.60361373588E-01 -0.10798349273E+00  0.88871016425E+00  0.88000000000E+00 0.  1.
        -11    1    4    4    0    0  0.23707688620E-01  0.47992314874E-01  0.53593579394E-01  0.75748595102E-01  0.51100000000E-03 0. -1.
         11    1    4    4    0    0 -0.35628068264E-02  0.11728146401E-01  0.64228503526E-01  0.65389638298E-01  0.51100000000E-03 0.  1.
</event>
<event>
 8    1  0.2001339E+004  0.1043930E+01  0.7957747E-01            NaN
         13   -1    0    0    0    0  0.00000000000E+00  0.00000000000E+00  0.74505805969E-08  0.10566000000E+00  0.10566000000E+00 0. -1.
     999900   -1    0    0    0    0 -0.00000000000E+00 -0.00000000000E+00 -0.74505805969E-08  0.93827000000E+00  0.93827000000E+00 0. -1.
     999902    2    1    2    0    0  0.20550740232E-02 -0.24435029062E-02  0.14575375530E-01  0.10290090212E+01  0.10289008359E+01 0.  0.
     999903    2    3    3    0    0 -0.45733631749E-01 -0.11056309221E+00  0.56562609543E-01  0.14011277654E+00  0.46005422729E-01 0.  0.
         14    1    1    2    0    0 -0.20550740232E-02  0.24435029062E-02 -0.14575375530E-01  0.14920978773E-01  0.00000000000E+00 0.  1.
     999901    1    3    3    0    0  0.47788705773E-01  0.10811958930E+00 -0.41987234013E-01  0.88889624468E+00  0.88000000000E+00 0. -1.
        -11    1    4    4    0    0 -0.47813392985E-01 -0.83039039640E-01  0.58784022481E-01  0.11241630252E+00  0.51100000000E-03 0.  1.
         11    1    4    4    0    0  0.20797612360E-02 -0.27524052571E-01 -0.22214129383E-02  0.27696474021E-01  0.51100000000E-03 0. -1.
</event>
<event>
 8    1  0.2001339E+004  0.1043930E+01  0.7957747E-01            NaN
         13   -1    0    0    0    0  0.00000000000E+00  0.00000000000E+00  0.74505805969E-08  0.10566000000E+00  0.10566000000E+00 0. -1.
     999900   -1    0    0    0    0 -0.00000000000E+00 -0.00000000000E+00 -0.74505805969E-08  0.93827000000E+00  0.93827000000E+00 0.  1.
     999902    2    1    2    0    0 -0.79710502583E-02 -0.99689260214E-02 -0.50910347965E-02  0.10301882474E+01  0.10300965923E+01 0.  0.
     999903    2    3    3    0    0  0.72870289180E-01 -0.91795705642E-01 -0.63774473648E-01  0.14076445080E+00  0.44843243645E-01 0.  0.
         14    1    1    2    0    0  0.79710502583E-02  0.99689260214E-02  0.50910347965E-02  0.13741752564E-01  0.00000000000E+00 0. -1.
     999901    1    3    3    0    0 -0.80841339439E-01  0.81826779620E-01  0.58683438852E-01  0.88942379664E+00  0.88000000000E+00 0.  1.
        -11    1    4    4    0    0  0.75050767394E-01 -0.71782818303E-01 -0.44831532983E-01  0.11311727614E+00  0.51100000000E-03 0. -1.
         11    1    4    4    0    0 -0.21804782136E-02 -0.20012887339E-01 -0.18942940665E-01  0.27647174664E-01  0.51100000000E-03 0.  1.
</event>
<event>
 8    1  0.2001339E+004  0.1043930E+01  0.7957747E-01            NaN
         13   -1    0    0    0    0  0.00000000000E+00  0.00000000000E+00  0.74505805969E-08  0.10566000000E+00  0.10566000000E+00 0. -1.
     999900   -1    0    0    0    0 -0.00000000000E+00 -0.00000000000E+00 -0.74505805969E-08  0.93827000000E+00  0.93827000000E+00 0. -1.
     999902    2    1    2    0    0  0.62910531172E-02  0.10277405836E-01  0.48671443864E-02  0.10309341732E+01  0.10308522581E+01 0.  0.
     999903    2    3    3    0    0 -0.10313064374E+00 -0.57425782994E-01 -0.58604561602E-01  0.13931458672E+00  0.45170888867E-01 0.  0.
         14    1    1    2    0    0 -0.62910531172E-02 -0.10277405836E-01 -0.48671443864E-02  0.12995826812E-01  0.00000000000E+00 0.  1.
     999901    1    3    3    0    0  0.10942169685E+00  0.67703188830E-01  0.63471705988E-01  0.89161958647E+00  0.88000000000E+00 0.  1.
        -11    1    4    4    0    0 -0.62507955787E-01 -0.57837870865E-01 -0.33246701087E-01  0.91422470417E-01  0.51100000000E-03 0.  1.
         11    1    4    4    0    0 -0.40622687950E-01  0.41208787090E-03 -0.25357860515E-01  0.47892116299E-01  0.51100000000E-03 0. -1.
</event>
<event>
 8    1  0.2001339E+004  0.1043930E+01  0.7957747E-01            NaN
         13   -1    0    0    0    0  0.00000000000E+00  0.00000000000E+00  0.74505805969E-08  0.10566000000E+00  0.10566000000E+00 0. -1.
     999900   -1    0    0    0    0 -0.00000000000E+00 -0.00000000000E+00 -0.74505805969E-08  0.93827000000E+00  0.93827000000E+00 0.  1.
     999902    2    1    2    0    0  0.12974108303E-01  0.30667425624E-02 -0.62073291196E-02  0.10292241056E+01  0.10291190389E+01 0.  0.
     999903    2    3    3    0    0  0.73735618276E-01  0.80593761847E-01  0.74966638137E-01  0.14001568637E+00  0.45300107562E-01 0.  0.
         14    1    1    2    0    0 -0.12974108303E-01 -0.30667425624E-02  0.62073291196E-02  0.14705894431E-01  0.00000000000E+00 0.  1.
     999901    1    3    3    0    0 -0.60761509972E-01 -0.77527019284E-01 -0.81173967257E-01  0.88920841920E+00  0.88000000000E+00 0.  1.
        -11    1    4    4    0    0  0.23126126932E-01  0.26319016285E-01  0.51294955936E-01  0.62120383052E-01  0.51100000000E-03 0.  1.
         11    1    4    4    0    0  0.50609491344E-01  0.54274745561E-01  0.23671682202E-01  0.77895303318E-01  0.51100000000E-03 0. -1.
</event>
<event>
 8    1  0.2001339E+004  0.1043930E+01  0.7957747E-01            NaN
         13   -1    0    0    0    0  0.00000000000E+00  0.00000000000E+00  0.74505805969E-08  0.10566000000E+00  0.10566000000E+00 0. -1.
     999900   -1    0    0    0    0 -0.00000000000E+00 -0.00000000000E+00 -0.74505805969E-08  0.93827000000E+00  0.93827000000E+00 0. -1.
     999902    2    1    2    0    0 -0.70931578337E-03 -0.53740054684E-02  0.12482382730E-01  0.10303214386E+01  0.10302315633E+01 0.  0.
     999903    2    3    3    0    0  0.76923193220E-01 -0.76886933307E-01  0.78650090416E-01  0.14154752428E+00  0.44956498303E-01 0.  0.
         14    1    1    2    0    0  0.70931578337E-03  0.53740054684E-02 -0.12482382730E-01  0.13608561359E-01  0.00000000000E+00 0.  1.
     999901    1    3    3    0    0 -0.77632509003E-01  0.71512927839E-01 -0.66167707686E-01  0.88877391436E+00  0.88000000000E+00 0. -1.
        -11    1    4    4    0    0  0.76635971785E-01 -0.53733626246E-01  0.55576525793E-01  0.10885488552E+00  0.51100000000E-03 0.  1.
         11    1    4    4    0    0  0.28722143542E-03 -0.23153307061E-01  0.23073564623E-01  0.32692638765E-01  0.51100000000E-03 0. -1.
</event>
<event>
 8    1  0.2001339E+004  0.1043930E+01  0.7957747E-01            NaN
         13   -1    0    0    0    0  0.00000000000E+00  0.00000000000E+00  0.74505805969E-08  0.10566000000E+00  0.10566000000E+00 0.  1.
     999900   -1    0    0    0    0 -0.00000000000E+00 -0.00000000000E+00 -0.74505805969E-08  0.93827000000E+00  0.93827000000E+00 0.  1.
     999902    2    1    2    0    0  0.12989413945E-01 -0.46165315954E-02  0.31370447474E-02  0.10297921682E+01  0.10296951157E+01 0.  0.
     999903    2    3    3    0    0 -0.59478439416E-01 -0.87669354148E-01  0.79030886104E-01  0.13967462749E+00  0.45161047304E-01 0.  0.
         14    1    1    2    0    0 -0.12989413945E-01  0.46165315954E-02 -0.31370447474E-02  0.14137831812E-01  0.00000000000E+00 0. -1.
     999901    1    3    3    0    0  0.72467853361E-01  0.83052822553E-01 -0.75893841357E-01  0.89011754070E+00  0.88000000000E+00 0.  1.
        -11    1    4    4    0    0 -0.11966039910E-01 -0.54959836405E-01  0.28847092424E-01  0.63215390461E-01  0.51100000000E-03 0.  1.
         11    1    4    4    0    0 -0.47512399506E-01 -0.32709517743E-01  0.50183793680E-01  0.76459237028E-01  0.51100000000E-03 0. -1.
</event>
<event>
 8    1  0.2001339E+004  0.1043930E+01  0.7957747E-01            NaN
         13   -1    0    0    0    0  0.00000000000E+00  0.00000000000E+00  0.74505805969E-08  0.10566000000E+00  0.10566000000E+00 0. -1.
     999900   -1    0    0    0    0 -0.00000000000E+00 -0.00000000000E+00 -0.74505805969E-08  0.93827000000E+00  0.93827000000E+00 0.  1.
     999902    2    1    2    0    0 -0.11598528288E-01 -0.53751458811E-02 -0.43847910939E-02  0.10304153988E+01  0.10303267684E+01 0.  0.
     999903    2    3    3    0    0 -0.72283073793E-01 -0.87122529403E-02  0.11147916704E+00  0.14074230880E+00  0.45607528899E-01 0.  0.
         14    1    1    2    0    0  0.11598528288E-01  0.53751458811E-02  0.43847910939E-02  0.13514601164E-01  0.00000000000E+00 0. -1.
     999901    1    3    3    0    0  0.60684545506E-01  0.33371070592E-02 -0.11586395814E+00  0.88967309004E+00  0.88000000000E+00 0.  1.
        -11    1    4    4    0    0 -0.32316870408E-01  0.47595661333E-03  0.87395515844E-01  0.93181779111E-01  0.51100000000E-03 0. -1.
         11    1    4    4    0    0 -0.39966203385E-01 -0.91882095537E-02  0.24083651199E-01  0.47560529685E-01  0.51100000000E-03 0.  1.
</event>
<event>
 8    1  0.2001339E+004  0.1043930E+01  0.7957747E-01            NaN
         13   -1    0    0    0    0  0.00000000000E+00  0.00000000000E+00  0.74505805969E-08  0.10566000000E+00  0.10566000000E+00 0.  1.
     999900   -1    0    0    0    0 -0.00000000000E+00 -0.00000000000E+00 -0.74505805969E-08  0.93827000000E+00  0.93827000000E+00 0. -1.
     999902    2    1    2    0    0  0.54275480253E-02 -0.13687244663E-01  0.36157525466E-02  0.10287684496E+01  0.10286567213E+01 0.  0.
     999903    2    3    3    0    0 -0.34820229907E-01  0.12213433668E+00  0.25441353051E-01  0.13717227283E+00  0.45163318991E-01 0.  0.
         14    1    1    2    0    0 -0.54275480253E-02  0.13687244663E-01 -0.36157525466E-02  0.15161550400E-01  0.00000000000E+00 0.  1.
     999901    1    3    3    0    0  0.40247777932E-01 -0.13582158134E+00 -0.21825600504E-01  0.89159617677E+00  0.88000000000E+00 0. -1.
        -11    1    4    4    0    0  0.37676456282E-02  0.22131380563E-01 -0.95681067329E-02  0.24409075088E-01  0.51100000000E-03 0.  1.
         11    1    4    4    0    0 -0.38587875535E-01  0.10000295612E+00  0.35009459783E-01  0.11276319775E+00  0.51100000000E-03 0. -1.
</event>
<event>
 8    1  0.2001339E+004  0.1043930E+01  0.7957747E-01            NaN
         13   -1    0    0    0    0  0.00000000000E+00  0.00000000000E+00  0.74505805969E-08  0.10566000000E+00  0.10566000000E+00 0.  1.
     999900   -1    0    0    0    0 -0.00000000000E+00 -0.00000000000E+00 -0.74505805969E-08  0.93827000000E+00  0.93827000000E+00 0. -1.
     999902    2    1    2    0    0  0.13991018608E-01  0.73721255905E-02 -0.43799128622E-02  0.10275202324E+01  0.10273891899E+01 0.  0.
     999903    2    3    3    0    0 -0.75478417753E-01 -0.71601058299E-01  0.73646151597E-01  0.13604414712E+00  0.47545254486E-01 0.  0.
         14    1    1    2    0    0 -0.13991018608E-01 -0.73721255905E-02  0.43799128622E-02  0.16409767643E-01  0.00000000000E+00 0.  1.
     999901    1    3    3    0    0  0.89469436362E-01  0.78973183890E-01 -0.78026064459E-01  0.89147608524E+00  0.88000000000E+00 0.  1.
        -11    1    4    4    0    0 -0.76049649050E-01 -0.55682761481E-01  0.74411042657E-01  0.12008906460E+00  0.51100000000E-03 0.  1.
         11    1    4    4    0    0  0.57123129689E-03 -0.15918296818E-01 -0.76489105971E-03  0.15955082516E-01  0.51100000000E-03 0. -1.
</event>
<event>
 8    1  0.2001339E+004  0.1043930E+01  0.7957747E-01            NaN
         13   -1    0    0    0    0  0.00000000000E+00  0.00000000000E+00  0.74505805969E-08  0.10566000000E+00  0.10566000000E+00 0. -1.
     999900   -1    0    0    0    0 -0.00000000000E+00 -0.00000000000E+00 -0.74505805969E-08  0.93827000000E+00  0.93827000000E+00 0.  1.
     999902    2    1    2    0    0  0.17112484513E-02  0.13082483098E-01 -0.72065337579E-03  0.10307164056E+01  0.10306317042E+01 0.  0.
     999903    2    3    3    0    0  0.44689497420E-01 -0.95132012710E-02  0.12506675876E+00  0.14044668924E+00  0.44675789811E-01 0.  0.
         14    1    1    2    0    0 -0.17112484513E-02 -0.13082483098E-01  0.72065337579E-03  0.13213594384E-01  0.00000000000E+00 0.  1.
     999901    1    3    3    0    0 -0.42978248969E-01  0.22595684369E-01 -0.12578741213E+00  0.89026971637E+00  0.88000000000E+00 0.  1.
        -11    1    4    4    0    0  0.32251759466E-01 -0.27243342196E-01  0.81071611292E-01  0.91407018118E-01  0.51100000000E-03 0.  1.
         11    1    4    4    0    0  0.12437737955E-01  0.17730140925E-01  0.43995147466E-01  0.49039671127E-01  0.51100000000E-03 0. -1.
</event>
<event>
 8    1  0.2001339E+004  0.1043930E+01  0.7957747E-01            NaN
         13   -1    0    0    0    0  0.00000000000E+00  0.00000000000E+00  0.74505805969E-08  0.10566000000E+00  0.10566000000E+00 0.  1.
     999900   -1    0    0    0    0 -0.00000000000E+00 -0.00000000000E+00 -0.74505805969E-08  0.93827000000E+00  0.93827000000E+00 0. -1.
     999902    2    1    2    0    0  0.11413819652E-01 -0.67018578158E-02  0.71486868645E-03  0.10306747665E+01  0.10305895270E+01 0.  0.
     999903    2    3    3    0    0 -0.43274941205E-01  0.76296357321E-01 -0.98854285582E-01  0.13949937371E+00  0.44654796054E-01 0.  0.
         14    1    1    2    0    0 -0.11413819652E-01  0.67018578158E-02 -0.71486868645E-03  0.13255233475E-01  0.00000000000E+00 0. -1.
     999901    1    3    3    0    0  0.54688760857E-01 -0.82998215136E-01  0.99569154268E-01  0.89117539282E+00  0.88000000000E+00 0.  1.
        -11    1    4    4    0    0 -0.43512766558E-01  0.37061371359E-01 -0.72094392179E-01  0.92004177107E-01  0.51100000000E-03 0. -1.
         11    1    4    4    0    0  0.23782535300E-03  0.39234985961E-01 -0.26759893403E-01  0.47495196602E-01  0.51100000000E-03 0.  1.
</event>
<event>
 8    1  0.2001339E+004  0.1043930E+01  0.7957747E-01            NaN
         13   -1    0    0    0    0  0.00000000000E+00  0.00000000000E+00  0.74505805969E-08  0.10566000000E+00  0.10566000000E+00 0. -1.
     999900   -1    0    0    0    0 -0.00000000000E+00 -0.00000000000E+00 -0.74505805969E-08  0.93827000000E+00  0.93827000000E+00 0. -1.
     999902    2    1    2    0    0 -0.11550038242E-01  0.77582980367E-03  0.15911861253E-02  0.10322450880E+01  0.10321789499E+01 0.  0.
     999903    2    3    3    0    0 -0.18270161677E-01  0.72089200170E-01 -0.11230964705E+00  0.14201806265E+00  0.45000241234E-01 0.  0.
         14    1    1    2    0    0  0.11550038242E-01 -0.77582980367E-03 -0.15911861253E-02  0.11684912005E-01  0.00000000000E+00 0.  1.
     999901    1    3    3    0    0  0.67201234355E-02 -0.71313370366E-01  0.11390083317E+00  0.89022702534E+00  0.88000000000E+00 0.  1.
        -11    1    4    4    0    0  0.56033367051E-02  0.37011473783E-01 -0.25216409010E-01  0.45137290328E-01  0.51100000000E-03 0.  1.
         11    1    4    4    0    0 -0.23873498382E-01  0.35077726387E-01 -0.87093238038E-01  0.96880772325E-01  0.51100000000E-03 0. -1.
</event>
<event>
 8    1  0.2001339E+004  0.1043930E+01  0.7957747E-01            NaN
         13   -1    0    0    0    0  0.00000000000E+00  0.00000000000E+00  0.74505805969E-08  0.10566000000E+00  0.10566000000E+00 0. -1.
     999900   -1    0    0    0    0 -0.00000000000E+00 -0.00000000000E+00 -0.74505805969E-08  0.93827000000E+00  0.93827000000E+00 0. -1.
     999902    2    1    2    0    0  0.12472661599E-01  0.37871605234E-02  0.51206556676E-02  0.10299253227E+01  0.10298301022E+01 0.  0.
     999903    2    3    3    0    0 -0.95624473916E-01 -0.43778547156E-01 -0.77729240777E-01  0.13817895034E+00  0.44620468871E-01 0.  0.
         14    1    1    2    0    0 -0.12472661599E-01 -0.37871605234E-02 -0.51206556676E-02  0.14004677314E-01  0.00000000000E+00 0.  1.
     999901    1    3    3    0    0  0.10809713551E+00  0.47565707680E-01  0.82849896445E-01  0.89174637235E+00  0.88000000000E+00 0.  1.
        -11    1    4    4    0    0 -0.82992252750E-01 -0.31300996100E-01 -0.41709359421E-01  0.98017336006E-01  0.51100000000E-03 0.  1.
         11    1    4    4    0    0 -0.12632221166E-01 -0.12477551057E-01 -0.36019881356E-01  0.40161614334E-01  0.51100000000E-03 0. -1.
</event>
<event>
 8    1  0.2001339E+004  0.1043930E+01  0.7957747E-01            NaN
         13   -1    0    0    0    0  0.00000000000E+00  0.00000000000E+00  0.74505805969E-08  0.10566000000E+00  0.10566000000E+00 0.  1.
     999900   -1    0    0    0    0 -0.00000000000E+00 -0.00000000000E+00 -0.74505805969E-08  0.93827000000E+00  0.93827000000E+00 0. -1.
     999902    2    1    2    0    0  0.29389578766E-02 -0.12865188938E-01 -0.49314678557E-02  0.10298420642E+01  0.10297457003E+01 0.  0.
     999903    2    3    3    0    0  0.11094921060E+00  0.86550318404E-02  0.71856200171E-01  0.13965911640E+00  0.44234809608E-01 0.  0.
         14    1    1    2    0    0 -0.29389578766E-02  0.12865188938E-01  0.49314678557E-02  0.14087935797E-01  0.00000000000E+00 0.  1.
     999901    1    3    3    0    0 -0.10801025273E+00 -0.21520220778E-01 -0.76787668027E-01  0.89018294780E+00  0.88000000000E+00 0. -1.
        -11    1    4    4    0    0  0.82061223348E-01  0.92611136900E-02  0.28124285371E-01  0.87241327092E-01  0.51100000000E-03 0. -1.
         11    1    4    4    0    0  0.28887987256E-01 -0.60608184960E-03  0.43731914801E-01  0.52417789309E-01  0.51100000000E-03 0.  1.
</event>
<event>
 8    1  0.2001339E+004  0.1043930E+01  0.7957747E-01            NaN
         13   -1    0    0    0    0  0.00000000000E+00  0.00000000000E+00  0.74505805969E-08  0.10566000000E+00  0.10566000000E+00 0.  1.
     999900   -1    0    0    0    0 -0.00000000000E+00 -0.00000000000E+00 -0.74505805969E-08  0.93827000000E+00  0.93827000000E+00 0.  1.
     999902    2    1    2    0    0  0.85556313685E-02  0.10074732045E-01  0.55396910356E-02  0.10295986626E+01  0.10294989164E+01 0.  0.
     999903    2    3    3    0    0 -0.30583793477E-01  0.11776563462E+00 -0.53606410629E-01  0.14020140245E+00  0.44482275901E-01 0.  0.
         14    1    1    2    0    0 -0.85556313685E-02 -0.10074732045E-01 -0.55396910356E-02  0.14331337365E-01  0.00000000000E+00 0. -1.
     999901    1    3    3    0    0  0.39139424846E-01 -0.10769090257E+00  0.59146101665E-01  0.88939726018E+00  0.88000000000E+00 0. -1.
        -11    1    4    4    0    0  0.93885951568E-02  0.31782182045E-01 -0.45917732512E-02  0.33460399238E-01  0.51100000000E-03 0.  1.
         11    1    4    4    0    0 -0.39972388634E-01  0.85983452573E-01 -0.49014637378E-01  0.10674100322E+00  0.51100000000E-03 0. -1.
</event>
<event>
 8    1  0.2001339E+004  0.1043930E+01  0.7957747E-01            NaN
         13   -1    0    0    0    0  0.00000000000E+00  0.00000000000E+00  0.74505805969E-08  0.10566000000E+00  0.10566000000E+00 0.  1.
     999900   -1    0    0    0    0 -0.00000000000E+00 -0.00000000000E+00 -0.74505805969E-08  0.93827000000E+00  0.93827000000E+00 0. -1.
     999902    2    1    2    0    0  0.95140159503E-02 -0.93698148134E-02  0.73783744419E-02  0.10286738426E+01  0.10285607051E+01 0.  0.
     999903    2    3    3    0    0 -0.81067167696E-01  0.73292666324E-01  0.70545316984E-01  0.13792803192E+00  0.45867195529E-01 0.  0.
         14    1    1    2    0    0 -0.95140159503E-02  0.93698148134E-02 -0.73783744419E-02  0.15256157398E-01  0.00000000000E+00 0. -1.
     999901    1    3    3    0    0  0.90581183647E-01 -0.82662481137E-01 -0.63166942542E-01  0.89074581068E+00  0.88000000000E+00 0. -1.
        -11    1    4    4    0    0 -0.18608494923E-01  0.35915217786E-01  0.64970851163E-02  0.40971358141E-01  0.51100000000E-03 0. -1.
         11    1    4    4    0    0 -0.62458672773E-01  0.37377448538E-01  0.64048231868E-01  0.96956673778E-01  0.51100000000E-03 0.  1.
</event>
<event>
 8    1  0.2001339E+004  0.1043930E+01  0.7957747E-01            NaN
         13   -1    0    0    0    0  0.00000000000E+00  0.00000000000E+00  0.74505805969E-08  0.10566000000E+00  0.10566000000E+00 0.  1.
     999900   -1    0    0    0    0 -0.00000000000E+00 -0.00000000000E+00 -0.74505805969E-08  0.93827000000E+00  0.93827000000E+00 0.  1.
     999902    2    1    2    0    0  0.94130676433E-02  0.73976799803E-02  0.60671235889E-02  0.10305083198E+01  0.10304209119E+01 0.  0.
     999903    2    3    3    0    0  0.61660895445E-01  0.59546136818E-01 -0.10210336773E+00  0.14081727663E+00  0.45349743741E-01 0.  0.
         14    1    1    2    0    0 -0.94130676433E-02 -0.73976799803E-02 -0.60671235889E-02  0.13421680230E-01  0.00000000000E+00 0. -1.
     999901    1    3    3    0    0 -0.52247827801E-01 -0.52148456838E-01  0.10817049132E+00  0.88969104315E+00  0.88000000000E+00 0.  1.
        -11    1    4    4    0    0  0.46645883845E-01  0.21788570521E-01 -0.34620631974E-01  0.62043771358E-01  0.51100000000E-03 0. -1.
         11    1    4    4    0    0  0.15015011600E-01  0.37757566298E-01 -0.67482735755E-01  0.78773505267E-01  0.51100000000E-03 0.  1.
</event>
<event>
 8    1  0.2001339E+004  0.1043930E+01  0.7957747E-01            NaN
         13   -1    0    0    0    0  0.00000000000E+00  0.00000000000E+00  0.74505805969E-08  0.10566000000E+00  0.10566000000E+00 0. -1.
     999900   -1    0    0    0    0 -0.00000000000E+00 -0.00000000000E+00 -0.74505805969E-08  0.93827000000E+00  0.93827000000E+00 0.  1.
     999902    2    1    2    0    0 -0.57090735495E-02 -0.15822294605E-02  0.12747104352E-01  0.10298734841E+01  0.10297775525E+01 0.  0.
     999903    2    3    3    0    0  0.95137526198E-01  0.66385875327E-01  0.64042351121E-01  0.14003029435E+00  0.45263973130E-01 0.  0.
         14    1    1    2    0    0  0.57090735495E-02  0.15822294605E-02 -0.12747104352E-01  0.14056515935E-01  0.00000000000E+00 0.  1.
     999901    1    3    3    0    0 -0.10084659975E+00 -0.67968104787E-01 -0.51295246769E-01  0.88984318972E+00  0.88000000000E+00 0.  1.
        -11    1    4    4    0    0  0.29055720723E-01  0.93628787282E-02  0.38396491149E-01  0.49055581317E-01  0.51100000000E-03 0.  1.
         11    1    4    4    0    0  0.66081805475E-01  0.57022996598E-01  0.25645859972E-01  0.90974713029E-01  0.51100000000E-03 0. -1.
</event>
<event>
 8    1  0.2001339E+004  0.1043930E+01  0.7957747E-01            NaN
         13   -1    0    0    0    0  0.00000000000E+00  0.00000000000E+00  0.74505805969E-08  0.10566000000E+00  0.10566000000E+00 0.  1.
     999900   -1    0    0    0    0 -0.00000000000E+00 -0.00000000000E+00 -0.74505805969E-08  0.93827000000E+00  0.93827000000E+00 0.  1.
     999902    2    1    2    0    0 -0.16761200138E-02 -0.68470517807E-02 -0.11550747508E-01  0.10303981389E+01  0.10303092805E+01 0.  0.
     999903    2    3    3    0    0  0.46806393247E-01  0.11526191819E+00 -0.46280950996E-01  0.13996715244E+00  0.44415415153E-01 0.  0.
         14    1    1    2    0    0  0.16761200138E-02  0.68470517807E-02  0.11550747508E-01  0.13531861084E-01  0.00000000000E+00 0.  1.
     999901    1    3    3    0    0 -0.48482513261E-01 -0.12210896997E+00  0.34730203488E-01  0.89043098647E+00  0.88000000000E+00 0.  1.
        -11    1    4    4    0    0  0.11526870563E-01  0.42944019775E-01 -0.39045257282E-01  0.59176438019E-01  0.51100000000E-03 0.  1.
         11    1    4    4    0    0  0.35279522683E-01  0.72317898419E-01 -0.72356937142E-02  0.80790714423E-01  0.51100000000E-03 0. -1.
</event>
<event>
 8    1  0.2001339E+004  0.1043930E+01  0.7957747E-01            NaN
         13   -1    0    0    0    0  0.00000000000E+00  0.00000000000E+00  0.74505805969E-08  0.10566000000E+00  0.10566000000E+00 0. -1.
     999900   -1    0    0    0    0 -0.00000000000E+00 -0.00000000000E+00 -0.74505805969E-08  0.93827000000E+00  0.93827000000E+00 0.  1.
     999902    2    1    2    0    0 -0.11441245710E-01  0.52890535288E-02 -0.37187979719E-02  0.10307882479E+01  0.10307044709E+01 0.  0.
     999903    2    3    3    0    0 -0.11315648474E+00 -0.32537138927E-01  0.64249848568E-01  0.14152082600E+00  0.45133642706E-01 0.  0.
         14    1    1    2    0    0  0.11441245710E-01 -0.52890535288E-02  0.37187979719E-02  0.13141752128E-01  0.00000000000E+00 0. -1.
     999901    1    3    3    0    0  0.10171523903E+00  0.37826192455E-01 -0.67968646539E-01  0.88926742187E+00  0.88000000000E+00 0.  1.
        -11    1    4    4    0    0 -0.68637179798E-01  0.23647919619E-02  0.27053687073E-01  0.73816107977E-01  0.51100000000E-03 0. -1.
         11    1    4    4    0    0 -0.44519304940E-01 -0.34901930889E-01  0.37196161494E-01  0.67704718026E-01  0.51100000000E-03 0.  1.
</event>
<event>
 8    1  0.2001339E+004  0.1043930E+01  0.7957747E-01            NaN
         13   -1    0    0    0    0  0.00000000000E+00  0.00000000000E+00  0.74505805969E-08  0.10566000000E+00  0.10566000000E+00 0. -1.
     999900   -1    0    0    0    0 -0.00000000000E+00 -0.00000000000E+00 -0.74505805969E-08  0.93827000000E+00  0.93827000000E+00 0. -1.
     999902    2    1    2    0    0  0.86424130570E-02  0.10980283890E-01 -0.38186350996E-02  0.10294441479E+01  0.10293422238E+01 0.  0.
     999903    2    3    3    0    0  0.40874009713E-02  0.14757415604E-01 -0.13208183724E+00  0.14012617106E+00  0.44218140253E-01 0.  0.
         14    1    1    2    0    0 -0.86424130570E-02 -0.10980283890E-01  0.38186350996E-02  0.14485852124E-01  0.00000000000E+00 0. -1.
     999901    1    3    3    0    0  0.45550120856E-02 -0.37771317143E-02  0.12826320214E+00  0.88931797681E+00  0.88000000000E+00 0.  1.
        -11    1    4    4    0    0 -0.19286928146E-02  0.15567984284E-01 -0.11665264596E-01  0.19555600470E-01  0.51100000000E-03 0. -1.
         11    1    4    4    0    0  0.60160937859E-02 -0.81056868034E-03 -0.12041657264E+00  0.12057057059E+00  0.51100000000E-03 0.  1.
</event>
<event>
 8    1  0.2001339E+004  0.1043930E+01  0.7957747E-01            NaN
         13   -1    0    0    0    0  0.00000000000E+00  0.00000000000E+00  0.74505805969E-08  0.10566000000E+00  0.10566000000E+00 0. -1.
     999900   -1    0    0    0    0 -0.00000000000E+00 -0.00000000000E+00 -0.74505805969E-08  0.93827000000E+00  0.93827000000E+00 0.  1.
     999902    2    1    2    0    0 -0.13550109705E-01  0.14501501273E-02 -0.29532669365E-02  0.10299861772E+01  0.10298917880E+01 0.  0.
     999903    2    3    3    0    0 -0.52979759037E-02  0.17504089887E-01  0.13086636489E+00  0.13968649701E+00  0.45297353989E-01 0.  0.
         14    1    1    2    0    0  0.13550109705E-01 -0.14501501273E-02  0.29532669365E-02  0.13943822790E-01  0.00000000000E+00 0.  1.
     999901    1    3    3    0    0 -0.82521338011E-02 -0.16053939760E-01 -0.13381963182E+00  0.89029968019E+00  0.88000000000E+00 0.  1.
        -11    1    4    4    0    0  0.19416419021E-01  0.18652031316E-02  0.56473554379E-01  0.59749475106E-01  0.51100000000E-03 0. -1.
         11    1    4    4    0    0 -0.24714394925E-01  0.15638886756E-01  0.74392810507E-01  0.79937021909E-01  0.51100000000E-03 0.  1.
</event>
<event>
 8    1  0.2001339E+004  0.1043930E+01  0.7957747E-01            NaN
         13   -1    0    0    0    0  0.00000000000E+00  0.00000000000E+00  0.74505805969E-08  0.10566000000E+00  0.10566000000E+00 0. -1.
     999900   -1    0    0    0    0 -0.00000000000E+00 -0.00000000000E+00 -0.74505805969E-08  0.93827000000E+00  0.93827000000E+00 0.  1.
     999902    2    1    2    0    0  0.49019643323E-02 -0.12205211598E-01 -0.33314995291E-02  0.10303618264E+01  0.10302724873E+01 0.  0.
     999903    2    3    3    0    0  0.12496481495E+00 -0.12147711655E-01  0.45124660439E-01  0.14088833564E+00  0.45271583416E-01 0.  0.
         14    1    1    2    0    0 -0.49019643323E-02  0.12205211598E-01  0.33314995291E-02  0.13568173554E-01  0.00000000000E+00 0. -1.
     999901    1    3    3    0    0 -0.12006285062E+00 -0.57499943833E-04 -0.48456159968E-01  0.88947349080E+00  0.88000000000E+00 0. -1.
        -11    1    4    4    0    0  0.44294667943E-01  0.17271156858E-01  0.17977739431E-01  0.50830804670E-01  0.51100000000E-03 0. -1.
         11    1    4    4    0    0  0.80670147011E-01 -0.29418868512E-01  0.27146921008E-01  0.90057530971E-01  0.51100000000E-03 0.  1.
</event>
<event>
 8    1  0.2001339E+004  0.1043930E+01  0.7957747E-01            NaN
         13   -1    0    0    0    0  0.00000000000E+00  0.00000000000E+00  0.74505805969E-08  0.10566000000E+00  0.10566000000E+00 0.  1.
     999900   -1    0    0    0    0 -0.00000000000E+00 -0.00000000000E+00 -0.74505805969E-08  0.93827000000E+00  0.93827000000E+00 0.  1.
     999902    2    1    2    0    0  0.10240339219E-02 -0.11852281718E-01 -0.85712297535E-02  0.10292674215E+01  0.10291629773E+01 0.  0.
     999903    2    3    3    0    0  0.68906915159E-01  0.55950982727E-01  0.96502774515E-01  0.13783827988E+00  0.42519765840E-01 0.  0.
         14    1    1    2    0    0 -0.10240339219E-02  0.11852281718E-01  0.85712297535E-02  0.14662578453E-01  0.00000000000E+00 0.  1.
     999901    1    3    3    0    0 -0.67882881237E-01 -0.67803264445E-01 -0.10507400427E+00  0.89142914166E+00  0.88000000000E+00 0.  1.
        -11    1    4    4    0    0  0.11421585697E-01 -0.48689213557E-03  0.34000584638E-01  0.35874650667E-01  0.51100000000E-03 0. -1.
         11    1    4    4    0    0  0.57485329463E-01  0.56437874863E-01  0.62502189878E-01  0.10196362922E+00  0.51100000000E-03 0.  1.
</event>
<event>
 8    1  0.2001339E+004  0.1043930E+01  0.7957747E-01            NaN
         13   -1    0    0    0    0  0.00000000000E+00  0.00000000000E+00  0.74505805969E-08  0.10566000000E+00  0.10566000000E+00 0. -1.
     999900   -1    0    0    0    0 -0.00000000000E+00 -0.00000000000E+00 -0.74505805969E-08  0.93827000000E+00  0.93827000000E+00 0. -1.
     999902    2    1    2    0    0 -0.25383576701E-02  0.11675956242E-01  0.60408432470E-02  0.10305410866E+01  0.10304541078E+01 0.  0.
     999903    2    3    3    0    0 -0.50032335763E-01  0.87985351835E-01  0.88727618596E-01  0.14210656197E+00  0.45574421479E-01 0.  0.
         14    1    1    2    0    0  0.25383576701E-02 -0.11675956242E-01 -0.60408432470E-02  0.13388913360E-01  0.00000000000E+00 0.  1.
     999901    1    3    3    0    0  0.47493978093E-01 -0.76309395593E-01 -0.82686775349E-01  0.88843452467E+00  0.88000000000E+00 0. -1.
        -11    1    4    4    0    0 -0.23731087162E-01  0.42963652055E-01  0.72392298803E-01  0.87463969397E-01  0.51100000000E-03 0.  1.
         11    1    4    4    0    0 -0.26301248602E-01  0.45021699780E-01  0.16335319793E-01  0.54642592571E-01  0.51100000000E-03 0. -1.
</event>
<event>
 8    1  0.2001339E+004  0.1043930E+01  0.7957747E-01            NaN
         13   -1    0    0    0    0  0.00000000000E+00  0.00000000000E+00  0.74505805969E-08  0.10566000000E+00  0.10566000000E+00 0.  1.
     999900   -1    0    0    0    0 -0.00000000000E+00 -0.00000000000E+00 -0.74505805969E-08  0.93827000000E+00  0.93827000000E+00 0.  1.
     999902    2    1    2    0    0  0.49854169639E-02 -0.93310853727E-02  0.87119901761E-02  0.10302251720E+01  0.10301340121E+01 0.  0.
     999903    2    3    3    0    0 -0.18181025901E-01  0.13118576556E+00  0.15758134341E-02  0.13874741321E+00  0.41329247462E-01 0.  0.
         14    1    1    2    0    0 -0.49854169639E-02  0.93310853727E-02 -0.87119901761E-02  0.13704827958E-01  0.00000000000E+00 0.  1.
     999901    1    3    3    0    0  0.23166442864E-01 -0.14051685094E+00  0.71361767420E-02  0.89147775883E+00  0.88000000000E+00 0. -1.
        -11    1    4    4    0    0 -0.20517494538E-01  0.49275586909E-01 -0.14338718695E-01  0.55271249507E-01  0.51100000000E-03 0. -1.
         11    1    4    4    0    0  0.23364686369E-02  0.81910178653E-01  0.15914532129E-01  0.83476163703E-01  0.51100000000E-03 0.  1.
</event>
<event>
 8    1  0.2001339E+004  0.1043930E+01  0.7957747E-01            NaN
         13   -1    0    0    0    0  0.00000000000E+00  0.00000000000E+00  0.74505805969E-08  0.10566000000E+00  0.10566000000E+00 0.  1.
     999900   -1    0    0    0    0 -0.00000000000E+00 -0.00000000000E+00 -0.74505805969E-08  0.93827000000E+00  0.93827000000E+00 0. -1.
     999902    2    1    2    0    0 -0.32892211998E-03  0.97061072301E-02 -0.10920792472E-01  0.10293156093E+01  0.10292118553E+01 0.  0.
     999903    2    3    3    0    0  0.68816281203E-01 -0.89017359570E-01  0.66042315388E-01  0.13777161038E+00  0.44268028434E-01 0.  0.
         14    1    1    2    0    0  0.32892211998E-03 -0.97061072301E-02  0.10920792472E-01  0.14614390700E-01  0.00000000000E+00 0.  1.
     999901    1    3    3    0    0 -0.69145203323E-01  0.98723466800E-01 -0.76963107860E-01  0.89154399892E+00  0.88000000000E+00 0.  1.
        -11    1    4    4    0    0  0.34004383397E-01 -0.73334260924E-01  0.33135520778E-01  0.87363812724E-01  0.51100000000E-03 0. -1.
         11    1    4    4    0    0  0.34811897806E-01 -0.15683098646E-01  0.32906794609E-01  0.50407797655E-01  0.51100000000E-03 0.  1.
</event>
<event>
 8    1  0.2001339E+004  0.1043930E+01  0.7957747E-01            NaN
         13   -1    0    0    0    0  0.00000000000E+00  0.00000000000E+00  0.74505805969E-08  0.10566000000E+00  0.10566000000E+00 0. -1.
     999900   -1    0    0    0    0 -0.00000000000E+00 -0.00000000000E+00 -0.74505805969E-08  0.93827000000E+00  0.93827000000E+00 0. -1.
     999902    2    1    2    0    0  0.92189549081E-02  0.73808126746E-02 -0.74643584110E-02  0.10299592387E+01  0.10298644819E+01 0.  0.
     999903    2    3    3    0    0  0.68120261393E-01  0.67111501611E-02 -0.11541761904E+00  0.14140776643E+00  0.44604036508E-01 0.  0.
         14    1    1    2    0    0 -0.92189549081E-02 -0.73808126746E-02  0.74643584110E-02  0.13970761319E-01  0.00000000000E+00 0. -1.
     999901    1    3    3    0    0 -0.58901306485E-01  0.66966251343E-03  0.10795326063E+00  0.88855147225E+00  0.88000000000E+00 0.  1.
        -11    1    4    4    0    0  0.72199217999E-02  0.16959179769E-01 -0.39116311123E-01  0.43244513711E-01  0.51100000000E-03 0. -1.
         11    1    4    4    0    0  0.60900339593E-01 -0.10248029607E-01 -0.76301307922E-01  0.98163252722E-01  0.51100000000E-03 0.  1.
</event>
<event>
 8    1  0.2001339E+004  0.1043930E+01  0.7957747E-01            NaN
         13   -1    0    0    0    0  0.00000000000E+00  0.00000000000E+00  0.74505805969E-08  0.10566000000E+00  0.10566000000E+00 0.  1.
     999900   -1    0    0    0    0 -0.00000000000E+00 -0.00000000000E+00 -0.74505805969E-08  0.93827000000E+00  0.93827000000E+00 0.  1.
     999902    2    1    2    0    0 -0.69077027279E-02 -0.10605939534E-01 -0.35369305346E-02  0.10307879991E+01  0.10307042189E+01 0.  0.
     999903    2    3    3    0    0  0.53565678017E-01 -0.22169117631E-01 -0.12079328736E+00  0.14087800921E+00  0.43529800956E-01 0.  0.
         14    1    1    2    0    0  0.69077027279E-02  0.10605939534E-01  0.35369305346E-02  0.13142000912E-01  0.00000000000E+00 0.  1.
     999901    1    3    3    0    0 -0.60473380745E-01  0.11563178097E-01  0.11725635682E+00  0.88990998988E+00  0.88000000000E+00 0. -1.
        -11    1    4    4    0    0  0.35914132327E-01 -0.27196770585E-01 -0.48109843946E-01  0.65911360451E-01  0.51100000000E-03 0. -1.
         11    1    4    4    0    0  0.17651545690E-01  0.50276529538E-02 -0.72683443410E-01  0.74966648761E-01  0.51100000000E-03 0.  1.
</event>
<event>
 8    1  0.2001339E+004  0.1043930E+01  0.7957747E-01            NaN
         13   -1    0    0    0    0  0.00000000000E+00  0.00000000000E+00  0.74505805969E-08  0.10566000000E+00  0.10566000000E+00 0. -1.
     999900   -1    0    0    0    0 -0.00000000000E+00 -0.00000000000E+00 -0.74505805969E-08  0.93827000000E+00  0.93827000000E+00 0. -1.
     999902    2    1    2    0    0 -0.82335880279E-02 -0.10858258054E-01  0.14442974703E-02  0.10302267254E+01  0.10301355862E+01 0.  0.
     999903    2    3    3    0    0 -0.22424502498E-01  0.68753830432E-01 -0.11038581673E+00  0.13947118029E+00  0.45135729581E-01 0.  0.
         14    1    1    2    0    0  0.82335880279E-02  0.10858258054E-01 -0.14442974703E-02  0.13703274607E-01  0.00000000000E+00 0.  1.
     999901    1    3    3    0    0  0.14190914470E-01 -0.79612088486E-01  0.11183011420E+00  0.89075554510E+00  0.88000000000E+00 0. -1.
        -11    1    4    4    0    0 -0.46710144126E-02  0.66999527409E-01 -0.82800948423E-01  0.10661619591E+00  0.51100000000E-03 0.  1.
         11    1    4    4    0    0 -0.17753488086E-01  0.17543030226E-02 -0.27584868310E-01  0.32854984386E-01  0.51100000000E-03 0. -1.
</event>
<event>
 8    1  0.2001339E+004  0.1043930E+01  0.7957747E-01            NaN
         13   -1    0    0    0    0  0.00000000000E+00  0.00000000000E+00  0.74505805969E-08  0.10566000000E+00  0.10566000000E+00 0. -1.
     999900   -1    0    0    0    0 -0.00000000000E+00 -0.00000000000E+00 -0.74505805969E-08  0.93827000000E+00  0.93827000000E+00 0. -1.
     999902    2    1    2    0    0  0.12152876172E-01 -0.54348171851E-03  0.40048551833E-02  0.10311227116E+01  0.10310431706E+01 0.  0.
     999903    2    3    3    0    0 -0.25447834455E-02 -0.12741124156E+00 -0.37654995841E-01  0.14092779311E+00  0.46932331704E-01 0.  0.
         14    1    1    2    0    0 -0.12152876172E-01  0.54348171851E-03 -0.40048551833E-02  0.12807288420E-01  0.00000000000E+00 0.  1.
     999901    1    3    3    0    0  0.14697659618E-01  0.12686775984E+00  0.41659851025E-01  0.89019491847E+00  0.88000000000E+00 0.  1.
        -11    1    4    4    0    0 -0.57202603043E-02 -0.36455365283E-01 -0.33465281049E-01  0.49818683168E-01  0.51100000000E-03 0.  1.
         11    1    4    4    0    0  0.31754768588E-02 -0.90955876279E-01 -0.41897147923E-02  0.91109109940E-01  0.51100000000E-03 0. -1.
</event>
<event>
 7    1  0.2001339E+004  0.1043930E+01  0.7957747E-01            NaN
         13   -1    0    0    0    0  0.00000000000E+00  0.00000000000E+00  0.74505805969E-08  0.10566000000E+00  0.10566000000E+00 0. -1.
     999900   -1    0    0    0    0 -0.00000000000E+00 -0.00000000000E+00 -0.74505805969E-08  0.93827000000E+00  0.93827000000E+00 0.  1.
     999903    2    1    2    0    0  0.59456493948E-01  0.81850999271E-01 -0.48624495904E-01  0.12093169248E+00  0.45005242909E-01 0.  0.
         14    1    1    2    0    0  0.18453167250E-01  0.17594317252E-01  0.21842570708E-01  0.33573460892E-01  0.00000000000E+00 0.  1.
     999901    1    1    2    0    0 -0.77909661198E-01 -0.99445316523E-01  0.26781925196E-01  0.88942484663E+00  0.88000000000E+00 0.  1.
        -11    1    3    3    0    0  0.22737469430E-01  0.86097895646E-02 -0.26705083935E-01  0.36118466487E-01  0.51100000000E-03 0.  1.
         11    1    3    3    0    0  0.36719024518E-01  0.73241209707E-01 -0.21919411969E-01  0.84813225990E-01  0.51100000000E-03 0. -1.
</event>
<event>
 8    1  0.2001339E+004  0.1043930E+01  0.7957747E-01            NaN
         13   -1    0    0    0    0  0.00000000000E+00  0.00000000000E+00  0.74505805969E-08  0.10566000000E+00  0.10566000000E+00 0. -1.
     999900   -1    0    0    0    0 -0.00000000000E+00 -0.00000000000E+00 -0.74505805969E-08  0.93827000000E+00  0.93827000000E+00 0. -1.
     999902    2    1    2    0    0  0.15207134956E-01 -0.58304208789E-03 -0.10728596359E-01  0.10253101270E+01  0.10251410424E+01 0.  0.
     999903    2    3    3    0    0  0.11373046227E+00 -0.63765656986E-01  0.26379610913E-02  0.13746016572E+00  0.43447223848E-01 0.  0.
         14    1    1    2    0    0 -0.15207134956E-01  0.58304208789E-03  0.10728596359E-01  0.18619873025E-01  0.00000000000E+00 0. -1.
     999901    1    3    3    0    0 -0.98523327317E-01  0.63182614898E-01 -0.13366557450E-01  0.88784996126E+00  0.88000000000E+00 0.  1.
        -11    1    4    4    0    0  0.50654519400E-01 -0.90884385489E-02  0.13687400816E-01  0.53254916327E-01  0.51100000000E-03 0. -1.
         11    1    4    4    0    0  0.63075942873E-01 -0.54677218437E-01 -0.11049439725E-01  0.84205249388E-01  0.51100000000E-03 0.  1.
</event>
<event>
 8    1  0.2001339E+004  0.1043930E+01  0.7957747E-01            NaN
         13   -1    0    0    0    0  0.00000000000E+00  0.00000000000E+00  0.74505805969E-08  0.10566000000E+00  0.10566000000E+00 0.  1.
     999900   -1    0    0    0    0 -0.00000000000E+00 -0.00000000000E+00 -0.74505805969E-08  0.93827000000E+00  0.93827000000E+00 0.  1.
     999902    2    1    2    0    0 -0.80258197587E-02  0.11380442517E-01  0.23804780727E-02  0.10298021930E+01  0.10297052791E+01 0.  0.
     999903    2    3    3    0    0  0.90699642647E-01  0.74513230296E-01 -0.61464856472E-01  0.13974113186E+00  0.44396043596E-01 0.  0.
         14    1    1    2    0    0  0.80258197587E-02 -0.11380442517E-01 -0.23804780727E-02  0.14127806997E-01  0.00000000000E+00 0. -1.
     999901    1    3    3    0    0 -0.98725462406E-01 -0.63132787778E-01  0.63845334545E-01  0.89006106114E+00  0.88000000000E+00 0. -1.
        -11    1    4    4    0    0  0.80111258522E-01  0.45599937686E-01 -0.33309947484E-01  0.98015211989E-01  0.51100000000E-03 0.  1.
         11    1    4    4    0    0  0.10588384125E-01  0.28913292610E-01 -0.28154908988E-01  0.41725919871E-01  0.51100000000E-03 0. -1.
</event>
<event>
 8    1  0.2001339E+004  0.1043930E+01  0.7957747E-01            NaN
         13   -1    0    0    0    0  0.00000000000E+00  0.00000000000E+00  0.74505805969E-08  0.10566000000E+00  0.10566000000E+00 0.  1.
     999900   -1    0    0    0    0 -0.00000000000E+00 -0.00000000000E+00 -0.74505805969E-08  0.93827000000E+00  0.93827000000E+00 0. -1.
     999902    2    1    2    0    0  0.81547696352E-02  0.63380471200E-02  0.92589413832E-02  0.10300591996E+01  0.10299658031E+01 0.  0.
     999903    2    3    3    0    0 -0.66918817175E-01 -0.49326469737E-01 -0.10102859250E+00  0.13826442385E+00  0.44710688761E-01 0.  0.
         14    1    1    2    0    0 -0.81547696352E-02 -0.63380471200E-02 -0.92589413832E-02  0.13870800432E-01  0.00000000000E+00 0. -1.
     999901    1    3    3    0    0  0.75073586810E-01  0.55664516857E-01  0.11028753389E+00  0.89179477572E+00  0.88000000000E+00 0.  1.
        -11    1    4    4    0    0 -0.17068392868E-01 -0.30160502460E-01 -0.65536275826E-01  0.74136701531E-01  0.51100000000E-03 0. -1.
         11    1    4    4    0    0 -0.49850424306E-01 -0.19165967277E-01 -0.35492316677E-01  0.64127722315E-01  0.51100000000E-03 0.  1.
</event>
<event>
 7    1  0.2163297E+004  0.1043930E+01  0.7957747E-01            NaN
         13   -1    0    0    0    0  0.00000000000E+00  0.00000000000E+00  0.74505805969E-08  0.10566000000E+00  0.10566000000E+00 0.  1.
     999900   -1    0    0    0    0 -0.00000000000E+00 -0.00000000000E+00 -0.74505805969E-08  0.93827000000E+00  0.93827000000E+00 0. -1.
     999903    2    1    2    0    0  0.52263885229E-01 -0.84540758719E-01 -0.36735022978E-01  0.11504831474E+00  0.44810704382E-01 0.  0.
         14    1    1    2    0    0 -0.85255843166E-02 -0.28992824442E-01  0.26896859165E-01  0.40456278746E-01  0.00000000000E+00 0.  1.
     999901    1    1    2    0    0 -0.43738300913E-01  0.11353358316E+00  0.98381638130E-02  0.88842540651E+00  0.88000000000E+00 0.  1.
        -11    1    3    3    0    0  0.23990860936E-02 -0.40180648400E-01 -0.32760287563E-02  0.40388533092E-01  0.51100000000E-03 0.  1.
         11    1    3    3    0    0  0.49864799136E-01 -0.44360110319E-01 -0.33458994221E-01  0.74659781648E-01  0.51100000000E-03 0. -1.
</event>
<event>
 8    1  0.2001339E+004  0.1043930E+01  0.7957747E-01            NaN
         13   -1    0    0    0    0  0.00000000000E+00  0.00000000000E+00  0.74505805969E-08  0.10566000000E+00  0.10566000000E+00 0.  1.
     999900   -1    0    0    0    0 -0.00000000000E+00 -0.00000000000E+00 -0.74505805969E-08  0.93827000000E+00  0.93827000000E+00 0. -1.
     999902    2    1    2    0    0  0.87031318850E-02 -0.14708055620E-02  0.97729061538E-02  0.10307611934E+01  0.10306770689E+01 0.  0.
     999903    2    3    3    0    0  0.65156123765E-02  0.80190360937E-01  0.10752765931E+00  0.14158780019E+00  0.44854882168E-01 0.  0.
         14    1    1    2    0    0 -0.87031318850E-02  0.14708055620E-02 -0.97729061538E-02  0.13168806639E-01  0.00000000000E+00 0. -1.
     999901    1    3    3    0    0  0.21875195085E-02 -0.81661166499E-01 -0.97754753157E-01  0.88917339317E+00  0.88000000000E+00 0. -1.
        -11    1    4    4    0    0  0.87007599851E-02 -0.27524858350E-02  0.10560301226E-01  0.13966405607E-01  0.51100000000E-03 0. -1.
         11    1    4    4    0    0 -0.21851476086E-02  0.82942846772E-01  0.96967358085E-01  0.12762139458E+00  0.51100000000E-03 0.  1.
</event>
<event>
 8    1  0.2001339E+004  0.1043930E+01  0.7957747E-01            NaN
         13   -1    0    0    0    0  0.00000000000E+00  0.00000000000E+00  0.74505805969E-08  0.10566000000E+00  0.10566000000E+00 0. -1.
     999900   -1    0    0    0    0 -0.00000000000E+00 -0.00000000000E+00 -0.74505805969E-08  0.93827000000E+00  0.93827000000E+00 0. -1.
     999902    2    1    2    0    0 -0.21613580933E-02 -0.13055807040E-01 -0.37626991916E-02  0.10301719670E+01  0.10300800931E+01 0.  0.
     999903    2    3    3    0    0  0.10118540009E+00 -0.74429658115E-01  0.43863028794E-01  0.14072522213E+00  0.45840633192E-01 0.  0.
         14    1    1    2    0    0  0.21613580933E-02  0.13055807040E-01  0.37626991916E-02  0.13758032980E-01  0.00000000000E+00 0. -1.
     999901    1    3    3    0    0 -0.10334675818E+00  0.61373851076E-01 -0.47625727986E-01  0.88944674489E+00  0.88000000000E+00 0.  1.
        -11    1    4    4    0    0  0.22223258072E-01 -0.25645940992E-01 -0.73364299822E-02  0.34722785236E-01  0.51100000000E-03 0.  1.
         11    1    4    4    0    0  0.78962142017E-01 -0.48783717123E-01  0.51199458776E-01  0.10600243690E+00  0.51100000000E-03 0. -1.
</event>
<event>
 8    1  0.2001339E+004  0.1043930E+01  0.7957747E-01            NaN
         13   -1    0    0    0    0  0.00000000000E+00  0.00000000000E+00  0.74505805969E-08  0.10566000000E+00  0.10566000000E+00 0.  1.
     999900   -1    0    0    0    0 -0.00000000000E+00 -0.00000000000E+00 -0.74505805969E-08  0.93827000000E+00  0.93827000000E+00 0.  1.
     999902    2    1    2    0    0  0.14398206572E-02 -0.82684930149E-02 -0.11034046059E-01  0.10300666947E+01  0.10299733998E+01 0.  0.
     999903    2    3    3    0    0  0.49471649364E-01  0.42145785530E-01 -0.11699096307E+00  0.14097978993E+00  0.44324986184E-01 0.  0.
         14    1    1    2    0    0 -0.14398206572E-02  0.82684930149E-02  0.11034046059E-01  0.13863305259E-01  0.00000000000E+00 0.  1.
     999901    1    3    3    0    0 -0.48031828707E-01 -0.50414278545E-01  0.10595691701E+00  0.88908690481E+00  0.88000000000E+00 0. -1.
        -11    1    4    4    0    0  0.47570633234E-01  0.13947002339E-01 -0.83966227944E-01  0.97509346099E-01  0.51100000000E-03 0. -1.
         11    1    4    4    0    0  0.19010161302E-02  0.28198783191E-01 -0.33024735122E-01  0.43470443828E-01  0.51100000000E-03 0.  1.
</event>
<event>
 8    1  0.2001339E+004  0.1043930E+01  0.7957747E-01            NaN
         13   -1    0    0    0    0  0.00000000000E+00  0.00000000000E+00  0.74505805969E-08  0.10566000000E+00  0.10566000000E+00 0.  1.
     999900   -1    0    0    0    0 -0.00000000000E+00 -0.00000000000E+00 -0.74505805969E-08  0.93827000000E+00  0.93827000000E+00 0. -1.
     999902    2    1    2    0    0  0.12842842921E-01  0.45603631057E-02  0.22676637026E-02  0.10301141459E+01  0.10300214929E+01 0.  0.
     999903    2    3    3    0    0 -0.18820525402E-01 -0.11450892298E+00 -0.62359222534E-01  0.13918390272E+00  0.44910806290E-01 0.  0.
         14    1    1    2    0    0 -0.12842842921E-01 -0.45603631057E-02 -0.22676637026E-02  0.13815854103E-01  0.00000000000E+00 0. -1.
     999901    1    3    3    0    0  0.31663368322E-01  0.11906928609E+00  0.64626886236E-01  0.89093024318E+00  0.88000000000E+00 0. -1.
        -11    1    4    4    0    0 -0.19092909034E-01 -0.15086528512E-01 -0.18214296543E-01  0.30400069695E-01  0.51100000000E-03 0. -1.
         11    1    4    4    0    0  0.27238363246E-03 -0.99422394473E-01 -0.44144925991E-01  0.10878383302E+00  0.51100000000E-03 0.  1.
</event>
<event>
 8    1  0.2001339E+004  0.1043930E+01  0.7957747E-01            NaN
         13   -1    0    0    0    0  0.00000000000E+00  0.00000000000E+00  0.74505805969E-08  0.10566000000E+00  0.10566000000E+00 0.  1.
     999900   -1    0    0    0    0 -0.00000000000E+00 -0.00000000000E+00 -0.74505805969E-08  0.93827000000E+00  0.93827000000E+00 0.  1.
     999902    2    1    2    0    0 -0.10492290213E-01 -0.55856247821E-02 -0.66176432357E-02  0.10303255684E+01  0.10302357479E+01 0.  0.
     999903    2    3    3    0    0 -0.13530355449E-01 -0.12912242929E+00  0.30357626054E-01  0.14092254248E+00  0.45627899981E-01 0.  0.
         14    1    1    2    0    0  0.10492290213E-01  0.55856247821E-02  0.66176432357E-02  0.13604431635E-01  0.00000000000E+00 0.  1.
     999901    1    3    3    0    0  0.30380652357E-02  0.12353680451E+00 -0.36975269290E-01  0.88940302588E+00  0.88000000000E+00 0.  1.
        -11    1    4    4    0    0 -0.16487722657E-01 -0.53923771954E-01 -0.71384222257E-02  0.56840446629E-01  0.51100000000E-03 0.  1.
         11    1    4    4    0    0  0.29573672087E-02 -0.75198657334E-01  0.37496048280E-01  0.84082095854E-01  0.51100000000E-03 0. -1.
</event>
<event>
 8    1  0.2001339E+004  0.1043930E+01  0.7957747E-01            NaN
         13   -1    0    0    0    0  0.00000000000E+00  0.00000000000E+00  0.74505805969E-08  0.10566000000E+00  0.10566000000E+00 0. -1.
     999900   -1    0    0    0    0 -0.00000000000E+00 -0.00000000000E+00 -0.74505805969E-08  0.93827000000E+00  0.93827000000E+00 0.  1.
     999902    2    1    2    0    0 -0.11731186588E-01 -0.33659177562E-02 -0.78538825778E-02  0.10294167780E+01  0.10293144657E+01 0.  0.
     999903    2    3    3    0    0  0.55048753422E-01  0.11117393612E+00 -0.45331933703E-01  0.13869597841E+00  0.42327070391E-01 0.  0.
         14    1    1    2    0    0  0.11731186588E-01  0.33659177562E-02  0.78538825778E-02  0.14513221994E-01  0.00000000000E+00 0. -1.
     999901    1    3    3    0    0 -0.66779940010E-01 -0.11453985388E+00  0.37478051125E-01  0.89072079959E+00  0.88000000000E+00 0. -1.
        -11    1    4    4    0    0  0.31174576842E-01  0.66786501654E-01 -0.45248482175E-02  0.73844609938E-01  0.51100000000E-03 0. -1.
         11    1    4    4    0    0  0.23874176580E-01  0.44387434469E-01 -0.40807085485E-01  0.64851368474E-01  0.51100000000E-03 0.  1.
</event>
<event>
 8    1  0.2001339E+004  0.1043930E+01  0.7957747E-01            NaN
         13   -1    0    0    0    0  0.00000000000E+00  0.00000000000E+00  0.74505805969E-08  0.10566000000E+00  0.10566000000E+00 0.  1.
     999900   -1    0    0    0    0 -0.00000000000E+00 -0.00000000000E+00 -0.74505805969E-08  0.93827000000E+00  0.93827000000E+00 0. -1.
     999902    2    1    2    0    0  0.48933873115E-02  0.28960860255E-02 -0.95301205503E-02  0.10328324439E+01  0.10327728218E+01 0.  0.
     999903    2    3    3    0    0 -0.12323152423E+00 -0.45169286731E-01  0.27519993871E-01  0.14148571900E+00  0.45106380812E-01 0.  0.
         14    1    1    2    0    0 -0.48933873115E-02 -0.28960860255E-02  0.95301205503E-02  0.11097556098E-01  0.00000000000E+00 0.  1.
     999901    1    3    3    0    0  0.12812491154E+00  0.48065372757E-01 -0.37050114421E-01  0.89134672490E+00  0.88000000000E+00 0. -1.
        -11    1    4    4    0    0 -0.10384989196E+00 -0.48931969412E-01  0.10264685680E-01  0.11525954444E+00  0.51100000000E-03 0.  1.
         11    1    4    4    0    0 -0.19381632272E-01  0.37626826809E-02  0.17255308190E-01  0.26226174564E-01  0.51100000000E-03 0. -1.
</event>
<event>
 8    1  0.2001339E+004  0.1043930E+01  0.7957747E-01            NaN
         13   -1    0    0    0    0  0.00000000000E+00  0.00000000000E+00  0.74505805969E-08  0.10566000000E+00  0.10566000000E+00 0.  1.
     999900   -1    0    0    0    0 -0.00000000000E+00 -0.00000000000E+00 -0.74505805969E-08  0.93827000000E+00  0.93827000000E+00 0.  1.
     999902    2    1    2    0    0  0.79800330575E-02 -0.79082873051E-02  0.22264403088E-03  0.10326929405E+01  0.10326318017E+01 0.  0.
     999903    2    3    3    0    0  0.94101179243E-02  0.97005348058E-01 -0.91922315004E-01  0.14168249752E+00  0.46104557669E-01 0.  0.
         14    1    1    2    0    0 -0.79800330575E-02  0.79082873051E-02 -0.22264403088E-03  0.11237059494E-01  0.00000000000E+00 0.  1.
     999901    1    3    3    0    0 -0.14300848668E-02 -0.10491363536E+00  0.92144959035E-01  0.89101044298E+00  0.88000000000E+00 0. -1.
        -11    1    4    4    0    0  0.25245402197E-01  0.62446847541E-01 -0.72605751992E-01  0.99039363100E-01  0.51100000000E-03 0. -1.
         11    1    4    4    0    0 -0.15835284272E-01  0.34558500516E-01 -0.19316563012E-01  0.42643134424E-01  0.51100000000E-03 0.  1.
</event>
<event>
 8    1  0.2001339E+004  0.1043930E+01  0.7957747E-01            NaN
         13   -1    0    0    0    0  0.00000000000E+00  0.00000000000E+00  0.74505805969E-08  0.10566000000E+00  0.10566000000E+00 0. -1.
     999900   -1    0    0    0    0 -0.00000000000E+00 -0.00000000000E+00 -0.74505805969E-08  0.93827000000E+00  0.93827000000E+00 0.  1.
     999902    2    1    2    0    0 -0.10185017881E-01  0.87702337782E-02  0.30563371408E-02  0.10301462129E+01  0.10300539924E+01 0.  0.
     999903    2    3    3    0    0 -0.80223763097E-01 -0.62122126985E-01  0.86655091090E-01  0.14058457688E+00  0.44270843871E-01 0.  0.
         14    1    1    2    0    0  0.10185017881E-01 -0.87702337782E-02 -0.30563371408E-02  0.13783787087E-01  0.00000000000E+00 0.  1.
     999901    1    3    3    0    0  0.70038745216E-01  0.70892360763E-01 -0.83598753949E-01  0.88956163604E+00  0.88000000000E+00 0.  1.
        -11    1    4    4    0    0 -0.42424885023E-01 -0.59037287251E-01  0.59339699733E-01  0.93844196627E-01  0.51100000000E-03 0. -1.
         11    1    4    4    0    0 -0.37798878073E-01 -0.30848397333E-02  0.27315391358E-01  0.46740380249E-01  0.51100000000E-03 0.  1.
</event>
<event>
 8    1  0.2001339E+004  0.1043930E+01  0.7957747E-01            NaN
         13   -1    0    0    0    0  0.00000000000E+00  0.00000000000E+00  0.74505805969E-08  0.10566000000E+00  0.10566000000E+00 0.  1.
     999900   -1    0    0    0    0 -0.00000000000E+00 -0.00000000000E+00 -0.74505805969E-08  0.93827000000E+00  0.93827000000E+00 0. -1.
     999902    2    1    2    0    0 -0.72148409284E-02  0.13082011148E-01  0.23710286729E-02  0.10288033770E+01  0.10286921667E+01 0.  0.
     999903    2    3    3    0    0  0.11124978673E+00  0.67952456555E-01  0.80954810337E-04  0.13916868896E+00  0.48722336095E-01 0.  0.
         14    1    1    2    0    0  0.72148409284E-02 -0.13082011148E-01 -0.23710286729E-02  0.15126622963E-01  0.00000000000E+00 0.  1.
     999901    1    3    3    0    0 -0.11846462766E+00 -0.54870445407E-01  0.22900738626E-02  0.88963468807E+00  0.88000000000E+00 0.  1.
        -11    1    4    4    0    0  0.35320764082E-01  0.22743528310E-01  0.22969904133E-01  0.47882168625E-01  0.51100000000E-03 0.  1.
         11    1    4    4    0    0  0.75929022649E-01  0.45208928245E-01 -0.22888949322E-01  0.91286520339E-01  0.51100000000E-03 0. -1.
</event>
<event>
 8    1  0.2001339E+004  0.1043930E+01  0.7957747E-01            NaN
         13   -1    0    0    0    0  0.00000000000E+00  0.00000000000E+00  0.74505805969E-08  0.10566000000E+00  0.10566000000E+00 0.  1.
     999900   -1    0    0    0    0 -0.00000000000E+00 -0.00000000000E+00 -0.74505805969E-08  0.93827000000E+00  0.93827000000E+00 0.  1.
     999902    2    1    2    0    0  0.79454523601E-02  0.78707179446E-02 -0.92288543052E-02  0.10294299943E+01  0.10293278695E+01 0.  0.
     999903    2    3    3    0    0 -0.79376049685E-01  0.24825668688E-01  0.10054357663E+00  0.13815983228E+00  0.45412083902E-01 0.  0.
         14    1    1    2    0    0 -0.79454523601E-02 -0.78707179446E-02  0.92288543052E-02  0.14500005723E-01  0.00000000000E+00 0.  1.
     999901    1    3    3    0    0  0.87321502045E-01 -0.16954950743E-01 -0.10977243094E+00  0.89127016200E+00  0.88000000000E+00 0. -1.
        -11    1    4    4    0    0 -0.13612190081E-01  0.25561347699E-01  0.32180681969E-01  0.43295861557E-01  0.51100000000E-03 0. -1.
         11    1    4    4    0    0 -0.65763859604E-01 -0.73567901112E-03  0.68362894662E-01  0.94863970722E-01  0.51100000000E-03 0.  1.
</event>
<event>
 8    1  0.2001339E+004  0.1043930E+01  0.7957747E-01            NaN
         13   -1    0    0    0    0  0.00000000000E+00  0.00000000000E+00  0.74505805969E-08  0.10566000000E+00  0.10566000000E+00 0.  1.
     999900   -1    0    0    0    0 -0.00000000000E+00 -0.00000000000E+00 -0.74505805969E-08  0.93827000000E+00  0.93827000000E+00 0. -1.
     999902    2    1    2    0    0 -0.95152780888E-02  0.64086165305E-02 -0.12712882680E-01  0.10268060907E+01  0.10266632942E+01 0.  0.
     999903    2    3    3    0    0 -0.82427777618E-01 -0.22584329679E-01  0.96372569504E-01  0.13660585516E+00  0.45487328354E-01 0.  0.
         14    1    1    2    0    0  0.95152780888E-02 -0.64086165305E-02  0.12712882680E-01  0.17123909278E-01  0.00000000000E+00 0.  1.
     999901    1    3    3    0    0  0.72912499530E-01  0.28992946209E-01 -0.10908545218E+00  0.89020023556E+00  0.88000000000E+00 0. -1.
        -11    1    4    4    0    0 -0.51446824557E-01 -0.28568710304E-01  0.37421332835E-01  0.69739258940E-01  0.51100000000E-03 0.  1.
         11    1    4    4    0    0 -0.30980953062E-01  0.59843806250E-02  0.58951236669E-01  0.66866596219E-01  0.51100000000E-03 0. -1.
</event>
<event>
 8    1  0.2001339E+004  0.1043930E+01  0.7957747E-01            NaN
         13   -1    0    0    0    0  0.00000000000E+00  0.00000000000E+00  0.74505805969E-08  0.10566000000E+00  0.10566000000E+00 0.  1.
     999900   -1    0    0    0    0 -0.00000000000E+00 -0.00000000000E+00 -0.74505805969E-08  0.93827000000E+00  0.93827000000E+00 0.  1.
     999902    2    1    2    0    0  0.11613188758E-01 -0.36186800793E-02 -0.57343937698E-02  0.10304821648E+01  0.10303944137E+01 0.  0.
     999903    2    3    3    0    0 -0.60545444932E-01 -0.54959881143E-01 -0.10110254540E+00  0.14091042985E+00  0.54292588037E-01 0.  0.
         14    1    1    2    0    0 -0.11613188758E-01  0.36186800793E-02  0.57343937698E-02  0.13447835162E-01  0.00000000000E+00 0.  1.
     999901    1    3    3    0    0  0.72158633690E-01  0.51341201064E-01  0.95368151635E-01  0.88957173499E+00  0.88000000000E+00 0.  1.
        -11    1    4    4    0    0 -0.34905678731E-01 -0.45613245522E-01 -0.30112135173E-01  0.64853499369E-01  0.51100000000E-03 0.  1.
         11    1    4    4    0    0 -0.25639766201E-01 -0.93466356215E-02 -0.70990410232E-01  0.76056930481E-01  0.51100000000E-03 0. -1.
</event>
<event>
 8    1  0.2001339E+004  0.1043930E+01  0.7957747E-01            NaN
         13   -1    0    0    0    0  0.00000000000E+00  0.00000000000E+00  0.74505805969E-08  0.10566000000E+00  0.10566000000E+00 0. -1.
     999900   -1    0    0    0    0 -0.00000000000E+00 -0.00000000000E+00 -0.74505805969E-08  0.93827000000E+00  0.93827000000E+00 0.  1.
     999902    2    1    2    0    0  0.58000367685E-02 -0.59012493909E-03 -0.12914781284E-01  0.10297603052E+01  0.10296628118E+01 0.  0.
     999903    2    3    3    0    0  0.84471382719E-02 -0.12059177011E+00 -0.55906177492E-01  0.14057210124E+00  0.44958712173E-01 0.  0.
         14    1    1    2    0    0 -0.58000367685E-02  0.59012493909E-03  0.12914781284E-01  0.14169694760E-01  0.00000000000E+00 0. -1.
     999901    1    3    3    0    0 -0.26471015034E-02  0.12000164517E+00  0.42991396208E-01  0.88918820400E+00  0.88000000000E+00 0. -1.
        -11    1    4    4    0    0  0.26818851560E-01 -0.72744010732E-01 -0.29918196139E-01  0.83104160411E-01  0.51100000000E-03 0. -1.
         11    1    4    4    0    0 -0.18371713288E-01 -0.47847759382E-01 -0.25987981353E-01  0.57467940826E-01  0.51100000000E-03 0.  1.
</event>
<event>
 8    1  0.2001339E+004  0.1043930E+01  0.7957747E-01            NaN
         13   -1    0    0    0    0  0.00000000000E+00  0.00000000000E+00  0.74505805969E-08  0.10566000000E+00  0.10566000000E+00 0. -1.
     999900   -1    0    0    0    0 -0.00000000000E+00 -0.00000000000E+00 -0.74505805969E-08  0.93827000000E+00  0.93827000000E+00 0. -1.
     999902    2    1    2    0    0  0.23089071507E-02  0.97776597437E-02  0.80317139817E-02  0.10310675698E+01  0.10309873381E+01 0.  0.
     999903    2    3    3    0    0  0.33632942303E-01 -0.12691156863E+00 -0.15816665246E-01  0.13964517520E+00  0.44865209195E-01 0.  0.
         14    1    1    2    0    0 -0.23089071507E-02 -0.97776597437E-02 -0.80317139817E-02  0.12862430244E-01  0.00000000000E+00 0. -1.
     999901    1    3    3    0    0 -0.31324035152E-01  0.13668922837E+00  0.23848379228E-01  0.89142239456E+00  0.88000000000E+00 0.  1.
        -11    1    4    4    0    0  0.13309114725E-01 -0.18875873278E-01 -0.18629221027E-01  0.29677266112E-01  0.51100000000E-03 0. -1.
         11    1    4    4    0    0  0.20323827578E-01 -0.10803569535E+00  0.28125557812E-02  0.10996790908E+00  0.51100000000E-03 0.  1.
</event>
<event>
 8    1  0.2001339E+004  0.1043930E+01  0.7957747E-01            NaN
         13   -1    0    0    0    0  0.00000000000E+00  0.00000000000E+00  0.74505805969E-08  0.10566000000E+00  0.10566000000E+00 0.  1.
     999900   -1    0    0    0    0 -0.00000000000E+00 -0.00000000000E+00 -0.74505805969E-08  0.93827000000E+00  0.93827000000E+00 0.  1.
     999902    2    1    2    0    0 -0.11441370752E-01  0.54336764613E-02  0.57833717865E-02  0.10300060209E+01  0.10299119020E+01 0.  0.
     999903    2    3    3    0    0  0.67578322178E-02  0.72799101177E-01  0.11189917370E+00  0.14088855125E+00  0.44528433278E-01 0.  0.
         14    1    1    2    0    0  0.11441370752E-01 -0.54336764613E-02 -0.57833717865E-02  0.13923979093E-01  0.00000000000E+00 0. -1.
     999901    1    3    3    0    0 -0.18199202970E-01 -0.67365424716E-01 -0.10611580191E+00  0.88911746966E+00  0.88000000000E+00 0.  1.
        -11    1    4    4    0    0  0.11468625739E-01  0.56088249669E-01  0.10921736218E+00  0.12331307493E+00  0.51100000000E-03 0. -1.
         11    1    4    4    0    0 -0.47107935208E-02  0.16710851508E-01  0.26818115208E-02  0.17575476317E-01  0.51100000000E-03 0.  1.
</event>
<event>
 8    1  0.2001339E+004  0.1043930E+01  0.7957747E-01            NaN
         13   -1    0    0    0    0  0.00000000000E+00  0.00000000000E+00  0.74505805969E-08  0.10566000000E+00  0.10566000000E+00 0.  1.
     999900   -1    0    0    0    0 -0.00000000000E+00 -0.00000000000E+00 -0.74505805969E-08  0.93827000000E+00  0.93827000000E+00 0. -1.
     999902    2    1    2    0    0  0.14883421439E-01  0.29105657056E-02 -0.11375967162E-01  0.10249721453E+01  0.10247968083E+01 0.  0.
     999903    2    3    3    0    0 -0.80366254158E-01  0.39108216139E-01  0.87325405507E-01  0.13361097743E+00  0.47307287657E-01 0.  0.
         14    1    1    2    0    0 -0.14883421439E-01 -0.29105657056E-02  0.11375967162E-01  0.18957854713E-01  0.00000000000E+00 0.  1.
     999901    1    3    3    0    0  0.95249675597E-01 -0.36197650434E-01 -0.98701372669E-01  0.89136116786E+00  0.88000000000E+00 0. -1.
        -11    1    4    4    0    0 -0.34691600261E-01  0.25051368313E-01  0.71387967950E-01  0.83232092801E-01  0.51100000000E-03 0. -1.
         11    1    4    4    0    0 -0.45674653897E-01  0.14056847826E-01  0.15937437557E-01  0.50378884628E-01  0.51100000000E-03 0.  1.
</event>
<event>
 8    1  0.2001339E+004  0.1043930E+01  0.7957747E-01            NaN
         13   -1    0    0    0    0  0.00000000000E+00  0.00000000000E+00  0.74505805969E-08  0.10566000000E+00  0.10566000000E+00 0. -1.
     999900   -1    0    0    0    0 -0.00000000000E+00 -0.00000000000E+00 -0.74505805969E-08  0.93827000000E+00  0.93827000000E+00 0.  1.
     999902    2    1    2    0    0 -0.10120975665E-01  0.25785797535E-02  0.81926506451E-02  0.10306558617E+01  0.10305703773E+01 0.  0.
     999903    2    3    3    0    0  0.72842518137E-03  0.94480510669E-01 -0.92743772011E-01  0.14006513878E+00  0.45713656111E-01 0.  0.
         14    1    1    2    0    0  0.10120975665E-01 -0.25785797535E-02 -0.81926506451E-02  0.13274138260E-01  0.00000000000E+00 0.  1.
     999901    1    3    3    0    0 -0.10849400846E-01 -0.91901930915E-01  0.10093642266E+00  0.89059072296E+00  0.88000000000E+00 0. -1.
        -11    1    4    4    0    0  0.19920077805E-01  0.32111401501E-01 -0.21614946035E-01  0.43536405676E-01  0.51100000000E-03 0.  1.
         11    1    4    4    0    0 -0.19191652623E-01  0.62369109168E-01 -0.71128825976E-01  0.96528733103E-01  0.51100000000E-03 0. -1.
</event>
<event>
 7    1  0.2001339E+004  0.1043930E+01  0.7957747E-01            NaN
         13   -1    0    0    0    0  0.00000000000E+00  0.00000000000E+00  0.74505805969E-08  0.10566000000E+00  0.10566000000E+00 0.  1.
     999900   -1    0    0    0    0 -0.00000000000E+00 -0.00000000000E+00 -0.74505805969E-08  0.93827000000E+00  0.93827000000E+00 0. -1.
     999902    2    1    2    0    0  0.12815853794E-01  0.16804103901E-02 -0.36931558790E-02  0.10304871845E+01  0.10303994993E+01 0.  0.
         14    1    1    2    0    0 -0.12815853794E-01 -0.16804103901E-02  0.36931558790E-02  0.13442815475E-01  0.00000000000E+00 0. -1.
     999901    1    3    3    0    0  0.94926105900E-01 -0.95609028688E-01  0.45409465834E-01  0.89141128080E+00  0.88000000000E+00 0.  1.
        -11    1    3    3    0    0 -0.26303832363E-01  0.51742711473E-01 -0.23554769272E-01  0.62644138305E-01  0.51100000000E-03 0.  1.
         11    1    3    3    0    0 -0.55806419743E-01  0.45546727605E-01 -0.25547852442E-01  0.76431765421E-01  0.51100000000E-03 0. -1.
</event>
<event>
 8    1  0.2001339E+004  0.1043930E+01  0.7957747E-01            NaN
         13   -1    0    0    0    0  0.00000000000E+00  0.00000000000E+00  0.74505805969E-08  0.10566000000E+00  0.10566000000E+00 0.  1.
     999900   -1    0    0    0    0 -0.00000000000E+00 -0.00000000000E+00 -0.74505805969E-08  0.93827000000E+00  0.93827000000E+00 0. -1.
     999902    2    1    2    0    0  0.13264666871E-01 -0.34957456273E-02 -0.22537146148E-02  0.10300285305E+01  0.10299347177E+01 0.  0.
     999903    2    3    3    0    0 -0.12786910211E+00 -0.18223105514E-01  0.21227054232E-01  0.13835202953E+00  0.44811911300E-01 0.  0.
         14    1    1    2    0    0 -0.13264666871E-01  0.34957456273E-02  0.22537146148E-02  0.13901469500E-01  0.00000000000E+00 0. -1.
     999901    1    3    3    0    0  0.14113376898E+00  0.14727359887E-01 -0.23480768846E-01  0.89167650097E+00  0.88000000000E+00 0.  1.
        -11    1    4    4    0    0 -0.37496447453E-01 -0.66714856710E-02  0.27573604449E-01  0.47021878694E-01  0.51100000000E-03 0. -1.
         11    1    4    4    0    0 -0.90372654659E-01 -0.11551619843E-01 -0.63465502171E-02  0.91330150836E-01  0.51100000000E-03 0.  1.
</event>
<event>
 8    1  0.2001339E+004  0.1043930E+01  0.7957747E-01            NaN
         13   -1    0    0    0    0  0.00000000000E+00  0.00000000000E+00  0.74505805969E-08  0.10566000000E+00  0.10566000000E+00 0. -1.
     999900   -1    0    0    0    0 -0.00000000000E+00 -0.00000000000E+00 -0.74505805969E-08  0.93827000000E+00  0.93827000000E+00 0. -1.
     999902    2    1    2    0    0  0.65555570387E-02  0.10050311751E-01 -0.45357527703E-02  0.10311020170E+01  0.10310222172E+01 0.  0.
     999903    2    3    3    0    0 -0.57301639754E-01 -0.10387396057E+00 -0.58026701279E-01  0.13985695364E+00  0.46039024946E-01 0.  0.
         14    1    1    2    0    0 -0.65555570387E-02 -0.10050311751E-01  0.45357527703E-02  0.12827982989E-01  0.00000000000E+00 0. -1.
     999901    1    3    3    0    0  0.63857196793E-01  0.11392427232E+00  0.53490948509E-01  0.89124506337E+00  0.88000000000E+00 0.  1.
        -11    1    4    4    0    0 -0.37551664151E-01 -0.23500847509E-01 -0.23833608933E-01  0.50306255574E-01  0.51100000000E-03 0.  1.
         11    1    4    4    0    0 -0.19749975603E-01 -0.80373113060E-01 -0.34193092346E-01  0.89550698068E-01  0.51100000000E-03 0. -1.
</event>
<event>
 8    1  0.2001339E+004  0.1043930E+01  0.7957747E-01            NaN
         13   -1    0    0    0    0  0.00000000000E+00  0.00000000000E+00  0.74505805969E-08  0.10566000000E+00  0.10566000000E+00 0.  1.
     999900   -1    0    0    0    0 -0.00000000000E+00 -0.00000000000E+00 -0.74505805969E-08  0.93827000000E+00  0.93827000000E+00 0. -1.
     999902    2    1    2    0    0 -0.64130738236E-02  0.65415666905E-02 -0.10398929018E-01  0.10300715248E+01  0.10299782953E+01 0.  0.
     999903    2    3    3    0    0  0.40406482494E-02  0.39588759651E-02  0.13121339325E+00  0.13868496418E+00  0.44548458858E-01 0.  0.
         14    1    1    2    0    0  0.64130738236E-02 -0.65415666905E-02  0.10398929018E-01  0.13858475218E-01  0.00000000000E+00 0.  1.
     999901    1    3    3    0    0 -0.10453722073E-01  0.25826907254E-02 -0.14161232226E+00  0.89138656060E+00  0.88000000000E+00 0. -1.
        -11    1    4    4    0    0  0.20383366822E-01  0.14536630856E-01  0.82731140150E-01  0.86437827085E-01  0.51100000000E-03 0. -1.
         11    1    4    4    0    0 -0.16342718572E-01 -0.10577754891E-01  0.48482253096E-01  0.52247137100E-01  0.51100000000E-03 0.  1.
</event>
<event>
 8    1  0.2001339E+004  0.1043930E+01  0.7957747E-01            NaN
         13   -1    0    0    0    0  0.00000000000E+00  0.00000000000E+00  0.74505805969E-08  0.10566000000E+00  0.10566000000E+00 0. -1.
     999900   -1    0    0    0    0 -0.00000000000E+00 -0.00000000000E+00 -0.74505805969E-08  0.93827000000E+00  0.93827000000E+00 0.  1.
     999902    2    1    2    0    0  0.95515289926E-02 -0.15116755274E-02 -0.52627373268E-03  0.10342452784E+01  0.10341999333E+01 0.  0.
     999903    2    3    3    0    0 -0.50367249073E-01 -0.10388780729E+00 -0.72025182234E-01  0.14341239492E+00  0.45276394037E-01 0.  0.
         14    1    1    2    0    0 -0.95515289926E-02  0.15116755274E-02  0.52627373268E-03  0.96847216293E-02  0.00000000000E+00 0. -1.
     999901    1    3    3    0    0  0.59918778066E-01  0.10237613177E+00  0.71498908502E-01  0.89083288345E+00  0.88000000000E+00 0. -1.
        -11    1    4    4    0    0 -0.25094068677E-01 -0.50612754444E-01 -0.91828262869E-02  0.57235903197E-01  0.51100000000E-03 0.  1.
         11    1    4    4    0    0 -0.25273180397E-01 -0.53275052851E-01 -0.62842355947E-01  0.86176491723E-01  0.51100000000E-03 0. -1.
</event>
<event>
 8    1  0.2001339E+004  0.1043930E+01  0.7957747E-01            NaN
         13   -1    0    0    0    0  0.00000000000E+00  0.00000000000E+00  0.74505805969E-08  0.10566000000E+00  0.10566000000E+00 0. -1.
     999900   -1    0    0    0    0 -0.00000000000E+00 -0.00000000000E+00 -0.74505805969E-08  0.93827000000E+00  0.93827000000E+00 0. -1.
     999902    2    1    2    0    0 -0.13876390127E-02 -0.10241478811E-01 -0.91060614216E-02  0.10301556113E+01  0.10300635173E+01 0.  0.
     999903    2    3    3    0    0  0.83861935435E-01  0.92750993999E-01 -0.42190141795E-01  0.13944269693E+00  0.45040943149E-01 0.  0.
         14    1    1    2    0    0  0.13876390127E-02  0.10241478811E-01  0.91060614216E-02  0.13774388730E-01  0.00000000000E+00 0. -1.
     999901    1    3    3    0    0 -0.85249574448E-01 -0.10299247281E+00  0.33084080373E-01  0.89071291434E+00  0.88000000000E+00 0.  1.
        -11    1    4    4    0    0  0.57898735076E-01  0.42286392955E-01 -0.41173273532E-01  0.82679514554E-01  0.51100000000E-03 0.  1.
         11    1    4    4    0    0  0.25963200359E-01  0.50464601043E-01 -0.10168682627E-02  0.56763182376E-01  0.51100000000E-03 0. -1.
</event>
<event>
 8    1  0.2001339E+004  0.1043930E+01  0.7957747E-01            NaN
         13   -1    0    0    0    0  0.00000000000E+00  0.00000000000E+00  0.74505805969E-08  0.10566000000E+00  0.10566000000E+00 0. -1.
     999900   -1    0    0    0    0 -0.00000000000E+00 -0.00000000000E+00 -0.74505805969E-08  0.93827000000E+00  0.93827000000E+00 0.  1.
     999902    2    1    2    0    0 -0.16128953718E-01  0.76377209992E-02 -0.46799330469E-02  0.10254806178E+01  0.10253146433E+01 0.  0.
     999903    2    3    3    0    0 -0.83644544167E-01  0.42615739922E-01 -0.90499150240E-01  0.13804230738E+00  0.45310830667E-01 0.  0.
         14    1    1    2    0    0  0.16128953718E-01 -0.76377209992E-02  0.46799330469E-02  0.18449382196E-01  0.00000000000E+00 0. -1.
     999901    1    3    3    0    0  0.67515590449E-01 -0.34978018923E-01  0.85819217193E-01  0.88743831042E+00  0.88000000000E+00 0. -1.
        -11    1    4    4    0    0 -0.70482088907E-01  0.36171039692E-01 -0.94033638196E-01  0.12295794079E+00  0.51100000000E-03 0.  1.
         11    1    4    4    0    0 -0.13162455261E-01  0.64447002300E-02  0.35344879561E-02  0.15084366598E-01  0.51100000000E-03 0. -1.
</event>
<event>
 8    1  0.2001339E+004  0.1043930E+01  0.7957747E-01            NaN
         13   -1    0    0    0    0  0.00000000000E+00  0.00000000000E+00  0.74505805969E-08  0.10566000000E+00  0.10566000000E+00 0.  1.
     999900   -1    0    0    0    0 -0.00000000000E+00 -0.00000000000E+00 -0.74505805969E-08  0.93827000000E+00  0.93827000000E+00 0.  1.
     999902    2    1    2    0    0 -0.68775218989E-02 -0.77235791193E-02 -0.42690398472E-02  0.10327416720E+01  0.10326810652E+01 0.  0.
     999903    2    3    3    0    0 -0.61226198659E-01 -0.53566357497E-01 -0.10921224518E+00  0.14365876512E+00  0.45744116993E-01 0.  0.
         14    1    1    2    0    0  0.68775218989E-02  0.77235791193E-02  0.42690398472E-02  0.11188327985E-01  0.00000000000E+00 0.  1.
     999901    1    3    3    0    0  0.54348676760E-01  0.45842778377E-01  0.10494320533E+00  0.88908290690E+00  0.88000000000E+00 0.  1.
        -11    1    4    4    0    0 -0.31883240829E-01 -0.53891058698E-01 -0.85213533483E-01  0.10574684233E+00  0.51100000000E-03 0. -1.
         11    1    4    4    0    0 -0.29342957830E-01  0.32470120105E-03 -0.23998711698E-01  0.37911922785E-01  0.51100000000E-03 0.  1.
</event>
<event>
 8    1  0.2001339E+004  0.1043930E+01  0.7957747E-01            NaN
         13   -1    0    0    0    0  0.00000000000E+00  0.00000000000E+00  0.74505805969E-08  0.10566000000E+00  0.10566000000E+00 0. -1.
     999900   -1    0    0    0    0 -0.00000000000E+00 -0.00000000000E+00 -0.74505805969E-08  0.93827000000E+00  0.93827000000E+00 0.  1.
     999902    2    1    2    0    0  0.33745914309E-03 -0.18836887851E-01 -0.95982511390E-02  0.10227860021E+01  0.10225674244E+01 0.  0.
     999903    2    3    3    0    0 -0.12451531567E+00  0.77336218187E-02 -0.14406105493E-01  0.13356312630E+00  0.45471970377E-01 0.  0.
         14    1    1    2    0    0 -0.33745914309E-03  0.18836887851E-01  0.95982511390E-02  0.21143997908E-01  0.00000000000E+00 0. -1.
     999901    1    3    3    0    0  0.12485277481E+00 -0.26570509670E-01  0.48078543535E-02  0.88922287579E+00  0.88000000000E+00 0.  1.
        -11    1    4    4    0    0 -0.10424408115E+00 -0.96954063245E-02 -0.19078385973E-01  0.10641933702E+00  0.51100000000E-03 0.  1.
         11    1    4    4    0    0 -0.20271234515E-01  0.17429028143E-01  0.46722804805E-02  0.27143789283E-01  0.51100000000E-03 0. -1.
</event>
<event>
 8    1  0.2001339E+004  0.1043930E+01  0.7957747E-01            NaN
         13   -1    0    0    0    0  0.00000000000E+00  0.00000000000E+00  0.74505805969E-08  0.10566000000E+00  0.10566000000E+00 0.  1.
     999900   -1    0    0    0    0 -0.00000000000E+00 -0.00000000000E+00 -0.74505805969E-08  0.93827000000E+00  0.93827000000E+00 0.  1.
     999902    2    1    2    0    0  0.96738999421E-02  0.39656101420E-02 -0.62121218360E-02  0.10317685502E+01  0.10316968742E+01 0.  0.
     999903    2    3    3    0    0 -0.82514153337E-02  0.42718870352E-01  0.12661314226E+00  0.14077714569E+00  0.43523892473E-01 0.  0.
         14    1    1    2    0    0 -0.96738999421E-02 -0.39656101420E-02  0.62121218360E-02  0.12161449815E-01  0.00000000000E+00 0.  1.
     999901    1    3    3    0    0  0.17925315276E-01 -0.38753260210E-01 -0.13282526410E+00  0.89099140450E+00  0.88000000000E+00 0.  1.
        -11    1    4    4    0    0  0.44918887317E-02  0.12975916534E-01  0.93397361729E-01  0.94402752996E-01  0.51100000000E-03 0. -1.
         11    1    4    4    0    0 -0.12743304065E-01  0.29742953818E-01  0.33215780531E-01  0.46374392693E-01  0.51100000000E-03 0.  1.
</event>
<event>
 8    1  0.2001339E+004  0.1043930E+01  0.7957747E-01            NaN
         13   -1    0    0    0    0  0.00000000000E+00  0.00000000000E+00  0.74505805969E-08  0.10566000000E+00  0.10566000000E+00 0. -1.
     999900   -1    0    0    0    0 -0.00000000000E+00 -0.00000000000E+00 -0.74505805969E-08  0.93827000000E+00  0.93827000000E+00 0. -1.
     999902    2    1    2    0    0 -0.42811588794E-02 -0.83729867581E-02  0.10096997996E-01  0.10301320075E+01  0.10300395955E+01 0.  0.
     999903    2    3    3    0    0  0.49399824446E-01 -0.94763474338E-01  0.79196041588E-01  0.14158282926E+00  0.48510058903E-01 0.  0.
         14    1    1    2    0    0  0.42811588794E-02  0.83729867581E-02 -0.10096997996E-01  0.13797992504E-01  0.00000000000E+00 0. -1.
     999901    1    3    3    0    0 -0.53680983326E-01  0.86390487580E-01 -0.69099043592E-01  0.88854917823E+00  0.88000000000E+00 0. -1.
        -11    1    4    4    0    0  0.35667942267E-01 -0.35470885665E-01  0.13625538688E-01  0.52118156731E-01  0.51100000000E-03 0. -1.
         11    1    4    4    0    0  0.13731882179E-01 -0.59292588673E-01  0.65570502900E-01  0.89464672532E-01  0.51100000000E-03 0.  1.
</event>
<event>
 8    1  0.2001339E+004  0.1043930E+01  0.7957747E-01            NaN
         13   -1    0    0    0    0  0.00000000000E+00  0.00000000000E+00  0.74505805969E-08  0.10566000000E+00  0.10566000000E+00 0.  1.
     999900   -1    0    0    0    0 -0.00000000000E+00 -0.00000000000E+00 -0.74505805969E-08  0.93827000000E+00  0.93827000000E+00 0.  1.
     999902    2    1    2    0    0 -0.41931721338E-02 -0.24182669608E-02  0.12236874967E-01  0.10307705237E+01  0.10306865191E+01 0.  0.
     999903    2    3    3    0    0  0.22488355151E-01  0.26819301962E-01  0.13139702901E+00  0.14185777115E+00  0.40415924166E-01 0.  0.
         14    1    1    2    0    0  0.41931721338E-02  0.24182669608E-02 -0.12236874967E-01  0.13159476304E-01  0.00000000000E+00 0. -1.
     999901    1    3    3    0    0 -0.26681527285E-01 -0.29237568923E-01 -0.11916015405E+00  0.88891275255E+00  0.88000000000E+00 0.  1.
        -11    1    4    4    0    0  0.29939470034E-01  0.30761624162E-01  0.91409331161E-01  0.10098800093E+00  0.51100000000E-03 0. -1.
         11    1    4    4    0    0 -0.74511148829E-02 -0.39423221994E-02  0.39987697851E-01  0.40869770218E-01  0.51100000000E-03 0.  1.
</event>
<event>
 8    1  0.2001339E+004  0.1043930E+01  0.7957747E-01            NaN
         13   -1    0    0    0    0  0.00000000000E+00  0.00000000000E+00  0.74505805969E-08  0.10566000000E+00  0.10566000000E+00 0. -1.
     999900   -1    0    0    0    0 -0.00000000000E+00 -0.00000000000E+00 -0.74505805969E-08  0.93827000000E+00  0.93827000000E+00 0. -1.
     999902    2    1    2    0    0 -0.35836872173E-02 -0.84713946848E-02  0.94000997254E-02  0.10307782238E+01  0.10306943182E+01 0.  0.
     999903    2    3    3    0    0 -0.82203958198E-01  0.93262215949E-01  0.47363348542E-01  0.14062538143E+00  0.45572792878E-01 0.  0.
         14    1    1    2    0    0  0.35836872173E-02  0.84713946848E-02 -0.94000997254E-02  0.13151776185E-01  0.00000000000E+00 0.  1.
     999901    1    3    3    0    0  0.78620270981E-01 -0.10173361063E+00 -0.37963248816E-01  0.89015284238E+00  0.88000000000E+00 0.  1.
        -11    1    4    4    0    0 -0.61348478590E-01  0.36446499208E-01  0.19380064239E-01  0.73944784405E-01  0.51100000000E-03 0. -1.
         11    1    4    4    0    0 -0.20855479608E-01  0.56815716741E-01  0.27983284302E-01  0.66680597027E-01  0.51100000000E-03 0.  1.
</event>
<event>
 8    1  0.2001339E+004  0.1043930E+01  0.7957747E-01            NaN
         13   -1    0    0    0    0  0.00000000000E+00  0.00000000000E+00  0.74505805969E-08  0.10566000000E+00  0.10566000000E+00 0. -1.
     999900   -1    0    0    0    0 -0.00000000000E+00 -0.00000000000E+00 -0.74505805969E-08  0.93827000000E+00  0.93827000000E+00 0.  1.
     999902    2    1    2    0    0  0.73082424684E-02 -0.51777216461E-02  0.10095849592E-01  0.10304338751E+01  0.10303454884E+01 0.  0.
     999903    2    3    3    0    0 -0.75172561070E-01 -0.68569700661E-01  0.87119504940E-01  0.14096534305E+00  0.43916990028E-01 0.  0.
         14    1    1    2    0    0 -0.73082424684E-02  0.51777216461E-02 -0.10095849592E-01  0.13496124940E-01  0.00000000000E+00 0.  1.
     999901    1    3    3    0    0  0.82480803539E-01  0.63391979015E-01 -0.77023655349E-01  0.88946853201E+00  0.88000000000E+00 0.  1.
        -11    1    4    4    0    0 -0.64605139661E-01 -0.35295274415E-01  0.45113318082E-01  0.86342649114E-01  0.51100000000E-03 0. -1.
         11    1    4    4    0    0 -0.10567421409E-01 -0.33274426246E-01  0.42006186858E-01  0.54622693934E-01  0.51100000000E-03 0.  1.
</event>
<event>
 8    1  0.2001339E+004  0.1043930E+01  0.7957747E-01            NaN
         13   -1    0    0    0    0  0.00000000000E+00  0.00000000000E+00  0.74505805969E-08  0.10566000000E+00  0.10566000000E+00 0. -1.
     999900   -1    0    0    0    0 -0.00000000000E+00 -0.00000000000E+00 -0.74505805969E-08  0.93827000000E+00  0.93827000000E+00 0.  1.
     999902    2    1    2    0    0  0.10443558986E-01 -0.84647948643E-02 -0.48209412677E-02  0.10296484682E+01  0.10295494189E+01 0.  0.
     999903    2    3    3    0    0 -0.84986102512E-01  0.92786581543E-01  0.34103412920E-01  0.13786723555E+00  0.44859163296E-01 0.  0.
         14    1    1    2    0    0 -0.10443558986E-01  0.84647948643E-02  0.48209412677E-02  0.14281531819E-01  0.00000000000E+00 0. -1.
     999901    1    3    3    0    0  0.95429661498E-01 -0.10125137641E+00 -0.38924354188E-01  0.89178123263E+00  0.88000000000E+00 0.  1.
        -11    1    4    4    0    0 -0.89882595141E-01  0.83192673449E-01  0.28641592005E-01  0.12577958395E+00  0.51100000000E-03 0.  1.
         11    1    4    4    0    0  0.48964926291E-02  0.95939080937E-02  0.54618209152E-02  0.12087651603E-01  0.51100000000E-03 0. -1.
</event>
<event>
 8    1  0.2001339E+004  0.1043930E+01  0.7957747E-01            NaN
         13   -1    0    0    0    0  0.00000000000E+00  0.00000000000E+00  0.74505805969E-08  0.10566000000E+00  0.10566000000E+00 0. -1.
     999900   -1    0    0    0    0 -0.00000000000E+00 -0.00000000000E+00 -0.74505805969E-08  0.93827000000E+00  0.93827000000E+00 0.  1.
     999902    2    1    2    0    0  0.17185959779E-02 -0.69631257259E-02 -0.12866288731E-01  0.10291997564E+01  0.10290943389E+01 0.  0.
     999903    2    3    3    0    0 -0.71884638826E-01 -0.88385947505E-01 -0.69437631560E-01  0.14057867350E+00  0.44286586565E-01 0.  0.
         14    1    1    2    0    0 -0.17185959779E-02  0.69631257259E-02  0.12866288731E-01  0.14730243641E-01  0.00000000000E+00 0. -1.
     999901    1    3    3    0    0  0.73603234804E-01  0.81422821779E-01  0.56571342829E-01  0.88862108286E+00  0.88000000000E+00 0.  1.
        -11    1    4    4    0    0 -0.49495726472E-01 -0.29998169297E-01 -0.45485720130E-01  0.73613374851E-01  0.51100000000E-03 0. -1.
         11    1    4    4    0    0 -0.22388912354E-01 -0.58387778207E-01 -0.23951911431E-01  0.66965298645E-01  0.51100000000E-03 0.  1.
</event>
<event>
 8    1  0.2001339E+004  0.1043930E+01  0.7957747E-01            NaN
         13   -1    0    0    0    0  0.00000000000E+00  0.00000000000E+00  0.74505805969E-08  0.10566000000E+00  0.10566000000E+00 0. -1.
     999900   -1    0    0    0    0 -0.00000000000E+00 -0.00000000000E+00 -0.74505805969E-08  0.93827000000E+00  0.93827000000E+00 0.  1.
     999902    2    1    2    0    0 -0.11939115652E-01 -0.14266304703E-02  0.68445637410E-02  0.10300943284E+01  0.10300014075E+01 0.  0.
     999903    2    3    3    0    0 -0.38302689887E-02  0.41993617304E-01 -0.12470545281E+00  0.13922033156E+00  0.45306907896E-01 0.  0.
         14    1    1    2    0    0  0.11939115652E-01  0.14266304703E-02 -0.68445637410E-02  0.13835671644E-01  0.00000000000E+00 0.  1.
     999901    1    3    3    0    0 -0.81088466632E-02 -0.43420247774E-01  0.13155001656E+00  0.89087399680E+00  0.88000000000E+00 0. -1.
        -11    1    4    4    0    0  0.11726731414E-01  0.38855277454E-01 -0.58933633630E-01  0.71558948493E-01  0.51100000000E-03 0. -1.
         11    1    4    4    0    0 -0.15557000403E-01  0.31383398501E-02 -0.65771819185E-01  0.67661383067E-01  0.51100000000E-03 0.  1.
</event>
<event>
 8    1  0.2001339E+004  0.1043930E+01  0.7957747E-01            NaN
         13   -1    0    0    0    0  0.00000000000E+00  0.00000000000E+00  0.74505805969E-08  0.10566000000E+00  0.10566000000E+00 0. -1.
     999900   -1    0    0    0    0 -0.00000000000E+00 -0.00000000000E+00 -0.74505805969E-08  0.93827000000E+00  0.93827000000E+00 0. -1.
     999902    2    1    2    0    0 -0.12229555348E-01  0.23767102576E-02  0.14073470103E-02  0.10313924005E+01  0.10313161942E+01 0.  0.
     999903    2    3    3    0    0 -0.69354555934E-01 -0.10284558679E+00 -0.51153273958E-01  0.14173088264E+00  0.45647743696E-01 0.  0.
         14    1    1    2    0    0  0.12229555348E-01 -0.23767102576E-02 -0.14073470103E-02  0.12537599502E-01  0.00000000000E+00 0. -1.
     999901    1    3    3    0    0  0.57125000586E-01  0.10522229705E+00  0.52560620968E-01  0.88966151786E+00  0.88000000000E+00 0. -1.
        -11    1    4    4    0    0 -0.35609880774E-01 -0.19897496266E-01 -0.27201649996E-01  0.49032283752E-01  0.51100000000E-03 0. -1.
         11    1    4    4    0    0 -0.33744675160E-01 -0.82948090527E-01 -0.23951623961E-01  0.92698598884E-01  0.51100000000E-03 0.  1.
</event>
<event>
 8    1  0.2001339E+004  0.1043930E+01  0.7957747E-01            NaN
         13   -1    0    0    0    0  0.00000000000E+00  0.00000000000E+00  0.74505805969E-08  0.10566000000E+00  0.10566000000E+00 0. -1.
     999900   -1    0    0    0    0 -0.00000000000E+00 -0.00000000000E+00 -0.74505805969E-08  0.93827000000E+00  0.93827000000E+00 0.  1.
     999902    2    1    2    0    0 -0.11784378711E-01 -0.62349760541E-02  0.10316855631E-02  0.10305579813E+01  0.10304712233E+01 0.  0.
     999903    2    3    3    0    0  0.37852465432E-01 -0.12712682029E+00 -0.14674836984E-01  0.14076848424E+00  0.44792608074E-01 0.  0.
         14    1    1    2    0    0  0.11784378711E-01  0.62349760541E-02 -0.10316855631E-02  0.13372018662E-01  0.00000000000E+00 0.  1.
     999901    1    3    3    0    0 -0.49636844143E-01  0.12089184424E+00  0.15706522547E-01  0.88978949710E+00  0.88000000000E+00 0.  1.
        -11    1    4    4    0    0  0.36827595466E-02 -0.18343277157E-02  0.79282883438E-02  0.89468627523E-02  0.51100000000E-03 0.  1.
         11    1    4    4    0    0  0.34169705885E-01 -0.12529249257E+00 -0.22603125328E-01  0.13182162149E+00  0.51100000000E-03 0. -1.
</event>
<event>
 7    1  0.2001339E+004  0.1043930E+01  0.7957747E-01            NaN
         13   -1    0    0    0    0  0.00000000000E+00  0.00000000000E+00  0.74505805969E-08  0.10566000000E+00  0.10566000000E+00 0.  1.
     999900   -1    0    0    0    0 -0.00000000000E+00 -0.00000000000E+00 -0.74505805969E-08  0.93827000000E+00  0.93827000000E+00 0.  1.
     999903    2    1    2    0    0  0.98129802385E-01 -0.58781437688E-01  0.21302588051E-01  0.12470983801E+00  0.44877922259E-01 0.  0.
         14    1    1    2    0    0 -0.70066293103E-02 -0.29037638552E-01 -0.23785935234E-02  0.29965563805E-01  0.00000000000E+00 0. -1.
     999901    1    1    2    0    0 -0.91123173075E-01  0.87819076240E-01 -0.18923994528E-01  0.88925459818E+00  0.88000000000E+00 0. -1.
        -11    1    3    3    0    0  0.57141859934E-01 -0.33003693611E-01  0.34577579595E-01  0.74500376377E-01  0.51100000000E-03 0.  1.
         11    1    3    3    0    0  0.40987942451E-01 -0.25777744077E-01 -0.13274991544E-01  0.50209461634E-01  0.51100000000E-03 0. -1.
</event>
<event>
 8    1  0.2527651E+004  0.1043930E+01  0.7957747E-01            NaN
         13   -1    0    0    0    0  0.00000000000E+00  0.00000000000E+00  0.74505805969E-08  0.10566000000E+00  0.10566000000E+00 0. -1.
     999900   -1    0    0    0    0 -0.00000000000E+00 -0.00000000000E+00 -0.74505805969E-08  0.93827000000E+00  0.93827000000E+00 0.  1.
     999902    2    1    2    0    0  0.31623200282E-02 -0.13865081011E-01 -0.30923188789E-04  0.10297088293E+01  0.10296106213E+01 0.  0.
     999903    2    3    3    0    0  0.44903417943E-01 -0.47026942405E-01 -0.11654340526E+00  0.14042980292E+00  0.43707138818E-01 0.  0.
         14    1    1    2    0    0 -0.31623200282E-02  0.13865081011E-01  0.30923188789E-04  0.14221170685E-01  0.00000000000E+00 0. -1.
     999901    1    3    3    0    0 -0.41741097915E-01  0.33161861395E-01  0.11651248207E+00  0.88927902639E+00  0.88000000000E+00 0. -1.
        -11    1    4    4    0    0  0.45246383738E-04 -0.26041115375E-01 -0.59090747664E-01  0.64576461019E-01  0.51100000000E-03 0.  1.
         11    1    4    4    0    0  0.44858171559E-01 -0.20985827030E-01 -0.57452657597E-01  0.75853341902E-01  0.51100000000E-03 0. -1.
</event>
<event>
 8    1  0.2001339E+004  0.1043930E+01  0.7957747E-01            NaN
         13   -1    0    0    0    0  0.00000000000E+00  0.00000000000E+00  0.74505805969E-08  0.10566000000E+00  0.10566000000E+00 0.  1.
     999900   -1    0    0    0    0 -0.00000000000E+00 -0.00000000000E+00 -0.74505805969E-08  0.93827000000E+00  0.93827000000E+00 0. -1.
     999902    2    1    2    0    0 -0.10710710393E-01  0.30178002867E-02 -0.22211993864E-02  0.10325827465E+01  0.10325203960E+01 0.  0.
     999903    2    3    3    0    0 -0.97954516605E-01  0.61668650660E-01 -0.74350508398E-01  0.14339545396E+00  0.40449330260E-01 0.  0.
         14    1    1    2    0    0  0.10710710393E-01 -0.30178002867E-02  0.22211993864E-02  0.11347253518E-01  0.00000000000E+00 0.  1.
     999901    1    3    3    0    0  0.87243806212E-01 -0.58650850373E-01  0.72129309011E-01  0.88918729253E+00  0.88000000000E+00 0. -1.
        -11    1    4    4    0    0 -0.65273825340E-01  0.45651872053E-01 -0.71239070975E-01  0.10686455002E+00  0.51100000000E-03 0. -1.
         11    1    4    4    0    0 -0.32680691266E-01  0.16016778606E-01 -0.31114374224E-02  0.36530903936E-01  0.51100000000E-03 0.  1.
</event>
<event>
 8    1  0.2149436E+004  0.1043930E+01  0.7957747E-01            NaN
         13   -1    0    0    0    0  0.00000000000E+00  0.00000000000E+00  0.74505805969E-08  0.10566000000E+00  0.10566000000E+00 0.  1.
     999900   -1    0    0    0    0 -0.00000000000E+00 -0.00000000000E+00 -0.74505805969E-08  0.93827000000E+00  0.93827000000E+00 0.  1.
     999902    2    1    2    0    0  0.20193674896E-01 -0.20163788037E-02  0.15014191776E-01  0.10186856691E+01  0.10183728277E+01 0.  0.
     999903    2    3    3    0    0  0.18505933278E-01  0.10020067497E+00 -0.64801520168E-01  0.12917922029E+00  0.45884519247E-01 0.  0.
         14    1    1    2    0    0 -0.20193674896E-01  0.20163788037E-02 -0.15014191776E-01  0.25244330928E-01  0.00000000000E+00 0. -1.
     999901    1    3    3    0    0  0.16877416186E-02 -0.10221705378E+00  0.79815711944E-01  0.88950644878E+00  0.88000000000E+00 0. -1.
        -11    1    4    4    0    0  0.23345779538E-01  0.18473370687E-01 -0.19759674721E-01  0.35735090777E-01  0.51100000000E-03 0.  1.
         11    1    4    4    0    0 -0.48398462600E-02  0.81727304287E-01 -0.45041845447E-01  0.93444129512E-01  0.51100000000E-03 0. -1.
</event>
<event>
 8    1  0.2001339E+004  0.1043930E+01  0.7957747E-01            NaN
         13   -1    0    0    0    0  0.00000000000E+00  0.00000000000E+00  0.74505805969E-08  0.10566000000E+00  0.10566000000E+00 0. -1.
     999900   -1    0    0    0    0 -0.00000000000E+00 -0.00000000000E+00 -0.74505805969E-08  0.93827000000E+00  0.93827000000E+00 0. -1.
     999902    2    1    2    0    0  0.12064829421E-02 -0.72743474126E-02 -0.10996707267E-01  0.10306899357E+01  0.10306048924E+01 0.  0.
     999903    2    3    3    0    0  0.55142135719E-02  0.85784390396E-01 -0.10247229032E+00  0.14105727697E+00  0.44801974454E-01 0.  0.
         14    1    1    2    0    0 -0.12064829421E-02  0.72743474126E-02  0.10996707267E-01  0.13240064278E-01  0.00000000000E+00 0. -1.
     999901    1    3    3    0    0 -0.43077306298E-02 -0.93058737808E-01  0.91475583056E-01  0.88963265875E+00  0.88000000000E+00 0.  1.
        -11    1    4    4    0    0  0.22048263168E-01  0.29733519712E-01 -0.28131444471E-01  0.46495670682E-01  0.51100000000E-03 0.  1.
         11    1    4    4    0    0 -0.16534049596E-01  0.56050870684E-01 -0.74340845852E-01  0.94561606286E-01  0.51100000000E-03 0. -1.
</event>
<event>
 8    1  0.2001339E+004  0.1043930E+01  0.7957747E-01            NaN
         13   -1    0    0    0    0  0.00000000000E+00  0.00000000000E+00  0.74505805969E-08  0.10566000000E+00  0.10566000000E+00 0. -1.
     999900   -1    0    0    0    0 -0.00000000000E+00 -0.00000000000E+00 -0.74505805969E-08  0.93827000000E+00  0.93827000000E+00 0.  1.
     999902    2    1    2    0    0  0.10980246926E-01  0.85897479732E-02  0.32914788990E-02  0.10296057749E+01  0.10295061283E+01 0.  0.
     999903    2    3    3    0    0  0.34041142477E-01 -0.78810679672E-01  0.10052043350E+00  0.13964841111E+00  0.45026642832E-01 0.  0.
         14    1    1    2    0    0 -0.10980246926E-01 -0.85897479732E-02 -0.32914788990E-02  0.14324225150E-01  0.00000000000E+00 0.  1.
     999901    1    3    3    0    0 -0.23060895551E-01  0.87400427645E-01 -0.97228954598E-01  0.88995736374E+00  0.88000000000E+00 0.  1.
        -11    1    4    4    0    0  0.35334878301E-01 -0.36780653591E-01  0.35241820841E-01  0.61996912506E-01  0.51100000000E-03 0.  1.
         11    1    4    4    0    0 -0.12937358236E-02 -0.42030026081E-01  0.65278612656E-01  0.77651498608E-01  0.51100000000E-03 0. -1.
</event>
<event>
 8    1  0.2001339E+004  0.1043930E+01  0.7957747E-01            NaN
         13   -1    0    0    0    0  0.00000000000E+00  0.00000000000E+00  0.74505805969E-08  0.10566000000E+00  0.10566000000E+00 0. -1.
     999900   -1    0    0    0    0 -0.00000000000E+00 -0.00000000000E+00 -0.74505805969E-08  0.93827000000E+00  0.93827000000E+00 0.  1.
     999902    2    1    2    0    0  0.19772172568E-02  0.15301996105E-01 -0.47912704599E-02  0.10277739873E+01  0.10276469979E+01 0.  0.
     999903    2    3    3    0    0  0.81619680564E-01  0.10030218465E+00 -0.28218584739E-01  0.13978930668E+00  0.44971782669E-01 0.  0.
         14    1    1    2    0    0 -0.19772172568E-02 -0.15301996105E-01  0.47912704599E-02  0.16156012673E-01  0.00000000000E+00 0. -1.
     999901    1    3    3    0    0 -0.79642463308E-01 -0.85000188542E-01  0.23427314279E-01  0.88798468065E+00  0.88000000000E+00 0. -1.
        -11    1    4    4    0    0  0.21227050708E-01  0.49951146420E-01 -0.28185654267E-01  0.61158784634E-01  0.51100000000E-03 0. -1.
         11    1    4    4    0    0  0.60392629856E-01  0.50351038227E-01 -0.32930471835E-04  0.78630522044E-01  0.51100000000E-03 0.  1.
</event>
<event>
 8    1  0.2001339E+004  0.1043930E+01  0.7957747E-01            NaN
         13   -1    0    0    0    0  0.00000000000E+00  0.00000000000E+00  0.74505805969E-08  0.10566000000E+00  0.10566000000E+00 0.  1.
     999900   -1    0    0    0    0 -0.00000000000E+00 -0.00000000000E+00 -0.74505805969E-08  0.93827000000E+00  0.93827000000E+00 0.  1.
     999902    2    1    2    0    0 -0.10750676058E-03  0.15121815600E-01 -0.46591735137E-02  0.10281063227E+01  0.10279845437E+01 0.  0.
     999903    2    3    3    0    0  0.83845421488E-02  0.12310497073E+00  0.38493460972E-01  0.14041570852E+00  0.54860644329E-01 0.  0.
         14    1    1    2    0    0  0.10750676058E-03 -0.15121815600E-01  0.46591735137E-02  0.15823677277E-01  0.00000000000E+00 0.  1.
     999901    1    3    3    0    0 -0.84920489094E-02 -0.10798315513E+00 -0.43152634486E-01  0.88769061421E+00  0.88000000000E+00 0.  1.
        -11    1    4    4    0    0 -0.10086873981E-01  0.11395028739E+00  0.33423697312E-01  0.11917977045E+00  0.51100000000E-03 0. -1.
         11    1    4    4    0    0  0.18471416130E-01  0.91546833393E-02  0.50697636601E-02  0.21235938064E-01  0.51100000000E-03 0.  1.
</event>
<event>
 8    1  0.2001339E+004  0.1043930E+01  0.7957747E-01            NaN
         13   -1    0    0    0    0  0.00000000000E+00  0.00000000000E+00  0.74505805969E-08  0.10566000000E+00  0.10566000000E+00 0.  1.
     999900   -1    0    0    0    0 -0.00000000000E+00 -0.00000000000E+00 -0.74505805969E-08  0.93827000000E+00  0.93827000000E+00 0. -1.
     999902    2    1    2    0    0  0.11777653011E-01  0.61287647487E-02  0.38297378785E-02  0.10301118322E+01  0.10300191480E+01 0.  0.
     999903    2    3    3    0    0 -0.10881197654E-01 -0.12729282861E+00 -0.30966562575E-01  0.13908684516E+00  0.45435204639E-01 0.  0.
         14    1    1    2    0    0 -0.11777653011E-01 -0.61287647487E-02 -0.38297378785E-02  0.13818167752E-01  0.00000000000E+00 0.  1.
     999901    1    3    3    0    0  0.22658850665E-01  0.13342159336E+00  0.34796300453E-01  0.89102498709E+00  0.88000000000E+00 0. -1.
        -11    1    4    4    0    0  0.13933456117E-01 -0.46583273829E-01 -0.24368981436E-01  0.54389805820E-01  0.51100000000E-03 0.  1.
         11    1    4    4    0    0 -0.24814653770E-01 -0.80709554784E-01 -0.65975811386E-02  0.84697039341E-01  0.51100000000E-03 0. -1.
</event>
<event>
 8    1  0.2001339E+004  0.1043930E+01  0.7957747E-01            NaN
         13   -1    0    0    0    0  0.00000000000E+00  0.00000000000E+00  0.74505805969E-08  0.10566000000E+00  0.10566000000E+00 0. -1.
     999900   -1    0    0    0    0 -0.00000000000E+00 -0.00000000000E+00 -0.74505805969E-08  0.93827000000E+00  0.93827000000E+00 0. -1.
     999902    2    1    2    0    0  0.12408187407E-01  0.64883350991E-02 -0.15406394286E-02  0.10298432979E+01  0.10297469509E+01 0.  0.
     999903    2    3    3    0    0 -0.10747851046E+00  0.74941787377E-01  0.13465695501E-01  0.13895391891E+00  0.44260195662E-01 0.  0.
         14    1    1    2    0    0 -0.12408187407E-01 -0.64883350991E-02  0.15406394286E-02  0.14086702131E-01  0.00000000000E+00 0.  1.
     999901    1    3    3    0    0  0.11988669786E+00 -0.68453452278E-01 -0.15006334930E-01  0.89088937896E+00  0.88000000000E+00 0. -1.
        -11    1    4    4    0    0 -0.77172391112E-01  0.65147731784E-01  0.26692893080E-01  0.10446327856E+00  0.51100000000E-03 0.  1.
         11    1    4    4    0    0 -0.30306119344E-01  0.97940555934E-02 -0.13227197579E-01  0.34490640345E-01  0.51100000000E-03 0. -1.
</event>
<event>
 8    1  0.2001339E+004  0.1043930E+01  0.7957747E-01            NaN
         13   -1    0    0    0    0  0.00000000000E+00  0.00000000000E+00  0.74505805969E-08  0.10566000000E+00  0.10566000000E+00 0.  1.
     999900   -1    0    0    0    0 -0.00000000000E+00 -0.00000000000E+00 -0.74505805969E-08  0.93827000000E+00  0.93827000000E+00 0.  1.
     999902    2    1    2    0    0  0.11969984896E-01  0.26147004266E-02 -0.59796125211E-02  0.10302964765E+01  0.10302062689E+01 0.  0.
     999903    2    3    3    0    0  0.81123523455E-01 -0.10066953957E+00 -0.35563569908E-01  0.14106925209E+00  0.43822187589E-01 0.  0.
         14    1    1    2    0    0 -0.11969984896E-01 -0.26147004266E-02  0.59796125211E-02  0.13633523486E-01  0.00000000000E+00 0.  1.
     999901    1    3    3    0    0 -0.69153538559E-01  0.10328424000E+00  0.29583957387E-01  0.88922722443E+00  0.88000000000E+00 0.  1.
        -11    1    4    4    0    0  0.35587280214E-01 -0.35888486668E-01  0.72322296830E-02  0.51058831318E-01  0.51100000000E-03 0.  1.
         11    1    4    4    0    0  0.45536243241E-01 -0.64781052902E-01 -0.42795799591E-01  0.90010420770E-01  0.51100000000E-03 0. -1.
</event>
<event>
 8    1  0.2001339E+004  0.1043930E+01  0.7957747E-01            NaN
         13   -1    0    0    0    0  0.00000000000E+00  0.00000000000E+00  0.74505805969E-08  0.10566000000E+00  0.10566000000E+00 0.  1.
     999900   -1    0    0    0    0 -0.00000000000E+00 -0.00000000000E+00 -0.74505805969E-08  0.93827000000E+00  0.93827000000E+00 0.  1.
     999902    2    1    2    0    0  0.57138522280E-02  0.17691400570E-02  0.78380133751E-02  0.10340703642E+01  0.10340233584E+01 0.  0.
     999903    2    3    3    0    0 -0.11725207707E+00 -0.44506435446E-01 -0.49970550377E-01  0.14244046416E+00  0.45424195661E-01 0.  0.
         14    1    1    2    0    0 -0.57138522280E-02 -0.17691400570E-02 -0.78380133751E-02  0.98596357688E-02  0.00000000000E+00 0. -1.
     999901    1    3    3    0    0  0.12296592930E+00  0.46275575503E-01  0.57808563752E-01  0.89162990007E+00  0.88000000000E+00 0. -1.
        -11    1    4    4    0    0 -0.53795473591E-02  0.49792599414E-02 -0.12501496103E-01  0.14501071863E-01  0.51100000000E-03 0.  1.
         11    1    4    4    0    0 -0.11187252971E+00 -0.49485695387E-01 -0.37469054274E-01  0.12793939230E+00  0.51100000000E-03 0. -1.
</event>
<event>
 8    1  0.2001339E+004  0.1043930E+01  0.7957747E-01            NaN
         13   -1    0    0    0    0  0.00000000000E+00  0.00000000000E+00  0.74505805969E-08  0.10566000000E+00  0.10566000000E+00 0. -1.
     999900   -1    0    0    0    0 -0.00000000000E+00 -0.00000000000E+00 -0.74505805969E-08  0.93827000000E+00  0.93827000000E+00 0.  1.
     999902    2    1    2    0    0  0.66412671293E-02 -0.65882729274E-02  0.95350597639E-02  0.10305722631E+01  0.10304856915E+01 0.  0.
     999903    2    3    3    0    0 -0.43668424497E-01 -0.12308573700E+00  0.27909463194E-01  0.14128021724E+00  0.46088303240E-01 0.  0.
         14    1    1    2    0    0 -0.66412671293E-02  0.65882729274E-02 -0.95350597639E-02  0.13357736857E-01  0.00000000000E+00 0. -1.
     999901    1    3    3    0    0  0.50309691626E-01  0.11649746408E+00 -0.18374403431E-01  0.88929204590E+00  0.88000000000E+00 0.  1.
        -11    1    4    4    0    0 -0.36095876651E-01 -0.94864525996E-01  0.40729488747E-01  0.10936792481E+00  0.51100000000E-03 0. -1.
         11    1    4    4    0    0 -0.75725478462E-02 -0.28221211007E-01 -0.12820025552E-01  0.31912292424E-01  0.51100000000E-03 0.  1.
</event>
<event>
 8    1  0.2001339E+004  0.1043930E+01  0.7957747E-01            NaN
         13   -1    0    0    0    0  0.00000000000E+00  0.00000000000E+00  0.74505805969E-08  0.10566000000E+00  0.10566000000E+00 0.  1.
     999900   -1    0    0    0    0 -0.00000000000E+00 -0.00000000000E+00 -0.74505805969E-08  0.93827000000E+00  0.93827000000E+00 0.  1.
     999902    2    1    2    0    0  0.11594645837E-01 -0.85590687206E-02 -0.86512662168E-03  0.10294924824E+01  0.10293912422E+01 0.  0.
     999903    2    3    3    0    0  0.65392045964E-01 -0.27453814522E-01 -0.11289892552E+00  0.14055899573E+00  0.44506542113E-01 0.  0.
         14    1    1    2    0    0 -0.11594645837E-01  0.85590687206E-02  0.86512662168E-03  0.14437517568E-01  0.00000000000E+00 0. -1.
     999901    1    3    3    0    0 -0.53797400127E-01  0.18894745802E-01  0.11203379890E+00  0.88893348670E+00  0.88000000000E+00 0. -1.
        -11    1    4    4    0    0  0.52299659337E-01 -0.11644148586E-02 -0.86372124031E-01  0.10098027114E+00  0.51100000000E-03 0.  1.
         11    1    4    4    0    0  0.13092386627E-01 -0.26289399664E-01 -0.26526801489E-01  0.39578724594E-01  0.51100000000E-03 0. -1.
</event>
<event>
 8    1  0.2001339E+004  0.1043930E+01  0.7957747E-01            NaN
         13   -1    0    0    0    0  0.00000000000E+00  0.00000000000E+00  0.74505805969E-08  0.10566000000E+00  0.10566000000E+00 0. -1.
     999900   -1    0    0    0    0 -0.00000000000E+00 -0.00000000000E+00 -0.74505805969E-08  0.93827000000E+00  0.93827000000E+00 0.  1.
     999902    2    1    2    0    0  0.77605530169E-02  0.99970773571E-02  0.80368408505E-02  0.10289380505E+01  0.10288288260E+01 0.  0.
     999903    2    3    3    0    0  0.46170200885E-01 -0.38093935575E-01 -0.11613715929E+00  0.13809169513E+00  0.44706164199E-01 0.  0.
         14    1    1    2    0    0 -0.77605530169E-02 -0.99970773571E-02 -0.80368408505E-02  0.14991949495E-01  0.00000000000E+00 0. -1.
     999901    1    3    3    0    0 -0.38409647868E-01  0.48091012932E-01  0.12417400014E+00  0.89084635538E+00  0.88000000000E+00 0. -1.
        -11    1    4    4    0    0 -0.80643533671E-02 -0.31902053895E-02 -0.24799878386E-01  0.26277486460E-01  0.51100000000E-03 0.  1.
         11    1    4    4    0    0  0.54234554252E-01 -0.34903730186E-01 -0.91337280908E-01  0.11181420867E+00  0.51100000000E-03 0. -1.
</event>
<event>
 8    1  0.2001339E+004  0.1043930E+01  0.7957747E-01            NaN
         13   -1    0    0    0    0  0.00000000000E+00  0.00000000000E+00  0.74505805969E-08  0.10566000000E+00  0.10566000000E+00 0. -1.
     999900   -1    0    0    0    0 -0.00000000000E+00 -0.00000000000E+00 -0.74505805969E-08  0.93827000000E+00  0.93827000000E+00 0. -1.
     999902    2    1    2    0    0  0.40545037735E-02 -0.13009417153E-01 -0.31167560497E-03  0.10302998468E+01  0.10302096841E+01 0.  0.
     999903    2    3    3    0    0  0.10780659400E+00 -0.25291166935E-01 -0.73979242022E-01  0.14106295597E+00  0.46518001483E-01 0.  0.
         14    1    1    2    0    0 -0.40545037735E-02  0.13009417153E-01  0.31167560497E-03  0.13630153235E-01  0.00000000000E+00 0. -1.
     999901    1    3    3    0    0 -0.10375209023E+00  0.12281749782E-01  0.73667566417E-01  0.88923689079E+00  0.88000000000E+00 0.  1.
        -11    1    4    4    0    0  0.51530991986E-01 -0.31742145204E-01 -0.22662868223E-01  0.64628736908E-01  0.51100000000E-03 0. -1.
         11    1    4    4    0    0  0.56275602018E-01  0.64509782694E-02 -0.51316373800E-01  0.76434219065E-01  0.51100000000E-03 0.  1.
</event>
<event>
 8    1  0.2001339E+004  0.1043930E+01  0.7957747E-01            NaN
         13   -1    0    0    0    0  0.00000000000E+00  0.00000000000E+00  0.74505805969E-08  0.10566000000E+00  0.10566000000E+00 0. -1.
     999900   -1    0    0    0    0 -0.00000000000E+00 -0.00000000000E+00 -0.74505805969E-08  0.93827000000E+00  0.93827000000E+00 0.  1.
     999902    2    1    2    0    0 -0.80630183112E-02  0.93618912802E-03  0.10439230143E-01  0.10307063001E+01  0.10306214682E+01 0.  0.
     999903    2    3    3    0    0  0.12547359000E+00  0.28283041923E-01 -0.29378796397E-01  0.13932234723E+00  0.44766622732E-01 0.  0.
         14    1    1    2    0    0  0.80630183112E-02 -0.93618912802E-03 -0.10439230143E-01  0.13223699950E-01  0.00000000000E+00 0.  1.
     999901    1    3    3    0    0 -0.13353660831E+00 -0.27346852795E-01  0.39818026540E-01  0.89138395283E+00  0.88000000000E+00 0. -1.
        -11    1    4    4    0    0  0.76160389811E-01 -0.55178221311E-02 -0.18158758019E-01  0.78491101095E-01  0.51100000000E-03 0.  1.
         11    1    4    4    0    0  0.49313200189E-01  0.33800864054E-01 -0.11220038377E-01  0.60831246131E-01  0.51100000000E-03 0. -1.
</event>
<event>
 8    1  0.2001339E+004  0.1043930E+01  0.7957747E-01            NaN
         13   -1    0    0    0    0  0.00000000000E+00  0.00000000000E+00  0.74505805969E-08  0.10566000000E+00  0.10566000000E+00 0. -1.
     999900   -1    0    0    0    0 -0.00000000000E+00 -0.00000000000E+00 -0.74505805969E-08  0.93827000000E+00  0.93827000000E+00 0. -1.
     999902    2    1    2    0    0  0.86144719209E-02 -0.54268941331E-02  0.97759671772E-02  0.10298151199E+01  0.10297183845E+01 0.  0.
     999903    2    3    3    0    0 -0.12885201605E+00  0.15106238542E-01  0.22367981966E-01  0.13881725025E+00  0.44032509204E-01 0.  0.
         14    1    1    2    0    0 -0.86144719209E-02  0.54268941331E-02 -0.97759671772E-02  0.14114880115E-01  0.00000000000E+00 0.  1.
     999901    1    3    3    0    0  0.13746648797E+00 -0.20533132676E-01 -0.12592014788E-01  0.89099786963E+00  0.88000000000E+00 0. -1.
        -11    1    4    4    0    0  0.91460203344E-03  0.56373943691E-02  0.48901126535E-02  0.75359826775E-02  0.51100000000E-03 0. -1.
         11    1    4    4    0    0 -0.12976661809E+00  0.94688441733E-02  0.17477869312E-01  0.13128126758E+00  0.51100000000E-03 0.  1.
</event>
<event>
 8    1  0.2001339E+004  0.1043930E+01  0.7957747E-01            NaN
         13   -1    0    0    0    0  0.00000000000E+00  0.00000000000E+00  0.74505805969E-08  0.10566000000E+00  0.10566000000E+00 0.  1.
     999900   -1    0    0    0    0 -0.00000000000E+00 -0.00000000000E+00 -0.74505805969E-08  0.93827000000E+00  0.93827000000E+00 0. -1.
     999902    2    1    2    0    0  0.56096556590E-02 -0.48348838263E-02  0.92128776361E-02  0.10321096171E+01  0.10320419275E+01 0.  0.
     999903    2    3    3    0    0 -0.13273520348E+00  0.31157592407E-02  0.16730109671E-01  0.14123419281E+00  0.45153720221E-01 0.  0.
         14    1    1    2    0    0 -0.56096556590E-02  0.48348838263E-02 -0.92128776361E-02  0.11820382928E-01  0.00000000000E+00 0. -1.
     999901    1    3    3    0    0  0.13834485914E+00 -0.79506430670E-02 -0.75172320348E-02  0.89087542426E+00  0.88000000000E+00 0. -1.
        -11    1    4    4    0    0 -0.46286914994E-01 -0.20192871941E-01  0.96655056554E-02  0.51419001327E-01  0.51100000000E-03 0.  1.
         11    1    4    4    0    0 -0.86448288489E-01  0.23308631182E-01  0.70646040155E-02  0.89815191483E-01  0.51100000000E-03 0. -1.
</event>
<event>
 8    1  0.2001339E+004  0.1043930E+01  0.7957747E-01            NaN
         13   -1    0    0    0    0  0.00000000000E+00  0.00000000000E+00  0.74505805969E-08  0.10566000000E+00  0.10566000000E+00 0. -1.
     999900   -1    0    0    0    0 -0.00000000000E+00 -0.00000000000E+00 -0.74505805969E-08  0.93827000000E+00  0.93827000000E+00 0.  1.
     999902    2    1    2    0    0  0.12594672445E-01  0.18845172363E-02 -0.57502797701E-02  0.10299570656E+01  0.10298622792E+01 0.  0.
     999903    2    3    3    0    0 -0.74067677725E-02 -0.13162141972E+00 -0.10718684768E-01  0.13964892910E+00  0.44809316629E-01 0.  0.
         14    1    1    2    0    0 -0.12594672445E-01 -0.18845172363E-02  0.57502797701E-02  0.13972934432E-01  0.00000000000E+00 0.  1.
     999901    1    3    3    0    0  0.20001440218E-01  0.13350593696E+00  0.49684049979E-02  0.89030813647E+00  0.88000000000E+00 0. -1.
        -11    1    4    4    0    0  0.46879724046E-03 -0.11832964705E+00 -0.22196443780E-01  0.12039546661E+00  0.51100000000E-03 0. -1.
         11    1    4    4    0    0 -0.78755650130E-02 -0.13291772673E-01  0.11477759012E-01  0.19253462494E-01  0.51100000000E-03 0.  1.
</event>
<event>
 8    1  0.2001339E+004  0.1043930E+01  0.7957747E-01            NaN
         13   -1    0    0    0    0  0.00000000000E+00  0.00000000000E+00  0.74505805969E-08  0.10566000000E+00  0.10566000000E+00 0.  1.
     999900   -1    0    0    0    0 -0.00000000000E+00 -0.00000000000E+00 -0.74505805969E-08  0.93827000000E+00  0.93827000000E+00 0.  1.
     999902    2    1    2    0    0 -0.31115085467E-03 -0.36477747670E-03 -0.15005611917E-01  0.10289167303E+01  0.10288071927E+01 0.  0.
     999903    2    3    3    0    0  0.53358930493E-01 -0.81174065244E-01 -0.91101984617E-01  0.14032161636E+00  0.44206109130E-01 0.  0.
         14    1    1    2    0    0  0.31115085467E-03  0.36477747670E-03  0.15005611917E-01  0.15013269679E-01  0.00000000000E+00 0.  1.
     999901    1    3    3    0    0 -0.53670081347E-01  0.80809287767E-01  0.76096372701E-01  0.88859511396E+00  0.88000000000E+00 0. -1.
        -11    1    4    4    0    0  0.88434924947E-02 -0.53669938873E-01 -0.46774175190E-01  0.71740882932E-01  0.51100000000E-03 0. -1.
         11    1    4    4    0    0  0.44515437998E-01 -0.27504126371E-01 -0.44327809427E-01  0.68580733426E-01  0.51100000000E-03 0.  1.
</event>
<event>
 8    1  0.2289471E+004  0.1043930E+01  0.7957747E-01            NaN
         13   -1    0    0    0    0  0.00000000000E+00  0.00000000000E+00  0.74505805969E-08  0.10566000000E+00  0.10566000000E+00 0. -1.
     999900   -1    0    0    0    0 -0.00000000000E+00 -0.00000000000E+00 -0.74505805969E-08  0.93827000000E+00  0.93827000000E+00 0. -1.
     999902    2    1    2    0    0 -0.40904236867E-02 -0.35365653482E-02 -0.12561116306E-01  0.10302544560E+01  0.10301636878E+01 0.  0.
     999903    2    3    3    0    0  0.89601655492E-01 -0.89409978927E-01 -0.41969077381E-01  0.14063809093E+00  0.44666185919E-01 0.  0.
         14    1    1    2    0    0  0.40904236867E-02  0.35365653482E-02  0.12561116306E-01  0.13675543984E-01  0.00000000000E+00 0. -1.
     999901    1    3    3    0    0 -0.93692079179E-01  0.85873413579E-01  0.29407961075E-01  0.88961636509E+00  0.88000000000E+00 0.  1.
        -11    1    4    4    0    0  0.13821043893E-01 -0.40882408466E-01 -0.22077706800E-01  0.48477611686E-01  0.51100000000E-03 0. -1.
         11    1    4    4    0    0  0.75780611599E-01 -0.48527570461E-01 -0.19891370581E-01  0.92160479240E-01  0.51100000000E-03 0.  1.
</event>
<event>
 7    1  0.2001339E+004  0.1043930E+01  0.7957747E-01            NaN
         13   -1    0    0    0    0  0.00000000000E+00  0.00000000000E+00  0.74505805969E-08  0.10566000000E+00  0.10566000000E+00 0. -1.
     999900   -1    0    0    0    0 -0.00000000000E+00 -0.00000000000E+00 -0.74505805969E-08  0.93827000000E+00  0.93827000000E+00 0.  1.
     999903    2    1    2    0    0 -0.20658605065E-01  0.80796678265E-01  0.68394760904E-01  0.11803869261E+00  0.47962573453E-01 0.  0.
         14    1    1    2    0    0 -0.70272110202E-02 -0.19865358189E-01 -0.37254450666E-01  0.42800797249E-01  0.00000000000E+00 0.  1.
     999901    1    1    2    0    0  0.27685816085E-01 -0.60931320076E-01 -0.31140310238E-01  0.88309051014E+00  0.88000000000E+00 0.  1.
        -11    1    3    3    0    0 -0.12155128594E-01  0.60033567327E-01  0.19572034294E-01  0.64304758802E-01  0.51100000000E-03 0.  1.
         11    1    3    3    0    0 -0.85034764706E-02  0.20763110938E-01  0.48822726611E-01  0.53733933809E-01  0.51100000000E-03 0. -1.
</event>
<event>
 8    1  0.2082669E+004  0.1043930E+01  0.7957747E-01            NaN
         13   -1    0    0    0    0  0.00000000000E+00  0.00000000000E+00  0.74505805969E-08  0.10566000000E+00  0.10566000000E+00 0. -1.
     999900   -1    0    0    0    0 -0.00000000000E+00 -0.00000000000E+00 -0.74505805969E-08  0.93827000000E+00  0.93827000000E+00 0. -1.
     999902    2    1    2    0    0 -0.16630680154E-02  0.14347961905E-01  0.72895691791E-02  0.10277507656E+01  0.10276234080E+01 0.  0.
     999903    2    3    3    0    0  0.33687290634E-02 -0.51235605243E-01 -0.11814637784E+00  0.13642551631E+00  0.44910124968E-01 0.  0.
         14    1    1    2    0    0  0.16630680154E-02 -0.14347961905E-01 -0.72895691791E-02  0.16179234372E-01  0.00000000000E+00 0.  1.
     999901    1    3    3    0    0 -0.50317970789E-02  0.65583567147E-01  0.12543594702E+00  0.89132524931E+00  0.88000000000E+00 0.  1.
        -11    1    4    4    0    0 -0.12222236067E-01 -0.38984996796E-01 -0.45651028514E-01  0.61265737203E-01  0.51100000000E-03 0.  1.
         11    1    4    4    0    0  0.15590965130E-01 -0.12250608446E-01 -0.72495349326E-01  0.75159779110E-01  0.51100000000E-03 0. -1.
</event>
<event>
 8    1  0.2415656E+004  0.1043930E+01  0.7957747E-01            NaN
         13   -1    0    0    0    0  0.00000000000E+00  0.00000000000E+00  0.74505805969E-08  0.10566000000E+00  0.10566000000E+00 0.  1.
     999900   -1    0    0    0    0 -0.00000000000E+00 -0.00000000000E+00 -0.74505805969E-08  0.93827000000E+00  0.93827000000E+00 0.  1.
     999902    2    1    2    0    0 -0.10966271258E-01  0.18631726893E-02 -0.19364978923E-01  0.10215976708E+01  0.10213535471E+01 0.  0.
     999903    2    3    3    0    0 -0.35171632093E-01 -0.11962238025E+00 -0.83519990190E-02  0.13285365549E+00  0.45097453683E-01 0.  0.
         14    1    1    2    0    0  0.10966271258E-01 -0.18631726893E-02  0.19364978923E-01  0.22332329177E-01  0.00000000000E+00 0.  1.
     999901    1    3    3    0    0  0.24205360835E-01  0.12148555294E+00 -0.11012979904E-01  0.88874401533E+00  0.88000000000E+00 0.  1.
        -11    1    4    4    0    0  0.69191816421E-02 -0.42433848153E-01  0.71188750626E-02  0.43582634694E-01  0.51100000000E-03 0. -1.
         11    1    4    4    0    0 -0.42090813735E-01 -0.77188532096E-01 -0.15470874082E-01  0.89271020795E-01  0.51100000000E-03 0.  1.
</event>
<event>
 8    1  0.2001339E+004  0.1043930E+01  0.7957747E-01            NaN
         13   -1    0    0    0    0  0.00000000000E+00  0.00000000000E+00  0.74505805969E-08  0.10566000000E+00  0.10566000000E+00 0. -1.
     999900   -1    0    0    0    0 -0.00000000000E+00 -0.00000000000E+00 -0.74505805969E-08  0.93827000000E+00  0.93827000000E+00 0. -1.
     999902    2    1    2    0    0 -0.49009079489E-02 -0.11109059972E-01 -0.60852376525E-02  0.10303483863E+01  0.10302588689E+01 0.  0.
     999903    2    3    3    0    0  0.10397043253E+00  0.73787354006E-01 -0.32985086112E-01  0.13917838476E+00  0.45035346396E-01 0.  0.
         14    1    1    2    0    0  0.49009079489E-02  0.11109059972E-01  0.60852376525E-02  0.13581613655E-01  0.00000000000E+00 0.  1.
     999901    1    3    3    0    0 -0.10887134048E+00 -0.84896413978E-01  0.26899848460E-01  0.89117000159E+00  0.88000000000E+00 0. -1.
        -11    1    4    4    0    0  0.48620777150E-01  0.41688270178E-01 -0.38873709573E-01  0.74922081245E-01  0.51100000000E-03 0.  1.
         11    1    4    4    0    0  0.55349655383E-01  0.32099083828E-01  0.58886234606E-02  0.64256303511E-01  0.51100000000E-03 0. -1.
</event>
<event>
 8    1  0.2001339E+004  0.1043930E+01  0.7957747E-01            NaN
         13   -1    0    0    0    0  0.00000000000E+00  0.00000000000E+00  0.74505805969E-08  0.10566000000E+00  0.10566000000E+00 0. -1.
     999900   -1    0    0    0    0 -0.00000000000E+00 -0.00000000000E+00 -0.74505805969E-08  0.93827000000E+00  0.93827000000E+00 0.  1.
     999902    2    1    2    0    0 -0.50434729770E-02 -0.80588907418E-02 -0.11091311857E-01  0.10293217989E+01  0.10292181335E+01 0.  0.
     999903    2    3    3    0    0  0.11272562696E+00  0.65678710767E-01  0.58415373643E-02  0.13825866079E+00  0.45393542542E-01 0.  0.
         14    1    1    2    0    0  0.50434729770E-02  0.80588907418E-02  0.11091311857E-01  0.14608201065E-01  0.00000000000E+00 0. -1.
     999901    1    3    3    0    0 -0.11776909993E+00 -0.73737601509E-01 -0.16932849221E-01  0.89106313814E+00  0.88000000000E+00 0.  1.
        -11    1    4    4    0    0  0.41031212002E-01  0.72925626575E-02 -0.13472091171E-01  0.43800687095E-01  0.51100000000E-03 0.  1.
         11    1    4    4    0    0  0.71694414953E-01  0.58386148109E-01  0.19313628536E-01  0.94457973696E-01  0.51100000000E-03 0. -1.
</event>
<event>
 8    1  0.2001339E+004  0.1043930E+01  0.7957747E-01            NaN
         13   -1    0    0    0    0  0.00000000000E+00  0.00000000000E+00  0.74505805969E-08  0.10566000000E+00  0.10566000000E+00 0. -1.
     999900   -1    0    0    0    0 -0.00000000000E+00 -0.00000000000E+00 -0.74505805969E-08  0.93827000000E+00  0.93827000000E+00 0.  1.
     999902    2    1    2    0    0 -0.12053702321E-01 -0.69530720793E-02 -0.25678946557E-02  0.10297796985E+01  0.10296824735E+01 0.  0.
     999903    2    3    3    0    0 -0.90845333848E-01  0.81626489141E-01 -0.51774364665E-01  0.14046775287E+00  0.46204397495E-01 0.  0.
         14    1    1    2    0    0  0.12053702321E-01  0.69530720793E-02  0.25678946557E-02  0.14150301549E-01  0.00000000000E+00 0.  1.
     999901    1    3    3    0    0  0.78791631528E-01 -0.88579561221E-01  0.49206470009E-01  0.88931194558E+00  0.88000000000E+00 0.  1.
        -11    1    4    4    0    0 -0.60867789184E-02 -0.26678843174E-02  0.48023026627E-02  0.82152124864E-02  0.51100000000E-03 0. -1.
         11    1    4    4    0    0 -0.84758554930E-01  0.84294373459E-01 -0.56576667327E-01  0.13225254038E+00  0.51100000000E-03 0.  1.
</event>
<event>
 8    1  0.2001339E+004  0.1043930E+01  0.7957747E-01            NaN
         13   -1    0    0    0    0  0.00000000000E+00  0.00000000000E+00  0.74505805969E-08  0.10566000000E+00  0.10566000000E+00 0. -1.
     999900   -1    0    0    0    0 -0.00000000000E+00 -0.00000000000E+00 -0.74505805969E-08  0.93827000000E+00  0.93827000000E+00 0. -1.
     999902    2    1    2    0    0  0.95718971376E-02  0.46181621563E-02 -0.92225573784E-02  0.10298586034E+01  0.10297624672E+01 0.  0.
     999903    2    3    3    0    0 -0.85389016425E-01 -0.33152128046E-01 -0.95474279117E-01  0.13975550299E+00  0.45010164671E-01 0.  0.
         14    1    1    2    0    0 -0.95718971376E-02 -0.46181621563E-02  0.92225573784E-02  0.14071396559E-01  0.00000000000E+00 0. -1.
     999901    1    3    3    0    0  0.94960913562E-01  0.37770290202E-01  0.86251721738E-01  0.89010310045E+00  0.88000000000E+00 0.  1.
        -11    1    4    4    0    0 -0.59028737540E-01 -0.43922377153E-01 -0.69127215553E-01  0.10095741737E+00  0.51100000000E-03 0.  1.
         11    1    4    4    0    0 -0.26360278884E-01  0.10770249107E-01 -0.26347063564E-01  0.38798085624E-01  0.51100000000E-03 0. -1.
</event>
<event>
 8    1  0.2001339E+004  0.1043930E+01  0.7957747E-01            NaN
         13   -1    0    0    0    0  0.00000000000E+00  0.00000000000E+00  0.74505805969E-08  0.10566000000E+00  0.10566000000E+00 0. -1.
     999900   -1    0    0    0    0 -0.00000000000E+00 -0.00000000000E+00 -0.74505805969E-08  0.93827000000E+00  0.93827000000E+00 0. -1.
     999902    2    1    2    0    0 -0.11375813055E-01  0.55963179609E-02 -0.84824976280E-02  0.10286761263E+01  0.10285630229E+01 0.  0.
     999903    2    3    3    0    0 -0.49330864284E-01 -0.68996259343E-01  0.99195972143E-01  0.13817104974E+00  0.45358352277E-01 0.  0.
         14    1    1    2    0    0  0.11375813055E-01 -0.55963179609E-02  0.84824976280E-02  0.15253873718E-01  0.00000000000E+00 0. -1.
     999901    1    3    3    0    0  0.37955051229E-01  0.74592577304E-01 -0.10767846977E+00  0.89050507655E+00  0.88000000000E+00 0. -1.
        -11    1    4    4    0    0 -0.18469678593E-01 -0.53408194001E-01  0.38714723729E-01  0.68502957368E-01  0.51100000000E-03 0.  1.
         11    1    4    4    0    0 -0.30861185691E-01 -0.15588065342E-01  0.60481248414E-01  0.69668092367E-01  0.51100000000E-03 0. -1.
</event>
<event>
 8    1  0.2001339E+004  0.1043930E+01  0.7957747E-01            NaN
         13   -1    0    0    0    0  0.00000000000E+00  0.00000000000E+00  0.74505805969E-08  0.10566000000E+00  0.10566000000E+00 0. -1.
     999900   -1    0    0    0    0 -0.00000000000E+00 -0.00000000000E+00 -0.74505805969E-08  0.93827000000E+00  0.93827000000E+00 0. -1.
     999902    2    1    2    0    0 -0.70418879704E-02  0.27813474145E-02 -0.11962131864E-01  0.10297731402E+01  0.10296758246E+01 0.  0.
     999903    2    3    3    0    0 -0.93525088714E-01 -0.40706255799E-01  0.83710039363E-01  0.13931051890E+00  0.44677830148E-01 0.  0.
         14    1    1    2    0    0  0.70418879704E-02 -0.27813474145E-02  0.11962131864E-01  0.14156859764E-01  0.00000000000E+00 0. -1.
     999901    1    3    3    0    0  0.86483200743E-01  0.43487603214E-01 -0.95672171228E-01  0.89046262133E+00  0.88000000000E+00 0. -1.
        -11    1    4    4    0    0 -0.12708176989E-01 -0.19794107596E-01  0.36441612737E-01  0.43376914572E-01  0.51100000000E-03 0. -1.
         11    1    4    4    0    0 -0.80816911725E-01 -0.20912148204E-01  0.47268426626E-01  0.95933604331E-01  0.51100000000E-03 0.  1.
</event>
<event>
 8    1  0.2001339E+004  0.1043930E+01  0.7957747E-01            NaN
         13   -1    0    0    0    0  0.00000000000E+00  0.00000000000E+00  0.74505805969E-08  0.10566000000E+00  0.10566000000E+00 0. -1.
     999900   -1    0    0    0    0 -0.00000000000E+00 -0.00000000000E+00 -0.74505805969E-08  0.93827000000E+00  0.93827000000E+00 0. -1.
     999902    2    1    2    0    0  0.14161006691E-01  0.21835090919E-02  0.59656304790E-02  0.10284093502E+01  0.10282922255E+01 0.  0.
     999903    2    3    3    0    0 -0.22025479341E-01 -0.11179227475E+00 -0.63211662417E-01  0.13763135379E+00  0.44317500466E-01 0.  0.
         14    1    1    2    0    0 -0.14161006691E-01 -0.21835090919E-02 -0.59656304790E-02  0.15520649776E-01  0.00000000000E+00 0.  1.
     999901    1    3    3    0    0  0.36186486032E-01  0.11397578384E+00  0.69177292896E-01  0.89077799643E+00  0.88000000000E+00 0.  1.
        -11    1    4    4    0    0 -0.23509004041E-01 -0.95796281143E-01 -0.34082731051E-01  0.10436232284E+00  0.51100000000E-03 0.  1.
         11    1    4    4    0    0  0.14835246998E-02 -0.15995993606E-01 -0.29128931366E-01  0.33269030952E-01  0.51100000000E-03 0. -1.
</event>
<event>
 8    1  0.2001339E+004  0.1043930E+01  0.7957747E-01            NaN
         13   -1    0    0    0    0  0.00000000000E+00  0.00000000000E+00  0.74505805969E-08  0.10566000000E+00  0.10566000000E+00 0. -1.
     999900   -1    0    0    0    0 -0.00000000000E+00 -0.00000000000E+00 -0.74505805969E-08  0.93827000000E+00  0.93827000000E+00 0. -1.
     999902    2    1    2    0    0 -0.40668741145E-02 -0.12597200973E-01 -0.21445963914E-02  0.10305199951E+01  0.10304327402E+01 0.  0.
     999903    2    3    3    0    0 -0.12189633443E+00  0.42830157947E-01  0.28327428983E-01  0.14041633926E+00  0.47129251228E-01 0.  0.
         14    1    1    2    0    0  0.40668741145E-02  0.12597200973E-01  0.21445963914E-02  0.13410004888E-01  0.00000000000E+00 0.  1.
     999901    1    3    3    0    0  0.11782946031E+00 -0.55427358919E-01 -0.30472025375E-01  0.89010365585E+00  0.88000000000E+00 0.  1.
        -11    1    4    4    0    0 -0.79516554163E-01  0.50658729068E-01  0.22427164955E-01  0.96914540012E-01  0.51100000000E-03 0. -1.
         11    1    4    4    0    0 -0.42379780265E-01 -0.78285711215E-02  0.59002640280E-02  0.43501799247E-01  0.51100000000E-03 0.  1.
</event>
<event>
 8    1  0.2001339E+004  0.1043930E+01  0.7957747E-01            NaN
         13   -1    0    0    0    0  0.00000000000E+00  0.00000000000E+00  0.74505805969E-08  0.10566000000E+00  0.10566000000E+00 0. -1.
     999900   -1    0    0    0    0 -0.00000000000E+00 -0.00000000000E+00 -0.74505805969E-08  0.93827000000E+00  0.93827000000E+00 0.  1.
     999902    2    1    2    0    0 -0.32097521875E-02 -0.99868323906E-02 -0.11206212599E-01  0.10285801293E+01  0.10284655871E+01 0.  0.
     999903    2    3    3    0    0 -0.12597844464E+00 -0.15235351835E-01 -0.36632883985E-01  0.13967843932E+00  0.45446823459E-01 0.  0.
         14    1    1    2    0    0  0.32097521875E-02  0.99868323906E-02  0.11206212599E-01  0.15349870720E-01  0.00000000000E+00 0. -1.
     999901    1    3    3    0    0  0.12276869245E+00  0.52485194442E-02  0.25426671385E-01  0.88890168996E+00  0.88000000000E+00 0. -1.
        -11    1    4    4    0    0 -0.46721896553E-01 -0.42364133410E-02 -0.36854023411E-01  0.59660397066E-01  0.51100000000E-03 0.  1.
         11    1    4    4    0    0 -0.79256548083E-01 -0.10998938494E-01  0.22113942603E-03  0.80018042251E-01  0.51100000000E-03 0. -1.
</event>
<event>
 8    1  0.2001339E+004  0.1043930E+01  0.7957747E-01            NaN
         13   -1    0    0    0    0  0.00000000000E+00  0.00000000000E+00  0.74505805969E-08  0.10566000000E+00  0.10566000000E+00 0.  1.
     999900   -1    0    0    0    0 -0.00000000000E+00 -0.00000000000E+00 -0.74505805969E-08  0.93827000000E+00  0.93827000000E+00 0. -1.
     999902    2    1    2    0    0  0.19353291517E-02  0.80716053897E-02 -0.83162294433E-02  0.10321802773E+01  0.10321133992E+01 0.  0.
     999903    2    3    3    0    0 -0.11802096292E+00 -0.43871618603E-01 -0.43411990394E-01  0.14183241099E+00  0.48766436084E-01 0.  0.
         14    1    1    2    0    0 -0.19353291517E-02 -0.80716053897E-02  0.83162294433E-02  0.11749722748E-01  0.00000000000E+00 0.  1.
     999901    1    3    3    0    0  0.11995629207E+00  0.51943223993E-01  0.35095760950E-01  0.89034786627E+00  0.88000000000E+00 0. -1.
        -11    1    4    4    0    0 -0.88882729133E-01 -0.46730396301E-01 -0.49448186452E-01  0.11193414913E+00  0.51100000000E-03 0. -1.
         11    1    4    4    0    0 -0.29138233790E-01  0.28587776979E-02  0.60361960589E-02  0.29898261859E-01  0.51100000000E-03 0.  1.
</event>
<event>
 8    1  0.2001339E+004  0.1043930E+01  0.7957747E-01            NaN
         13   -1    0    0    0    0  0.00000000000E+00  0.00000000000E+00  0.74505805969E-08  0.10566000000E+00  0.10566000000E+00 0. -1.
     999900   -1    0    0    0    0 -0.00000000000E+00 -0.00000000000E+00 -0.74505805969E-08  0.93827000000E+00  0.93827000000E+00 0. -1.
     999902    2    1    2    0    0 -0.93214364344E-03 -0.18223412560E-02 -0.13803516777E-01  0.10299755421E+01  0.10298810079E+01 0.  0.
     999903    2    3    3    0    0  0.98011150438E-01  0.39825917481E-01  0.76056253896E-01  0.13890925318E+00  0.48155348073E-01 0.  0.
         14    1    1    2    0    0  0.93214364344E-03  0.18223412560E-02  0.13803516777E-01  0.13954457884E-01  0.00000000000E+00 0. -1.
     999901    1    3    3    0    0 -0.98943294082E-01 -0.41648258737E-01 -0.89859770672E-01  0.89106628894E+00  0.88000000000E+00 0. -1.
        -11    1    4    4    0    0  0.68234272753E-01  0.18587723136E-01  0.22811271641E-01  0.74310394053E-01  0.51100000000E-03 0. -1.
         11    1    4    4    0    0  0.29776877686E-01  0.21238194345E-01  0.53244982255E-01  0.64598859123E-01  0.51100000000E-03 0.  1.
</event>
<event>
 8    1  0.2001339E+004  0.1043930E+01  0.7957747E-01            NaN
         13   -1    0    0    0    0  0.00000000000E+00  0.00000000000E+00  0.74505805969E-08  0.10566000000E+00  0.10566000000E+00 0. -1.
     999900   -1    0    0    0    0 -0.00000000000E+00 -0.00000000000E+00 -0.74505805969E-08  0.93827000000E+00  0.93827000000E+00 0.  1.
     999902    2    1    2    0    0 -0.63030569618E-02  0.45587682606E-02  0.11309322133E-01  0.10302036872E+01  0.10301122393E+01 0.  0.
     999903    2    3    3    0    0  0.32828532924E-01  0.96813590480E-01 -0.83460980039E-01  0.13946037756E+00  0.45087446642E-01 0.  0.
         14    1    1    2    0    0  0.63030569618E-02 -0.45587682606E-02 -0.11309322133E-01  0.13726312768E-01  0.00000000000E+00 0.  1.
     999901    1    3    3    0    0 -0.39131589885E-01 -0.92254822220E-01  0.94770302172E-01  0.89074330967E+00  0.88000000000E+00 0.  1.
        -11    1    4    4    0    0  0.23736707211E-01  0.21970956734E-01 -0.91913230213E-02  0.33628793450E-01  0.51100000000E-03 0.  1.
         11    1    4    4    0    0  0.90918257127E-02  0.74842633746E-01 -0.74269657018E-01  0.10583158411E+00  0.51100000000E-03 0. -1.
</event>
<event>
 7    1  0.2001339E+004  0.1043930E+01  0.7957747E-01            NaN
         13   -1    0    0    0    0  0.00000000000E+00  0.00000000000E+00  0.74505805969E-08  0.10566000000E+00  0.10566000000E+00 0. -1.
     999900   -1    0    0    0    0 -0.00000000000E+00 -0.00000000000E+00 -0.74505805969E-08  0.93827000000E+00  0.93827000000E+00 0. -1.
     999903    2    1    2    0    0  0.56664553895E-01  0.20711916473E-01 -0.44698484874E-01  0.87527775215E-01  0.44981126397E-01 0.  0.
         14    1    1    2    0    0  0.24748965511E-01 -0.75351897647E-02 -0.60989477382E-01  0.66249579092E-01  0.00000000000E+00 0.  1.
     999901    1    1    2    0    0 -0.81413519406E-01 -0.13176726708E-01  0.10568796226E+00  0.89015264569E+00  0.88000000000E+00 0.  1.
        -11    1    3    3    0    0  0.19450906936E-01 -0.97906539824E-02 -0.30267736785E-01  0.37290638197E-01  0.51100000000E-03 0. -1.
         11    1    3    3    0    0  0.37213646958E-01  0.30502570455E-01 -0.14430748089E-01  0.50237137018E-01  0.51100000000E-03 0.  1.
</event>
<event>
 8    1  0.2001339E+004  0.1043930E+01  0.7957747E-01            NaN
         13   -1    0    0    0    0  0.00000000000E+00  0.00000000000E+00  0.74505805969E-08  0.10566000000E+00  0.10566000000E+00 0.  1.
     999900   -1    0    0    0    0 -0.00000000000E+00 -0.00000000000E+00 -0.74505805969E-08  0.93827000000E+00  0.93827000000E+00 0.  1.
     999902    2    1    2    0    0 -0.81914233671E-02  0.87121456028E-02  0.31591991276E-03  0.10319675294E+01  0.10318981931E+01 0.  0.
     999903    2    3    3    0    0 -0.13582094046E-01  0.69594004574E-02 -0.13367349132E+00  0.14180726642E+00  0.44808391996E-01 0.  0.
         14    1    1    2    0    0  0.81914233671E-02 -0.87121456028E-02 -0.31591991276E-03  0.11962470613E-01  0.00000000000E+00 0. -1.
     999901    1    3    3    0    0  0.53906706786E-02  0.17527451454E-02  0.13398941123E+00  0.89016026297E+00  0.88000000000E+00 0. -1.
        -11    1    4    4    0    0 -0.54536563430E-02  0.21058257243E-01 -0.31139001157E-01  0.37988038639E-01  0.51100000000E-03 0.  1.
         11    1    4    4    0    0 -0.81284377027E-02 -0.14098856785E-01 -0.10253449016E+00  0.10381922778E+00  0.51100000000E-03 0. -1.
</event>
<event>
 8    1  0.2001339E+004  0.1043930E+01  0.7957747E-01            NaN
         13   -1    0    0    0    0  0.00000000000E+00  0.00000000000E+00  0.74505805969E-08  0.10566000000E+00  0.10566000000E+00 0. -1.
     999900   -1    0    0    0    0 -0.00000000000E+00 -0.00000000000E+00 -0.74505805969E-08  0.93827000000E+00  0.93827000000E+00 0. -1.
     999902    2    1    2    0    0 -0.81236158212E-02 -0.80844769086E-02 -0.90731672216E-02  0.10293123988E+01  0.10292085989E+01 0.  0.
     999903    2    3    3    0    0 -0.51169428169E-02  0.82023994073E-01  0.10072302314E+00  0.13791810893E+00  0.46066893473E-01 0.  0.
         14    1    1    2    0    0  0.81236158212E-02  0.80844769086E-02  0.90731672216E-02  0.14617601182E-01  0.00000000000E+00 0. -1.
     999901    1    3    3    0    0 -0.30066730043E-02 -0.90108470982E-01 -0.10979619036E+00  0.89139428989E+00  0.88000000000E+00 0. -1.
        -11    1    4    4    0    0  0.10565419017E-01  0.52075248925E-01  0.85886125885E-01  0.10099577897E+00  0.51100000000E-03 0. -1.
         11    1    4    4    0    0 -0.15682361834E-01  0.29948745148E-01  0.14836897250E-01  0.36922329959E-01  0.51100000000E-03 0.  1.
</event>
<event>
 8    1  0.2001339E+004  0.1043930E+01  0.7957747E-01            NaN
         13   -1    0    0    0    0  0.00000000000E+00  0.00000000000E+00  0.74505805969E-08  0.10566000000E+00  0.10566000000E+00 0. -1.
     999900   -1    0    0    0    0 -0.00000000000E+00 -0.00000000000E+00 -0.74505805969E-08  0.93827000000E+00  0.93827000000E+00 0. -1.
     999902    2    1    2    0    0 -0.55940713697E-02 -0.13782335981E-01 -0.30467863512E-02  0.10287468078E+01  0.10286347579E+01 0.  0.
     999903    2    3    3    0    0 -0.12389510537E+00  0.34032554392E-01  0.28598426541E-01  0.13898121060E+00  0.44605997432E-01 0.  0.
         14    1    1    2    0    0  0.55940713697E-02  0.13782335981E-01  0.30467863512E-02  0.15183192242E-01  0.00000000000E+00 0. -1.
     999901    1    3    3    0    0  0.11830103400E+00 -0.47814890373E-01 -0.31645212892E-01  0.88976559716E+00  0.88000000000E+00 0.  1.
        -11    1    4    4    0    0 -0.23825378537E-01  0.94400953454E-03 -0.11160956886E-01  0.26331879843E-01  0.51100000000E-03 0. -1.
         11    1    4    4    0    0 -0.10006972683E+00  0.33088544858E-01  0.39759383427E-01  0.11264933076E+00  0.51100000000E-03 0.  1.
</event>
<event>
 8    1  0.2001339E+004  0.1043930E+01  0.7957747E-01            NaN
         13   -1    0    0    0    0  0.00000000000E+00  0.00000000000E+00  0.74505805969E-08  0.10566000000E+00  0.10566000000E+00 0.  1.
     999900   -1    0    0    0    0 -0.00000000000E+00 -0.00000000000E+00 -0.74505805969E-08  0.93827000000E+00  0.93827000000E+00 0.  1.
     999902    2    1    2    0    0 -0.47595409927E-02  0.79643405002E-02 -0.78600650813E-02  0.10317700422E+01  0.10316983840E+01 0.  0.
     999903    2    3    3    0    0 -0.30192438072E-01  0.12815433194E+00  0.33362262321E-01  0.14228044331E+00  0.42374141773E-01 0.  0.
         14    1    1    2    0    0  0.47595409927E-02 -0.79643405002E-02  0.78600650813E-02  0.12159957777E-01  0.00000000000E+00 0.  1.
     999901    1    3    3    0    0  0.25432897080E-01 -0.12018999144E+00 -0.41222327402E-01  0.88948959891E+00  0.88000000000E+00 0. -1.
        -11    1    4    4    0    0 -0.24341975148E-01  0.69311441909E-01  0.38467289061E-01  0.82925274689E-01  0.51100000000E-03 0.  1.
         11    1    4    4    0    0 -0.58504629249E-02  0.58842890027E-01 -0.51050267399E-02  0.59355168622E-01  0.51100000000E-03 0. -1.
</event>
<event>
 8    1  0.2001339E+004  0.1043930E+01  0.7957747E-01            NaN
         13   -1    0    0    0    0  0.00000000000E+00  0.00000000000E+00  0.74505805969E-08  0.10566000000E+00  0.10566000000E+00 0.  1.
     999900   -1    0    0    0    0 -0.00000000000E+00 -0.00000000000E+00 -0.74505805969E-08  0.93827000000E+00  0.93827000000E+00 0.  1.
     999902    2    1    2    0    0  0.10153337569E-01  0.77023630875E-02 -0.12944823583E-02  0.10311201465E+01  0.10310405735E+01 0.  0.
     999903    2    3    3    0    0  0.94888588321E-02  0.13401980991E+00 -0.16324292494E-01  0.14197312041E+00  0.42878158805E-01 0.  0.
         14    1    1    2    0    0 -0.10153337569E-01 -0.77023630875E-02  0.12944823583E-02  0.12809853453E-01  0.00000000000E+00 0. -1.
     999901    1    3    3    0    0  0.66447873640E-03 -0.12631744682E+00  0.15029810135E-01  0.88914702614E+00  0.88000000000E+00 0. -1.
        -11    1    4    4    0    0  0.17406010212E-01  0.56386991252E-01 -0.23683893187E-01  0.63589699571E-01  0.51100000000E-03 0. -1.
         11    1    4    4    0    0 -0.79171513799E-02  0.77632818656E-01  0.73596006931E-02  0.78383420835E-01  0.51100000000E-03 0.  1.
</event>
<event>
 8    1  0.2001339E+004  0.1043930E+01  0.7957747E-01            NaN
         13   -1    0    0    0    0  0.00000000000E+00  0.00000000000E+00  0.74505805969E-08  0.10566000000E+00  0.10566000000E+00 0. -1.
     999900   -1    0    0    0    0 -0.00000000000E+00 -0.00000000000E+00 -0.74505805969E-08  0.93827000000E+00  0.93827000000E+00 0. -1.
     999902    2    1    2    0    0  0.11724392706E-02  0.93927468222E-02 -0.97178787071E-02  0.10303640325E+01  0.10302747226E+01 0.  0.
     999903    2    3    3    0    0 -0.79673583251E-01  0.10608542026E+00 -0.17689020286E-01  0.14134823315E+00  0.45435947403E-01 0.  0.
         14    1    1    2    0    0 -0.11724392706E-02 -0.93927468222E-02  0.97178787071E-02  0.13565967466E-01  0.00000000000E+00 0. -1.
     999901    1    3    3    0    0  0.80846022521E-01 -0.96692673439E-01  0.79711415791E-02  0.88901579938E+00  0.88000000000E+00 0.  1.
        -11    1    4    4    0    0 -0.64313955056E-01  0.82632045697E-01  0.56525040596E-02  0.10486444447E+00  0.51100000000E-03 0.  1.
         11    1    4    4    0    0 -0.15359628195E-01  0.23453374564E-01 -0.23341524346E-01  0.36483788681E-01  0.51100000000E-03 0. -1.
</event>
<event>
 8    1  0.2001339E+004  0.1043930E+01  0.7957747E-01            NaN
         13   -1    0    0    0    0  0.00000000000E+00  0.00000000000E+00  0.74505805969E-08  0.10566000000E+00  0.10566000000E+00 0. -1.
     999900   -1    0    0    0    0 -0.00000000000E+00 -0.00000000000E+00 -0.74505805969E-08  0.93827000000E+00  0.93827000000E+00 0.  1.
     999902    2    1    2    0    0  0.76182562964E-02  0.98265883548E-02 -0.12446027024E-01  0.10263372954E+01  0.10261865038E+01 0.  0.
     999903    2    3    3    0    0  0.97641416185E-01 -0.12139349020E-01  0.80511180619E-01  0.13660266404E+00  0.49970267857E-01 0.  0.
         14    1    1    2    0    0 -0.76182562964E-02 -0.98265883548E-02  0.12446027024E-01  0.17592704635E-01  0.00000000000E+00 0.  1.
     999901    1    3    3    0    0 -0.90023159889E-01  0.21965937374E-01 -0.92957207643E-01  0.88973463132E+00  0.88000000000E+00 0.  1.
        -11    1    4    4    0    0  0.28787966711E-01 -0.20395211040E-01  0.49122310137E-01  0.60481188273E-01  0.51100000000E-03 0.  1.
         11    1    4    4    0    0  0.68853449474E-01  0.82558620207E-02  0.31388870482E-01  0.76121475770E-01  0.51100000000E-03 0. -1.
</event>
<event>
 8    1  0.2001339E+004  0.1043930E+01  0.7957747E-01            NaN
         13   -1    0    0    0    0  0.00000000000E+00  0.00000000000E+00  0.74505805969E-08  0.10566000000E+00  0.10566000000E+00 0.  1.
     999900   -1    0    0    0    0 -0.00000000000E+00 -0.00000000000E+00 -0.74505805969E-08  0.93827000000E+00  0.93827000000E+00 0.  1.
     999902    2    1    2    0    0 -0.13802107928E-01  0.18269610467E-02  0.18846795556E-02  0.10298805165E+01  0.10297846815E+01 0.  0.
     999903    2    3    3    0    0  0.12077619215E+00 -0.37822381533E-01  0.32793339943E-01  0.13823107051E+00  0.44888802338E-01 0.  0.
         14    1    1    2    0    0  0.13802107928E-01 -0.18269610467E-02 -0.18846795556E-02  0.14049483511E-01  0.00000000000E+00 0.  1.
     999901    1    3    3    0    0 -0.13457830008E+00  0.39649342580E-01 -0.30908660387E-01  0.89164944597E+00  0.88000000000E+00 0. -1.
        -11    1    4    4    0    0  0.74692940499E-01 -0.94632141683E-02  0.65569805803E-03  0.75294613644E-01  0.51100000000E-03 0. -1.
         11    1    4    4    0    0  0.46083251653E-01 -0.28359167365E-01  0.32137641885E-01  0.62936456871E-01  0.51100000000E-03 0.  1.
</event>
<event>
 8    1  0.2001339E+004  0.1043930E+01  0.7957747E-01            NaN
         13   -1    0    0    0    0  0.00000000000E+00  0.00000000000E+00  0.74505805969E-08  0.10566000000E+00  0.10566000000E+00 0. -1.
     999900   -1    0    0    0    0 -0.00000000000E+00 -0.00000000000E+00 -0.74505805969E-08  0.93827000000E+00  0.93827000000E+00 0. -1.
     999902    2    1    2    0    0  0.53535299614E-03  0.51255142501E-02  0.12300954007E-01  0.10305931725E+01  0.10305068734E+01 0.  0.
     999903    2    3    3    0    0 -0.29667246457E-01  0.12952663133E+00 -0.13207932988E-01  0.14096485780E+00  0.45159139750E-01 0.  0.
         14    1    1    2    0    0 -0.53535299614E-03 -0.51255142501E-02 -0.12300954007E-01  0.13336827533E-01  0.00000000000E+00 0.  1.
     999901    1    3    3    0    0  0.30202599453E-01 -0.12440111708E+00  0.25508886995E-01  0.88962831467E+00  0.88000000000E+00 0.  1.
        -11    1    4    4    0    0  0.15403208876E-02  0.66428641046E-01 -0.22060846248E-01  0.70014848410E-01  0.51100000000E-03 0. -1.
         11    1    4    4    0    0 -0.31207567344E-01  0.63097990289E-01  0.88529132597E-02  0.70950009388E-01  0.51100000000E-03 0.  1.
</event>
<event>
 8    1  0.2001339E+004  0.1043930E+01  0.7957747E-01            NaN
         13   -1    0    0    0    0  0.00000000000E+00  0.00000000000E+00  0.74505805969E-08  0.10566000000E+00  0.10566000000E+00 0.  1.
     999900   -1    0    0    0    0 -0.00000000000E+00 -0.00000000000E+00 -0.74505805969E-08  0.93827000000E+00  0.93827000000E+00 0.  1.
     999902    2    1    2    0    0 -0.10567730071E-01  0.12264618666E-01  0.75188081525E-03  0.10277231152E+01  0.10275953184E+01 0.  0.
     999903    2    3    3    0    0 -0.83835172024E-01  0.33603928413E-01  0.97098941102E-01  0.13918147847E+00  0.42257774588E-01 0.  0.
         14    1    1    2    0    0  0.10567730071E-01 -0.12264618666E-01 -0.75188081525E-03  0.16206884791E-01  0.00000000000E+00 0. -1.
     999901    1    3    3    0    0  0.73267441953E-01 -0.21339309747E-01 -0.96347060286E-01  0.88854163674E+00  0.88000000000E+00 0.  1.
        -11    1    4    4    0    0 -0.55838721156E-01  0.34963861172E-01  0.44272509975E-01  0.79377267709E-01  0.51100000000E-03 0.  1.
         11    1    4    4    0    0 -0.27996450868E-01 -0.13599327587E-02  0.52826431127E-01  0.59804210762E-01  0.51100000000E-03 0. -1.
</event>
<event>
 8    1  0.2001339E+004  0.1043930E+01  0.7957747E-01            NaN
         13   -1    0    0    0    0  0.00000000000E+00  0.00000000000E+00  0.74505805969E-08  0.10566000000E+00  0.10566000000E+00 0. -1.
     999900   -1    0    0    0    0 -0.00000000000E+00 -0.00000000000E+00 -0.74505805969E-08  0.93827000000E+00  0.93827000000E+00 0. -1.
     999902    2    1    2    0    0 -0.33903079050E-02 -0.11602611036E-01  0.68765614215E-02  0.10300231000E+01  0.10299292134E+01 0.  0.
     999903    2    3    3    0    0 -0.34249822029E-01  0.27202284788E-01  0.12567385037E+00  0.14065763777E+00  0.45581134152E-01 0.  0.
         14    1    1    2    0    0  0.33903079050E-02  0.11602611036E-01 -0.68765614215E-02  0.13906899997E-01  0.00000000000E+00 0.  1.
     999901    1    3    3    0    0  0.30859514123E-01 -0.38804895824E-01 -0.11879728894E+00  0.88936546223E+00  0.88000000000E+00 0. -1.
        -11    1    4    4    0    0 -0.41299282456E-01  0.26924721960E-01  0.76726984224E-01  0.91202316929E-01  0.51100000000E-03 0.  1.
         11    1    4    4    0    0  0.70494604279E-02  0.27756282846E-03  0.48946866142E-01  0.49455320842E-01  0.51100000000E-03 0. -1.
</event>
<event>
 8    1  0.2001339E+004  0.1043930E+01  0.7957747E-01            NaN
         13   -1    0    0    0    0  0.00000000000E+00  0.00000000000E+00  0.74505805969E-08  0.10566000000E+00  0.10566000000E+00 0.  1.
     999900   -1    0    0    0    0 -0.00000000000E+00 -0.00000000000E+00 -0.74505805969E-08  0.93827000000E+00  0.93827000000E+00 0.  1.
     999902    2    1    2    0    0 -0.12607621879E-01  0.38593165629E-02 -0.68775579334E-02  0.10290589793E+01  0.10289515225E+01 0.  0.
     999903    2    3    3    0    0 -0.12562508833E+00 -0.42155728683E-01 -0.15363153910E-01  0.14059832318E+00  0.44419519414E-01 0.  0.
         14    1    1    2    0    0  0.12607621879E-01 -0.38593165629E-02  0.68775579334E-02  0.14871020708E-01  0.00000000000E+00 0.  1.
     999901    1    3    3    0    0  0.11301746645E+00  0.46015045246E-01  0.84855959769E-02  0.88846065611E+00  0.88000000000E+00 0.  1.
        -11    1    4    4    0    0 -0.97764775290E-01 -0.31022827532E-01  0.75442393183E-02  0.10284718656E+00  0.51100000000E-03 0. -1.
         11    1    4    4    0    0 -0.27860313041E-01 -0.11132901151E-01 -0.22907393229E-01  0.37751136623E-01  0.51100000000E-03 0.  1.
</event>
<event>
 8    1  0.2001339E+004  0.1043930E+01  0.7957747E-01            NaN
         13   -1    0    0    0    0  0.00000000000E+00  0.00000000000E+00  0.74505805969E-08  0.10566000000E+00  0.10566000000E+00 0. -1.
     999900   -1    0    0    0    0 -0.00000000000E+00 -0.00000000000E+00 -0.74505805969E-08  0.93827000000E+00  0.93827000000E+00 0.  1.
     999902    2    1    2    0    0 -0.89373648644E-02  0.11404316764E-01 -0.24629752512E-02  0.10292330214E+01  0.10291280830E+01 0.  0.
     999903    2    3    3    0    0  0.10778227511E+00  0.11061692125E-01  0.73185607128E-01  0.13830861401E+00  0.45097225611E-01 0.  0.
         14    1    1    2    0    0  0.89373648644E-02 -0.11404316764E-01  0.24629752512E-02  0.14696978556E-01  0.00000000000E+00 0.  1.
     999901    1    3    3    0    0 -0.11671963997E+00  0.34262463920E-03 -0.75648582379E-01  0.89092440744E+00  0.88000000000E+00 0.  1.
        -11    1    4    4    0    0  0.86319578039E-01  0.20225730729E-01  0.73189607844E-01  0.11496577558E+00  0.51100000000E-03 0. -1.
         11    1    4    4    0    0  0.21462697071E-01 -0.91640386038E-02 -0.40007168132E-05  0.23342838433E-01  0.51100000000E-03 0.  1.
</event>
<event>
 8    1  0.2001339E+004  0.1043930E+01  0.7957747E-01            NaN
         13   -1    0    0    0    0  0.00000000000E+00  0.00000000000E+00  0.74505805969E-08  0.10566000000E+00  0.10566000000E+00 0. -1.
     999900   -1    0    0    0    0 -0.00000000000E+00 -0.00000000000E+00 -0.74505805969E-08  0.93827000000E+00  0.93827000000E+00 0. -1.
     999902    2    1    2    0    0 -0.94692996736E-02 -0.87993317366E-02  0.85048600617E-03  0.10309754949E+01  0.10308941032E+01 0.  0.
     999903    2    3    3    0    0  0.23828710983E-01 -0.11110320960E+00  0.71537058613E-01  0.14160974761E+00  0.44989323322E-01 0.  0.
         14    1    1    2    0    0  0.94692996736E-02  0.87993317366E-02 -0.85048600617E-03  0.12954505076E-01  0.00000000000E+00 0.  1.
     999901    1    3    3    0    0 -0.33298010656E-01  0.10230387787E+00 -0.70686572607E-01  0.88936574731E+00  0.88000000000E+00 0. -1.
        -11    1    4    4    0    0  0.69203101971E-02 -0.36516586327E-01  0.41858086598E-03  0.37172410483E-01  0.51100000000E-03 0. -1.
         11    1    4    4    0    0  0.16908400786E-01 -0.74586623278E-01  0.71118477747E-01  0.10443733713E+00  0.51100000000E-03 0.  1.
</event>
<event>
 8    1  0.2001339E+004  0.1043930E+01  0.7957747E-01            NaN
         13   -1    0    0    0    0  0.00000000000E+00  0.00000000000E+00  0.74505805969E-08  0.10566000000E+00  0.10566000000E+00 0.  1.
     999900   -1    0    0    0    0 -0.00000000000E+00 -0.00000000000E+00 -0.74505805969E-08  0.93827000000E+00  0.93827000000E+00 0. -1.
     999902    2    1    2    0    0 -0.16681283967E-02 -0.90288256439E-02 -0.92574036058E-02  0.10308915236E+01  0.10308090665E+01 0.  0.
     999903    2    3    3    0    0  0.78116675412E-01  0.51344318587E-02 -0.11027652270E+00  0.14141354457E+00  0.41331607289E-01 0.  0.
         14    1    1    2    0    0  0.16681283967E-02  0.90288256439E-02  0.92574036058E-02  0.13038476382E-01  0.00000000000E+00 0.  1.
     999901    1    3    3    0    0 -0.79784803809E-01 -0.14163257503E-01  0.10101911910E+00  0.88947797904E+00  0.88000000000E+00 0.  1.
        -11    1    4    4    0    0  0.61045466008E-01  0.20362286990E-01 -0.69965503265E-01  0.95061056272E-01  0.51100000000E-03 0.  1.
         11    1    4    4    0    0  0.17071209404E-01 -0.15227855131E-01 -0.40311019439E-01  0.46352488301E-01  0.51100000000E-03 0. -1.
</event>
<event>
 8    1  0.2001339E+004  0.1043930E+01  0.7957747E-01            NaN
         13   -1    0    0    0    0  0.00000000000E+00  0.00000000000E+00  0.74505805969E-08  0.10566000000E+00  0.10566000000E+00 0.  1.
     999900   -1    0    0    0    0 -0.00000000000E+00 -0.00000000000E+00 -0.74505805969E-08  0.93827000000E+00  0.93827000000E+00 0. -1.
     999902    2    1    2    0    0 -0.16948267556E-02 -0.58828081728E-02  0.78784980305E-02  0.10339524953E+01  0.10339043533E+01 0.  0.
     999903    2    3    3    0    0 -0.11768125691E+00  0.66678217899E-01  0.14532509652E-01  0.14335593656E+00  0.45220213844E-01 0.  0.
         14    1    1    2    0    0  0.16948267556E-02  0.58828081728E-02 -0.78784980305E-02  0.99775047454E-02  0.00000000000E+00 0. -1.
     999901    1    3    3    0    0  0.11598643016E+00 -0.72561026072E-01 -0.66540116212E-02  0.89059655869E+00  0.88000000000E+00 0. -1.
        -11    1    4    4    0    0 -0.29325370960E-01  0.22869887586E-01 -0.15455740668E-01  0.40275925573E-01  0.51100000000E-03 0. -1.
         11    1    4    4    0    0 -0.88355885952E-01  0.43808330313E-01  0.29988250320E-01  0.10308001099E+00  0.51100000000E-03 0.  1.
</event>
<event>
 8    1  0.2001339E+004  0.1043930E+01  0.7957747E-01            NaN
         13   -1    0    0    0    0  0.00000000000E+00  0.00000000000E+00  0.74505805969E-08  0.10566000000E+00  0.10566000000E+00 0.  1.
     999900   -1    0    0    0    0 -0.00000000000E+00 -0.00000000000E+00 -0.74505805969E-08  0.93827000000E+00  0.93827000000E+00 0. -1.
     999902    2    1    2    0    0  0.49154004096E-02  0.18087711795E-01 -0.18796542100E-02  0.10250922831E+01  0.10249191818E+01 0.  0.
     999903    2    3    3    0    0  0.94201259741E-01  0.80226103243E-01  0.38528571543E-01  0.13747413934E+00  0.45875736334E-01 0.  0.
         14    1    1    2    0    0 -0.49154004096E-02 -0.18087711795E-01  0.18796542100E-02  0.18837716930E-01  0.00000000000E+00 0. -1.
     999901    1    3    3    0    0 -0.89285859331E-01 -0.62138391448E-01 -0.40408225753E-01  0.88761814373E+00  0.88000000000E+00 0. -1.
        -11    1    4    4    0    0  0.33063376706E-01  0.16001000778E-01 -0.76103844801E-02  0.37515303251E-01  0.51100000000E-03 0.  1.
         11    1    4    4    0    0  0.61137883035E-01  0.64225102465E-01  0.46138956023E-01  0.99958836091E-01  0.51100000000E-03 0. -1.
</event>
<event>
 8    1  0.2001339E+004  0.1043930E+01  0.7957747E-01            NaN
         13   -1    0    0    0    0  0.00000000000E+00  0.00000000000E+00  0.74505805969E-08  0.10566000000E+00  0.10566000000E+00 0. -1.
     999900   -1    0    0    0    0 -0.00000000000E+00 -0.00000000000E+00 -0.74505805969E-08  0.93827000000E+00  0.93827000000E+00 0.  1.
     999902    2    1    2    0    0  0.12786317565E-02  0.13930717294E-01  0.25653951023E-02  0.10297074462E+01  0.10296092190E+01 0.  0.
     999903    2    3    3    0    0 -0.94366668508E-01  0.93381887705E-01  0.18579821747E-01  0.14082220404E+00  0.43132798388E-01 0.  0.
         14    1    1    2    0    0 -0.12786317565E-02 -0.13930717294E-01 -0.25653951023E-02  0.14222553762E-01  0.00000000000E+00 0.  1.
     999901    1    3    3    0    0  0.95645300265E-01 -0.79451170411E-01 -0.16014426645E-01  0.88888524220E+00  0.88000000000E+00 0.  1.
        -11    1    4    4    0    0 -0.67922453480E-01  0.42193172127E-01 -0.99861580881E-03  0.79968630196E-01  0.51100000000E-03 0. -1.
         11    1    4    4    0    0 -0.26444215028E-01  0.51188715578E-01  0.19578437556E-01  0.60853573841E-01  0.51100000000E-03 0.  1.
</event>
<event>
 8    1  0.2001339E+004  0.1043930E+01  0.7957747E-01            NaN
         13   -1    0    0    0    0  0.00000000000E+00  0.00000000000E+00  0.74505805969E-08  0.10566000000E+00  0.10566000000E+00 0. -1.
     999900   -1    0    0    0    0 -0.00000000000E+00 -0.00000000000E+00 -0.74505805969E-08  0.93827000000E+00  0.93827000000E+00 0. -1.
     999902    2    1    2    0    0 -0.24748299067E-02 -0.12359543686E-01 -0.43907239659E-02  0.10305822826E+01  0.10304958416E+01 0.  0.
     999903    2    3    3    0    0  0.59282975310E-01 -0.12074765181E+00  0.22763929312E-01  0.14136949383E+00  0.37049571251E-01 0.  0.
         14    1    1    2    0    0  0.24748299067E-02  0.12359543686E-01  0.43907239659E-02  0.13347717413E-01  0.00000000000E+00 0. -1.
     999901    1    3    3    0    0 -0.61757805217E-01  0.10838810812E+00 -0.27154653278E-01  0.88921278875E+00  0.88000000000E+00 0.  1.
        -11    1    4    4    0    0  0.17741029972E-01 -0.83183781299E-02  0.17182556677E-02  0.19676206004E-01  0.51100000000E-03 0. -1.
         11    1    4    4    0    0  0.41541945339E-01 -0.11242927368E+00  0.21045673644E-01  0.12169328783E+00  0.51100000000E-03 0.  1.
</event>
<event>
 8    1  0.2001339E+004  0.1043930E+01  0.7957747E-01            NaN
         13   -1    0    0    0    0  0.00000000000E+00  0.00000000000E+00  0.74505805969E-08  0.10566000000E+00  0.10566000000E+00 0. -1.
     999900   -1    0    0    0    0 -0.00000000000E+00 -0.00000000000E+00 -0.74505805969E-08  0.93827000000E+00  0.93827000000E+00 0. -1.
     999902    2    1    2    0    0  0.83027961662E-02  0.92076199632E-02 -0.73422963233E-02  0.10295207667E+01  0.10294199255E+01 0.  0.
     999903    2    3    3    0    0 -0.20768975106E-01  0.93976852029E-01 -0.92585722910E-01  0.14087154884E+00  0.44829433879E-01 0.  0.
         14    1    1    2    0    0 -0.83027961662E-02 -0.92076199632E-02  0.73422963233E-02  0.14409233320E-01  0.00000000000E+00 0. -1.
     999901    1    3    3    0    0  0.29071771272E-01 -0.84769232066E-01  0.85243426586E-01  0.88864921784E+00  0.88000000000E+00 0.  1.
        -11    1    4    4    0    0  0.12625976657E-01  0.14504780556E-01 -0.23696970022E-01  0.30522310770E-01  0.51100000000E-03 0. -1.
         11    1    4    4    0    0 -0.33394951763E-01  0.79472071473E-01 -0.68888752887E-01  0.11034923807E+00  0.51100000000E-03 0.  1.
</event>
<event>
 8    1  0.2001339E+004  0.1043930E+01  0.7957747E-01            NaN
         13   -1    0    0    0    0  0.00000000000E+00  0.00000000000E+00  0.74505805969E-08  0.10566000000E+00  0.10566000000E+00 0. -1.
     999900   -1    0    0    0    0 -0.00000000000E+00 -0.00000000000E+00 -0.74505805969E-08  0.93827000000E+00  0.93827000000E+00 0.  1.
     999902    2    1    2    0    0  0.12939861879E-01  0.36770710670E-02 -0.53732127340E-02  0.10294444109E+01  0.10293424905E+01 0.  0.
     999903    2    3    3    0    0 -0.46615268162E-01 -0.12164525724E+00  0.13745723579E-01  0.13836751565E+00  0.44565374856E-01 0.  0.
         14    1    1    2    0    0 -0.12939861879E-01 -0.36770710670E-02  0.53732127340E-02  0.14485589121E-01  0.00000000000E+00 0.  1.
     999901    1    3    3    0    0  0.59555130042E-01  0.12532232830E+00 -0.19118936313E-01  0.89107689523E+00  0.88000000000E+00 0. -1.
        -11    1    4    4    0    0 -0.33390568246E-01 -0.33392149792E-01  0.13537695141E-01  0.49127344994E-01  0.51100000000E-03 0. -1.
         11    1    4    4    0    0 -0.13224699917E-01 -0.88253107446E-01  0.20802843812E-03  0.89240170655E-01  0.51100000000E-03 0.  1.
</event>
<event>
 8    1  0.2001339E+004  0.1043930E+01  0.7957747E-01            NaN
         13   -1    0    0    0    0  0.00000000000E+00  0.00000000000E+00  0.74505805969E-08  0.10566000000E+00  0.10566000000E+00 0. -1.
     999900   -1    0    0    0    0 -0.00000000000E+00 -0.00000000000E+00 -0.74505805969E-08  0.93827000000E+00  0.93827000000E+00 0.  1.
     999902    2    1    2    0    0 -0.26191649030E-03 -0.65293479680E-03  0.11764064431E-01  0.10321449189E+01  0.10320776354E+01 0.  0.
     999903    2    3    3    0    0  0.91889862754E-01  0.97978123251E-01  0.22202724882E-02  0.14180165928E+00  0.45379747144E-01 0.  0.
         14    1    1    2    0    0  0.26191649030E-03  0.65293479680E-03 -0.11764064431E-01  0.11785081079E-01  0.00000000000E+00 0.  1.
     999901    1    3    3    0    0 -0.92151779244E-01 -0.98631058048E-01  0.95437919432E-02  0.89034325964E+00  0.88000000000E+00 0.  1.
        -11    1    4    4    0    0  0.44611100657E-01  0.21717083289E-01 -0.11751099005E-01  0.50991484164E-01  0.51100000000E-03 0. -1.
         11    1    4    4    0    0  0.47278762097E-01  0.76261039962E-01  0.13971371493E-01  0.90810175112E-01  0.51100000000E-03 0.  1.
</event>
<event>
 8    1  0.2090885E+004  0.1043930E+01  0.7957747E-01            NaN
         13   -1    0    0    0    0  0.00000000000E+00  0.00000000000E+00  0.74505805969E-08  0.10566000000E+00  0.10566000000E+00 0.  1.
     999900   -1    0    0    0    0 -0.00000000000E+00 -0.00000000000E+00 -0.74505805969E-08  0.93827000000E+00  0.93827000000E+00 0.  1.
     999902    2    1    2    0    0 -0.12890432971E-01  0.28779421241E-02  0.25941307880E-02  0.10304698615E+01  0.10303819487E+01 0.  0.
     999903    2    3    3    0    0 -0.12897876565E+00 -0.32561626483E-01 -0.20103119456E-01  0.14184866598E+00  0.44956947429E-01 0.  0.
         14    1    1    2    0    0  0.12890432971E-01 -0.28779421241E-02 -0.25941307880E-02  0.13460138469E-01  0.00000000000E+00 0. -1.
     999901    1    3    3    0    0  0.11608833268E+00  0.35439568607E-01  0.22697250244E-01  0.88862119555E+00  0.88000000000E+00 0. -1.
        -11    1    4    4    0    0 -0.67369625689E-01 -0.80196055948E-02  0.10767694195E-01  0.68696323764E-01  0.51100000000E-03 0. -1.
         11    1    4    4    0    0 -0.61609139960E-01 -0.24542020888E-01 -0.30870813651E-01  0.73152342220E-01  0.51100000000E-03 0.  1.
</event>
<event>
 8    1  0.2001339E+004  0.1043930E+01  0.7957747E-01            NaN
         13   -1    0    0    0    0  0.00000000000E+00  0.00000000000E+00  0.74505805969E-08  0.10566000000E+00  0.10566000000E+00 0.  1.
     999900   -1    0    0    0    0 -0.00000000000E+00 -0.00000000000E+00 -0.74505805969E-08  0.93827000000E+00  0.93827000000E+00 0. -1.
     999902    2    1    2    0    0  0.54014262625E-03 -0.50434363794E-02 -0.13574287066E-01  0.10294389933E+01  0.10293369962E+01 0.  0.
     999903    2    3    3    0    0  0.87451626189E-01  0.96424765198E-01  0.16474918017E-01  0.13884797799E+00  0.45407221903E-01 0.  0.
         14    1    1    2    0    0 -0.54014262625E-03  0.50434363794E-02  0.13574287066E-01  0.14491006656E-01  0.00000000000E+00 0.  1.
     999901    1    3    3    0    0 -0.86911483563E-01 -0.10146820158E+00 -0.30049205083E-01  0.89059101536E+00  0.88000000000E+00 0. -1.
        -11    1    4    4    0    0  0.33896872381E-01  0.24692690735E-01 -0.14105383850E-01  0.44248727750E-01  0.51100000000E-03 0.  1.
         11    1    4    4    0    0  0.53554753808E-01  0.71732074464E-01  0.30580301867E-01  0.94599250238E-01  0.51100000000E-03 0. -1.
</event>
<event>
 8    1  0.2001339E+004  0.1043930E+01  0.7957747E-01            NaN
         13   -1    0    0    0    0  0.00000000000E+00  0.00000000000E+00  0.74505805969E-08  0.10566000000E+00  0.10566000000E+00 0. -1.
     999900   -1    0    0    0    0 -0.00000000000E+00 -0.00000000000E+00 -0.74505805969E-08  0.93827000000E+00  0.93827000000E+00 0. -1.
     999902    2    1    2    0    0 -0.10999496578E-01 -0.56313679913E-03  0.22830555929E-02  0.10326819606E+01  0.10326207016E+01 0.  0.
     999903    2    3    3    0    0  0.92910634847E-01  0.31444232288E-02 -0.96674366099E-01  0.14105219844E+00  0.43675120606E-01 0.  0.
         14    1    1    2    0    0  0.10999496578E-01  0.56313679913E-03 -0.22830555929E-02  0.11248039423E-01  0.00000000000E+00 0. -1.
     999901    1    3    3    0    0 -0.10391013143E+00 -0.37075600279E-02  0.98957421692E-01  0.89162976213E+00  0.88000000000E+00 0.  1.
        -11    1    4    4    0    0  0.34400717120E-01  0.16791025259E-01 -0.58349100792E-01  0.69787008474E-01  0.51100000000E-03 0.  1.
         11    1    4    4    0    0  0.58509917727E-01 -0.13646602030E-01 -0.38325265308E-01  0.71265189969E-01  0.51100000000E-03 0. -1.
</event>
<event>
 8    1  0.2001339E+004  0.1043930E+01  0.7957747E-01            NaN
         13   -1    0    0    0    0  0.00000000000E+00  0.00000000000E+00  0.74505805969E-08  0.10566000000E+00  0.10566000000E+00 0. -1.
     999900   -1    0    0    0    0 -0.00000000000E+00 -0.00000000000E+00 -0.74505805969E-08  0.93827000000E+00  0.93827000000E+00 0.  1.
     999902    2    1    2    0    0  0.76577035052E-02 -0.10087172204E-01  0.45575349781E-02  0.10304703347E+01  0.10303824280E+01 0.  0.
     999903    2    3    3    0    0  0.13247736295E+00  0.24602252245E-02  0.20412216908E-01  0.14143222777E+00  0.45056764752E-01 0.  0.
         14    1    1    2    0    0 -0.76577035052E-02  0.10087172204E-01 -0.45575349781E-02  0.13459665342E-01  0.00000000000E+00 0.  1.
     999901    1    3    3    0    0 -0.12481965944E+00 -0.12547397429E-01 -0.15854681930E-01  0.88903810689E+00  0.88000000000E+00 0.  1.
        -11    1    4    4    0    0  0.30739375431E-01  0.67437344277E-02 -0.13297370557E-01  0.34168235843E-01  0.51100000000E-03 0.  1.
         11    1    4    4    0    0  0.10173798752E+00 -0.42835092032E-02  0.33709587465E-01  0.10726399192E+00  0.51100000000E-03 0. -1.
</event>
<event>
 8    1  0.2001339E+004  0.1043930E+01  0.7957747E-01            NaN
         13   -1    0    0    0    0  0.00000000000E+00  0.00000000000E+00  0.74505805969E-08  0.10566000000E+00  0.10566000000E+00 0. -1.
     999900   -1    0    0    0    0 -0.00000000000E+00 -0.00000000000E+00 -0.74505805969E-08  0.93827000000E+00  0.93827000000E+00 0.  1.
     999902    2    1    2    0    0 -0.19885589197E-02  0.22935364228E-02  0.13580986277E-01  0.10300138991E+01  0.10299198874E+01 0.  0.
     999903    2    3    3    0    0 -0.20577446565E-01 -0.13066640391E+00 -0.23030808218E-02  0.13969025230E+00  0.44843304834E-01 0.  0.
         14    1    1    2    0    0  0.19885589197E-02 -0.22935364228E-02 -0.13580986277E-01  0.13916100896E-01  0.00000000000E+00 0.  1.
     999901    1    3    3    0    0  0.18588887646E-01  0.13295994033E+00  0.15884067099E-01  0.89032364681E+00  0.88000000000E+00 0. -1.
        -11    1    4    4    0    0 -0.27986431810E-01 -0.74522767710E-01 -0.16515718799E-01  0.81301373672E-01  0.51100000000E-03 0.  1.
         11    1    4    4    0    0  0.74089852446E-02 -0.56143636197E-01  0.14212637977E-01  0.58388878624E-01  0.51100000000E-03 0. -1.
</event>
<event>
 8    1  0.2001339E+004  0.1043930E+01  0.7957747E-01            NaN
         13   -1    0    0    0    0  0.00000000000E+00  0.00000000000E+00  0.74505805969E-08  0.10566000000E+00  0.10566000000E+00 0. -1.
     999900   -1    0    0    0    0 -0.00000000000E+00 -0.00000000000E+00 -0.74505805969E-08  0.93827000000E+00  0.93827000000E+00 0. -1.
     999902    2    1    2    0    0  0.11024057510E-01 -0.19189654575E-04 -0.77544508130E-02  0.10304518058E+01  0.10303636554E+01 0.  0.
     999903    2    3    3    0    0  0.42134562911E-01 -0.12360975468E+00 -0.28269278445E-01  0.14103438439E+00  0.45131503768E-01 0.  0.
         14    1    1    2    0    0 -0.11024057510E-01  0.19189654575E-04  0.77544508130E-02  0.13478194228E-01  0.00000000000E+00 0. -1.
     999901    1    3    3    0    0 -0.31110505401E-01  0.12359056502E+00  0.20514827632E-01  0.88941742138E+00  0.88000000000E+00 0.  1.
        -11    1    4    4    0    0  0.32217135353E-01 -0.84527394611E-01  0.22094309390E-02  0.90487385619E-01  0.51100000000E-03 0. -1.
         11    1    4    4    0    0  0.99174275579E-02 -0.39082360068E-01 -0.30478709384E-01  0.50546998769E-01  0.51100000000E-03 0.  1.
</event>
<event>
 8    1  0.2001339E+004  0.1043930E+01  0.7957747E-01            NaN
         13   -1    0    0    0    0  0.00000000000E+00  0.00000000000E+00  0.74505805969E-08  0.10566000000E+00  0.10566000000E+00 0. -1.
     999900   -1    0    0    0    0 -0.00000000000E+00 -0.00000000000E+00 -0.74505805969E-08  0.93827000000E+00  0.93827000000E+00 0. -1.
     999902    2    1    2    0    0  0.16406540298E-01 -0.29967543401E-02 -0.31438748929E-02  0.10269582868E+01  0.10268180383E+01 0.  0.
     999903    2    3    3    0    0  0.82282422388E-01 -0.10229769494E+00 -0.10548375984E-01  0.13889571279E+00  0.44108223383E-01 0.  0.
         14    1    1    2    0    0 -0.16406540298E-01  0.29967543401E-02  0.31438748929E-02  0.16971713245E-01  0.00000000000E+00 0.  1.
     999901    1    3    3    0    0 -0.65875882090E-01  0.99300940604E-01  0.74045010914E-02  0.88806257397E+00  0.88000000000E+00 0. -1.
        -11    1    4    4    0    0  0.55294903792E-01 -0.34474813495E-01 -0.97902862379E-02  0.65894992044E-01  0.51100000000E-03 0.  1.
         11    1    4    4    0    0  0.26987518596E-01 -0.67822881449E-01 -0.75808974637E-03  0.73000720744E-01  0.51100000000E-03 0. -1.
</event>
<event>
 8    1  0.2001339E+004  0.1043930E+01  0.7957747E-01            NaN
         13   -1    0    0    0    0  0.00000000000E+00  0.00000000000E+00  0.74505805969E-08  0.10566000000E+00  0.10566000000E+00 0. -1.
     999900   -1    0    0    0    0 -0.00000000000E+00 -0.00000000000E+00 -0.74505805969E-08  0.93827000000E+00  0.93827000000E+00 0. -1.
     999902    2    1    2    0    0  0.93714945532E-02  0.12169338833E-01 -0.48681696985E-03  0.10285626740E+01  0.10284478692E+01 0.  0.
     999903    2    3    3    0    0  0.19631431384E-01  0.50429243235E-01  0.12002723809E+00  0.13946609653E+00  0.45997309986E-01 0.  0.
         14    1    1    2    0    0 -0.93714945532E-02 -0.12169338833E-01  0.48681696985E-03  0.15367326005E-01  0.00000000000E+00 0. -1.
     999901    1    3    3    0    0 -0.10259936831E-01 -0.38259904402E-01 -0.12051405506E+00  0.88909657746E+00  0.88000000000E+00 0. -1.
        -11    1    4    4    0    0  0.11336763985E-01  0.50436899330E-01  0.61458534669E-01  0.80310744215E-01  0.51100000000E-03 0.  1.
         11    1    4    4    0    0  0.82946673996E-02 -0.76560950376E-05  0.58568703425E-01  0.59155352317E-01  0.51100000000E-03 0. -1.
</event>
<event>
 8    1  0.2001339E+004  0.1043930E+01  0.7957747E-01            NaN
         13   -1    0    0    0    0  0.00000000000E+00  0.00000000000E+00  0.74505805969E-08  0.10566000000E+00  0.10566000000E+00 0.  1.
     999900   -1    0    0    0    0 -0.00000000000E+00 -0.00000000000E+00 -0.74505805969E-08  0.93827000000E+00  0.93827000000E+00 0. -1.
     999902    2    1    2    0    0 -0.57295945523E-02 -0.60964695284E-02  0.43084260815E-02  0.10345194883E+01  0.10344766861E+01 0.  0.
     999903    2    3    3    0    0  0.11060237286E+00  0.53038236307E-01  0.57003038274E-01  0.14333670000E+00  0.47435469859E-01 0.  0.
         14    1    1    2    0    0  0.57295945523E-02  0.60964695284E-02 -0.43084260815E-02  0.94105116622E-02  0.00000000000E+00 0.  1.
     999901    1    3    3    0    0 -0.11633196742E+00 -0.59134705836E-01 -0.52694612192E-01  0.89118278834E+00  0.88000000000E+00 0.  1.
        -11    1    4    4    0    0  0.36249637939E-01  0.17386026966E-01  0.44433348075E-01  0.59924066339E-01  0.51100000000E-03 0.  1.
         11    1    4    4    0    0  0.74352734923E-01  0.35652209341E-01  0.12569690199E-01  0.83412633660E-01  0.51100000000E-03 0. -1.
</event>
<event>
 7    1  0.2001339E+004  0.1043930E+01  0.7957747E-01            NaN
         13   -1    0    0    0    0  0.00000000000E+00  0.00000000000E+00  0.74505805969E-08  0.10566000000E+00  0.10566000000E+00 0. -1.
     999900   -1    0    0    0    0 -0.00000000000E+00 -0.00000000000E+00 -0.74505805969E-08  0.93827000000E+00  0.93827000000E+00 0.  1.
     999903    2    1    2    0    0 -0.36529748746E-01 -0.28488386495E-01  0.90347148235E-01  0.11166756037E+00  0.46486838306E-01 0.  0.
         14    1    1    2    0    0 -0.22253862057E-02  0.25985581581E-01  0.33808497346E-01  0.42699148547E-01  0.00000000000E+00 0. -1.
     999901    1    1    2    0    0  0.38755134952E-01  0.25028049135E-02 -0.12415564558E+00  0.88956329109E+00  0.88000000000E+00 0.  1.
        -11    1    3    3    0    0 -0.39425554955E-01 -0.11712819682E-01  0.83930806297E-01  0.93467672995E-01  0.51100000000E-03 0. -1.
         11    1    3    3    0    0  0.28958062095E-02 -0.16775566813E-01  0.64163419377E-02  0.18199887372E-01  0.51100000000E-03 0.  1.
</event>
<event>
 8    1  0.2001339E+004  0.1043930E+01  0.7957747E-01            NaN
         13   -1    0    0    0    0  0.00000000000E+00  0.00000000000E+00  0.74505805969E-08  0.10566000000E+00  0.10566000000E+00 0.  1.
     999900   -1    0    0    0    0 -0.00000000000E+00 -0.00000000000E+00 -0.74505805969E-08  0.93827000000E+00  0.93827000000E+00 0.  1.
     999902    2    1    2    0    0  0.28591398586E-02  0.87507232351E-02  0.11295293348E-01  0.10293583326E+01  0.10292551887E+01 0.  0.
     999903    2    3    3    0    0  0.50377187710E-01 -0.49816505103E-01  0.11264554111E+00  0.14033642187E+00  0.44561734125E-01 0.  0.
         14    1    1    2    0    0 -0.28591398586E-02 -0.87507232351E-02 -0.11295293348E-01  0.14571667361E-01  0.00000000000E+00 0. -1.
     999901    1    3    3    0    0 -0.47518047851E-01  0.58567228338E-01 -0.10135024777E+00  0.88902191077E+00  0.88000000000E+00 0.  1.
        -11    1    4    4    0    0  0.31667931591E-01 -0.49990585398E-01  0.59193738761E-01  0.83702307909E-01  0.51100000000E-03 0.  1.
         11    1    4    4    0    0  0.18709256119E-01  0.17408029536E-03  0.53451802351E-01  0.56634113961E-01  0.51100000000E-03 0. -1.
</event>
<event>
 8    1  0.2001339E+004  0.1043930E+01  0.7957747E-01            NaN
         13   -1    0    0    0    0  0.00000000000E+00  0.00000000000E+00  0.74505805969E-08  0.10566000000E+00  0.10566000000E+00 0. -1.
     999900   -1    0    0    0    0 -0.00000000000E+00 -0.00000000000E+00 -0.74505805969E-08  0.93827000000E+00  0.93827000000E+00 0.  1.
     999902    2    1    2    0    0 -0.97874342307E-03 -0.11670086899E-01  0.73997048625E-02  0.10300770401E+01  0.10299838853E+01 0.  0.
     999903    2    3    3    0    0 -0.49424841031E-02 -0.11496849131E+00 -0.67610392521E-01  0.14085671512E+00  0.45025180438E-01 0.  0.
         14    1    1    2    0    0  0.97874342307E-03  0.11670086899E-01 -0.73997048625E-02  0.13852959935E-01  0.00000000000E+00 0.  1.
     999901    1    3    3    0    0  0.39637406801E-02  0.10329840441E+00  0.75010097383E-01  0.88922032495E+00  0.88000000000E+00 0.  1.
        -11    1    4    4    0    0 -0.16996340701E-01 -0.26166105863E-01 -0.51700275629E-02  0.31631171323E-01  0.51100000000E-03 0.  1.
         11    1    4    4    0    0  0.12053856598E-01 -0.88802385445E-01 -0.62440364958E-01  0.10922554379E+00  0.51100000000E-03 0. -1.
</event>
<event>
 8    1  0.2001339E+004  0.1043930E+01  0.7957747E-01            NaN
         13   -1    0    0    0    0  0.00000000000E+00  0.00000000000E+00  0.74505805969E-08  0.10566000000E+00  0.10566000000E+00 0. -1.
     999900   -1    0    0    0    0 -0.00000000000E+00 -0.00000000000E+00 -0.74505805969E-08  0.93827000000E+00  0.93827000000E+00 0.  1.
     999902    2    1    2    0    0 -0.97303103968E-02  0.62912803065E-02  0.74587641632E-02  0.10301498581E+01  0.10300576866E+01 0.  0.
     999903    2    3    3    0    0  0.67924116780E-02  0.78606957744E-01 -0.10629467459E+00  0.13973287578E+00  0.44738440594E-01 0.  0.
         14    1    1    2    0    0  0.97303103968E-02 -0.62912803065E-02 -0.74587641632E-02  0.13780141913E-01  0.00000000000E+00 0.  1.
     999901    1    3    3    0    0 -0.16522722075E-01 -0.72315677438E-01  0.11375343875E+00  0.89041698230E+00  0.88000000000E+00 0. -1.
        -11    1    4    4    0    0 -0.15708454835E-01  0.30069700067E-01 -0.23938535849E-01  0.41524174104E-01  0.51100000000E-03 0. -1.
         11    1    4    4    0    0  0.22500866513E-01  0.48537257678E-01 -0.82356138737E-01  0.98208701679E-01  0.51100000000E-03 0.  1.
</event>
<event>
 8    1  0.2001339E+004  0.1043930E+01  0.7957747E-01            NaN
         13   -1    0    0    0    0  0.00000000000E+00  0.00000000000E+00  0.74505805969E-08  0.10566000000E+00  0.10566000000E+00 0. -1.
     999900   -1    0    0    0    0 -0.00000000000E+00 -0.00000000000E+00 -0.74505805969E-08  0.93827000000E+00  0.93827000000E+00 0.  1.
     999902    2    1    2    0    0 -0.69773047388E-02 -0.22651546925E-02 -0.13942637357E-01  0.10281752914E+01  0.10280545798E+01 0.  0.
     999903    2    3    3    0    0  0.99715231913E-01  0.61505128762E-01  0.55035953341E-01  0.13676742042E+00  0.44162911927E-01 0.  0.
         14    1    1    2    0    0  0.69773047388E-02  0.22651546925E-02  0.13942637357E-01  0.15754708619E-01  0.00000000000E+00 0. -1.
     999901    1    3    3    0    0 -0.10669253665E+00 -0.63770283455E-01 -0.68978590698E-01  0.89140787096E+00  0.88000000000E+00 0.  1.
        -11    1    4    4    0    0  0.13411052350E-01  0.28292129474E-01  0.23174908223E-01  0.38956878820E-01  0.51100000000E-03 0.  1.
         11    1    4    4    0    0  0.86304179563E-01  0.33212999288E-01  0.31861045118E-01  0.97810541604E-01  0.51100000000E-03 0. -1.
</event>
<event>
 8    1  0.2001339E+004  0.1043930E+01  0.7957747E-01            NaN
         13   -1    0    0    0    0  0.00000000000E+00  0.00000000000E+00  0.74505805969E-08  0.10566000000E+00  0.10566000000E+00 0. -1.
     999900   -1    0    0    0    0 -0.00000000000E+00 -0.00000000000E+00 -0.74505805969E-08  0.93827000000E+00  0.93827000000E+00 0. -1.
     999902    2    1    2    0    0 -0.11664736628E-01  0.14218824276E-01 -0.46974669277E-02  0.10249482393E+01  0.10247724557E+01 0.  0.
     999903    2    3    3    0    0  0.69656543215E-01 -0.73858525632E-01  0.73982327760E-01  0.13334222752E+00  0.44717435053E-01 0.  0.
         14    1    1    2    0    0  0.11664736628E-01 -0.14218824276E-01  0.46974669277E-02  0.18981760717E-01  0.00000000000E+00 0. -1.
     999901    1    3    3    0    0 -0.81321279843E-01  0.88077349908E-01 -0.78679794688E-01  0.89160601176E+00  0.88000000000E+00 0.  1.
        -11    1    4    4    0    0  0.15265235361E-01 -0.36125283017E-01  0.48577363730E-01  0.62434644803E-01  0.51100000000E-03 0.  1.
         11    1    4    4    0    0  0.54391307854E-01 -0.37733242615E-01  0.25404964030E-01  0.70907582716E-01  0.51100000000E-03 0. -1.
</event>
<event>
 8    1  0.2001339E+004  0.1043930E+01  0.7957747E-01            NaN
         13   -1    0    0    0    0  0.00000000000E+00  0.00000000000E+00  0.74505805969E-08  0.10566000000E+00  0.10566000000E+00 0. -1.
     999900   -1    0    0    0    0 -0.00000000000E+00 -0.00000000000E+00 -0.74505805969E-08  0.93827000000E+00  0.93827000000E+00 0.  1.
     999902    2    1    2    0    0 -0.40219822072E-02 -0.11750774786E-02 -0.11531040865E-01  0.10316612571E+01  0.10315883033E+01 0.  0.
     999903    2    3    3    0    0  0.32080047823E-01 -0.84247703852E-01  0.97403510820E-01  0.14033014337E+00  0.45588377304E-01 0.  0.
         14    1    1    2    0    0  0.40219822072E-02  0.11750774786E-02  0.11531040865E-01  0.12268742861E-01  0.00000000000E+00 0. -1.
     999901    1    3    3    0    0 -0.36102030030E-01  0.83072626373E-01 -0.10893455169E+00  0.89133111377E+00  0.88000000000E+00 0.  1.
        -11    1    4    4    0    0  0.20680908059E-01 -0.24182796542E-01  0.61973629991E-01  0.69667062103E-01  0.51100000000E-03 0.  1.
         11    1    4    4    0    0  0.11399139764E-01 -0.60064907309E-01  0.35429880829E-01  0.70663081266E-01  0.51100000000E-03 0. -1.
</event>
<event>
 8    1  0.2001339E+004  0.1043930E+01  0.7957747E-01            NaN
         13   -1    0    0    0    0  0.00000000000E+00  0.00000000000E+00  0.74505805969E-08  0.10566000000E+00  0.10566000000E+00 0. -1.
     999900   -1    0    0    0    0 -0.00000000000E+00 -0.00000000000E+00 -0.74505805969E-08  0.93827000000E+00  0.93827000000E+00 0. -1.
     999902    2    1    2    0    0 -0.60135849173E-02  0.99959945717E-02  0.68722499089E-02  0.10303907633E+01  0.10303018073E+01 0.  0.
     999903    2    3    3    0    0  0.87662140720E-01  0.78047848648E-01 -0.66479547939E-01  0.13978047668E+00  0.36646060820E-01 0.  0.
         14    1    1    2    0    0  0.60135849173E-02 -0.99959945717E-02 -0.68722499089E-02  0.13539236679E-01  0.00000000000E+00 0.  1.
     999901    1    3    3    0    0 -0.93675725637E-01 -0.68051854076E-01  0.73351797848E-01  0.89061028664E+00  0.88000000000E+00 0.  1.
        -11    1    4    4    0    0  0.17177115770E-01  0.50507320510E-03 -0.35801985770E-02  0.17560960907E-01  0.51100000000E-03 0.  1.
         11    1    4    4    0    0  0.70485024949E-01  0.77542775443E-01 -0.62899349362E-01  0.12221951578E+00  0.51100000000E-03 0. -1.
</event>
<event>
 8    1  0.2001339E+004  0.1043930E+01  0.7957747E-01            NaN
         13   -1    0    0    0    0  0.00000000000E+00  0.00000000000E+00  0.74505805969E-08  0.10566000000E+00  0.10566000000E+00 0. -1.
     999900   -1    0    0    0    0 -0.00000000000E+00 -0.00000000000E+00 -0.74505805969E-08  0.93827000000E+00  0.93827000000E+00 0. -1.
     999902    2    1    2    0    0 -0.11014132047E-01  0.58912035208E-02 -0.54535213704E-02  0.10303006831E+01  0.10302105316E+01 0.  0.
     999903    2    3    3    0    0  0.33732521302E-01  0.74212646416E-01  0.10426142698E+00  0.13973487844E+00  0.44832925568E-01 0.  0.
         14    1    1    2    0    0  0.11014132047E-01 -0.58912035208E-02  0.54535213704E-02  0.13629316894E-01  0.00000000000E+00 0. -1.
     999901    1    3    3    0    0 -0.44746653349E-01 -0.68321442895E-01 -0.10971494835E+00  0.89056580466E+00  0.88000000000E+00 0. -1.
        -11    1    4    4    0    0  0.31398349912E-01  0.69789501197E-01  0.65744305078E-01  0.10089105821E+00  0.51100000000E-03 0. -1.
         11    1    4    4    0    0  0.23341713894E-02  0.44231452190E-02  0.38517121905E-01  0.38843820236E-01  0.51100000000E-03 0.  1.
</event>
<event>
 8    1  0.2001339E+004  0.1043930E+01  0.7957747E-01            NaN
         13   -1    0    0    0    0  0.00000000000E+00  0.00000000000E+00  0.74505805969E-08  0.10566000000E+00  0.10566000000E+00 0. -1.
     999900   -1    0    0    0    0 -0.00000000000E+00 -0.00000000000E+00 -0.74505805969E-08  0.93827000000E+00  0.93827000000E+00 0.  1.
     999902    2    1    2    0    0 -0.19238533961E-02  0.98448782277E-02  0.97981802238E-02  0.10299076188E+01  0.10298121557E+01 0.  0.
     999903    2    3    3    0    0  0.53181488497E-01 -0.56605081483E-01 -0.10427516097E+00  0.13835564441E+00  0.47292379679E-01 0.  0.
         14    1    1    2    0    0  0.19238533961E-02 -0.98448782277E-02 -0.97981802238E-02  0.14022381214E-01  0.00000000000E+00 0.  1.
     999901    1    3    3    0    0 -0.55105341893E-01  0.66449959711E-01  0.11407334119E+00  0.89155197438E+00  0.88000000000E+00 0. -1.
        -11    1    4    4    0    0  0.18829187548E-01 -0.97360231547E-02 -0.27579120484E-02  0.21382133908E-01  0.51100000000E-03 0.  1.
         11    1    4    4    0    0  0.34352300949E-01 -0.46869058328E-01 -0.10151724892E+00  0.11697351050E+00  0.51100000000E-03 0. -1.
</event>
<event>
 8    1  0.2001339E+004  0.1043930E+01  0.7957747E-01            NaN
         13   -1    0    0    0    0  0.00000000000E+00  0.00000000000E+00  0.74505805969E-08  0.10566000000E+00  0.10566000000E+00 0.  1.
     999900   -1    0    0    0    0 -0.00000000000E+00 -0.00000000000E+00 -0.74505805969E-08  0.93827000000E+00  0.93827000000E+00 0. -1.
     999902    2    1    2    0    0 -0.37856191953E-02  0.39207870908E-02  0.12814969657E-01  0.10300042350E+01  0.10299100918E+01 0.  0.
     999903    2    3    3    0    0  0.11160331068E+00 -0.63875085651E-01  0.31693767934E-01  0.13968558723E+00  0.44409940699E-01 0.  0.
         14    1    1    2    0    0  0.37856191953E-02 -0.39207870908E-02 -0.12814969657E-01  0.13925765020E-01  0.00000000000E+00 0. -1.
     999901    1    3    3    0    0 -0.11538892988E+00  0.67795872742E-01 -0.18878798278E-01  0.89031864775E+00  0.88000000000E+00 0. -1.
        -11    1    4    4    0    0  0.35912538419E-01 -0.38811873050E-01  0.28071323335E-01  0.59869292798E-01  0.51100000000E-03 0.  1.
         11    1    4    4    0    0  0.75690772263E-01 -0.25063212601E-01  0.36224445993E-02  0.79816294436E-01  0.51100000000E-03 0. -1.
</event>
<event>
 8    1  0.2001339E+004  0.1043930E+01  0.7957747E-01            NaN
         13   -1    0    0    0    0  0.00000000000E+00  0.00000000000E+00  0.74505805969E-08  0.10566000000E+00  0.10566000000E+00 0.  1.
     999900   -1    0    0    0    0 -0.00000000000E+00 -0.00000000000E+00 -0.74505805969E-08  0.93827000000E+00  0.93827000000E+00 0. -1.
     999902    2    1    2    0    0 -0.44411648110E-02  0.11112906642E-01 -0.73141593535E-02  0.10299043961E+01  0.10298088888E+01 0.  0.
     999903    2    3    3    0    0  0.18984904922E-01 -0.87667379279E-01  0.94261618289E-01  0.13826323268E+00  0.46749040881E-01 0.  0.
         14    1    1    2    0    0  0.44411648110E-02 -0.11112906642E-01  0.73141593535E-02  0.14025603943E-01  0.00000000000E+00 0. -1.
     999901    1    3    3    0    0 -0.23426069733E-01  0.98780285922E-01 -0.10157577764E+00  0.89164116338E+00  0.88000000000E+00 0. -1.
        -11    1    4    4    0    0  0.29818891859E-01 -0.29477644031E-01  0.37545885655E-01  0.56285455137E-01  0.51100000000E-03 0. -1.
         11    1    4    4    0    0 -0.10833986938E-01 -0.58189735248E-01  0.56715732634E-01  0.81977777540E-01  0.51100000000E-03 0.  1.
</event>
<event>
 8    1  0.2001339E+004  0.1043930E+01  0.7957747E-01            NaN
         13   -1    0    0    0    0  0.00000000000E+00  0.00000000000E+00  0.74505805969E-08  0.10566000000E+00  0.10566000000E+00 0.  1.
     999900   -1    0    0    0    0 -0.00000000000E+00 -0.00000000000E+00 -0.74505805969E-08  0.93827000000E+00  0.93827000000E+00 0.  1.
     999902    2    1    2    0    0 -0.91161409252E-02  0.81061288318E-02  0.66523418036E-02  0.10300351448E+01  0.10299414219E+01 0.  0.
     999903    2    3    3    0    0  0.31872255695E-01 -0.48589689298E-01 -0.11748581138E+00  0.13857300564E+00  0.44975142318E-01 0.  0.
         14    1    1    2    0    0  0.91161409252E-02 -0.81061288318E-02 -0.66523418036E-02  0.13894855216E-01  0.00000000000E+00 0.  1.
     999901    1    3    3    0    0 -0.40988396620E-01  0.56695818130E-01  0.12413815319E+00  0.89146213914E+00  0.88000000000E+00 0. -1.
        -11    1    4    4    0    0 -0.24878074563E-02  0.61976314967E-02 -0.23860472291E-01  0.24782717387E-01  0.51100000000E-03 0. -1.
         11    1    4    4    0    0  0.34360063151E-01 -0.54787320795E-01 -0.93625339092E-01  0.11379028825E+00  0.51100000000E-03 0.  1.
</event>
<event>
 8    1  0.2001339E+004  0.1043930E+01  0.7957747E-01            NaN
         13   -1    0    0    0    0  0.00000000000E+00  0.00000000000E+00  0.74505805969E-08  0.10566000000E+00  0.10566000000E+00 0. -1.
     999900   -1    0    0    0    0 -0.00000000000E+00 -0.00000000000E+00 -0.74505805969E-08  0.93827000000E+00  0.93827000000E+00 0.  1.
     999902    2    1    2    0    0  0.10290570142E-01  0.68110489053E-02 -0.27907365660E-02  0.10312779475E+01  0.10312003349E+01 0.  0.
     999903    2    3    3    0    0  0.12948708798E+00 -0.28243250362E-01  0.24068910553E-01  0.14214463109E+00  0.45400402520E-01 0.  0.
         14    1    1    2    0    0 -0.10290570142E-01 -0.68110489053E-02  0.27907365660E-02  0.12652052466E-01  0.00000000000E+00 0. -1.
     999901    1    3    3    0    0 -0.11919651784E+00  0.35054299267E-01 -0.26859647119E-01  0.88913331644E+00  0.88000000000E+00 0.  1.
        -11    1    4    4    0    0  0.39341171233E-01 -0.14290948953E-01  0.28785928832E-01  0.50802064876E-01  0.51100000000E-03 0. -1.
         11    1    4    4    0    0  0.90145916746E-01 -0.13952301409E-01 -0.47170182788E-02  0.91342566217E-01  0.51100000000E-03 0.  1.
</event>
<event>
 8    1  0.2001339E+004  0.1043930E+01  0.7957747E-01            NaN
         13   -1    0    0    0    0  0.00000000000E+00  0.00000000000E+00  0.74505805969E-08  0.10566000000E+00  0.10566000000E+00 0.  1.
     999900   -1    0    0    0    0 -0.00000000000E+00 -0.00000000000E+00 -0.74505805969E-08  0.93827000000E+00  0.93827000000E+00 0.  1.
     999902    2    1    2    0    0 -0.28036012703E-02 -0.89623687741E-02  0.95037209415E-02  0.10305694257E+01  0.10304828170E+01 0.  0.
     999903    2    3    3    0    0 -0.11598157747E+00 -0.51246021799E-01  0.39671010926E-01  0.14180217438E+00  0.49559928266E-01 0.  0.
         14    1    1    2    0    0  0.28036012703E-02  0.89623687741E-02 -0.95037209415E-02  0.13360574309E-01  0.00000000000E+00 0. -1.
     999901    1    3    3    0    0  0.11317797620E+00  0.42283653025E-01 -0.30167289984E-01  0.88876725131E+00  0.88000000000E+00 0.  1.
        -11    1    4    4    0    0 -0.37729604396E-01 -0.43255949208E-01  0.14361862989E-01  0.59170300145E-01  0.51100000000E-03 0.  1.
         11    1    4    4    0    0 -0.78251973074E-01 -0.79900725905E-02  0.25309147937E-01  0.82631874240E-01  0.51100000000E-03 0. -1.
</event>
<event>
 8    1  0.2001339E+004  0.1043930E+01  0.7957747E-01            NaN
         13   -1    0    0    0    0  0.00000000000E+00  0.00000000000E+00  0.74505805969E-08  0.10566000000E+00  0.10566000000E+00 0. -1.
     999900   -1    0    0    0    0 -0.00000000000E+00 -0.00000000000E+00 -0.74505805969E-08  0.93827000000E+00  0.93827000000E+00 0. -1.
     999902    2    1    2    0    0 -0.59873537302E-03 -0.92516455971E-02  0.97286868427E-02  0.10304912955E+01  0.10304036643E+01 0.  0.
     999903    2    3    3    0    0  0.57603217673E-02 -0.13278418380E+00 -0.17613299744E-01  0.14141969558E+00  0.44994235139E-01 0.  0.
         14    1    1    2    0    0  0.59873537302E-03  0.92516455971E-02 -0.97286868427E-02  0.13438704476E-01  0.00000000000E+00 0.  1.
     999901    1    3    3    0    0 -0.63590571404E-02  0.12353253820E+00  0.27341986587E-01  0.88907159995E+00  0.88000000000E+00 0.  1.
        -11    1    4    4    0    0  0.17451298984E-02 -0.34408141353E-01 -0.25170820912E-01  0.42670798166E-01  0.51100000000E-03 0. -1.
         11    1    4    4    0    0  0.40151918689E-02 -0.98376042445E-01  0.75575211681E-02  0.98748897412E-01  0.51100000000E-03 0.  1.
</event>
<event>
 8    1  0.2001339E+004  0.1043930E+01  0.7957747E-01            NaN
         13   -1    0    0    0    0  0.00000000000E+00  0.00000000000E+00  0.74505805969E-08  0.10566000000E+00  0.10566000000E+00 0. -1.
     999900   -1    0    0    0    0 -0.00000000000E+00 -0.00000000000E+00 -0.74505805969E-08  0.93827000000E+00  0.93827000000E+00 0.  1.
     999902    2    1    2    0    0 -0.32598054481E-02 -0.10479509209E-01 -0.88180210042E-02  0.10298515079E+01  0.10297552740E+01 0.  0.
     999903    2    3    3    0    0  0.99357041903E-01  0.11256858545E-01  0.85126230056E-01  0.13865668671E+00  0.44504641174E-01 0.  0.
         14    1    1    2    0    0  0.32598054481E-02  0.10479509209E-01  0.88180210042E-02  0.14078492080E-01  0.00000000000E+00 0. -1.
     999901    1    3    3    0    0 -0.10261684735E+00 -0.21736367754E-01 -0.93944251060E-01  0.89119482121E+00  0.88000000000E+00 0. -1.
        -11    1    4    4    0    0  0.48562965295E-01 -0.73922984231E-03  0.14216636800E-01  0.50609109277E-01  0.51100000000E-03 0.  1.
         11    1    4    4    0    0  0.50794076608E-01  0.11996088388E-01  0.70909593256E-01  0.88047577433E-01  0.51100000000E-03 0. -1.
</event>
<event>
 8    1  0.2001339E+004  0.1043930E+01  0.7957747E-01            NaN
         13   -1    0    0    0    0  0.00000000000E+00  0.00000000000E+00  0.74505805969E-08  0.10566000000E+00  0.10566000000E+00 0. -1.
     999900   -1    0    0    0    0 -0.00000000000E+00 -0.00000000000E+00 -0.74505805969E-08  0.93827000000E+00  0.93827000000E+00 0. -1.
     999902    2    1    2    0    0 -0.61218940729E-02 -0.17466011344E-01  0.14852118715E-01  0.10201997541E+01  0.10199237294E+01 0.  0.
     999903    2    3    3    0    0 -0.76622757331E-01 -0.67167344337E-01  0.75482830203E-01  0.13390596682E+00  0.43019195820E-01 0.  0.
         14    1    1    2    0    0  0.61218940729E-02  0.17466011344E-01 -0.14852118715E-01  0.23730245882E-01  0.00000000000E+00 0. -1.
     999901    1    3    3    0    0  0.70500863258E-01  0.49701332994E-01 -0.60630711489E-01  0.88629378729E+00  0.88000000000E+00 0. -1.
        -11    1    4    4    0    0 -0.53410548993E-01 -0.18254422001E-01  0.37474435041E-01  0.67753266113E-01  0.51100000000E-03 0.  1.
         11    1    4    4    0    0 -0.23212208338E-01 -0.48912922337E-01  0.38008395162E-01  0.66152700710E-01  0.51100000000E-03 0. -1.
</event>
<event>
 8    1  0.2001339E+004  0.1043930E+01  0.7957747E-01            NaN
         13   -1    0    0    0    0  0.00000000000E+00  0.00000000000E+00  0.74505805969E-08  0.10566000000E+00  0.10566000000E+00 0.  1.
     999900   -1    0    0    0    0 -0.00000000000E+00 -0.00000000000E+00 -0.74505805969E-08  0.93827000000E+00  0.93827000000E+00 0. -1.
     999902    2    1    2    0    0 -0.44858332462E-02  0.13148389797E-01  0.20249600196E-02  0.10298906511E+01  0.10297949553E+01 0.  0.
     999903    2    3    3    0    0 -0.11889720548E+00 -0.43424255625E-01 -0.37334344150E-01  0.13981223820E+00  0.46167058069E-01 0.  0.
         14    1    1    2    0    0  0.44858332462E-02 -0.13148389797E-01 -0.20249600196E-02  0.14039348890E-01  0.00000000000E+00 0.  1.
     999901    1    3    3    0    0  0.11441137223E+00  0.56572645423E-01  0.39359304169E-01  0.89007841291E+00  0.88000000000E+00 0. -1.
        -11    1    4    4    0    0 -0.69921565034E-01 -0.56480182677E-02 -0.58186009900E-02  0.70392063513E-01  0.51100000000E-03 0.  1.
         11    1    4    4    0    0 -0.48975640441E-01 -0.37776237358E-01 -0.31515743160E-01  0.69420174686E-01  0.51100000000E-03 0. -1.
</event>
<event>
 8    1  0.2394994E+004  0.1043930E+01  0.7957747E-01            NaN
         13   -1    0    0    0    0  0.00000000000E+00  0.00000000000E+00  0.74505805969E-08  0.10566000000E+00  0.10566000000E+00 0.  1.
     999900   -1    0    0    0    0 -0.00000000000E+00 -0.00000000000E+00 -0.74505805969E-08  0.93827000000E+00  0.93827000000E+00 0.  1.
     999902    2    1    2    0    0 -0.13481593949E-01 -0.18079348589E-01 -0.15721983207E-01  0.10164382380E+01  0.10160663830E+01 0.  0.
     999903    2    3    3    0    0 -0.63193632975E-01  0.99442606789E-01  0.10641868118E-01  0.12684408928E+00  0.45759221298E-01 0.  0.
         14    1    1    2    0    0  0.13481593949E-01  0.18079348589E-01  0.15721983207E-01  0.27491761980E-01  0.00000000000E+00 0.  1.
     999901    1    3    3    0    0  0.49712039027E-01 -0.11752195538E+00 -0.26363851325E-01  0.88959414874E+00  0.88000000000E+00 0. -1.
        -11    1    4    4    0    0 -0.11989021294E-01  0.54749961412E-01  0.17022712025E-01  0.58577544775E-01  0.51100000000E-03 0. -1.
         11    1    4    4    0    0 -0.51204611681E-01  0.44692645377E-01 -0.63808439074E-02  0.68266544502E-01  0.51100000000E-03 0.  1.
</event>
<event>
 8    1  0.2001339E+004  0.1043930E+01  0.7957747E-01            NaN
         13   -1    0    0    0    0  0.00000000000E+00  0.00000000000E+00  0.74505805969E-08  0.10566000000E+00  0.10566000000E+00 0.  1.
     999900   -1    0    0    0    0 -0.00000000000E+00 -0.00000000000E+00 -0.74505805969E-08  0.93827000000E+00  0.93827000000E+00 0. -1.
     999902    2    1    2    0    0 -0.12409841340E-01  0.20891159514E-02 -0.59968579857E-02  0.10299897391E+01  0.10298953985E+01 0.  0.
     999903    2    3    3    0    0  0.82880969827E-01  0.86780290567E-01 -0.57874790691E-01  0.13929099451E+00  0.40649917155E-01 0.  0.
         14    1    1    2    0    0  0.12409841340E-01 -0.20891159514E-02  0.59968579857E-02  0.13940260875E-01  0.00000000000E+00 0.  1.
     999901    1    3    3    0    0 -0.95290811168E-01 -0.84691174616E-01  0.51877932705E-01  0.89069874461E+00  0.88000000000E+00 0.  1.
        -11    1    4    4    0    0  0.50095038704E-01  0.47741288926E-01 -0.54698494639E-01  0.88209580023E-01  0.51100000000E-03 0. -1.
         11    1    4    4    0    0  0.32785931124E-01  0.39039001641E-01 -0.31762960518E-02  0.51081414491E-01  0.51100000000E-03 0.  1.
</event>
<event>
 8    1  0.2001339E+004  0.1043930E+01  0.7957747E-01            NaN
         13   -1    0    0    0    0  0.00000000000E+00  0.00000000000E+00  0.74505805969E-08  0.10566000000E+00  0.10566000000E+00 0.  1.
     999900   -1    0    0    0    0 -0.00000000000E+00 -0.00000000000E+00 -0.74505805969E-08  0.93827000000E+00  0.93827000000E+00 0. -1.
     999902    2    1    2    0    0  0.32490182429E-02 -0.21419876330E-01 -0.53113429856E-03  0.10222586058E+01  0.10220288684E+01 0.  0.
     999903    2    3    3    0    0  0.87933102439E-01  0.75333820925E-01 -0.44003311131E-01  0.13185279823E+00  0.45182451590E-01 0.  0.
         14    1    1    2    0    0 -0.32490182429E-02  0.21419876330E-01  0.53113429856E-03  0.21671394168E-01  0.00000000000E+00 0.  1.
     999901    1    3    3    0    0 -0.84684084196E-01 -0.96753697255E-01  0.43472176833E-01  0.89040580760E+00  0.88000000000E+00 0. -1.
        -11    1    4    4    0    0  0.14675051645E-01  0.40547537527E-01 -0.13180733698E-01  0.45093822217E-01  0.51100000000E-03 0. -1.
         11    1    4    4    0    0  0.73258050794E-01  0.34786283398E-01 -0.30822577433E-01  0.86758976016E-01  0.51100000000E-03 0.  1.
</event>
<event>
 8    1  0.2001339E+004  0.1043930E+01  0.7957747E-01            NaN
         13   -1    0    0    0    0  0.00000000000E+00  0.00000000000E+00  0.74505805969E-08  0.10566000000E+00  0.10566000000E+00 0.  1.
     999900   -1    0    0    0    0 -0.00000000000E+00 -0.00000000000E+00 -0.74505805969E-08  0.93827000000E+00  0.93827000000E+00 0.  1.
     999902    2    1    2    0    0 -0.29643393775E-02  0.13353663498E-01 -0.18450560277E-02  0.10301273963E+01  0.10300349221E+01 0.  0.
     999903    2    3    3    0    0 -0.11440106747E+00  0.69784897636E-01  0.14427728335E-02  0.14130039494E+00  0.44790443617E-01 0.  0.
         14    1    1    2    0    0  0.29643393775E-02 -0.13353663498E-01  0.18450560277E-02  0.13802603686E-01  0.00000000000E+00 0. -1.
     999901    1    3    3    0    0  0.11143672810E+00 -0.56431234138E-01 -0.32878288612E-02  0.88882700138E+00  0.88000000000E+00 0.  1.
        -11    1    4    4    0    0 -0.21137709895E-01  0.29722947317E-01  0.13897579324E-01  0.39034090342E-01  0.51100000000E-03 0.  1.
         11    1    4    4    0    0 -0.93263357578E-01  0.40061950319E-01 -0.12454806490E-01  0.10226630460E+00  0.51100000000E-03 0. -1.
</event>
<event>
 8    1  0.2001339E+004  0.1043930E+01  0.7957747E-01            NaN
         13   -1    0    0    0    0  0.00000000000E+00  0.00000000000E+00  0.74505805969E-08  0.10566000000E+00  0.10566000000E+00 0.  1.
     999900   -1    0    0    0    0 -0.00000000000E+00 -0.00000000000E+00 -0.74505805969E-08  0.93827000000E+00  0.93827000000E+00 0.  1.
     999902    2    1    2    0    0  0.14490664300E-01 -0.35687069215E-02 -0.67231284340E-02  0.10275618762E+01  0.10274315033E+01 0.  0.
     999903    2    3    3    0    0 -0.86641389782E-01  0.74594629144E-01  0.58303430967E-01  0.13595341230E+00  0.44865923953E-01 0.  0.
         14    1    1    2    0    0 -0.14490664300E-01  0.35687069215E-02  0.67231284340E-02  0.16368123805E-01  0.00000000000E+00 0.  1.
     999901    1    3    3    0    0  0.10113205408E+00 -0.78163336066E-01 -0.65026559401E-01  0.89160846390E+00  0.88000000000E+00 0.  1.
        -11    1    4    4    0    0 -0.47436738942E-01  0.18953375745E-01  0.89197255347E-02  0.51858434976E-01  0.51100000000E-03 0.  1.
         11    1    4    4    0    0 -0.39204650840E-01  0.55641253400E-01  0.49383705432E-01  0.84094977321E-01  0.51100000000E-03 0. -1.
</event>
<event>
 8    1  0.2001339E+004  0.1043930E+01  0.7957747E-01            NaN
         13   -1    0    0    0    0  0.00000000000E+00  0.00000000000E+00  0.74505805969E-08  0.10566000000E+00  0.10566000000E+00 0.  1.
     999900   -1    0    0    0    0 -0.00000000000E+00 -0.00000000000E+00 -0.74505805969E-08  0.93827000000E+00  0.93827000000E+00 0.  1.
     999902    2    1    2    0    0 -0.17401124347E-03  0.35441434239E-02  0.14441515245E-01  0.10290589343E+01  0.10289514768E+01 0.  0.
     999903    2    3    3    0    0 -0.10744632605E+00 -0.20725874191E-01 -0.72165006822E-01  0.13799380035E+00  0.43130335977E-01 0.  0.
         14    1    1    2    0    0  0.17401124347E-03 -0.35441434239E-02 -0.14441515245E-01  0.14871065701E-01  0.00000000000E+00 0. -1.
     999901    1    3    3    0    0  0.10727231481E+00  0.24270017615E-01  0.86606522067E-01  0.89106513395E+00  0.88000000000E+00 0. -1.
        -11    1    4    4    0    0 -0.21452099068E-01 -0.20499417896E-01 -0.30069407672E-01  0.42247474330E-01  0.51100000000E-03 0.  1.
         11    1    4    4    0    0 -0.85994226984E-01 -0.22645629562E-03 -0.42095599150E-01  0.95746326017E-01  0.51100000000E-03 0. -1.
</event>
<event>
 8    1  0.2001339E+004  0.1043930E+01  0.7957747E-01            NaN
         13   -1    0    0    0    0  0.00000000000E+00  0.00000000000E+00  0.74505805969E-08  0.10566000000E+00  0.10566000000E+00 0.  1.
     999900   -1    0    0    0    0 -0.00000000000E+00 -0.00000000000E+00 -0.74505805969E-08  0.93827000000E+00  0.93827000000E+00 0.  1.
     999902    2    1    2    0    0 -0.40403017357E-02 -0.13987004160E-01  0.13853306183E-02  0.10293053816E+01  0.10292014813E+01 0.  0.
     999903    2    3    3    0    0  0.67664061615E-01 -0.62087339905E-02 -0.11278587453E+00  0.13900370163E+00  0.44546626809E-01 0.  0.
         14    1    1    2    0    0  0.40403017357E-02  0.13987004160E-01 -0.13853306183E-02  0.14624618436E-01  0.00000000000E+00 0.  1.
     999901    1    3    3    0    0 -0.71704363351E-01 -0.77782701691E-02  0.11417120515E+00  0.89030167994E+00  0.88000000000E+00 0.  1.
        -11    1    4    4    0    0  0.41418555514E-02 -0.12219668528E-01 -0.52028007941E-02  0.13921405225E-01  0.51100000000E-03 0. -1.
         11    1    4    4    0    0  0.63522206063E-01  0.60109345374E-02 -0.10758307374E+00  0.12508229640E+00  0.51100000000E-03 0.  1.
</event>
<event>
 8    1  0.2001339E+004  0.1043930E+01  0.7957747E-01            NaN
         13   -1    0    0    0    0  0.00000000000E+00  0.00000000000E+00  0.74505805969E-08  0.10566000000E+00  0.10566000000E+00 0.  1.
     999900   -1    0    0    0    0 -0.00000000000E+00 -0.00000000000E+00 -0.74505805969E-08  0.93827000000E+00  0.93827000000E+00 0. -1.
     999902    2    1    2    0    0  0.11729052511E-01  0.94085718471E-02 -0.34210435227E-02  0.10285093828E+01  0.10283937743E+01 0.  0.
     999903    2    3    3    0    0 -0.10772146190E+00  0.70801863551E-01  0.20822628439E-01  0.13798969332E+00  0.44617892959E-01 0.  0.
         14    1    1    2    0    0 -0.11729052511E-01 -0.94085718471E-02  0.34210435227E-02  0.15420617231E-01  0.00000000000E+00 0. -1.
     999901    1    3    3    0    0  0.11945051441E+00 -0.61393291704E-01 -0.24243671961E-01  0.89051968945E+00  0.88000000000E+00 0.  1.
        -11    1    4    4    0    0 -0.37968012129E-01  0.24566244163E-02 -0.40176360096E-03  0.38052956305E-01  0.51100000000E-03 0. -1.
         11    1    4    4    0    0 -0.69753449771E-01  0.68345239135E-01  0.21224392040E-01  0.99936737018E-01  0.51100000000E-03 0.  1.
</event>
<event>
 8    1  0.2001339E+004  0.1043930E+01  0.7957747E-01            NaN
         13   -1    0    0    0    0  0.00000000000E+00  0.00000000000E+00  0.74505805969E-08  0.10566000000E+00  0.10566000000E+00 0.  1.
     999900   -1    0    0    0    0 -0.00000000000E+00 -0.00000000000E+00 -0.74505805969E-08  0.93827000000E+00  0.93827000000E+00 0.  1.
     999902    2    1    2    0    0 -0.36653826967E-02 -0.63543092322E-02  0.12068710324E-01  0.10298067552E+01  0.10297099043E+01 0.  0.
     999903    2    3    3    0    0  0.64667262143E-01 -0.20286909446E-02  0.11705600328E+00  0.14092521467E+00  0.44405380834E-01 0.  0.
         14    1    1    2    0    0  0.36653826967E-02  0.63543092322E-02 -0.12068710324E-01  0.14123244848E-01  0.00000000000E+00 0. -1.
     999901    1    3    3    0    0 -0.68332644840E-01 -0.43256182877E-02 -0.10498729295E+00  0.88888154048E+00  0.88000000000E+00 0.  1.
        -11    1    4    4    0    0  0.69769400100E-02 -0.16803422289E-01  0.36036518396E-01  0.40372323090E-01  0.51100000000E-03 0. -1.
         11    1    4    4    0    0  0.57690322133E-01  0.14774731345E-01  0.81019484882E-01  0.10055289158E+00  0.51100000000E-03 0.  1.
</event>
<event>
 8    1  0.2001339E+004  0.1043930E+01  0.7957747E-01            NaN
         13   -1    0    0    0    0  0.00000000000E+00  0.00000000000E+00  0.74505805969E-08  0.10566000000E+00  0.10566000000E+00 0.  1.
     999900   -1    0    0    0    0 -0.00000000000E+00 -0.00000000000E+00 -0.74505805969E-08  0.93827000000E+00  0.93827000000E+00 0.  1.
     999902    2    1    2    0    0 -0.58217089880E-02 -0.30423599712E-02  0.12318631637E-01  0.10299694508E+01  0.10298748334E+01 0.  0.
     999903    2    3    3    0    0  0.43658773937E-02 -0.13264793468E+00 -0.42882683179E-02  0.14026321776E+00  0.45175718603E-01 0.  0.
         14    1    1    2    0    0  0.58217089880E-02  0.30423599712E-02 -0.12318631637E-01  0.13960549242E-01  0.00000000000E+00 0. -1.
     999901    1    3    3    0    0 -0.10187586382E-01  0.12960557471E+00  0.16606899955E-01  0.88970623300E+00  0.88000000000E+00 0.  1.
        -11    1    4    4    0    0  0.16800507994E-01 -0.84299454091E-01  0.14006001216E-01  0.87092388990E-01  0.51100000000E-03 0. -1.
         11    1    4    4    0    0 -0.12434630601E-01 -0.48348480587E-01 -0.18294269534E-01  0.53170828769E-01  0.51100000000E-03 0.  1.
</event>
<event>
 8    1  0.2001339E+004  0.1043930E+01  0.7957747E-01            NaN
         13   -1    0    0    0    0  0.00000000000E+00  0.00000000000E+00  0.74505805969E-08  0.10566000000E+00  0.10566000000E+00 0. -1.
     999900   -1    0    0    0    0 -0.00000000000E+00 -0.00000000000E+00 -0.74505805969E-08  0.93827000000E+00  0.93827000000E+00 0.  1.
     999902    2    1    2    0    0  0.12511201504E-01  0.62306524621E-02 -0.14764917964E-02  0.10298754199E+01  0.10297795149E+01 0.  0.
     999903    2    3    3    0    0 -0.47891118735E-01 -0.56103582434E-01  0.10854174841E+00  0.13878731524E+00  0.45160120758E-01 0.  0.
         14    1    1    2    0    0 -0.12511201504E-01 -0.62306524621E-02  0.14764917964E-02  0.14054580080E-01  0.00000000000E+00 0. -1.
     999901    1    3    3    0    0  0.60402320239E-01  0.62334234896E-01 -0.11001824021E+00  0.89108810468E+00  0.88000000000E+00 0.  1.
        -11    1    4    4    0    0 -0.55630346292E-02 -0.41194108108E-01  0.54284693437E-01  0.68373905547E-01  0.51100000000E-03 0.  1.
         11    1    4    4    0    0 -0.42328084105E-01 -0.14909474325E-01  0.54257054975E-01  0.70413409690E-01  0.51100000000E-03 0. -1.
</event>
<event>
 8    1  0.2001339E+004  0.1043930E+01  0.7957747E-01            NaN
         13   -1    0    0    0    0  0.00000000000E+00  0.00000000000E+00  0.74505805969E-08  0.10566000000E+00  0.10566000000E+00 0.  1.
     999900   -1    0    0    0    0 -0.00000000000E+00 -0.00000000000E+00 -0.74505805969E-08  0.93827000000E+00  0.93827000000E+00 0.  1.
     999902    2    1    2    0    0  0.11442871089E-01  0.80304207422E-03 -0.73790394349E-02  0.10302905573E+01  0.10302002708E+01 0.  0.
     999903    2    3    3    0    0  0.44040754867E-01 -0.11106548823E+00 -0.57770957474E-01  0.14118058909E+00  0.48159572706E-01 0.  0.
         14    1    1    2    0    0 -0.11442871089E-01 -0.80304207422E-03  0.73790394349E-02  0.13639442742E-01  0.00000000000E+00 0. -1.
     999901    1    3    3    0    0 -0.32597883778E-01  0.11186853030E+00  0.50391918039E-01  0.88910996817E+00  0.88000000000E+00 0.  1.
        -11    1    4    4    0    0  0.17300245073E-02 -0.40930398389E-01 -0.41052085320E-04  0.40970151371E-01  0.51100000000E-03 0.  1.
         11    1    4    4    0    0  0.42310730360E-01 -0.70135089837E-01 -0.57729905389E-01  0.10021043772E+00  0.51100000000E-03 0. -1.
</event>
<event>
 8    1  0.2001339E+004  0.1043930E+01  0.7957747E-01            NaN
         13   -1    0    0    0    0  0.00000000000E+00  0.00000000000E+00  0.74505805969E-08  0.10566000000E+00  0.10566000000E+00 0.  1.
     999900   -1    0    0    0    0 -0.00000000000E+00 -0.00000000000E+00 -0.74505805969E-08  0.93827000000E+00  0.93827000000E+00 0. -1.
     999902    2    1    2    0    0 -0.27538087330E-02  0.24814787128E-02 -0.13667607779E-01  0.10297686194E+01  0.10296712411E+01 0.  0.
     999903    2    3    3    0    0 -0.27741926440E-01 -0.99746489866E-01  0.81435516894E-01  0.13841034801E+00  0.42505344390E-01 0.  0.
         14    1    1    2    0    0  0.27538087330E-02 -0.24814787128E-02  0.13667607779E-01  0.14161380636E-01  0.00000000000E+00 0.  1.
     999901    1    3    3    0    0  0.24988117707E-01  0.10222796858E+00 -0.95103124672E-01  0.89135827135E+00  0.88000000000E+00 0. -1.
        -11    1    4    4    0    0 -0.12039948031E-01 -0.86885722213E-01  0.78841897391E-01  0.11794233751E+00  0.51100000000E-03 0. -1.
         11    1    4    4    0    0 -0.15701978409E-01 -0.12860767653E-01  0.25936195024E-02  0.20468010497E-01  0.51100000000E-03 0.  1.
</event>
<event>
 8    1  0.2001339E+004  0.1043930E+01  0.7957747E-01            NaN
         13   -1    0    0    0    0  0.00000000000E+00  0.00000000000E+00  0.74505805969E-08  0.10566000000E+00  0.10566000000E+00 0.  1.
     999900   -1    0    0    0    0 -0.00000000000E+00 -0.00000000000E+00 -0.74505805969E-08  0.93827000000E+00  0.93827000000E+00 0. -1.
     999902    2    1    2    0    0 -0.66957545858E-02  0.72920605545E-02 -0.10297738509E-01  0.10296453686E+01  0.10295462760E+01 0.  0.
     999903    2    3    3    0    0  0.58044601536E-01  0.11871062357E+00  0.13066035285E-01  0.13995369399E+00  0.44214559444E-01 0.  0.
         14    1    1    2    0    0  0.66957545858E-02 -0.72920605545E-02  0.10297738509E-01  0.14284631427E-01  0.00000000000E+00 0.  1.
     999901    1    3    3    0    0 -0.64740356122E-01 -0.11141856302E+00 -0.23363773794E-01  0.88969167458E+00  0.88000000000E+00 0. -1.
        -11    1    4    4    0    0  0.63135601316E-01  0.91708670584E-01  0.15268426478E-01  0.11238314100E+00  0.51100000000E-03 0. -1.
         11    1    4    4    0    0 -0.50909997798E-02  0.27001952990E-01 -0.22023911938E-02  0.27570552986E-01  0.51100000000E-03 0.  1.
</event>
<event>
 8    1  0.2001339E+004  0.1043930E+01  0.7957747E-01            NaN
         13   -1    0    0    0    0  0.00000000000E+00  0.00000000000E+00  0.74505805969E-08  0.10566000000E+00  0.10566000000E+00 0.  1.
     999900   -1    0    0    0    0 -0.00000000000E+00 -0.00000000000E+00 -0.74505805969E-08  0.93827000000E+00  0.93827000000E+00 0. -1.
     999902    2    1    2    0    0 -0.42171953150E-02  0.12572677714E-01 -0.28746710222E-03  0.10306657775E+01  0.10305804216E+01 0.  0.
     999903    2    3    3    0    0 -0.50719164145E-01  0.76297760410E-01 -0.96227422201E-01  0.14194321435E+00  0.49943742959E-01 0.  0.
         14    1    1    2    0    0  0.42171953150E-02 -0.12572677714E-01  0.28746710222E-03  0.13264222501E-01  0.00000000000E+00 0. -1.
     999901    1    3    3    0    0  0.46501968830E-01 -0.63725082696E-01  0.95939955099E-01  0.88872256315E+00  0.88000000000E+00 0.  1.
        -11    1    4    4    0    0 -0.38832591210E-01  0.16924079060E-01 -0.28314919367E-01  0.50954787527E-01  0.51100000000E-03 0. -1.
         11    1    4    4    0    0 -0.11886572935E-01  0.59373681349E-01 -0.67912502834E-01  0.90988426821E-01  0.51100000000E-03 0.  1.
</event>
<event>
 8    1  0.2001339E+004  0.1043930E+01  0.7957747E-01            NaN
         13   -1    0    0    0    0  0.00000000000E+00  0.00000000000E+00  0.74505805969E-08  0.10566000000E+00  0.10566000000E+00 0. -1.
     999900   -1    0    0    0    0 -0.00000000000E+00 -0.00000000000E+00 -0.74505805969E-08  0.93827000000E+00  0.93827000000E+00 0. -1.
     999902    2    1    2    0    0 -0.12881123980E-01 -0.16092338305E-02 -0.53345718867E-02  0.10298953769E+01  0.10297997459E+01 0.  0.
     999903    2    3    3    0    0  0.10036761475E+00  0.80831337461E-01 -0.24129977489E-01  0.13861820794E+00  0.45004317047E-01 0.  0.
         14    1    1    2    0    0  0.12881123980E-01  0.16092338305E-02  0.53345718867E-02  0.14034623106E-01  0.00000000000E+00 0.  1.
     999901    1    3    3    0    0 -0.11324873873E+00 -0.82440571292E-01  0.18795405602E-01  0.89127716895E+00  0.88000000000E+00 0.  1.
        -11    1    4    4    0    0  0.11175107722E-01  0.71571671532E-02 -0.18527786611E-01  0.22795790663E-01  0.51100000000E-03 0. -1.
         11    1    4    4    0    0  0.89192507032E-01  0.73674170308E-01 -0.56021908783E-02  0.11582241728E+00  0.51100000000E-03 0.  1.
</event>
<event>
 8    1  0.2001339E+004  0.1043930E+01  0.7957747E-01            NaN
         13   -1    0    0    0    0  0.00000000000E+00  0.00000000000E+00  0.74505805969E-08  0.10566000000E+00  0.10566000000E+00 0. -1.
     999900   -1    0    0    0    0 -0.00000000000E+00 -0.00000000000E+00 -0.74505805969E-08  0.93827000000E+00  0.93827000000E+00 0. -1.
     999902    2    1    2    0    0 -0.24769806075E-02  0.13159891630E-01  0.52260290635E-02  0.10295553849E+01  0.10294550310E+01 0.  0.
     999903    2    3    3    0    0 -0.10940804260E+00 -0.64548423054E-01  0.32230537766E-01  0.13927336343E+00  0.47134313321E-01 0.  0.
         14    1    1    2    0    0  0.24769806075E-02 -0.13159891630E-01 -0.52260290635E-02  0.14374615140E-01  0.00000000000E+00 0.  1.
     999901    1    3    3    0    0  0.10693106199E+00  0.77708314684E-01 -0.27004508702E-01  0.89028202143E+00  0.88000000000E+00 0.  1.
        -11    1    4    4    0    0 -0.90713629648E-01 -0.67824228706E-01  0.16189203835E-01  0.11441783098E+00  0.51100000000E-03 0.  1.
         11    1    4    4    0    0 -0.18694412953E-01  0.32758056521E-02  0.16041333931E-01  0.24855532455E-01  0.51100000000E-03 0. -1.
</event>
<event>
 8    1  0.2001339E+004  0.1043930E+01  0.7957747E-01            NaN
         13   -1    0    0    0    0  0.00000000000E+00  0.00000000000E+00  0.74505805969E-08  0.10566000000E+00  0.10566000000E+00 0.  1.
     999900   -1    0    0    0    0 -0.00000000000E+00 -0.00000000000E+00 -0.74505805969E-08  0.93827000000E+00  0.93827000000E+00 0.  1.
     999902    2    1    2    0    0 -0.89531557460E-02  0.33341814387E-02  0.91933570103E-02  0.10306712830E+01  0.10305859984E+01 0.  0.
     999903    2    3    3    0    0 -0.10611973705E+00  0.11229946844E-01 -0.79945818981E-01  0.14081203551E+00  0.45267925422E-01 0.  0.
         14    1    1    2    0    0  0.89531557460E-02 -0.33341814387E-02 -0.91933570103E-02  0.13258717012E-01  0.00000000000E+00 0. -1.
     999901    1    3    3    0    0  0.97166581309E-01 -0.78957654048E-02  0.89139175991E-01  0.88985924748E+00  0.88000000000E+00 0. -1.
        -11    1    4    4    0    0 -0.32217963759E-01 -0.17307402914E-01 -0.28245460691E-01  0.46212666608E-01  0.51100000000E-03 0. -1.
         11    1    4    4    0    0 -0.73901773296E-01  0.28537349757E-01 -0.51700358289E-01  0.94599368897E-01  0.51100000000E-03 0.  1.
</event>
<event>
 8    1  0.2001339E+004  0.1043930E+01  0.7957747E-01            NaN
         13   -1    0    0    0    0  0.00000000000E+00  0.00000000000E+00  0.74505805969E-08  0.10566000000E+00  0.10566000000E+00 0.  1.
     999900   -1    0    0    0    0 -0.00000000000E+00 -0.00000000000E+00 -0.74505805969E-08  0.93827000000E+00  0.93827000000E+00 0.  1.
     999902    2    1    2    0    0  0.11654649674E-02 -0.82912505402E-02 -0.90124462095E-02  0.10316284826E+01  0.10315551361E+01 0.  0.
     999903    2    3    3    0    0  0.12003969043E+00 -0.34852183620E-01 -0.51529819957E-01  0.14222177487E+00  0.44130589423E-01 0.  0.
         14    1    1    2    0    0 -0.11654649674E-02  0.82912505402E-02  0.90124462095E-02  0.12301517418E-01  0.00000000000E+00 0.  1.
     999901    1    3    3    0    0 -0.11887422546E+00  0.26560933080E-01  0.42517373747E-01  0.88940670771E+00  0.88000000000E+00 0.  1.
        -11    1    4    4    0    0  0.76866961619E-01 -0.11794799745E-01 -0.10739217255E-01  0.78506299097E-01  0.51100000000E-03 0.  1.
         11    1    4    4    0    0  0.43172728807E-01 -0.23057383875E-01 -0.40790602701E-01  0.63715475778E-01  0.51100000000E-03 0. -1.
</event>
<event>
 8    1  0.2001339E+004  0.1043930E+01  0.7957747E-01            NaN
         13   -1    0    0    0    0  0.00000000000E+00  0.00000000000E+00  0.74505805969E-08  0.10566000000E+00  0.10566000000E+00 0. -1.
     999900   -1    0    0    0    0 -0.00000000000E+00 -0.00000000000E+00 -0.74505805969E-08  0.93827000000E+00  0.93827000000E+00 0.  1.
     999902    2    1    2    0    0 -0.41872893922E-02  0.55838784682E-02 -0.10439385226E-01  0.10313723786E+01  0.10312959272E+01 0.  0.
     999903    2    3    3    0    0 -0.91528831991E-01 -0.76722893020E-02  0.94650725758E-01  0.14072755463E+00  0.49082518647E-01 0.  0.
         14    1    1    2    0    0  0.41872893922E-02 -0.55838784682E-02  0.10439385226E-01  0.12557621395E-01  0.00000000000E+00 0. -1.
     999901    1    3    3    0    0  0.87341542599E-01  0.13256167770E-01 -0.10509011098E+00  0.89064482398E+00  0.88000000000E+00 0.  1.
        -11    1    4    4    0    0 -0.11491435388E-01 -0.17399560548E-01  0.33786175224E-01  0.39705976273E-01  0.51100000000E-03 0.  1.
         11    1    4    4    0    0 -0.80037396604E-01  0.97272712457E-02  0.60864550534E-01  0.10102157836E+00  0.51100000000E-03 0. -1.
</event>
<event>
 8    1  0.2001339E+004  0.1043930E+01  0.7957747E-01            NaN
         13   -1    0    0    0    0  0.00000000000E+00  0.00000000000E+00  0.74505805969E-08  0.10566000000E+00  0.10566000000E+00 0. -1.
     999900   -1    0    0    0    0 -0.00000000000E+00 -0.00000000000E+00 -0.74505805969E-08  0.93827000000E+00  0.93827000000E+00 0. -1.
     999902    2    1    2    0    0  0.12002762384E-01  0.73711292024E-03  0.81383979848E-02  0.10294095605E+01  0.10293071457E+01 0.  0.
     999903    2    3    3    0    0  0.99163028314E-01 -0.20659146422E-01 -0.85505448405E-01  0.13990189793E+00  0.44735364347E-01 0.  0.
         14    1    1    2    0    0 -0.12002762384E-01 -0.73711292024E-03 -0.81383979848E-02  0.14520439458E-01  0.00000000000E+00 0. -1.
     999901    1    3    3    0    0 -0.87160265930E-01  0.21396259343E-01  0.93643846390E-01  0.88950766261E+00  0.88000000000E+00 0.  1.
        -11    1    4    4    0    0  0.63476889270E-01 -0.44289112612E-02 -0.26217115843E-01  0.68822445543E-01  0.51100000000E-03 0. -1.
         11    1    4    4    0    0  0.35686139044E-01 -0.16230235161E-01 -0.59288332562E-01  0.71079452391E-01  0.51100000000E-03 0.  1.
</event>
<event>
 8    1  0.2001339E+004  0.1043930E+01  0.7957747E-01            NaN
         13   -1    0    0    0    0  0.00000000000E+00  0.00000000000E+00  0.74505805969E-08  0.10566000000E+00  0.10566000000E+00 0.  1.
     999900   -1    0    0    0    0 -0.00000000000E+00 -0.00000000000E+00 -0.74505805969E-08  0.93827000000E+00  0.93827000000E+00 0. -1.
     999902    2    1    2    0    0 -0.79447913790E-02 -0.10409165325E-01 -0.41515841828E-02  0.10301929667E+01  0.10301013749E+01 0.  0.
     999903    2    3    3    0    0  0.11310521857E+00  0.66195533533E-01  0.19401774984E-03  0.13859873777E+00  0.45110235448E-01 0.  0.
         14    1    1    2    0    0  0.79447913790E-02  0.10409165325E-01  0.41515841828E-02  0.13737033306E-01  0.00000000000E+00 0.  1.
     999901    1    3    3    0    0 -0.12105000994E+00 -0.76604698858E-01 -0.43456019327E-02  0.89159422892E+00  0.88000000000E+00 0. -1.
        -11    1    4    4    0    0  0.58749467845E-02  0.20741755992E-01  0.45965207270E-02  0.22048232699E-01  0.51100000000E-03 0.  1.
         11    1    4    4    0    0  0.10723027178E+00  0.45453777541E-01 -0.44025029772E-02  0.11655050507E+00  0.51100000000E-03 0. -1.
</event>
<event>
 8    1  0.2001339E+004  0.1043930E+01  0.7957747E-01            NaN
         13   -1    0    0    0    0  0.00000000000E+00  0.00000000000E+00  0.74505805969E-08  0.10566000000E+00  0.10566000000E+00 0.  1.
     999900   -1    0    0    0    0 -0.00000000000E+00 -0.00000000000E+00 -0.74505805969E-08  0.93827000000E+00  0.93827000000E+00 0. -1.
     999902    2    1    2    0    0 -0.53071283929E-02 -0.12291024364E-01 -0.38831606063E-02  0.10299903505E+01  0.10298960182E+01 0.  0.
     999903    2    3    3    0    0 -0.79040417878E-01  0.13897485928E-01 -0.10633094088E+00  0.14059843255E+00  0.44956895715E-01 0.  0.
         14    1    1    2    0    0  0.53071283929E-02  0.12291024364E-01  0.38831606063E-02  0.13939649493E-01  0.00000000000E+00 0. -1.
     999901    1    3    3    0    0  0.73733289485E-01 -0.26188510291E-01  0.10244778028E+00  0.88939191796E+00  0.88000000000E+00 0.  1.
        -11    1    4    4    0    0 -0.46789130994E-01  0.19795580562E-01 -0.91393196815E-01  0.10456608118E+00  0.51100000000E-03 0.  1.
         11    1    4    4    0    0 -0.32251286884E-01 -0.58980946349E-02 -0.14937744067E-01  0.36032351364E-01  0.51100000000E-03 0. -1.
</event>
<event>
 7    1  0.2001339E+004  0.1043930E+01  0.7957747E-01            NaN
         13   -1    0    0    0    0  0.00000000000E+00  0.00000000000E+00  0.74505805969E-08  0.10566000000E+00  0.10566000000E+00 0.  1.
     999900   -1    0    0    0    0 -0.00000000000E+00 -0.00000000000E+00 -0.74505805969E-08  0.93827000000E+00  0.93827000000E+00 0.  1.
     999903    2    1    2    0    0 -0.87941950587E-01 -0.16927950082E-01 -0.66185196397E-01  0.11902723795E+00  0.42031666457E-01 0.  0.
         14    1    1    2    0    0 -0.23940599307E-01  0.17240915984E-01 -0.16791843423E-01  0.33946538626E-01  0.00000000000E+00 0. -1.
     999901    1    1    2    0    0  0.11188254989E+00 -0.31296590170E-03  0.82977039819E-01  0.89095622342E+00  0.88000000000E+00 0. -1.
        -11    1    3    3    0    0 -0.37316681805E-01  0.21941118466E-02 -0.50211528727E-01  0.62600380237E-01  0.51100000000E-03 0.  1.
         11    1    3    3    0    0 -0.50625268782E-01 -0.19122061929E-01 -0.15973667670E-01  0.56426857715E-01  0.51100000000E-03 0. -1.
</event>
<event>
 8    1  0.2001339E+004  0.1043930E+01  0.7957747E-01            NaN
         13   -1    0    0    0    0  0.00000000000E+00  0.00000000000E+00  0.74505805969E-08  0.10566000000E+00  0.10566000000E+00 0. -1.
     999900   -1    0    0    0    0 -0.00000000000E+00 -0.00000000000E+00 -0.74505805969E-08  0.93827000000E+00  0.93827000000E+00 0.  1.
     999902    2    1    2    0    0 -0.40877763071E-02 -0.11533871151E-01 -0.67726055119E-02  0.10299439968E+01  0.10298490318E+01 0.  0.
     999903    2    3    3    0    0 -0.10075313647E+00  0.60059848683E-01  0.60302526599E-01  0.13923140239E+00  0.44616238808E-01 0.  0.
         14    1    1    2    0    0  0.40877763071E-02  0.11533871151E-01  0.67726055119E-02  0.13986003156E-01  0.00000000000E+00 0.  1.
     999901    1    3    3    0    0  0.96665360158E-01 -0.71593719834E-01 -0.67075132111E-01  0.89071259446E+00  0.88000000000E+00 0.  1.
        -11    1    4    4    0    0 -0.95744181187E-01  0.38272043595E-01  0.50536932738E-01  0.11483004939E+00  0.51100000000E-03 0.  1.
         11    1    4    4    0    0 -0.50089552781E-02  0.21787805088E-01  0.97655938602E-02  0.24401352995E-01  0.51100000000E-03 0. -1.
</event>
<event>
 8    1  0.2001339E+004  0.1043930E+01  0.7957747E-01            NaN
         13   -1    0    0    0    0  0.00000000000E+00  0.00000000000E+00  0.74505805969E-08  0.10566000000E+00  0.10566000000E+00 0.  1.
     999900   -1    0    0    0    0 -0.00000000000E+00 -0.00000000000E+00 -0.74505805969E-08  0.93827000000E+00  0.93827000000E+00 0.  1.
     999902    2    1    2    0    0 -0.11107997772E-01 -0.44299227294E-02  0.83058595120E-02  0.10293698100E+01  0.10292668297E+01 0.  0.
     999903    2    3    3    0    0  0.71780968990E-01 -0.92062990338E-01 -0.59882635229E-01  0.13852762077E+00  0.44450759428E-01 0.  0.
         14    1    1    2    0    0  0.11107997772E-01  0.44299227294E-02 -0.83058595120E-02  0.14560189975E-01  0.00000000000E+00 0. -1.
     999901    1    3    3    0    0 -0.82888966761E-01  0.87633067609E-01  0.68188494741E-01  0.89084218926E+00  0.88000000000E+00 0. -1.
        -11    1    4    4    0    0  0.23705418134E-01 -0.14954475242E-01  0.27450362545E-02  0.28166993516E-01  0.51100000000E-03 0.  1.
         11    1    4    4    0    0  0.48075550855E-01 -0.77108515096E-01 -0.62627671484E-01  0.11036062725E+00  0.51100000000E-03 0. -1.
</event>
<event>
 8    1  0.2001339E+004  0.1043930E+01  0.7957747E-01            NaN
         13   -1    0    0    0    0  0.00000000000E+00  0.00000000000E+00  0.74505805969E-08  0.10566000000E+00  0.10566000000E+00 0.  1.
     999900   -1    0    0    0    0 -0.00000000000E+00 -0.00000000000E+00 -0.74505805969E-08  0.93827000000E+00  0.93827000000E+00 0. -1.
     999902    2    1    2    0    0  0.37355477573E-02  0.11969770131E-01  0.72977529034E-02  0.10294218329E+01  0.10293195924E+01 0.  0.
     999903    2    3    3    0    0 -0.68642482300E-01  0.98590977790E-01 -0.55753086197E-01  0.13997412725E+00  0.45303183109E-01 0.  0.
         14    1    1    2    0    0 -0.37355477573E-02 -0.11969770131E-01 -0.72977529034E-02  0.14508167061E-01  0.00000000000E+00 0. -1.
     999901    1    3    3    0    0  0.72378030058E-01 -0.86621207659E-01  0.63050839100E-01  0.88944770569E+00  0.88000000000E+00 0. -1.
        -11    1    4    4    0    0 -0.21727850689E-01  0.11439759679E-01  0.32022852749E-02  0.24768596025E-01  0.51100000000E-03 0.  1.
         11    1    4    4    0    0 -0.46914631612E-01  0.87151218111E-01 -0.58955371472E-01  0.11520553122E+00  0.51100000000E-03 0. -1.
</event>
<event>
 8    1  0.2001339E+004  0.1043930E+01  0.7957747E-01            NaN
         13   -1    0    0    0    0  0.00000000000E+00  0.00000000000E+00  0.74505805969E-08  0.10566000000E+00  0.10566000000E+00 0.  1.
     999900   -1    0    0    0    0 -0.00000000000E+00 -0.00000000000E+00 -0.74505805969E-08  0.93827000000E+00  0.93827000000E+00 0. -1.
     999902    2    1    2    0    0  0.61256178008E-02 -0.12011612114E-01  0.52490706699E-03  0.10304363887E+01  0.10303480352E+01 0.  0.
     999903    2    3    3    0    0  0.89254517548E-01 -0.66206864769E-01 -0.74682163338E-01  0.14167115375E+00  0.46298730421E-01 0.  0.
         14    1    1    2    0    0 -0.61256178008E-02  0.12011612114E-01 -0.52490706699E-03  0.13493611319E-01  0.00000000000E+00 0. -1.
     999901    1    3    3    0    0 -0.83128899747E-01  0.54195252656E-01  0.75207070405E-01  0.88876523493E+00  0.88000000000E+00 0.  1.
        -11    1    4    4    0    0  0.67834314965E-01 -0.68884022848E-01 -0.70558055767E-01  0.11968794110E+00  0.51100000000E-03 0.  1.
         11    1    4    4    0    0  0.21420202583E-01  0.26771580787E-02 -0.41241075703E-02  0.21983212648E-01  0.51100000000E-03 0. -1.
</event>
<event>
 8    1  0.2001339E+004  0.1043930E+01  0.7957747E-01            NaN
         13   -1    0    0    0    0  0.00000000000E+00  0.00000000000E+00  0.74505805969E-08  0.10566000000E+00  0.10566000000E+00 0.  1.
     999900   -1    0    0    0    0 -0.00000000000E+00 -0.00000000000E+00 -0.74505805969E-08  0.93827000000E+00  0.93827000000E+00 0. -1.
     999902    2    1    2    0    0  0.28184469695E-02  0.55068455352E-02 -0.10232567789E-01  0.10319728082E+01  0.10319035335E+01 0.  0.
     999903    2    3    3    0    0  0.12162114159E+00 -0.37065608207E-02  0.62286260184E-01  0.14098574464E+00  0.34524792660E-01 0.  0.
         14    1    1    2    0    0 -0.28184469695E-02 -0.55068455352E-02  0.10232567789E-01  0.11957191753E-01  0.00000000000E+00 0.  1.
     999901    1    3    3    0    0 -0.11880269462E+00  0.92134063559E-02 -0.72518827972E-01  0.89098706361E+00  0.88000000000E+00 0. -1.
        -11    1    4    4    0    0  0.57186250681E-01 -0.18701502967E-01  0.33137913455E-01  0.68690580936E-01  0.51100000000E-03 0. -1.
         11    1    4    4    0    0  0.64434890912E-01  0.14994942146E-01  0.29148346729E-01  0.72295163703E-01  0.51100000000E-03 0.  1.
</event>
<event>
 8    1  0.2001339E+004  0.1043930E+01  0.7957747E-01            NaN
         13   -1    0    0    0    0  0.00000000000E+00  0.00000000000E+00  0.74505805969E-08  0.10566000000E+00  0.10566000000E+00 0. -1.
     999900   -1    0    0    0    0 -0.00000000000E+00 -0.00000000000E+00 -0.74505805969E-08  0.93827000000E+00  0.93827000000E+00 0.  1.
     999902    2    1    2    0    0  0.84463133165E-02 -0.11427091776E-02 -0.10860011620E-01  0.10301247168E+01  0.10300322064E+01 0.  0.
     999903    2    3    3    0    0 -0.80058373105E-01  0.50438294143E-01  0.90212494383E-01  0.13843568414E+00  0.45527792403E-01 0.  0.
         14    1    1    2    0    0 -0.84463133165E-02  0.11427091776E-02  0.10860011620E-01  0.13805283238E-01  0.00000000000E+00 0. -1.
     999901    1    3    3    0    0  0.88504686421E-01 -0.51581003321E-01 -0.10107250600E+00  0.89168903262E+00  0.88000000000E+00 0.  1.
        -11    1    4    4    0    0 -0.51906444478E-01  0.35731555072E-01  0.85662554472E-01  0.10634546237E+00  0.51100000000E-03 0. -1.
         11    1    4    4    0    0 -0.28151928627E-01  0.14706739071E-01  0.45499399117E-02  0.32090221778E-01  0.51100000000E-03 0.  1.
</event>
<event>
 8    1  0.2001339E+004  0.1043930E+01  0.7957747E-01            NaN
         13   -1    0    0    0    0  0.00000000000E+00  0.00000000000E+00  0.74505805969E-08  0.10566000000E+00  0.10566000000E+00 0. -1.
     999900   -1    0    0    0    0 -0.00000000000E+00 -0.00000000000E+00 -0.74505805969E-08  0.93827000000E+00  0.93827000000E+00 0.  1.
     999902    2    1    2    0    0  0.10520963497E-01  0.71761724955E-02 -0.50835690964E-02  0.10302175677E+01  0.10301263059E+01 0.  0.
     999903    2    3    3    0    0  0.57041987668E-02 -0.32660351401E-01  0.12782537722E+00  0.13933321053E+00  0.44442997853E-01 0.  0.
         14    1    1    2    0    0 -0.10520963497E-01 -0.71761724955E-02  0.50835690964E-02  0.13712432292E-01  0.00000000000E+00 0.  1.
     999901    1    3    3    0    0  0.48167647303E-02  0.39836523896E-01 -0.13290894631E+00  0.89088435718E+00  0.88000000000E+00 0. -1.
        -11    1    4    4    0    0 -0.12639019527E-01 -0.24219466791E-01  0.10654635814E+00  0.10999415867E+00  0.51100000000E-03 0. -1.
         11    1    4    4    0    0  0.18343218293E-01 -0.84408846104E-02  0.21279019073E-01  0.29339051860E-01  0.51100000000E-03 0.  1.
</event>
<event>
 8    1  0.2001339E+004  0.1043930E+01  0.7957747E-01            NaN
         13   -1    0    0    0    0  0.00000000000E+00  0.00000000000E+00  0.74505805969E-08  0.10566000000E+00  0.10566000000E+00 0. -1.
     999900   -1    0    0    0    0 -0.00000000000E+00 -0.00000000000E+00 -0.74505805969E-08  0.93827000000E+00  0.93827000000E+00 0.  1.
     999902    2    1    2    0    0 -0.91146104848E-02  0.93442565634E-02  0.35046665153E-02  0.10304143076E+01  0.10303256627E+01 0.  0.
     999903    2    3    3    0    0 -0.44069661539E-01  0.77095603473E-01  0.10094110177E+00  0.14176029191E+00  0.44955613568E-01 0.  0.
         14    1    1    2    0    0  0.91146104848E-02 -0.93442565634E-02 -0.35046665153E-02  0.13515692450E-01  0.00000000000E+00 0.  1.
     999901    1    3    3    0    0  0.34955051054E-01 -0.67751346909E-01 -0.97436435259E-01  0.88865401564E+00  0.88000000000E+00 0.  1.
        -11    1    4    4    0    0 -0.22901549515E-01  0.66771563286E-01  0.93297760072E-01  0.11699425537E+00  0.51100000000E-03 0.  1.
         11    1    4    4    0    0 -0.21168112025E-01  0.10324040187E-01  0.76433417025E-02  0.24766036539E-01  0.51100000000E-03 0. -1.
</event>
<event>
 8    1  0.2001339E+004  0.1043930E+01  0.7957747E-01            NaN
         13   -1    0    0    0    0  0.00000000000E+00  0.00000000000E+00  0.74505805969E-08  0.10566000000E+00  0.10566000000E+00 0.  1.
     999900   -1    0    0    0    0 -0.00000000000E+00 -0.00000000000E+00 -0.74505805969E-08  0.93827000000E+00  0.93827000000E+00 0.  1.
     999902    2    1    2    0    0 -0.60704665867E-02  0.61062335647E-02 -0.47107802358E-03  0.10353068586E+01  0.10352709466E+01 0.  0.
     999903    2    3    3    0    0 -0.68283980396E-01 -0.82399979717E-01 -0.86723306903E-01  0.14449637479E+00  0.43655603675E-01 0.  0.
         14    1    1    2    0    0  0.60704665867E-02 -0.61062335647E-02  0.47107802358E-03  0.86231413899E-02  0.00000000000E+00 0. -1.
     999901    1    3    3    0    0  0.62213513810E-01  0.88506213282E-01  0.86252228880E-01  0.89081048382E+00  0.88000000000E+00 0. -1.
        -11    1    4    4    0    0 -0.29782766314E-01 -0.94851134423E-02 -0.12889603729E-01  0.33813954983E-01  0.51100000000E-03 0.  1.
         11    1    4    4    0    0 -0.38501214082E-01 -0.72914866275E-01 -0.73833703175E-01  0.11068241981E+00  0.51100000000E-03 0. -1.
</event>
<event>
 8    1  0.2001339E+004  0.1043930E+01  0.7957747E-01            NaN
         13   -1    0    0    0    0  0.00000000000E+00  0.00000000000E+00  0.74505805969E-08  0.10566000000E+00  0.10566000000E+00 0.  1.
     999900   -1    0    0    0    0 -0.00000000000E+00 -0.00000000000E+00 -0.74505805969E-08  0.93827000000E+00  0.93827000000E+00 0.  1.
     999902    2    1    2    0    0  0.53498867785E-02  0.85719309398E-02  0.96568313627E-02  0.10299531019E+01  0.10298582613E+01 0.  0.
     999903    2    3    3    0    0 -0.73466650118E-01  0.11056605850E+00 -0.35677425976E-02  0.14046463210E+00  0.45775343943E-01 0.  0.
         14    1    1    2    0    0 -0.53498867785E-02 -0.85719309398E-02 -0.96568313627E-02  0.13976898102E-01  0.00000000000E+00 0.  1.
     999901    1    3    3    0    0  0.78816536897E-01 -0.10199412756E+00  0.13224573960E-01  0.88948846980E+00  0.88000000000E+00 0. -1.
        -11    1    4    4    0    0 -0.61689587420E-01  0.52382284912E-01 -0.49587541408E-02  0.81082423078E-01  0.51100000000E-03 0. -1.
         11    1    4    4    0    0 -0.11777062699E-01  0.58183773585E-01  0.13910115432E-02  0.59382209023E-01  0.51100000000E-03 0.  1.
</event>
<event>
 8    1  0.2001339E+004  0.1043930E+01  0.7957747E-01            NaN
         13   -1    0    0    0    0  0.00000000000E+00  0.00000000000E+00  0.74505805969E-08  0.10566000000E+00  0.10566000000E+00 0. -1.
     999900   -1    0    0    0    0 -0.00000000000E+00 -0.00000000000E+00 -0.74505805969E-08  0.93827000000E+00  0.93827000000E+00 0. -1.
     999902    2    1    2    0    0 -0.29734139789E-02  0.11721228250E-01  0.46630426086E-02  0.10309695853E+01  0.10308881188E+01 0.  0.
     999903    2    3    3    0    0  0.16004446460E-01 -0.63064226231E-01 -0.11498119388E+00  0.13952818696E+00  0.44879851517E-01 0.  0.
         14    1    1    2    0    0  0.29734139789E-02 -0.11721228250E-01 -0.46630426086E-02  0.12960414682E-01  0.00000000000E+00 0.  1.
     999901    1    3    3    0    0 -0.18977860439E-01  0.74785454481E-01  0.11964423649E+00  0.89144139836E+00  0.88000000000E+00 0.  1.
        -11    1    4    4    0    0 -0.14442685834E-01 -0.23051823350E-01 -0.54191794786E-01  0.60638184974E-01  0.51100000000E-03 0.  1.
         11    1    4    4    0    0  0.30447132294E-01 -0.40012402881E-01 -0.60789399095E-01  0.78890001981E-01  0.51100000000E-03 0. -1.
</event>
<event>
 8    1  0.2001339E+004  0.1043930E+01  0.7957747E-01            NaN
         13   -1    0    0    0    0  0.00000000000E+00  0.00000000000E+00  0.74505805969E-08  0.10566000000E+00  0.10566000000E+00 0.  1.
     999900   -1    0    0    0    0 -0.00000000000E+00 -0.00000000000E+00 -0.74505805969E-08  0.93827000000E+00  0.93827000000E+00 0. -1.
     999902    2    1    2    0    0  0.12737035211E-01  0.40699469762E-02 -0.11057631081E-02  0.10305128749E+01  0.10304255267E+01 0.  0.
     999903    2    3    3    0    0 -0.38818152663E-01 -0.12507804310E+00 -0.21960661548E-03  0.13959316693E+00  0.48320163336E-01 0.  0.
         14    1    1    2    0    0 -0.12737035211E-01 -0.40699469762E-02  0.11057631081E-02  0.13417125117E-01  0.00000000000E+00 0. -1.
     999901    1    3    3    0    0  0.51555187874E-01  0.12914799008E+00 -0.88615649263E-03  0.89091970795E+00  0.88000000000E+00 0.  1.
        -11    1    4    4    0    0 -0.33483975924E-01 -0.46999481697E-01  0.15528504865E-01  0.59762224756E-01  0.51100000000E-03 0.  1.
         11    1    4    4    0    0 -0.53341767394E-02 -0.78078561407E-01 -0.15748111480E-01  0.79830942178E-01  0.51100000000E-03 0. -1.
</event>
<event>
 8    1  0.2002906E+004  0.1043930E+01  0.7957747E-01            NaN
         13   -1    0    0    0    0  0.00000000000E+00  0.00000000000E+00  0.74505805969E-08  0.10566000000E+00  0.10566000000E+00 0. -1.
     999900   -1    0    0    0    0 -0.00000000000E+00 -0.00000000000E+00 -0.74505805969E-08  0.93827000000E+00  0.93827000000E+00 0. -1.
     999902    2    1    2    0    0  0.48616339488E-03  0.42542442919E-02 -0.12793654380E-01  0.10304387976E+01  0.10303504759E+01 0.  0.
     999903    2    3    3    0    0 -0.11667723784E+00  0.61939462361E-01 -0.19551608417E-01  0.14077564961E+00  0.44558313521E-01 0.  0.
         14    1    1    2    0    0 -0.48616339488E-03 -0.42542442919E-02  0.12793654380E-01  0.13491202383E-01  0.00000000000E+00 0. -1.
     999901    1    3    3    0    0  0.11716340124E+00 -0.57685218069E-01  0.67579540361E-02  0.88966314800E+00  0.88000000000E+00 0.  1.
        -11    1    4    4    0    0 -0.67652536007E-01  0.30651123833E-01  0.10991780958E-01  0.75082870150E-01  0.51100000000E-03 0.  1.
         11    1    4    4    0    0 -0.49024701837E-01  0.31288338528E-01 -0.30543389374E-01  0.65692779463E-01  0.51100000000E-03 0. -1.
</event>
<event>
 8    1  0.2001339E+004  0.1043930E+01  0.7957747E-01            NaN
         13   -1    0    0    0    0  0.00000000000E+00  0.00000000000E+00  0.74505805969E-08  0.10566000000E+00  0.10566000000E+00 0. -1.
     999900   -1    0    0    0    0 -0.00000000000E+00 -0.00000000000E+00 -0.74505805969E-08  0.93827000000E+00  0.93827000000E+00 0. -1.
     999902    2    1    2    0    0  0.15453001520E-02 -0.10026194483E-01 -0.90582375667E-02  0.10303298457E+01  0.10302400821E+01 0.  0.
     999903    2    3    3    0    0 -0.68589152945E-01  0.77396879597E-01  0.81095618806E-01  0.13865201534E+00  0.44194265403E-01 0.  0.
         14    1    1    2    0    0 -0.15453001520E-02  0.10026194483E-01  0.90582375667E-02  0.13600154271E-01  0.00000000000E+00 0.  1.
     999901    1    3    3    0    0  0.70134453097E-01 -0.87423074080E-01 -0.90153856373E-01  0.89167783039E+00  0.88000000000E+00 0. -1.
        -11    1    4    4    0    0 -0.16842244876E-01  0.47733710815E-01  0.50939814395E-01  0.71814303396E-01  0.51100000000E-03 0.  1.
         11    1    4    4    0    0 -0.51746908069E-01  0.29663168782E-01  0.30155804411E-01  0.66837711941E-01  0.51100000000E-03 0. -1.
</event>
<event>
 8    1  0.2001339E+004  0.1043930E+01  0.7957747E-01            NaN
         13   -1    0    0    0    0  0.00000000000E+00  0.00000000000E+00  0.74505805969E-08  0.10566000000E+00  0.10566000000E+00 0.  1.
     999900   -1    0    0    0    0 -0.00000000000E+00 -0.00000000000E+00 -0.74505805969E-08  0.93827000000E+00  0.93827000000E+00 0. -1.
     999902    2    1    2    0    0  0.11733003485E-01  0.80739071438E-02 -0.16847477335E-02  0.10295881130E+01  0.10294882188E+01 0.  0.
     999903    2    3    3    0    0  0.11594089327E+00  0.63351071141E-01  0.22221927111E-01  0.14139535339E+00  0.45201581486E-01 0.  0.
         14    1    1    2    0    0 -0.11733003485E-01 -0.80739071438E-02  0.16847477335E-02  0.14341886985E-01  0.00000000000E+00 0. -1.
     999901    1    3    3    0    0 -0.10420788978E+00 -0.55277163997E-01 -0.23906674845E-01  0.88819275963E+00  0.88000000000E+00 0. -1.
        -11    1    4    4    0    0  0.63212480789E-01  0.17197473586E-01 -0.61355095451E-02  0.65798757006E-01  0.51100000000E-03 0.  1.
         11    1    4    4    0    0  0.52728412478E-01  0.46153597555E-01  0.28357436656E-01  0.75596596382E-01  0.51100000000E-03 0. -1.
</event>
<event>
 7    1  0.2001339E+004  0.1043930E+01  0.7957747E-01            NaN
         13   -1    0    0    0    0  0.00000000000E+00  0.00000000000E+00  0.74505805969E-08  0.10566000000E+00  0.10566000000E+00 0. -1.
     999900   -1    0    0    0    0 -0.00000000000E+00 -0.00000000000E+00 -0.74505805969E-08  0.93827000000E+00  0.93827000000E+00 0. -1.
     999903    2    1    2    0    0 -0.82773250084E-01 -0.59735906725E-01 -0.15837492126E-01  0.11224932584E+00  0.43923746574E-01 0.  0.
         14    1    1    2    0    0 -0.37829932874E-01 -0.13106993248E-01 -0.41350828642E-02  0.40249173949E-01  0.00000000000E+00 0. -1.
     999901    1    1    2    0    0  0.12060318296E+00  0.72842899973E-01  0.19972574990E-01  0.89143150021E+00  0.88000000000E+00 0. -1.
        -11    1    3    3    0    0 -0.57526869417E-01 -0.23603234709E-01 -0.25352005994E-01  0.67152354557E-01  0.51100000000E-03 0.  1.
         11    1    3    3    0    0 -0.25246380667E-01 -0.36132672015E-01  0.95145138685E-02  0.45096971283E-01  0.51100000000E-03 0. -1.
</event>
<event>
 8    1  0.2001339E+004  0.1043930E+01  0.7957747E-01            NaN
         13   -1    0    0    0    0  0.00000000000E+00  0.00000000000E+00  0.74505805969E-08  0.10566000000E+00  0.10566000000E+00 0.  1.
     999900   -1    0    0    0    0 -0.00000000000E+00 -0.00000000000E+00 -0.74505805969E-08  0.93827000000E+00  0.93827000000E+00 0. -1.
     999902    2    1    2    0    0  0.48365834756E-02  0.90515093793E-02  0.76228578809E-02  0.10311460130E+01  0.10310667630E+01 0.  0.
     999903    2    3    3    0    0 -0.21712433562E-01  0.13422202030E+00  0.16307160762E-01  0.14184970453E+00  0.36992359718E-01 0.  0.
         14    1    1    2    0    0 -0.48365834756E-02 -0.90515093793E-02 -0.76228578809E-02  0.12783987016E-01  0.00000000000E+00 0. -1.
     999901    1    3    3    0    0  0.26549017037E-01 -0.12517051093E+00 -0.86843028809E-02  0.88929630845E+00  0.88000000000E+00 0.  1.
        -11    1    4    4    0    0 -0.12733751178E-01  0.49641303907E-01  0.23711839386E-01  0.56470522583E-01  0.51100000000E-03 0.  1.
         11    1    4    4    0    0 -0.89786823840E-02  0.84580716397E-01 -0.74046786240E-02  0.85379181948E-01  0.51100000000E-03 0. -1.
</event>
<event>
 8    1  0.2001339E+004  0.1043930E+01  0.7957747E-01            NaN
         13   -1    0    0    0    0  0.00000000000E+00  0.00000000000E+00  0.74505805969E-08  0.10566000000E+00  0.10566000000E+00 0.  1.
     999900   -1    0    0    0    0 -0.00000000000E+00 -0.00000000000E+00 -0.74505805969E-08  0.93827000000E+00  0.93827000000E+00 0.  1.
     999902    2    1    2    0    0  0.68868378220E-02 -0.77595356859E-02 -0.18555213146E-01  0.10226712403E+01  0.10224502584E+01 0.  0.
     999903    2    3    3    0    0  0.13401902957E-01  0.27453996219E-01  0.11947484366E+00  0.13119228065E+00  0.44764308595E-01 0.  0.
         14    1    1    2    0    0 -0.68868378220E-02  0.77595356859E-02  0.18555213146E-01  0.21258759704E-01  0.00000000000E+00 0.  1.
     999901    1    3    3    0    0 -0.65150651352E-02 -0.35213531905E-01 -0.13803005681E+00  0.89147895964E+00  0.88000000000E+00 0.  1.
        -11    1    4    4    0    0  0.29204317502E-01  0.12171067761E-01  0.60988456132E-01  0.68708659961E-01  0.51100000000E-03 0.  1.
         11    1    4    4    0    0 -0.15802414545E-01  0.15282928458E-01  0.58486387529E-01  0.62483620693E-01  0.51100000000E-03 0. -1.
</event>
<event>
 8    1  0.2001339E+004  0.1043930E+01  0.7957747E-01            NaN
         13   -1    0    0    0    0  0.00000000000E+00  0.00000000000E+00  0.74505805969E-08  0.10566000000E+00  0.10566000000E+00 0. -1.
     999900   -1    0    0    0    0 -0.00000000000E+00 -0.00000000000E+00 -0.74505805969E-08  0.93827000000E+00  0.93827000000E+00 0. -1.
     999902    2    1    2    0    0  0.11478988122E-01  0.42250045308E-02  0.74636221232E-02  0.10296008867E+01  0.10295011717E+01 0.  0.
     999903    2    3    3    0    0 -0.99644794891E-01  0.85727698632E-01 -0.12570038222E-02  0.13883310914E+00  0.44662385438E-01 0.  0.
         14    1    1    2    0    0 -0.11478988122E-01 -0.42250045308E-02 -0.74636221232E-02  0.14329113259E-01  0.00000000000E+00 0. -1.
     999901    1    3    3    0    0  0.11112378301E+00 -0.81502694101E-01  0.87206259455E-02  0.89076777760E+00  0.88000000000E+00 0. -1.
        -11    1    4    4    0    0 -0.21447477901E-01 -0.14368891073E-02 -0.30568728515E-02  0.21717839470E-01  0.51100000000E-03 0.  1.
         11    1    4    4    0    0 -0.78197316990E-01  0.87164587739E-01  0.17998690292E-02  0.11711526967E+00  0.51100000000E-03 0. -1.
</event>
<event>
 8    1  0.2001339E+004  0.1043930E+01  0.7957747E-01            NaN
         13   -1    0    0    0    0  0.00000000000E+00  0.00000000000E+00  0.74505805969E-08  0.10566000000E+00  0.10566000000E+00 0. -1.
     999900   -1    0    0    0    0 -0.00000000000E+00 -0.00000000000E+00 -0.74505805969E-08  0.93827000000E+00  0.93827000000E+00 0. -1.
     999902    2    1    2    0    0 -0.12756154686E-01 -0.50326236223E-02 -0.17208637576E-02  0.10301094300E+01  0.10300167133E+01 0.  0.
     999903    2    3    3    0    0 -0.17204283890E-01  0.89113163821E-01 -0.96421469927E-01  0.14002436668E+00  0.45525597753E-01 0.  0.
         14    1    1    2    0    0  0.12756154686E-01  0.50326236223E-02  0.17208637576E-02  0.13820569994E-01  0.00000000000E+00 0.  1.
     999901    1    3    3    0    0  0.44481292040E-02 -0.94145787444E-01  0.94700606170E-01  0.89008506333E+00  0.88000000000E+00 0.  1.
        -11    1    4    4    0    0 -0.20954655719E-01  0.78196149029E-01 -0.99297663402E-01  0.12811722131E+00  0.51100000000E-03 0. -1.
         11    1    4    4    0    0  0.37503718296E-02  0.10917014793E-01  0.28761934752E-02  0.11907145365E-01  0.51100000000E-03 0.  1.
</event>
<event>
 8    1  0.2001339E+004  0.1043930E+01  0.7957747E-01            NaN
         13   -1    0    0    0    0  0.00000000000E+00  0.00000000000E+00  0.74505805969E-08  0.10566000000E+00  0.10566000000E+00 0.  1.
     999900   -1    0    0    0    0 -0.00000000000E+00 -0.00000000000E+00 -0.74505805969E-08  0.93827000000E+00  0.93827000000E+00 0.  1.
     999902    2    1    2    0    0 -0.10380559872E-01 -0.11076761883E-01  0.81304035577E-02  0.10267092527E+01  0.10265648228E+01 0.  0.
     999903    2    3    3    0    0 -0.63969971660E-01  0.10861833192E+00  0.26862942820E-01  0.13679372376E+00  0.45834548774E-01 0.  0.
         14    1    1    2    0    0  0.10380559872E-01  0.11076761883E-01 -0.81304035577E-02  0.17220747344E-01  0.00000000000E+00 0. -1.
     999901    1    3    3    0    0  0.53589411788E-01 -0.11969509380E+00 -0.18732539262E-01  0.88991552889E+00  0.88000000000E+00 0. -1.
        -11    1    4    4    0    0 -0.26528644126E-01  0.24196597346E-01 -0.10123438415E-01  0.37309374273E-01  0.51100000000E-03 0. -1.
         11    1    4    4    0    0 -0.37441327534E-01  0.84421734572E-01  0.36986381236E-01  0.99484349491E-01  0.51100000000E-03 0.  1.
</event>
<event>
 8    1  0.2001339E+004  0.1043930E+01  0.7957747E-01            NaN
         13   -1    0    0    0    0  0.00000000000E+00  0.00000000000E+00  0.74505805969E-08  0.10566000000E+00  0.10566000000E+00 0.  1.
     999900   -1    0    0    0    0 -0.00000000000E+00 -0.00000000000E+00 -0.74505805969E-08  0.93827000000E+00  0.93827000000E+00 0.  1.
     999902    2    1    2    0    0  0.66985095298E-02  0.11660701891E-01 -0.23233560439E-03  0.10304802424E+01  0.10303924660E+01 0.  0.
     999903    2    3    3    0    0  0.12044922124E+00  0.48747478534E-01  0.33918575367E-01  0.14172778077E+00  0.45298592975E-01 0.  0.
         14    1    1    2    0    0 -0.66985095298E-02 -0.11660701891E-01  0.23233560439E-03  0.13449757557E-01  0.00000000000E+00 0. -1.
     999901    1    3    3    0    0 -0.11375071171E+00 -0.37086776642E-01 -0.34150910972E-01  0.88875246168E+00  0.88000000000E+00 0. -1.
        -11    1    4    4    0    0  0.47997801196E-01  0.41013454075E-01  0.49984943385E-02  0.63333548783E-01  0.51100000000E-03 0. -1.
         11    1    4    4    0    0  0.72451420043E-01  0.77340244590E-02  0.28920081029E-01  0.78394231983E-01  0.51100000000E-03 0.  1.
</event>
<event>
 8    1  0.2001339E+004  0.1043930E+01  0.7957747E-01            NaN
         13   -1    0    0    0    0  0.00000000000E+00  0.00000000000E+00  0.74505805969E-08  0.10566000000E+00  0.10566000000E+00 0. -1.
     999900   -1    0    0    0    0 -0.00000000000E+00 -0.00000000000E+00 -0.74505805969E-08  0.93827000000E+00  0.93827000000E+00 0.  1.
     999902    2    1    2    0    0 -0.12263178872E-01 -0.46466319128E-02 -0.15498572538E-02  0.10307247434E+01  0.10306401496E+01 0.  0.
     999903    2    3    3    0    0  0.31339136512E-01 -0.59344919909E-01  0.11474447832E+00  0.14032178008E+00  0.44943805621E-01 0.  0.
         14    1    1    2    0    0  0.12263178872E-01  0.46466319128E-02  0.15498572538E-02  0.13205256593E-01  0.00000000000E+00 0. -1.
     999901    1    3    3    0    0 -0.43602315385E-01  0.54698287996E-01 -0.11629433557E+00  0.89040296333E+00  0.88000000000E+00 0.  1.
        -11    1    4    4    0    0  0.41604719840E-01 -0.54272455996E-01  0.10484551191E+00  0.12517705334E+00  0.51100000000E-03 0. -1.
         11    1    4    4    0    0 -0.10265583327E-01 -0.50724639128E-02  0.98989664045E-02  0.15144726741E-01  0.51100000000E-03 0.  1.
</event>
<event>
 8    1  0.2001339E+004  0.1043930E+01  0.7957747E-01            NaN
         13   -1    0    0    0    0  0.00000000000E+00  0.00000000000E+00  0.74505805969E-08  0.10566000000E+00  0.10566000000E+00 0. -1.
     999900   -1    0    0    0    0 -0.00000000000E+00 -0.00000000000E+00 -0.74505805969E-08  0.93827000000E+00  0.93827000000E+00 0. -1.
     999902    2    1    2    0    0 -0.99116379481E-02  0.70723905157E-02  0.60623508077E-02  0.10303281115E+01  0.10302383248E+01 0.  0.
     999903    2    3    3    0    0  0.67745635019E-01 -0.23569254146E-01  0.11172685110E+00  0.14008401626E+00  0.44672827862E-01 0.  0.
         14    1    1    2    0    0  0.99116379481E-02 -0.70723905157E-02 -0.60623508077E-02  0.13601888536E-01  0.00000000000E+00 0.  1.
     999901    1    3    3    0    0 -0.77657272967E-01  0.30641644662E-01 -0.10566450029E+00  0.89024409521E+00  0.88000000000E+00 0. -1.
        -11    1    4    4    0    0  0.41827507148E-01 -0.28691762111E-01  0.43160776150E-01  0.66602336942E-01  0.51100000000E-03 0. -1.
         11    1    4    4    0    0  0.25918127871E-01  0.51225079647E-02  0.68566074947E-01  0.73481679314E-01  0.51100000000E-03 0.  1.
</event>
<event>
 8    1  0.2001339E+004  0.1043930E+01  0.7957747E-01            NaN
         13   -1    0    0    0    0  0.00000000000E+00  0.00000000000E+00  0.74505805969E-08  0.10566000000E+00  0.10566000000E+00 0. -1.
     999900   -1    0    0    0    0 -0.00000000000E+00 -0.00000000000E+00 -0.74505805969E-08  0.93827000000E+00  0.93827000000E+00 0. -1.
     999902    2    1    2    0    0 -0.40285093021E-02  0.21154426396E-02 -0.15739229610E-01  0.10275462479E+01  0.10274156239E+01 0.  0.
     999903    2    3    3    0    0  0.10744852624E+00 -0.55448031694E-01 -0.35958143020E-01  0.13841774902E+00  0.56980831724E-01 0.  0.
         14    1    1    2    0    0  0.40285093021E-02 -0.21154426396E-02  0.15739229610E-01  0.16383752119E-01  0.00000000000E+00 0. -1.
     999901    1    3    3    0    0 -0.11147703554E+00  0.57563474333E-01  0.20218913409E-01  0.88912849886E+00  0.88000000000E+00 0.  1.
        -11    1    4    4    0    0  0.56906523285E-01 -0.50210466886E-01  0.47001039468E-03  0.75894172425E-01  0.51100000000E-03 0.  1.
         11    1    4    4    0    0  0.50542002955E-01 -0.52375648078E-02 -0.36428153414E-01  0.62523576593E-01  0.51100000000E-03 0. -1.
</event>
<event>
 8    1  0.2001339E+004  0.1043930E+01  0.7957747E-01            NaN
         13   -1    0    0    0    0  0.00000000000E+00  0.00000000000E+00  0.74505805969E-08  0.10566000000E+00  0.10566000000E+00 0.  1.
     999900   -1    0    0    0    0 -0.00000000000E+00 -0.00000000000E+00 -0.74505805969E-08  0.93827000000E+00  0.93827000000E+00 0. -1.
     999902    2    1    2    0    0  0.14048628519E-01 -0.15531180084E-02  0.10533517682E-02  0.10297565851E+01  0.10296590401E+01 0.  0.
     999903    2    3    3    0    0 -0.10439705952E+00 -0.78923622308E-01  0.46510830227E-02  0.13844938803E+00  0.44932352250E-01 0.  0.
         14    1    1    2    0    0 -0.14048628519E-01  0.15531180084E-02 -0.10533517682E-02  0.14173414858E-01  0.00000000000E+00 0. -1.
     999901    1    3    3    0    0  0.11844568804E+00  0.77370504299E-01 -0.35977312544E-02  0.89130719711E+00  0.88000000000E+00 0. -1.
        -11    1    4    4    0    0 -0.35387548730E-01 -0.32064958596E-01 -0.19534558968E-01  0.51597483368E-01  0.51100000000E-03 0. -1.
         11    1    4    4    0    0 -0.69009510788E-01 -0.46858663712E-01  0.24185641991E-01  0.86851904663E-01  0.51100000000E-03 0.  1.
</event>
<event>
 8    1  0.2001339E+004  0.1043930E+01  0.7957747E-01            NaN
         13   -1    0    0    0    0  0.00000000000E+00  0.00000000000E+00  0.74505805969E-08  0.10566000000E+00  0.10566000000E+00 0.  1.
     999900   -1    0    0    0    0 -0.00000000000E+00 -0.00000000000E+00 -0.74505805969E-08  0.93827000000E+00  0.93827000000E+00 0. -1.
     999902    2    1    2    0    0 -0.13766207828E-01 -0.32837220692E-02  0.19095396640E-02  0.10296493260E+01  0.10295502886E+01 0.  0.
     999903    2    3    3    0    0  0.34846520863E-01  0.96067505089E-01 -0.81450698311E-01  0.13881668570E+00  0.46825318174E-01 0.  0.
         14    1    1    2    0    0  0.13766207828E-01  0.32837220692E-02 -0.19095396640E-02  0.14280674015E-01  0.00000000000E+00 0.  1.
     999901    1    3    3    0    0 -0.48612728691E-01 -0.99351227159E-01  0.83360237975E-01  0.89083264029E+00  0.88000000000E+00 0.  1.
        -11    1    4    4    0    0  0.31424007432E-01  0.62254575860E-01 -0.78035332701E-01  0.10465598277E+00  0.51100000000E-03 0. -1.
         11    1    4    4    0    0  0.34225134312E-02  0.33812929230E-01 -0.34153656098E-02  0.34160702928E-01  0.51100000000E-03 0.  1.
</event>
<event>
 8    1  0.2001339E+004  0.1043930E+01  0.7957747E-01            NaN
         13   -1    0    0    0    0  0.00000000000E+00  0.00000000000E+00  0.74505805969E-08  0.10566000000E+00  0.10566000000E+00 0.  1.
     999900   -1    0    0    0    0 -0.00000000000E+00 -0.00000000000E+00 -0.74505805969E-08  0.93827000000E+00  0.93827000000E+00 0.  1.
     999902    2    1    2    0    0  0.27971499231E-02  0.62293142255E-02  0.12793492090E-01  0.10294282124E+01  0.10293260624E+01 0.  0.
     999903    2    3    3    0    0 -0.12708513091E+00 -0.13490840258E-01  0.32981642933E-01  0.13944739644E+00  0.45001714784E-01 0.  0.
         14    1    1    2    0    0 -0.27971499231E-02 -0.62293142255E-02 -0.12793492090E-01  0.14501787589E-01  0.00000000000E+00 0. -1.
     999901    1    3    3    0    0  0.12988228083E+00  0.19720154483E-01 -0.20188150843E-01  0.88998081597E+00  0.88000000000E+00 0. -1.
        -11    1    4    4    0    0 -0.56695194100E-01  0.24183037702E-02  0.36021687432E-01  0.67216190859E-01  0.51100000000E-03 0.  1.
         11    1    4    4    0    0 -0.70389936809E-01 -0.15909144028E-01 -0.30400444990E-02  0.72231205578E-01  0.51100000000E-03 0. -1.
</event>
<event>
 8    1  0.2001339E+004  0.1043930E+01  0.7957747E-01            NaN
         13   -1    0    0    0    0  0.00000000000E+00  0.00000000000E+00  0.74505805969E-08  0.10566000000E+00  0.10566000000E+00 0.  1.
     999900   -1    0    0    0    0 -0.00000000000E+00 -0.00000000000E+00 -0.74505805969E-08  0.93827000000E+00  0.93827000000E+00 0. -1.
     999902    2    1    2    0    0 -0.15366075554E-02 -0.14342594343E-01  0.14537585456E-02  0.10294322557E+01  0.10293301630E+01 0.  0.
     999903    2    3    3    0    0  0.32146359084E-01 -0.73776185719E-01  0.10588398605E+00  0.14062824671E+00  0.45700889353E-01 0.  0.
         14    1    1    2    0    0  0.15366075554E-02  0.14342594343E-01 -0.14537585456E-02  0.14497744279E-01  0.00000000000E+00 0. -1.
     999901    1    3    3    0    0 -0.33682966640E-01  0.59433591376E-01 -0.10443022751E+00  0.88880400902E+00  0.88000000000E+00 0. -1.
        -11    1    4    4    0    0  0.23710613432E-01 -0.50372825625E-01  0.10091416106E+00  0.11525425707E+00  0.51100000000E-03 0. -1.
         11    1    4    4    0    0  0.84357456523E-02 -0.23403360094E-01  0.49698249959E-02  0.25373989633E-01  0.51100000000E-03 0.  1.
</event>
<event>
 8    1  0.2001339E+004  0.1043930E+01  0.7957747E-01            NaN
         13   -1    0    0    0    0  0.00000000000E+00  0.00000000000E+00  0.74505805969E-08  0.10566000000E+00  0.10566000000E+00 0.  1.
     999900   -1    0    0    0    0 -0.00000000000E+00 -0.00000000000E+00 -0.74505805969E-08  0.93827000000E+00  0.93827000000E+00 0. -1.
     999902    2    1    2    0    0 -0.41916301497E-02  0.91033759645E-02  0.92657936405E-02  0.10302809653E+01  0.10301905509E+01 0.  0.
     999903    2    3    3    0    0  0.73748675994E-01  0.11054864676E+00 -0.10877717169E-01  0.14080269386E+00  0.45246031364E-01 0.  0.
         14    1    1    2    0    0  0.41916301497E-02 -0.91033759645E-02 -0.92657936405E-02  0.13649034730E-01  0.00000000000E+00 0. -1.
     999901    1    3    3    0    0 -0.77940306144E-01 -0.10144527080E+00  0.20143510810E-01  0.88947827141E+00  0.88000000000E+00 0.  1.
        -11    1    4    4    0    0  0.32049433657E-01  0.71782194409E-01  0.11839436325E-01  0.79500207581E-01  0.51100000000E-03 0. -1.
         11    1    4    4    0    0  0.41699242337E-01  0.38766452355E-01 -0.22717153495E-01  0.61302486276E-01  0.51100000000E-03 0.  1.
</event>
<event>
 8    1  0.2001339E+004  0.1043930E+01  0.7957747E-01            NaN
         13   -1    0    0    0    0  0.00000000000E+00  0.00000000000E+00  0.74505805969E-08  0.10566000000E+00  0.10566000000E+00 0. -1.
     999900   -1    0    0    0    0 -0.00000000000E+00 -0.00000000000E+00 -0.74505805969E-08  0.93827000000E+00  0.93827000000E+00 0.  1.
     999902    2    1    2    0    0  0.29422721922E-02 -0.86476274415E-02 -0.10202466141E-01  0.10302358866E+01  0.10301448701E+01 0.  0.
     999903    2    3    3    0    0 -0.54846648390E-01  0.89300084453E-02  0.11599961796E+00  0.13918285865E+00  0.53179478036E-01 0.  0.
         14    1    1    2    0    0 -0.29422721922E-02  0.86476274415E-02  0.10202466141E-01  0.13694113384E-01  0.00000000000E+00 0. -1.
     999901    1    3    3    0    0  0.57788920582E-01 -0.17577635887E-01 -0.12620208410E+00  0.89105302797E+00  0.88000000000E+00 0.  1.
        -11    1    4    4    0    0 -0.45098593743E-01  0.15164545619E-01  0.11817769219E+00  0.12739731023E+00  0.51100000000E-03 0.  1.
         11    1    4    4    0    0 -0.97480546474E-02 -0.62345371741E-02 -0.21780742299E-02  0.11785548419E-01  0.51100000000E-03 0. -1.
</event>
<event>
 8    1  0.2001339E+004  0.1043930E+01  0.7957747E-01            NaN
         13   -1    0    0    0    0  0.00000000000E+00  0.00000000000E+00  0.74505805969E-08  0.10566000000E+00  0.10566000000E+00 0. -1.
     999900   -1    0    0    0    0 -0.00000000000E+00 -0.00000000000E+00 -0.74505805969E-08  0.93827000000E+00  0.93827000000E+00 0. -1.
     999902    2    1    2    0    0  0.37075880510E-03  0.11065089403E-01  0.86022134017E-02  0.10299095955E+01  0.10298141596E+01 0.  0.
     999903    2    3    3    0    0  0.11221853633E+00 -0.60080362153E-01  0.35802294954E-01  0.13956615336E+00  0.44657105002E-01 0.  0.
         14    1    1    2    0    0 -0.37075880510E-03 -0.11065089403E-01 -0.86022134017E-02  0.14020404452E-01  0.00000000000E+00 0.  1.
     999901    1    3    3    0    0 -0.11184777752E+00  0.71145451556E-01 -0.27200081552E-01  0.89034344219E+00  0.88000000000E+00 0. -1.
        -11    1    4    4    0    0  0.64030016327E-01 -0.18165889700E-01  0.36054368460E-01  0.75696903143E-01  0.51100000000E-03 0.  1.
         11    1    4    4    0    0  0.48188520002E-01 -0.41914472454E-01 -0.25207350627E-03  0.63869250215E-01  0.51100000000E-03 0. -1.
</event>
<event>
 8    1  0.2001339E+004  0.1043930E+01  0.7957747E-01            NaN
         13   -1    0    0    0    0  0.00000000000E+00  0.00000000000E+00  0.74505805969E-08  0.10566000000E+00  0.10566000000E+00 0. -1.
     999900   -1    0    0    0    0 -0.00000000000E+00 -0.00000000000E+00 -0.74505805969E-08  0.93827000000E+00  0.93827000000E+00 0.  1.
     999902    2    1    2    0    0 -0.31291225552E-02  0.10962272701E-01  0.10039111720E-01  0.10287396546E+01  0.10286274983E+01 0.  0.
     999903    2    3    3    0    0  0.81011713450E-01  0.10002415231E+00  0.32695026687E-01  0.13996241071E+00  0.44190303007E-01 0.  0.
         14    1    1    2    0    0  0.31291225552E-02 -0.10962272701E-01 -0.10039111720E-01  0.15190345449E-01  0.00000000000E+00 0.  1.
     999901    1    3    3    0    0 -0.84140836005E-01 -0.89061879613E-01 -0.22655914967E-01  0.88877724384E+00  0.88000000000E+00 0.  1.
        -11    1    4    4    0    0  0.36465190247E-01  0.57825753183E-01 -0.39701340138E-02  0.68480295823E-01  0.51100000000E-03 0. -1.
         11    1    4    4    0    0  0.44546523203E-01  0.42198399131E-01  0.36665160701E-01  0.71482114888E-01  0.51100000000E-03 0.  1.
</event>
<event>
 8    1  0.2001339E+004  0.1043930E+01  0.7957747E-01            NaN
         13   -1    0    0    0    0  0.00000000000E+00  0.00000000000E+00  0.74505805969E-08  0.10566000000E+00  0.10566000000E+00 0. -1.
     999900   -1    0    0    0    0 -0.00000000000E+00 -0.00000000000E+00 -0.74505805969E-08  0.93827000000E+00  0.93827000000E+00 0. -1.
     999902    2    1    2    0    0  0.56388370404E-02 -0.16261000469E-02  0.13597477797E-01  0.10291201355E+01  0.10290135670E+01 0.  0.
     999903    2    3    3    0    0 -0.20329752933E-01  0.99867981163E-01  0.84678369669E-01  0.14006000851E+00  0.45381352760E-01 0.  0.
         14    1    1    2    0    0 -0.56388370404E-02  0.16261000469E-02 -0.13597477797E-01  0.14809864516E-01  0.00000000000E+00 0.  1.
     999901    1    3    3    0    0  0.25968589973E-01 -0.10149408121E+00 -0.71080891871E-01  0.88906012697E+00  0.88000000000E+00 0. -1.
        -11    1    4    4    0    0  0.61456930529E-02  0.69804335517E-01  0.64327173284E-01  0.95124450820E-01  0.51100000000E-03 0. -1.
         11    1    4    4    0    0 -0.26475445986E-01  0.30063645646E-01  0.20351196385E-01  0.44935557690E-01  0.51100000000E-03 0.  1.
</event>
<event>
 8    1  0.2001339E+004  0.1043930E+01  0.7957747E-01            NaN
         13   -1    0    0    0    0  0.00000000000E+00  0.00000000000E+00  0.74505805969E-08  0.10566000000E+00  0.10566000000E+00 0.  1.
     999900   -1    0    0    0    0 -0.00000000000E+00 -0.00000000000E+00 -0.74505805969E-08  0.93827000000E+00  0.93827000000E+00 0.  1.
     999902    2    1    2    0    0 -0.10435339475E-01 -0.33669887804E-02  0.79259204207E-02  0.10304002868E+01  0.10303114568E+01 0.  0.
     999903    2    3    3    0    0  0.11549939841E+00  0.60309095954E-01  0.43095112350E-02  0.13914988411E+00  0.48649977105E-01 0.  0.
         14    1    1    2    0    0  0.10435339475E-01  0.33669887804E-02 -0.79259204207E-02  0.13529713150E-01  0.00000000000E+00 0.  1.
     999901    1    3    3    0    0 -0.12593473788E+00 -0.63676084734E-01  0.36164091857E-02  0.89125040274E+00  0.88000000000E+00 0. -1.
        -11    1    4    4    0    0  0.64104133046E-01  0.70859058893E-02  0.84331240136E-02  0.65045588917E-01  0.51100000000E-03 0.  1.
         11    1    4    4    0    0  0.51395265363E-01  0.53223190064E-01 -0.41236127786E-02  0.74104295191E-01  0.51100000000E-03 0. -1.
</event>
<event>
 8    1  0.2001339E+004  0.1043930E+01  0.7957747E-01            NaN
         13   -1    0    0    0    0  0.00000000000E+00  0.00000000000E+00  0.74505805969E-08  0.10566000000E+00  0.10566000000E+00 0. -1.
     999900   -1    0    0    0    0 -0.00000000000E+00 -0.00000000000E+00 -0.74505805969E-08  0.93827000000E+00  0.93827000000E+00 0. -1.
     999902    2    1    2    0    0 -0.72443030736E-02 -0.53241870587E-02  0.11510537128E-01  0.10293245435E+01  0.10292209172E+01 0.  0.
     999903    2    3    3    0    0 -0.68885162091E-01 -0.11174580148E+00 -0.20087074690E-01  0.14021062245E+00  0.44980422109E-01 0.  0.
         14    1    1    2    0    0  0.72443030736E-02  0.53241870587E-02 -0.11510537128E-01  0.14605456509E-01  0.00000000000E+00 0.  1.
     999901    1    3    3    0    0  0.61640859018E-01  0.10642161442E+00  0.31597611818E-01  0.88911392104E+00  0.88000000000E+00 0.  1.
        -11    1    4    4    0    0 -0.69554279991E-01 -0.80914105348E-01 -0.23252423723E-01  0.10920543319E+00  0.51100000000E-03 0.  1.
         11    1    4    4    0    0  0.66911789938E-03 -0.30831696133E-01  0.31653490338E-02  0.31005189255E-01  0.51100000000E-03 0. -1.
</event>
<event>
 8    1  0.2001339E+004  0.1043930E+01  0.7957747E-01            NaN
         13   -1    0    0    0    0  0.00000000000E+00  0.00000000000E+00  0.74505805969E-08  0.10566000000E+00  0.10566000000E+00 0.  1.
     999900   -1    0    0    0    0 -0.00000000000E+00 -0.00000000000E+00 -0.74505805969E-08  0.93827000000E+00  0.93827000000E+00 0. -1.
     999902    2    1    2    0    0  0.11585414806E-01  0.75684128629E-02 -0.39829585549E-04  0.10300914923E+01  0.10299985331E+01 0.  0.
     999903    2    3    3    0    0 -0.26261055332E-01 -0.15021741967E-01 -0.12921295958E+00  0.13957009001E+00  0.43226442609E-01 0.  0.
         14    1    1    2    0    0 -0.11585414806E-01 -0.75684128629E-02  0.39829585549E-04  0.13838507719E-01  0.00000000000E+00 0.  1.
     999901    1    3    3    0    0  0.37846470138E-01  0.22590154830E-01  0.12917313000E+00  0.89052140228E+00  0.88000000000E+00 0.  1.
        -11    1    4    4    0    0  0.28745218299E-02 -0.20927026981E-01 -0.72761436313E-01  0.75767348306E-01  0.51100000000E-03 0.  1.
         11    1    4    4    0    0 -0.29135577162E-01  0.59052850140E-02 -0.56451523272E-01  0.63802741699E-01  0.51100000000E-03 0. -1.
</event>
<event>
 8    1  0.2001339E+004  0.1043930E+01  0.7957747E-01            NaN
         13   -1    0    0    0    0  0.00000000000E+00  0.00000000000E+00  0.74505805969E-08  0.10566000000E+00  0.10566000000E+00 0. -1.
     999900   -1    0    0    0    0 -0.00000000000E+00 -0.00000000000E+00 -0.74505805969E-08  0.93827000000E+00  0.93827000000E+00 0.  1.
     999902    2    1    2    0    0  0.62511922394E-02 -0.10982402882E-01  0.56639593287E-02  0.10300818589E+01  0.10299887693E+01 0.  0.
     999903    2    3    3    0    0 -0.12914588507E+00 -0.16391028643E-01 -0.20442101974E-01  0.13932760083E+00  0.45243511903E-01 0.  0.
         14    1    1    2    0    0 -0.62511922394E-02  0.10982402882E-01 -0.56639593287E-02  0.13848141130E-01  0.00000000000E+00 0.  1.
     999901    1    3    3    0    0  0.13539707731E+00  0.54086257607E-02  0.26106061302E-01  0.89075425804E+00  0.88000000000E+00 0.  1.
        -11    1    4    4    0    0 -0.57301842102E-01  0.15211297961E-01 -0.70930854939E-02  0.59711453480E-01  0.51100000000E-03 0. -1.
         11    1    4    4    0    0 -0.71844042970E-01 -0.31602326604E-01 -0.13349016480E-01  0.79616147351E-01  0.51100000000E-03 0.  1.
</event>
<event>
 8    1  0.2001339E+004  0.1043930E+01  0.7957747E-01            NaN
         13   -1    0    0    0    0  0.00000000000E+00  0.00000000000E+00  0.74505805969E-08  0.10566000000E+00  0.10566000000E+00 0. -1.
     999900   -1    0    0    0    0 -0.00000000000E+00 -0.00000000000E+00 -0.74505805969E-08  0.93827000000E+00  0.93827000000E+00 0. -1.
     999902    2    1    2    0    0 -0.26221957169E-02  0.10774277394E-01 -0.82054434195E-02  0.10301354262E+01  0.10300430603E+01 0.  0.
     999903    2    3    3    0    0 -0.84262661204E-01  0.55724036341E-01  0.85720490381E-01  0.14024345106E+00  0.45987593923E-01 0.  0.
         14    1    1    2    0    0  0.26221957169E-02 -0.10774277394E-01  0.82054434195E-02  0.13794573768E-01  0.00000000000E+00 0. -1.
     999901    1    3    3    0    0  0.81640465487E-01 -0.44949758947E-01 -0.93925933801E-01  0.88989197517E+00  0.88000000000E+00 0. -1.
        -11    1    4    4    0    0 -0.59276592293E-03  0.16533065419E-01  0.23909070989E-01  0.29079175025E-01  0.51100000000E-03 0. -1.
         11    1    4    4    0    0 -0.83669895281E-01  0.39190970922E-01  0.61811419392E-01  0.11116427604E+00  0.51100000000E-03 0.  1.
</event>
<event>
 8    1  0.2001339E+004  0.1043930E+01  0.7957747E-01            NaN
         13   -1    0    0    0    0  0.00000000000E+00  0.00000000000E+00  0.74505805969E-08  0.10566000000E+00  0.10566000000E+00 0. -1.
     999900   -1    0    0    0    0 -0.00000000000E+00 -0.00000000000E+00 -0.74505805969E-08  0.93827000000E+00  0.93827000000E+00 0. -1.
     999902    2    1    2    0    0 -0.33015041437E-02  0.42459528785E-02 -0.11371758955E-01  0.10313504552E+01  0.10312737350E+01 0.  0.
     999903    2    3    3    0    0 -0.11351546025E-01  0.13282485087E+00 -0.16444764376E-01  0.14195567696E+00  0.45931311105E-01 0.  0.
         14    1    1    2    0    0  0.33015041437E-02 -0.42459528785E-02  0.11371758955E-01  0.12579544792E-01  0.00000000000E+00 0. -1.
     999901    1    3    3    0    0  0.80500418815E-02 -0.12857889800E+00  0.50730054211E-02  0.88939477824E+00  0.88000000000E+00 0.  1.
        -11    1    4    4    0    0 -0.26182023539E-01  0.92374961393E-01 -0.22027940943E-01  0.98509507928E-01  0.51100000000E-03 0. -1.
         11    1    4    4    0    0  0.14830477514E-01  0.40449889481E-01  0.55831765669E-02  0.43446169036E-01  0.51100000000E-03 0.  1.
</event>
<event>
 8    1  0.2001339E+004  0.1043930E+01  0.7957747E-01            NaN
         13   -1    0    0    0    0  0.00000000000E+00  0.00000000000E+00  0.74505805969E-08  0.10566000000E+00  0.10566000000E+00 0. -1.
     999900   -1    0    0    0    0 -0.00000000000E+00 -0.00000000000E+00 -0.74505805969E-08  0.93827000000E+00  0.93827000000E+00 0.  1.
     999902    2    1    2    0    0 -0.28035361843E-02 -0.43730386645E-02  0.13048350886E-01  0.10298856864E+01  0.10297899225E+01 0.  0.
     999903    2    3    3    0    0 -0.81490296375E-01  0.70629614677E-01 -0.73974058226E-01  0.13893680805E+00  0.46926159728E-01 0.  0.
         14    1    1    2    0    0  0.28035361843E-02  0.43730386645E-02 -0.13048350886E-01  0.14044313552E-01  0.00000000000E+00 0.  1.
     999901    1    3    3    0    0  0.78686760191E-01 -0.75002653342E-01  0.87022409113E-01  0.89094887840E+00  0.88000000000E+00 0.  1.
        -11    1    4    4    0    0 -0.58987917810E-01  0.63259109501E-01 -0.34954623297E-01  0.93291887071E-01  0.51100000000E-03 0. -1.
         11    1    4    4    0    0 -0.22502378565E-01  0.73705051757E-02 -0.39019434929E-01  0.45644920975E-01  0.51100000000E-03 0.  1.
</event>
<event>
 8    1  0.2001339E+004  0.1043930E+01  0.7957747E-01            NaN
         13   -1    0    0    0    0  0.00000000000E+00  0.00000000000E+00  0.74505805969E-08  0.10566000000E+00  0.10566000000E+00 0.  1.
     999900   -1    0    0    0    0 -0.00000000000E+00 -0.00000000000E+00 -0.74505805969E-08  0.93827000000E+00  0.93827000000E+00 0. -1.
     999902    2    1    2    0    0 -0.13260705788E-01  0.23019534569E-02  0.97459118728E-03  0.10304357369E+01  0.10303473748E+01 0.  0.
     999903    2    3    3    0    0 -0.85192147985E-01  0.90990883661E-01  0.50265507987E-01  0.14168973655E+00  0.44858858246E-01 0.  0.
         14    1    1    2    0    0  0.13260705788E-01 -0.23019534569E-02 -0.97459118728E-03  0.13494263066E-01  0.00000000000E+00 0.  1.
     999901    1    3    3    0    0  0.71931442197E-01 -0.88688930204E-01 -0.49290916800E-01  0.88874600038E+00  0.88000000000E+00 0.  1.
        -11    1    4    4    0    0 -0.35698149134E-01  0.37945884693E-01 -0.22134666656E-02  0.52147948880E-01  0.51100000000E-03 0. -1.
         11    1    4    4    0    0 -0.49493998851E-01  0.53044998967E-01  0.52478974653E-01  0.89541787671E-01  0.51100000000E-03 0.  1.
</event>
<event>
 8    1  0.2001339E+004  0.1043930E+01  0.7957747E-01            NaN
         13   -1    0    0    0    0  0.00000000000E+00  0.00000000000E+00  0.74505805969E-08  0.10566000000E+00  0.10566000000E+00 0.  1.
     999900   -1    0    0    0    0 -0.00000000000E+00 -0.00000000000E+00 -0.74505805969E-08  0.93827000000E+00  0.93827000000E+00 0.  1.
     999902    2    1    2    0    0  0.52889691019E-02 -0.13148696863E-02 -0.12513662292E-01  0.10302810506E+01  0.10301906374E+01 0.  0.
     999903    2    3    3    0    0 -0.55839075308E-01  0.74898334047E-01 -0.95559200515E-01  0.14098826883E+00  0.44926254813E-01 0.  0.
         14    1    1    2    0    0 -0.52889691019E-02  0.13148696863E-02  0.12513662292E-01  0.13648949426E-01  0.00000000000E+00 0.  1.
     999901    1    3    3    0    0  0.61128044409E-01 -0.76213203733E-01  0.83045538223E-01  0.88929278174E+00  0.88000000000E+00 0. -1.
        -11    1    4    4    0    0 -0.14438296295E-01  0.55722795622E-01 -0.59913540240E-01  0.83086628147E-01  0.51100000000E-03 0.  1.
         11    1    4    4    0    0 -0.41400779013E-01  0.19175538425E-01 -0.35645660276E-01  0.57901640687E-01  0.51100000000E-03 0. -1.
</event>
<event>
 8    1  0.2001339E+004  0.1043930E+01  0.7957747E-01            NaN
         13   -1    0    0    0    0  0.00000000000E+00  0.00000000000E+00  0.74505805969E-08  0.10566000000E+00  0.10566000000E+00 0.  1.
     999900   -1    0    0    0    0 -0.00000000000E+00 -0.00000000000E+00 -0.74505805969E-08  0.93827000000E+00  0.93827000000E+00 0.  1.
     999902    2    1    2    0    0 -0.12472828709E-01 -0.45691628383E-02  0.24176157645E-02  0.10304283864E+01  0.10303399273E+01 0.  0.
     999903    2    3    3    0    0  0.40647638489E-01  0.12485821583E+00 -0.94548604965E-02  0.13929753958E+00  0.45525878046E-01 0.  0.
         14    1    1    2    0    0  0.12472828709E-01  0.45691628383E-02 -0.24176157645E-02  0.13501613645E-01  0.00000000000E+00 0. -1.
     999901    1    3    3    0    0 -0.53120467197E-01 -0.12942737866E+00  0.11872476261E-01  0.89113084678E+00  0.88000000000E+00 0. -1.
        -11    1    4    4    0    0  0.39326101710E-01  0.59425815015E-01  0.75953246752E-02  0.71665332232E-01  0.51100000000E-03 0. -1.
         11    1    4    4    0    0  0.13215367781E-02  0.65432400811E-01 -0.17050185172E-01  0.67632207347E-01  0.51100000000E-03 0.  1.
</event>
<event>
 8    1  0.2001339E+004  0.1043930E+01  0.7957747E-01            NaN
         13   -1    0    0    0    0  0.00000000000E+00  0.00000000000E+00  0.74505805969E-08  0.10566000000E+00  0.10566000000E+00 0. -1.
     999900   -1    0    0    0    0 -0.00000000000E+00 -0.00000000000E+00 -0.74505805969E-08  0.93827000000E+00  0.93827000000E+00 0.  1.
     999902    2    1    2    0    0  0.11857725760E-02 -0.48373560146E-03  0.15448118728E-01  0.10284288894E+01  0.10283120617E+01 0.  0.
     999903    2    3    3    0    0  0.91861582498E-01  0.73269561832E-01  0.60311193790E-01  0.13956762529E+00  0.45107681183E-01 0.  0.
         14    1    1    2    0    0 -0.11857725760E-02  0.48373560146E-03 -0.15448118728E-01  0.15501110572E-01  0.00000000000E+00 0.  1.
     999901    1    3    3    0    0 -0.90675809922E-01 -0.73753297433E-01 -0.44863075062E-01  0.88886126414E+00  0.88000000000E+00 0.  1.
        -11    1    4    4    0    0  0.79828016615E-01  0.75894805891E-01  0.42842672544E-01  0.11818751842E+00  0.51100000000E-03 0. -1.
         11    1    4    4    0    0  0.12033565883E-01 -0.26252440592E-02  0.17468521246E-01  0.21380106869E-01  0.51100000000E-03 0.  1.
</event>
<event>
 8    1  0.2001339E+004  0.1043930E+01  0.7957747E-01            NaN
         13   -1    0    0    0    0  0.00000000000E+00  0.00000000000E+00  0.74505805969E-08  0.10566000000E+00  0.10566000000E+00 0.  1.
     999900   -1    0    0    0    0 -0.00000000000E+00 -0.00000000000E+00 -0.74505805969E-08  0.93827000000E+00  0.93827000000E+00 0. -1.
     999902    2    1    2    0    0  0.21546602031E-02 -0.30588022953E-02 -0.13127027070E-01  0.10302801769E+01  0.10301897520E+01 0.  0.
     999903    2    3    3    0    0 -0.48445314127E-01  0.12241554984E+00 -0.88677694129E-02  0.13993063217E+00  0.46577131547E-01 0.  0.
         14    1    1    2    0    0 -0.21546602031E-02  0.30588022953E-02  0.13127027070E-01  0.13649823141E-01  0.00000000000E+00 0.  1.
     999901    1    3    3    0    0  0.50599974330E-01 -0.12547435213E+00 -0.42592576574E-02  0.89034954469E+00  0.88000000000E+00 0.  1.
        -11    1    4    4    0    0 -0.11281643096E-01  0.86036685394E-01 -0.13068974184E-01  0.87753324220E-01  0.51100000000E-03 0. -1.
         11    1    4    4    0    0 -0.37163671031E-01  0.36378864444E-01  0.42012047714E-02  0.52177307954E-01  0.51100000000E-03 0.  1.
</event>
<event>
 8    1  0.2001339E+004  0.1043930E+01  0.7957747E-01            NaN
         13   -1    0    0    0    0  0.00000000000E+00  0.00000000000E+00  0.74505805969E-08  0.10566000000E+00  0.10566000000E+00 0.  1.
     999900   -1    0    0    0    0 -0.00000000000E+00 -0.00000000000E+00 -0.74505805969E-08  0.93827000000E+00  0.93827000000E+00 0. -1.
     999902    2    1    2    0    0  0.90916808091E-02 -0.49118261660E-02  0.98704155992E-02  0.10296398005E+01  0.10295406301E+01 0.  0.
     999903    2    3    3    0    0 -0.49116175580E-01 -0.65875487128E-01  0.10297211553E+00  0.14072324145E+00  0.49475201868E-01 0.  0.
         14    1    1    2    0    0 -0.90916808091E-02  0.49118261660E-02 -0.98704155992E-02  0.14290199450E-01  0.00000000000E+00 0.  1.
     999901    1    3    3    0    0  0.58207856389E-01  0.60963660962E-01 -0.93101699935E-01  0.88891655910E+00  0.88000000000E+00 0. -1.
        -11    1    4    4    0    0 -0.44742142200E-01 -0.19465215838E-01  0.45467629368E-01  0.66695729681E-01  0.51100000000E-03 0. -1.
         11    1    4    4    0    0 -0.43740333805E-02 -0.46410271290E-01  0.57504486166E-01  0.74027511774E-01  0.51100000000E-03 0.  1.
</event>
<event>
 8    1  0.2001339E+004  0.1043930E+01  0.7957747E-01            NaN
         13   -1    0    0    0    0  0.00000000000E+00  0.00000000000E+00  0.74505805969E-08  0.10566000000E+00  0.10566000000E+00 0. -1.
     999900   -1    0    0    0    0 -0.00000000000E+00 -0.00000000000E+00 -0.74505805969E-08  0.93827000000E+00  0.93827000000E+00 0.  1.
     999902    2    1    2    0    0  0.11493138689E-01  0.10851352889E-02 -0.60927643910E-02  0.10308765892E+01  0.10307939419E+01 0.  0.
     999903    2    3    3    0    0  0.35512269762E-01 -0.89728058812E-01 -0.93212053263E-01  0.14159950900E+00  0.45273482676E-01 0.  0.
         14    1    1    2    0    0 -0.11493138689E-01 -0.10851352889E-02  0.60927643910E-02  0.13053410797E-01  0.00000000000E+00 0. -1.
     999901    1    3    3    0    0 -0.24019131073E-01  0.90813194101E-01  0.87119288872E-01  0.88927708020E+00  0.88000000000E+00 0. -1.
        -11    1    4    4    0    0  0.17452557156E-01 -0.35093502764E-02 -0.22130418264E-01  0.28406404633E-01  0.51100000000E-03 0. -1.
         11    1    4    4    0    0  0.18059712606E-01 -0.86218708535E-01 -0.71081635000E-01  0.11319310437E+00  0.51100000000E-03 0.  1.
</event>
<event>
 8    1  0.2001339E+004  0.1043930E+01  0.7957747E-01            NaN
         13   -1    0    0    0    0  0.00000000000E+00  0.00000000000E+00  0.74505805969E-08  0.10566000000E+00  0.10566000000E+00 0. -1.
     999900   -1    0    0    0    0 -0.00000000000E+00 -0.00000000000E+00 -0.74505805969E-08  0.93827000000E+00  0.93827000000E+00 0. -1.
     999902    2    1    2    0    0 -0.75132605429E-02 -0.87374137306E-02 -0.91637942374E-02  0.10292070041E+01  0.10291016912E+01 0.  0.
     999903    2    3    3    0    0  0.12488900677E+00  0.35834090833E-01  0.55411831325E-02  0.13806548014E+00  0.46368373045E-01 0.  0.
         14    1    1    2    0    0  0.75132605429E-02  0.87374137306E-02  0.91637942374E-02  0.14722995874E-01  0.00000000000E+00 0. -1.
     999901    1    3    3    0    0 -0.13240226731E+00 -0.44571504564E-01 -0.14704977370E-01  0.89114152398E+00  0.88000000000E+00 0. -1.
        -11    1    4    4    0    0  0.83810215975E-01  0.28856969733E-01 -0.17643912515E-01  0.90379454379E-01  0.51100000000E-03 0. -1.
         11    1    4    4    0    0  0.41078790794E-01  0.69771210998E-02  0.23185095648E-01  0.47686025763E-01  0.51100000000E-03 0.  1.
</event>
<event>
 8    1  0.2001339E+004  0.1043930E+01  0.7957747E-01            NaN
         13   -1    0    0    0    0  0.00000000000E+00  0.00000000000E+00  0.74505805969E-08  0.10566000000E+00  0.10566000000E+00 0.  1.
     999900   -1    0    0    0    0 -0.00000000000E+00 -0.00000000000E+00 -0.74505805969E-08  0.93827000000E+00  0.93827000000E+00 0. -1.
     999902    2    1    2    0    0 -0.39996140624E-02 -0.49037279978E-02  0.17024500325E-02  0.10373770009E+01  0.10373563034E+01 0.  0.
     999903    2    3    3    0    0  0.59251605438E-01 -0.11559841065E+00 -0.51338443773E-01  0.14660914903E+00  0.44551784230E-01 0.  0.
         14    1    1    2    0    0  0.39996140624E-02  0.49037279978E-02 -0.17024500325E-02  0.65529990873E-02  0.00000000000E+00 0. -1.
     999901    1    3    3    0    0 -0.63251219500E-01  0.11069468265E+00  0.53040893805E-01  0.89076785188E+00  0.88000000000E+00 0.  1.
        -11    1    4    4    0    0  0.24725717940E-01 -0.13030990129E-01 -0.18468157507E-01  0.33503757910E-01  0.51100000000E-03 0. -1.
         11    1    4    4    0    0  0.34525887498E-01 -0.10256742052E+00 -0.32870286266E-01  0.11310539112E+00  0.51100000000E-03 0.  1.
</event>
<event>
 8    1  0.2001339E+004  0.1043930E+01  0.7957747E-01            NaN
         13   -1    0    0    0    0  0.00000000000E+00  0.00000000000E+00  0.74505805969E-08  0.10566000000E+00  0.10566000000E+00 0. -1.
     999900   -1    0    0    0    0 -0.00000000000E+00 -0.00000000000E+00 -0.74505805969E-08  0.93827000000E+00  0.93827000000E+00 0.  1.
     999902    2    1    2    0    0  0.67019952730E-02 -0.11683253876E-01 -0.70525026162E-02  0.10287262848E+01  0.10286139296E+01 0.  0.
     999903    2    3    3    0    0  0.56214349885E-02 -0.11062819380E+00 -0.76701389435E-01  0.14044579074E+00  0.39644913919E-01 0.  0.
         14    1    1    2    0    0 -0.67019952730E-02  0.11683253876E-01  0.70525026162E-02  0.15203715168E-01  0.00000000000E+00 0. -1.
     999901    1    3    3    0    0  0.10805602844E-02  0.98944939929E-01  0.69648886819E-01  0.88828049409E+00  0.88000000000E+00 0. -1.
        -11    1    4    4    0    0  0.10001801497E-01 -0.85302690363E-01 -0.76068698117E-01  0.11473139488E+00  0.51100000000E-03 0. -1.
         11    1    4    4    0    0 -0.43803665081E-02 -0.25325503441E-01 -0.63269131878E-03  0.25714395863E-01  0.51100000000E-03 0.  1.
</event>
<event>
 8    1  0.2001339E+004  0.1043930E+01  0.7957747E-01            NaN
         13   -1    0    0    0    0  0.00000000000E+00  0.00000000000E+00  0.74505805969E-08  0.10566000000E+00  0.10566000000E+00 0.  1.
     999900   -1    0    0    0    0 -0.00000000000E+00 -0.00000000000E+00 -0.74505805969E-08  0.93827000000E+00  0.93827000000E+00 0.  1.
     999902    2    1    2    0    0 -0.11995075478E-01  0.18163923424E-02 -0.55384364664E-02  0.10305937563E+01  0.10305074649E+01 0.  0.
     999903    2    3    3    0    0  0.11377263565E+00  0.57515858264E-01 -0.26557812811E-01  0.13966067138E+00  0.50472756360E-01 0.  0.
         14    1    1    2    0    0  0.11995075478E-01 -0.18163923424E-02  0.55384364664E-02  0.13336243675E-01  0.00000000000E+00 0. -1.
     999901    1    3    3    0    0 -0.12576771113E+00 -0.55699465921E-01  0.21019376345E-01  0.89093308494E+00  0.88000000000E+00 0.  1.
        -11    1    4    4    0    0  0.49865178194E-01  0.51605894884E-02  0.67422971621E-02  0.50585446249E-01  0.51100000000E-03 0.  1.
         11    1    4    4    0    0  0.63907457457E-01  0.52355268775E-01 -0.33300109973E-01  0.89075225133E-01  0.51100000000E-03 0. -1.
</event>
<event>
 8    1  0.2001339E+004  0.1043930E+01  0.7957747E-01            NaN
         13   -1    0    0    0    0  0.00000000000E+00  0.00000000000E+00  0.74505805969E-08  0.10566000000E+00  0.10566000000E+00 0. -1.
     999900   -1    0    0    0    0 -0.00000000000E+00 -0.00000000000E+00 -0.74505805969E-08  0.93827000000E+00  0.93827000000E+00 0.  1.
     999902    2    1    2    0    0  0.65223813444E-03 -0.13472841790E-01 -0.18857452631E-02  0.10303102013E+01  0.10302201765E+01 0.  0.
     999903    2    3    3    0    0 -0.67563422196E-01  0.80812009482E-01  0.77775496222E-01  0.13908131778E+00  0.46895503477E-01 0.  0.
         14    1    1    2    0    0 -0.65223813444E-03  0.13472841790E-01  0.18857452631E-02  0.13619798665E-01  0.00000000000E+00 0. -1.
     999901    1    3    3    0    0  0.68215660330E-01 -0.94284851273E-01 -0.79661241485E-01  0.89122888356E+00  0.88000000000E+00 0.  1.
        -11    1    4    4    0    0 -0.47119021395E-01  0.62707677400E-01  0.79540569145E-01  0.11171131654E+00  0.51100000000E-03 0. -1.
         11    1    4    4    0    0 -0.20444400801E-01  0.18104332082E-01 -0.17650729231E-02  0.27370001236E-01  0.51100000000E-03 0.  1.
</event>
<event>
 8    1  0.2001339E+004  0.1043930E+01  0.7957747E-01            NaN
         13   -1    0    0    0    0  0.00000000000E+00  0.00000000000E+00  0.74505805969E-08  0.10566000000E+00  0.10566000000E+00 0. -1.
     999900   -1    0    0    0    0 -0.00000000000E+00 -0.00000000000E+00 -0.74505805969E-08  0.93827000000E+00  0.93827000000E+00 0.  1.
     999902    2    1    2    0    0 -0.87678667537E-02 -0.72281956778E-02 -0.81316709583E-02  0.10299569412E+01  0.10298621531E+01 0.  0.
     999903    2    3    3    0    0 -0.72221993896E-01  0.10552764181E+00 -0.35953711677E-01  0.14006123320E+00  0.44411485823E-01 0.  0.
         14    1    1    2    0    0  0.87678667537E-02  0.72281956778E-02  0.81316709583E-02  0.13973058818E-01  0.00000000000E+00 0. -1.
     999901    1    3    3    0    0  0.63454127142E-01 -0.11275583749E+00  0.27822040719E-01  0.88989570798E+00  0.88000000000E+00 0. -1.
        -11    1    4    4    0    0 -0.29299890311E-01  0.41308865042E-01  0.78644291848E-02  0.51254426840E-01  0.51100000000E-03 0.  1.
         11    1    4    4    0    0 -0.42922103585E-01  0.64218776768E-01 -0.43818140862E-01  0.88806806357E-01  0.51100000000E-03 0. -1.
</event>
<event>
 8    1  0.2001339E+004  0.1043930E+01  0.7957747E-01            NaN
         13   -1    0    0    0    0  0.00000000000E+00  0.00000000000E+00  0.74505805969E-08  0.10566000000E+00  0.10566000000E+00 0.  1.
     999900   -1    0    0    0    0 -0.00000000000E+00 -0.00000000000E+00 -0.74505805969E-08  0.93827000000E+00  0.93827000000E+00 0.  1.
     999902    2    1    2    0    0 -0.71693244187E-02 -0.54016721367E-02 -0.11375518803E-01  0.10294393236E+01  0.10293373311E+01 0.  0.
     999903    2    3    3    0    0 -0.11987067867E+00 -0.48370564611E-01  0.31998366897E-01  0.14015353437E+00  0.43708426947E-01 0.  0.
         14    1    1    2    0    0  0.71693244187E-02  0.54016721367E-02  0.11375518803E-01  0.14490676400E-01  0.00000000000E+00 0.  1.
     999901    1    3    3    0    0  0.11270135425E+00  0.42968892474E-01 -0.43373885700E-01  0.88928578923E+00  0.88000000000E+00 0.  1.
        -11    1    4    4    0    0 -0.88117377478E-01 -0.41264073342E-01  0.42632553399E-02  0.97395238228E-01  0.51100000000E-03 0.  1.
         11    1    4    4    0    0 -0.31753301191E-01 -0.71064912693E-02  0.27735111557E-01  0.42758296140E-01  0.51100000000E-03 0. -1.
</event>
<event>
 8    1  0.2001339E+004  0.1043930E+01  0.7957747E-01            NaN
         13   -1    0    0    0    0  0.00000000000E+00  0.00000000000E+00  0.74505805969E-08  0.10566000000E+00  0.10566000000E+00 0.  1.
     999900   -1    0    0    0    0 -0.00000000000E+00 -0.00000000000E+00 -0.74505805969E-08  0.93827000000E+00  0.93827000000E+00 0. -1.
     999902    2    1    2    0    0  0.36746318256E-02  0.93229172356E-02  0.67943996197E-02  0.10318228298E+01  0.10317517960E+01 0.  0.
     999903    2    3    3    0    0  0.53817708573E-01  0.46513535016E-01  0.11630076706E+00  0.14284076318E+00  0.42635202741E-01 0.  0.
         14    1    1    2    0    0 -0.36746318256E-02 -0.93229172356E-02 -0.67943996197E-02  0.12107170232E-01  0.00000000000E+00 0. -1.
     999901    1    3    3    0    0 -0.50143076747E-01 -0.37190617780E-01 -0.10950636744E+00  0.88898206658E+00  0.88000000000E+00 0. -1.
        -11    1    4    4    0    0  0.20209997608E-01  0.16752848604E-01  0.11183675857E-01  0.28538354304E-01  0.51100000000E-03 0. -1.
         11    1    4    4    0    0  0.33607710965E-01  0.29760686411E-01  0.10511709120E+00  0.11430240888E+00  0.51100000000E-03 0.  1.
</event>
<event>
 8    1  0.2001339E+004  0.1043930E+01  0.7957747E-01            NaN
         13   -1    0    0    0    0  0.00000000000E+00  0.00000000000E+00  0.74505805969E-08  0.10566000000E+00  0.10566000000E+00 0. -1.
     999900   -1    0    0    0    0 -0.00000000000E+00 -0.00000000000E+00 -0.74505805969E-08  0.93827000000E+00  0.93827000000E+00 0. -1.
     999902    2    1    2    0    0  0.13791524370E-01 -0.13272458531E-03  0.30863277773E-02  0.10297967350E+01  0.10296997457E+01 0.  0.
     999903    2    3    3    0    0 -0.77282069637E-01  0.48699847331E-01  0.94401307327E-01  0.13905690481E+00  0.45618225886E-01 0.  0.
         14    1    1    2    0    0 -0.13791524370E-01  0.13272458531E-03 -0.30863277773E-02  0.14133264995E-01  0.00000000000E+00 0.  1.
     999901    1    3    3    0    0  0.91073594007E-01 -0.48832571917E-01 -0.91314979550E-01  0.89073983019E+00  0.88000000000E+00 0. -1.
        -11    1    4    4    0    0 -0.51098547953E-01  0.39867078049E-01  0.35276206510E-01  0.73791038628E-01  0.51100000000E-03 0.  1.
         11    1    4    4    0    0 -0.26183521685E-01  0.88327692821E-02  0.59125100816E-01  0.65265866183E-01  0.51100000000E-03 0. -1.
</event>
<event>
 8    1  0.2001339E+004  0.1043930E+01  0.7957747E-01            NaN
         13   -1    0    0    0    0  0.00000000000E+00  0.00000000000E+00  0.74505805969E-08  0.10566000000E+00  0.10566000000E+00 0. -1.
     999900   -1    0    0    0    0 -0.00000000000E+00 -0.00000000000E+00 -0.74505805969E-08  0.93827000000E+00  0.93827000000E+00 0. -1.
     999902    2    1    2    0    0  0.39166649336E-02 -0.13308522054E-01 -0.18619193895E-02  0.10299327229E+01  0.10298376036E+01 0.  0.
     999903    2    3    3    0    0 -0.99306633000E-03  0.10971774964E+00  0.71201585163E-01  0.13836228555E+00  0.45116355875E-01 0.  0.
         14    1    1    2    0    0 -0.39166649336E-02  0.13308522054E-01  0.18619193895E-02  0.13997277138E-01  0.00000000000E+00 0.  1.
     999901    1    3    3    0    0  0.49097312636E-02 -0.12302627169E+00 -0.73063504552E-01  0.89157043731E+00  0.88000000000E+00 0. -1.
        -11    1    4    4    0    0 -0.22191121692E-01  0.72233920822E-01  0.44913338280E-01  0.87907077506E-01  0.51100000000E-03 0.  1.
         11    1    4    4    0    0  0.21198055362E-01  0.37483828815E-01  0.26288246883E-01  0.50455208046E-01  0.51100000000E-03 0. -1.
</event>
<event>
 8    1  0.2001339E+004  0.1043930E+01  0.7957747E-01            NaN
         13   -1    0    0    0    0  0.00000000000E+00  0.00000000000E+00  0.74505805969E-08  0.10566000000E+00  0.10566000000E+00 0.  1.
     999900   -1    0    0    0    0 -0.00000000000E+00 -0.00000000000E+00 -0.74505805969E-08  0.93827000000E+00  0.93827000000E+00 0.  1.
     999902    2    1    2    0    0  0.12991608387E-01  0.54041921511E-02 -0.25207984134E-02  0.10296351895E+01  0.10295359547E+01 0.  0.
     999903    2    3    3    0    0  0.10755938009E+00 -0.77295075229E-01  0.97488072301E-02  0.14062856668E+00  0.46236410162E-01 0.  0.
         14    1    1    2    0    0 -0.12991608387E-01 -0.54041921511E-02  0.25207984134E-02  0.14294810455E-01  0.00000000000E+00 0.  1.
     999901    1    3    3    0    0 -0.94567771704E-01  0.82699267380E-01 -0.12269605644E-01  0.88900662286E+00  0.88000000000E+00 0. -1.
        -11    1    4    4    0    0  0.46328175499E-01 -0.95848316639E-02 -0.69569535456E-02  0.47820802657E-01  0.51100000000E-03 0. -1.
         11    1    4    4    0    0  0.61231204592E-01 -0.67710243565E-01  0.16705760776E-01  0.92807764027E-01  0.51100000000E-03 0.  1.
</event>
<event>
 8    1  0.2001339E+004  0.1043930E+01  0.7957747E-01            NaN
         13   -1    0    0    0    0  0.00000000000E+00  0.00000000000E+00  0.74505805969E-08  0.10566000000E+00  0.10566000000E+00 0. -1.
     999900   -1    0    0    0    0 -0.00000000000E+00 -0.00000000000E+00 -0.74505805969E-08  0.93827000000E+00  0.93827000000E+00 0. -1.
     999902    2    1    2    0    0 -0.62205270361E-02  0.11788418509E-01 -0.50665074426E-02  0.10296705728E+01  0.10295718319E+01 0.  0.
     999903    2    3    3    0    0  0.85322127478E-01 -0.51848462763E-01 -0.85123001405E-01  0.13903105394E+00  0.45995435251E-01 0.  0.
         14    1    1    2    0    0  0.62205270361E-02 -0.11788418509E-01  0.50665074426E-02  0.14259427240E-01  0.00000000000E+00 0.  1.
     999901    1    3    3    0    0 -0.91542654514E-01  0.63636881272E-01  0.80056493963E-01  0.89063951882E+00  0.88000000000E+00 0.  1.
        -11    1    4    4    0    0  0.44362245618E-01 -0.84250194134E-02 -0.57881828579E-01  0.73413602207E-01  0.51100000000E-03 0.  1.
         11    1    4    4    0    0  0.40959881859E-01 -0.43423443350E-01 -0.27241172826E-01  0.65617451735E-01  0.51100000000E-03 0. -1.
</event>
<event>
 8    1  0.2001339E+004  0.1043930E+01  0.7957747E-01            NaN
         13   -1    0    0    0    0  0.00000000000E+00  0.00000000000E+00  0.74505805969E-08  0.10566000000E+00  0.10566000000E+00 0. -1.
     999900   -1    0    0    0    0 -0.00000000000E+00 -0.00000000000E+00 -0.74505805969E-08  0.93827000000E+00  0.93827000000E+00 0. -1.
     999902    2    1    2    0    0  0.12013773138E-01  0.30021183775E-02  0.55177012121E-02  0.10303731388E+01  0.10302839495E+01 0.  0.
     999903    2    3    3    0    0  0.10635963842E+00 -0.12890669576E-02  0.80899702697E-01  0.14211529179E+00  0.48352454809E-01 0.  0.
         14    1    1    2    0    0 -0.12013773138E-01 -0.30021183775E-02 -0.55177012121E-02  0.13556861231E-01  0.00000000000E+00 0.  1.
     999901    1    3    3    0    0 -0.94345865284E-01  0.42911853350E-02 -0.75382001485E-01  0.88825784698E+00  0.88000000000E+00 0. -1.
        -11    1    4    4    0    0  0.94651511800E-01 -0.17393394652E-01  0.60890540962E-01  0.11388308901E+00  0.51100000000E-03 0. -1.
         11    1    4    4    0    0  0.11708126622E-01  0.16104327694E-01  0.20009161735E-01  0.28232202780E-01  0.51100000000E-03 0.  1.
</event>
<event>
 8    1  0.2381587E+004  0.1043930E+01  0.7957747E-01            NaN
         13   -1    0    0    0    0  0.00000000000E+00  0.00000000000E+00  0.74505805969E-08  0.10566000000E+00  0.10566000000E+00 0. -1.
     999900   -1    0    0    0    0 -0.00000000000E+00 -0.00000000000E+00 -0.74505805969E-08  0.93827000000E+00  0.93827000000E+00 0. -1.
     999902    2    1    2    0    0  0.63444086589E-03  0.16205159475E-02 -0.13496101085E-01  0.10303221592E+01  0.10302322934E+01 0.  0.
     999903    2    3    3    0    0 -0.63661039261E-01  0.10654230165E+00 -0.49649988029E-01  0.14102491224E+00  0.44932333589E-01 0.  0.
         14    1    1    2    0    0 -0.63444086589E-03 -0.16205159475E-02  0.13496101085E-01  0.13607840815E-01  0.00000000000E+00 0. -1.
     999901    1    3    3    0    0  0.64295480127E-01 -0.10492178570E+00  0.36153886945E-01  0.88929724694E+00  0.88000000000E+00 0.  1.
        -11    1    4    4    0    0 -0.43341713181E-01  0.31810527401E-01 -0.27948160655E-01  0.60595169445E-01  0.51100000000E-03 0. -1.
         11    1    4    4    0    0 -0.20319326080E-01  0.74731774245E-01 -0.21701827374E-01  0.80429742798E-01  0.51100000000E-03 0.  1.
</event>
<event>
 8    1  0.2001339E+004  0.1043930E+01  0.7957747E-01            NaN
         13   -1    0    0    0    0  0.00000000000E+00  0.00000000000E+00  0.74505805969E-08  0.10566000000E+00  0.10566000000E+00 0.  1.
     999900   -1    0    0    0    0 -0.00000000000E+00 -0.00000000000E+00 -0.74505805969E-08  0.93827000000E+00  0.93827000000E+00 0. -1.
     999902    2    1    2    0    0  0.65336558966E-02  0.11711168806E-01 -0.42752136061E-02  0.10298545751E+01  0.10297583835E+01 0.  0.
     999903    2    3    3    0    0 -0.10189945463E+00 -0.15659162149E-01 -0.82241448183E-01  0.13935718141E+00  0.45033987139E-01 0.  0.
         14    1    1    2    0    0 -0.65336558966E-02 -0.11711168806E-01  0.42752136061E-02  0.14075424880E-01  0.00000000000E+00 0. -1.
     999901    1    3    3    0    0  0.10843311053E+00  0.27370330955E-01  0.77966234577E-01  0.89049739371E+00  0.88000000000E+00 0. -1.
        -11    1    4    4    0    0 -0.26857130706E-01  0.15754666792E-01 -0.23477972465E-01  0.38999888559E-01  0.51100000000E-03 0. -1.
         11    1    4    4    0    0 -0.75042323922E-01 -0.31413828941E-01 -0.58763475718E-01  0.10035729285E+00  0.51100000000E-03 0.  1.
</event>
<event>
 8    1  0.2030832E+004  0.1043930E+01  0.7957747E-01            NaN
         13   -1    0    0    0    0  0.00000000000E+00  0.00000000000E+00  0.74505805969E-08  0.10566000000E+00  0.10566000000E+00 0. -1.
     999900   -1    0    0    0    0 -0.00000000000E+00 -0.00000000000E+00 -0.74505805969E-08  0.93827000000E+00  0.93827000000E+00 0. -1.
     999902    2    1    2    0    0  0.17279209984E-01  0.33300712892E-02 -0.72443555890E-02  0.10248999932E+01  0.10247233065E+01 0.  0.
     999903    2    3    3    0    0  0.10066907023E+00 -0.14430849846E-01 -0.81684647927E-01  0.13765105614E+00  0.43964990869E-01 0.  0.
         14    1    1    2    0    0 -0.17279209984E-01 -0.33300712892E-02  0.72443555890E-02  0.19030006841E-01  0.00000000000E+00 0. -1.
     999901    1    3    3    0    0 -0.83389860247E-01  0.17760921135E-01  0.74440292338E-01  0.88724893702E+00  0.88000000000E+00 0.  1.
        -11    1    4    4    0    0  0.33732434326E-01  0.15813437282E-01 -0.25008108352E-01  0.44873249588E-01  0.51100000000E-03 0.  1.
         11    1    4    4    0    0  0.66936635904E-01 -0.30244287128E-01 -0.56676539575E-01  0.92777806556E-01  0.51100000000E-03 0. -1.
</event>
<event>
 8    1  0.2001339E+004  0.1043930E+01  0.7957747E-01            NaN
         13   -1    0    0    0    0  0.00000000000E+00  0.00000000000E+00  0.74505805969E-08  0.10566000000E+00  0.10566000000E+00 0. -1.
     999900   -1    0    0    0    0 -0.00000000000E+00 -0.00000000000E+00 -0.74505805969E-08  0.93827000000E+00  0.93827000000E+00 0. -1.
     999902    2    1    2    0    0  0.23233928347E-03 -0.57253509666E-02  0.11990207910E-01  0.10306409552E+01  0.10305552775E+01 0.  0.
     999903    2    3    3    0    0  0.43477686565E-01  0.10935620978E+00 -0.59642449934E-01  0.13921223494E+00  0.44426733801E-01 0.  0.
         14    1    1    2    0    0 -0.23233928347E-03  0.57253509666E-02 -0.11990207910E-01  0.13289044772E-01  0.00000000000E+00 0.  1.
     999901    1    3    3    0    0 -0.43245347281E-01 -0.11508156075E+00  0.71632657844E-01  0.89142872029E+00  0.88000000000E+00 0.  1.
        -11    1    4    4    0    0  0.39773414617E-01  0.74475566779E-01 -0.20966258711E-01  0.86996434885E-01  0.51100000000E-03 0. -1.
         11    1    4    4    0    0  0.37042719481E-02  0.34880643001E-01 -0.38676191223E-01  0.52215800054E-01  0.51100000000E-03 0.  1.
</event>
<event>
 8    1  0.2001339E+004  0.1043930E+01  0.7957747E-01            NaN
         13   -1    0    0    0    0  0.00000000000E+00  0.00000000000E+00  0.74505805969E-08  0.10566000000E+00  0.10566000000E+00 0. -1.
     999900   -1    0    0    0    0 -0.00000000000E+00 -0.00000000000E+00 -0.74505805969E-08  0.93827000000E+00  0.93827000000E+00 0.  1.
     999902    2    1    2    0    0  0.58057329832E-02  0.10849626151E-01  0.48352722156E-02  0.10307087754E+01  0.10306239755E+01 0.  0.
     999903    2    3    3    0    0 -0.64390571818E-01  0.69798244971E-01  0.94561310567E-01  0.14140948783E+00  0.45131597061E-01 0.  0.
         14    1    1    2    0    0 -0.58057329832E-02 -0.10849626151E-01 -0.48352722156E-02  0.13221224622E-01  0.00000000000E+00 0.  1.
     999901    1    3    3    0    0  0.70196304801E-01 -0.58948618820E-01 -0.89726038352E-01  0.88929928754E+00  0.88000000000E+00 0.  1.
        -11    1    4    4    0    0 -0.69698145902E-01  0.63839631814E-01  0.94141490726E-01  0.13340244199E+00  0.51100000000E-03 0. -1.
         11    1    4    4    0    0  0.53075740846E-02  0.59586131568E-02  0.41981984161E-03  0.80070458420E-02  0.51100000000E-03 0.  1.
</event>
<event>
 8    1  0.2001339E+004  0.1043930E+01  0.7957747E-01            NaN
         13   -1    0    0    0    0  0.00000000000E+00  0.00000000000E+00  0.74505805969E-08  0.10566000000E+00  0.10566000000E+00 0.  1.
     999900   -1    0    0    0    0 -0.00000000000E+00 -0.00000000000E+00 -0.74505805969E-08  0.93827000000E+00  0.93827000000E+00 0. -1.
     999902    2    1    2    0    0  0.59391627530E-02 -0.84270186147E-02 -0.57074501083E-02  0.10321459734E+01  0.10320787020E+01 0.  0.
     999903    2    3    3    0    0  0.10611309154E+00  0.82804203418E-01 -0.55577682959E-02  0.14177640162E+00  0.44194286623E-01 0.  0.
         14    1    1    2    0    0 -0.59391627530E-02  0.84270186147E-02  0.57074501083E-02  0.11784026633E-01  0.00000000000E+00 0. -1.
     999901    1    3    3    0    0 -0.10017392878E+00 -0.91231222032E-01 -0.14968181237E-03  0.89036957174E+00  0.88000000000E+00 0.  1.
        -11    1    4    4    0    0  0.58988781521E-01  0.65288894230E-01 -0.18378546923E-01  0.89890756828E-01  0.51100000000E-03 0.  1.
         11    1    4    4    0    0  0.47124310015E-01  0.17515309187E-01  0.12820778627E-01  0.51885644796E-01  0.51100000000E-03 0. -1.
</event>
<event>
 8    1  0.2001339E+004  0.1043930E+01  0.7957747E-01            NaN
         13   -1    0    0    0    0  0.00000000000E+00  0.00000000000E+00  0.74505805969E-08  0.10566000000E+00  0.10566000000E+00 0.  1.
     999900   -1    0    0    0    0 -0.00000000000E+00 -0.00000000000E+00 -0.74505805969E-08  0.93827000000E+00  0.93827000000E+00 0. -1.
     999902    2    1    2    0    0  0.48305584281E-02 -0.11425628835E-01 -0.74871022950E-02  0.10294408320E+01  0.10293388609E+01 0.  0.
     999903    2    3    3    0    0  0.10730518989E+00 -0.43364847378E-01 -0.66607383507E-01  0.14094976764E+00  0.45115182516E-01 0.  0.
         14    1    1    2    0    0 -0.48305584281E-02  0.11425628835E-01  0.74871022950E-02  0.14489168015E-01  0.00000000000E+00 0.  1.
     999901    1    3    3    0    0 -0.10247463146E+00  0.31939218543E-01  0.59120281212E-01  0.88849106435E+00  0.88000000000E+00 0.  1.
        -11    1    4    4    0    0  0.52958983756E-01 -0.25713064858E-01 -0.58918582351E-01  0.83291512966E-01  0.51100000000E-03 0.  1.
         11    1    4    4    0    0  0.54346206137E-01 -0.17651782519E-01 -0.76888011561E-02  0.57658254672E-01  0.51100000000E-03 0. -1.
</event>
<event>
 7    1  0.2001339E+004  0.1043930E+01  0.7957747E-01            NaN
         13   -1    0    0    0    0  0.00000000000E+00  0.00000000000E+00  0.74505805969E-08  0.10566000000E+00  0.10566000000E+00 0. -1.
     999900   -1    0    0    0    0 -0.00000000000E+00 -0.00000000000E+00 -0.74505805969E-08  0.93827000000E+00  0.93827000000E+00 0. -1.
     999903    2    1    2    0    0 -0.30541259887E-01 -0.40876839202E-01  0.84796086821E-02  0.68402727843E-01  0.44758740759E-01 0.  0.
         14    1    1    2    0    0 -0.76965855295E-02  0.33864930467E-01  0.82959948931E-01  0.89935666290E-01  0.00000000000E+00 0. -1.
     999901    1    1    2    0    0  0.38237845417E-01  0.70119087350E-02 -0.91439557613E-01  0.88559160587E+00  0.88000000000E+00 0. -1.
        -11    1    3    3    0    0 -0.22675662213E-01 -0.47915779498E-01  0.16066027671E-01  0.55393916163E-01  0.51100000000E-03 0. -1.
         11    1    3    3    0    0 -0.78655976741E-02  0.70389402964E-02 -0.75864189885E-02  0.13008811680E-01  0.51100000000E-03 0.  1.
</event>
<event>
 8    1  0.2001339E+004  0.1043930E+01  0.7957747E-01            NaN
         13   -1    0    0    0    0  0.00000000000E+00  0.00000000000E+00  0.74505805969E-08  0.10566000000E+00  0.10566000000E+00 0. -1.
     999900   -1    0    0    0    0 -0.00000000000E+00 -0.00000000000E+00 -0.74505805969E-08  0.93827000000E+00  0.93827000000E+00 0. -1.
     999902    2    1    2    0    0  0.70369903658E-02  0.10682444501E-01 -0.51519866306E-02  0.10301395388E+01  0.10300472283E+01 0.  0.
     999903    2    3    3    0    0 -0.19057140825E-01  0.94448110943E-01 -0.93395884073E-01  0.14138503052E+00  0.44534429544E-01 0.  0.
         14    1    1    2    0    0 -0.70369903658E-02 -0.10682444501E-01  0.51519866306E-02  0.13790461202E-01  0.00000000000E+00 0. -1.
     999901    1    3    3    0    0  0.26094131191E-01 -0.83765666443E-01  0.88243897443E-01  0.88875450828E+00  0.88000000000E+00 0.  1.
        -11    1    4    4    0    0  0.86043768337E-02  0.46129872178E-01 -0.24935728539E-01  0.53141811097E-01  0.51100000000E-03 0. -1.
         11    1    4    4    0    0 -0.27661517659E-01  0.48318238765E-01 -0.68460155534E-01  0.88243219418E-01  0.51100000000E-03 0.  1.
</event>
<event>
 8    1  0.2001339E+004  0.1043930E+01  0.7957747E-01            NaN
         13   -1    0    0    0    0  0.00000000000E+00  0.00000000000E+00  0.74505805969E-08  0.10566000000E+00  0.10566000000E+00 0.  1.
     999900   -1    0    0    0    0 -0.00000000000E+00 -0.00000000000E+00 -0.74505805969E-08  0.93827000000E+00  0.93827000000E+00 0.  1.
     999902    2    1    2    0    0 -0.33922763813E-02 -0.52746527348E-02 -0.12350144211E-01  0.10300788065E+01  0.10299856756E+01 0.  0.
     999903    2    3    3    0    0 -0.58217890648E-01  0.57344896847E-01  0.10265200944E+00  0.13870203353E+00  0.44978429033E-01 0.  0.
         14    1    1    2    0    0  0.33922763813E-02  0.52746527348E-02  0.12350144211E-01  0.13851193543E-01  0.00000000000E+00 0.  1.
     999901    1    3    3    0    0  0.54825614266E-01 -0.62619549582E-01 -0.11500215365E+00  0.89137677293E+00  0.88000000000E+00 0.  1.
        -11    1    4    4    0    0 -0.60436021794E-01  0.39606958770E-01  0.94726622925E-01  0.11914116889E+00  0.51100000000E-03 0.  1.
         11    1    4    4    0    0  0.22181311467E-02  0.17737938078E-01  0.79253865114E-02  0.19560864638E-01  0.51100000000E-03 0. -1.
</event>
<event>
 8    1  0.2001339E+004  0.1043930E+01  0.7957747E-01            NaN
         13   -1    0    0    0    0  0.00000000000E+00  0.00000000000E+00  0.74505805969E-08  0.10566000000E+00  0.10566000000E+00 0.  1.
     999900   -1    0    0    0    0 -0.00000000000E+00 -0.00000000000E+00 -0.74505805969E-08  0.93827000000E+00  0.93827000000E+00 0. -1.
     999902    2    1    2    0    0 -0.24651997220E-03 -0.50600984460E-02  0.75191170531E-02  0.10348634411E+01  0.10348237238E+01 0.  0.
     999903    2    3    3    0    0  0.10848983729E+00 -0.68725959341E-01  0.49273589451E-01  0.14490817642E+00  0.45576207519E-01 0.  0.
         14    1    1    2    0    0  0.24651997220E-03  0.50600984460E-02 -0.75191170531E-02  0.90665588643E-02  0.00000000000E+00 0. -1.
     999901    1    3    3    0    0 -0.10873635727E+00  0.63665860895E-01 -0.41754472398E-01  0.88995526472E+00  0.88000000000E+00 0.  1.
        -11    1    4    4    0    0  0.54259827740E-01 -0.41013255583E-01  0.24081897231E-02  0.68060829694E-01  0.51100000000E-03 0.  1.
         11    1    4    4    0    0  0.54230009554E-01 -0.27712703757E-01  0.46865399728E-01  0.76847346723E-01  0.51100000000E-03 0. -1.
</event>
<event>
 8    1  0.2001339E+004  0.1043930E+01  0.7957747E-01            NaN
         13   -1    0    0    0    0  0.00000000000E+00  0.00000000000E+00  0.74505805969E-08  0.10566000000E+00  0.10566000000E+00 0.  1.
     999900   -1    0    0    0    0 -0.00000000000E+00 -0.00000000000E+00 -0.74505805969E-08  0.93827000000E+00  0.93827000000E+00 0. -1.
     999902    2    1    2    0    0 -0.28994055842E-02 -0.92903131789E-02 -0.10057341699E-01  0.10299347653E+01  0.10298396740E+01 0.  0.
     999903    2    3    3    0    0 -0.10413750481E+00 -0.70767176235E-01 -0.45445156963E-01  0.14129487487E+00  0.45236779657E-01 0.  0.
         14    1    1    2    0    0  0.28994055842E-02  0.92903131789E-02  0.10057341699E-01  0.13995234680E-01  0.00000000000E+00 0.  1.
     999901    1    3    3    0    0  0.10123809922E+00  0.61476863056E-01  0.35387815264E-01  0.88863989045E+00  0.88000000000E+00 0. -1.
        -11    1    4    4    0    0 -0.10295250212E+00 -0.59369964594E-01 -0.30948088204E-01  0.12280902114E+00  0.51100000000E-03 0.  1.
         11    1    4    4    0    0 -0.11850026861E-02 -0.11397211641E-01 -0.14497068759E-01  0.18485853731E-01  0.51100000000E-03 0. -1.
</event>
<event>
 8    1  0.2001339E+004  0.1043930E+01  0.7957747E-01            NaN
         13   -1    0    0    0    0  0.00000000000E+00  0.00000000000E+00  0.74505805969E-08  0.10566000000E+00  0.10566000000E+00 0. -1.
     999900   -1    0    0    0    0 -0.00000000000E+00 -0.00000000000E+00 -0.74505805969E-08  0.93827000000E+00  0.93827000000E+00 0.  1.
     999902    2    1    2    0    0 -0.13389239432E-01  0.55440334935E-03 -0.17061059012E-02  0.10304211180E+01  0.10303325631E+01 0.  0.
     999903    2    3    3    0    0  0.10238002196E+00 -0.19758096029E-01 -0.80201213695E-01  0.13914304609E+00  0.45348664165E-01 0.  0.
         14    1    1    2    0    0  0.13389239432E-01 -0.55440334935E-03  0.17061059012E-02  0.13508882003E-01  0.00000000000E+00 0.  1.
     999901    1    3    3    0    0 -0.11576926139E+00  0.20312499378E-01  0.78495107793E-01  0.89127807191E+00  0.88000000000E+00 0. -1.
        -11    1    4    4    0    0  0.24503780606E-01 -0.21958226505E-02 -0.46252585059E-01  0.52391026395E-01  0.51100000000E-03 0.  1.
         11    1    4    4    0    0  0.77876241356E-01 -0.17562273378E-01 -0.33948628636E-01  0.86752019695E-01  0.51100000000E-03 0. -1.
</event>
<event>
 8    1  0.2001339E+004  0.1043930E+01  0.7957747E-01            NaN
         13   -1    0    0    0    0  0.00000000000E+00  0.00000000000E+00  0.74505805969E-08  0.10566000000E+00  0.10566000000E+00 0. -1.
     999900   -1    0    0    0    0 -0.00000000000E+00 -0.00000000000E+00 -0.74505805969E-08  0.93827000000E+00  0.93827000000E+00 0. -1.
     999902    2    1    2    0    0 -0.15860775058E-01  0.31400322609E-02 -0.64147653937E-02  0.10265353686E+01  0.10263879820E+01 0.  0.
     999903    2    3    3    0    0  0.79680152886E-01  0.46582559931E-01 -0.89173646307E-01  0.13644303936E+00  0.46323883045E-01 0.  0.
         14    1    1    2    0    0  0.15860775058E-01 -0.31400322609E-02  0.64147653937E-02  0.17394631445E-01  0.00000000000E+00 0. -1.
     999901    1    3    3    0    0 -0.95540927944E-01 -0.43442527670E-01  0.82758880914E-01  0.89009232920E+00  0.88000000000E+00 0. -1.
        -11    1    4    4    0    0  0.39366470152E-01  0.25538218500E-01 -0.75602322976E-01  0.88982537258E-01  0.51100000000E-03 0. -1.
         11    1    4    4    0    0  0.40313682734E-01  0.21044341431E-01 -0.13571323331E-01  0.47460502102E-01  0.51100000000E-03 0.  1.
</event>
<event>
 8    1  0.2001339E+004  0.1043930E+01  0.7957747E-01            NaN
         13   -1    0    0    0    0  0.00000000000E+00  0.00000000000E+00  0.74505805969E-08  0.10566000000E+00  0.10566000000E+00 0.  1.
     999900   -1    0    0    0    0 -0.00000000000E+00 -0.00000000000E+00 -0.74505805969E-08  0.93827000000E+00  0.93827000000E+00 0.  1.
     999902    2    1    2    0    0  0.17598419593E-02  0.22253162770E-02  0.11015901274E-01  0.10325546250E+01  0.10324919634E+01 0.  0.
     999903    2    3    3    0    0  0.11139503649E+00 -0.90627912875E-02 -0.74398162006E-01  0.14157602845E+00  0.44918782043E-01 0.  0.
         14    1    1    2    0    0 -0.17598419593E-02 -0.22253162770E-02 -0.11015901274E-01  0.11375375033E-01  0.00000000000E+00 0. -1.
     999901    1    3    3    0    0 -0.10963519453E+00  0.11288107564E-01  0.85414063280E-01  0.89097859652E+00  0.88000000000E+00 0. -1.
        -11    1    4    4    0    0  0.40553191514E-01  0.17694186636E-01 -0.33581069241E-01  0.55548131517E-01  0.51100000000E-03 0.  1.
         11    1    4    4    0    0  0.70841844977E-01 -0.26756977924E-01 -0.40817092765E-01  0.86027896929E-01  0.51100000000E-03 0. -1.
</event>
<event>
 8    1  0.2001339E+004  0.1043930E+01  0.7957747E-01            NaN
         13   -1    0    0    0    0  0.00000000000E+00  0.00000000000E+00  0.74505805969E-08  0.10566000000E+00  0.10566000000E+00 0.  1.
     999900   -1    0    0    0    0 -0.00000000000E+00 -0.00000000000E+00 -0.74505805969E-08  0.93827000000E+00  0.93827000000E+00 0. -1.
     999902    2    1    2    0    0 -0.19543404605E-02  0.33788428189E-02 -0.10547022958E-01  0.10326838576E+01  0.10326226194E+01 0.  0.
     999903    2    3    3    0    0  0.12254316850E+00  0.47695863302E-01  0.29053649471E-01  0.14193594641E+00  0.44832742652E-01 0.  0.
         14    1    1    2    0    0  0.19543404605E-02 -0.33788428189E-02  0.10547022958E-01  0.11246142392E-01  0.00000000000E+00 0.  1.
     999901    1    3    3    0    0 -0.12449750896E+00 -0.44317020483E-01 -0.39600672428E-01  0.89074791120E+00  0.88000000000E+00 0. -1.
        -11    1    4    4    0    0  0.32628689223E-01  0.55504234524E-02  0.26827797282E-01  0.42607867688E-01  0.51100000000E-03 0. -1.
         11    1    4    4    0    0  0.89914479279E-01  0.42145439849E-01  0.22258521889E-02  0.99328078724E-01  0.51100000000E-03 0.  1.
</event>
<event>
 8    1  0.2001339E+004  0.1043930E+01  0.7957747E-01            NaN
         13   -1    0    0    0    0  0.00000000000E+00  0.00000000000E+00  0.74505805969E-08  0.10566000000E+00  0.10566000000E+00 0. -1.
     999900   -1    0    0    0    0 -0.00000000000E+00 -0.00000000000E+00 -0.74505805969E-08  0.93827000000E+00  0.93827000000E+00 0.  1.
     999902    2    1    2    0    0 -0.66790455906E-02 -0.10215505580E-01  0.73017702133E-02  0.10297074105E+01  0.10296091827E+01 0.  0.
     999903    2    3    3    0    0 -0.30213283894E-01 -0.58304952136E-01 -0.11489137924E+00  0.13965256891E+00  0.44615031225E-01 0.  0.
         14    1    1    2    0    0  0.66790455906E-02  0.10215505580E-01 -0.73017702133E-02  0.14222589515E-01  0.00000000000E+00 0.  1.
     999901    1    3    3    0    0  0.23534238304E-01  0.48089446555E-01  0.12219314945E+00  0.89005484158E+00  0.88000000000E+00 0.  1.
        -11    1    4    4    0    0 -0.16311904038E-01 -0.10235431598E-01 -0.69399061089E-01  0.72023142631E-01  0.51100000000E-03 0. -1.
         11    1    4    4    0    0 -0.13901379857E-01 -0.48069520538E-01 -0.45492318152E-01  0.67629426276E-01  0.51100000000E-03 0.  1.
</event>
<event>
 8    1  0.2001339E+004  0.1043930E+01  0.7957747E-01            NaN
         13   -1    0    0    0    0  0.00000000000E+00  0.00000000000E+00  0.74505805969E-08  0.10566000000E+00  0.10566000000E+00 0.  1.
     999900   -1    0    0    0    0 -0.00000000000E+00 -0.00000000000E+00 -0.74505805969E-08  0.93827000000E+00  0.93827000000E+00 0. -1.
     999902    2    1    2    0    0  0.56847173280E-02 -0.41879104134E-02 -0.11760074767E-01  0.10302130775E+01  0.10301217555E+01 0.  0.
     999903    2    3    3    0    0  0.13366189648E+00  0.17941449367E-01 -0.74000683746E-02  0.14067000568E+00  0.39317824331E-01 0.  0.
         14    1    1    2    0    0 -0.56847173280E-02  0.41879104134E-02  0.11760074767E-01  0.13716922514E-01  0.00000000000E+00 0.  1.
     999901    1    3    3    0    0 -0.12797717915E+00 -0.22129359781E-01 -0.43600063928E-02  0.88954307181E+00  0.88000000000E+00 0.  1.
        -11    1    4    4    0    0  0.45743790918E-01 -0.12512302990E-01 -0.20113417753E-02  0.47469556038E-01  0.51100000000E-03 0. -1.
         11    1    4    4    0    0  0.87918105558E-01  0.30453752357E-01 -0.53887265993E-02  0.93200449639E-01  0.51100000000E-03 0.  1.
</event>
<event>
 8    1  0.2001339E+004  0.1043930E+01  0.7957747E-01            NaN
         13   -1    0    0    0    0  0.00000000000E+00  0.00000000000E+00  0.74505805969E-08  0.10566000000E+00  0.10566000000E+00 0. -1.
     999900   -1    0    0    0    0 -0.00000000000E+00 -0.00000000000E+00 -0.74505805969E-08  0.93827000000E+00  0.93827000000E+00 0. -1.
     999902    2    1    2    0    0  0.27520231309E-02  0.12550143477E-01  0.51423616643E-02  0.10300907942E+01  0.10299978256E+01 0.  0.
     999903    2    3    3    0    0 -0.11762300554E-01 -0.10665415856E+00  0.76126468820E-01  0.13910309809E+00  0.45177111373E-01 0.  0.
         14    1    1    2    0    0 -0.27520231309E-02 -0.12550143477E-01 -0.51423616643E-02  0.13839205761E-01  0.00000000000E+00 0.  1.
     999901    1    3    3    0    0  0.14514323685E-01  0.11920430204E+00 -0.70984107155E-01  0.89098769615E+00  0.88000000000E+00 0. -1.
        -11    1    4    4    0    0  0.14368297170E-01 -0.67890982949E-01  0.50143348495E-01  0.85616879461E-01  0.51100000000E-03 0. -1.
         11    1    4    4    0    0 -0.26130597724E-01 -0.38763175609E-01  0.25983120325E-01  0.53486218632E-01  0.51100000000E-03 0.  1.
</event>
<event>
 8    1  0.2001339E+004  0.1043930E+01  0.7957747E-01            NaN
         13   -1    0    0    0    0  0.00000000000E+00  0.00000000000E+00  0.74505805969E-08  0.10566000000E+00  0.10566000000E+00 0. -1.
     999900   -1    0    0    0    0 -0.00000000000E+00 -0.00000000000E+00 -0.74505805969E-08  0.93827000000E+00  0.93827000000E+00 0. -1.
     999902    2    1    2    0    0  0.72187847659E-02 -0.64933667931E-02  0.11817969004E-01  0.10286349336E+01  0.10285212139E+01 0.  0.
     999903    2    3    3    0    0  0.88592950078E-01 -0.61426283339E-01  0.77579737746E-01  0.14073629615E+00  0.46542349067E-01 0.  0.
         14    1    1    2    0    0 -0.72187847659E-02  0.64933667931E-02 -0.11817969004E-01  0.15295066433E-01  0.00000000000E+00 0. -1.
     999901    1    3    3    0    0 -0.81374165312E-01  0.54932916545E-01 -0.65761768742E-01  0.88789863742E+00  0.88000000000E+00 0. -1.
        -11    1    4    4    0    0  0.15437849111E-01 -0.35058594354E-01  0.35922302209E-01  0.52517665031E-01  0.51100000000E-03 0. -1.
         11    1    4    4    0    0  0.73155100967E-01 -0.26367688985E-01  0.41657435537E-01  0.88218631119E-01  0.51100000000E-03 0.  1.
</event>
<event>
 8    1  0.2001339E+004  0.1043930E+01  0.7957747E-01            NaN
         13   -1    0    0    0    0  0.00000000000E+00  0.00000000000E+00  0.74505805969E-08  0.10566000000E+00  0.10566000000E+00 0. -1.
     999900   -1    0    0    0    0 -0.00000000000E+00 -0.00000000000E+00 -0.74505805969E-08  0.93827000000E+00  0.93827000000E+00 0. -1.
     999902    2    1    2    0    0  0.26281514768E-02  0.11409830150E-01 -0.73353179251E-02  0.10301134051E+01  0.10300207421E+01 0.  0.
     999903    2    3    3    0    0 -0.62642149744E-01 -0.75199882281E-02  0.11538091667E+00  0.13900296055E+00  0.45038627429E-01 0.  0.
         14    1    1    2    0    0 -0.26281514768E-02 -0.11409830150E-01  0.73353179251E-02  0.13816594852E-01  0.00000000000E+00 0. -1.
     999901    1    3    3    0    0  0.65270301220E-01  0.18929818379E-01 -0.12271623460E+00  0.89111044460E+00  0.88000000000E+00 0. -1.
        -11    1    4    4    0    0 -0.11368508002E-02 -0.10149085780E-01  0.41955170601E-01  0.43183258713E-01  0.51100000000E-03 0.  1.
         11    1    4    4    0    0 -0.61505298944E-01  0.26290975521E-02  0.73425746072E-01  0.95819701833E-01  0.51100000000E-03 0. -1.
</event>
<event>
 8    1  0.2001339E+004  0.1043930E+01  0.7957747E-01            NaN
         13   -1    0    0    0    0  0.00000000000E+00  0.00000000000E+00  0.74505805969E-08  0.10566000000E+00  0.10566000000E+00 0. -1.
     999900   -1    0    0    0    0 -0.00000000000E+00 -0.00000000000E+00 -0.74505805969E-08  0.93827000000E+00  0.93827000000E+00 0. -1.
     999902    2    1    2    0    0  0.10558665886E-01  0.35574119457E-02  0.92522171535E-02  0.10294474544E+01  0.10293455772E+01 0.  0.
     999903    2    3    3    0    0 -0.21041562359E-01 -0.71589672637E-01  0.10961792203E+00  0.13999878614E+00  0.44897023441E-01 0.  0.
         14    1    1    2    0    0 -0.10558665886E-01 -0.35574119457E-02 -0.92522171535E-02  0.14482545608E-01  0.00000000000E+00 0.  1.
     999901    1    3    3    0    0  0.31600228245E-01  0.75147084583E-01 -0.10036570488E+00  0.88944866826E+00  0.88000000000E+00 0.  1.
        -11    1    4    4    0    0  0.17568526767E-03 -0.30107543308E-01  0.78207504355E-01  0.83804354826E-01  0.51100000000E-03 0.  1.
         11    1    4    4    0    0 -0.21217247627E-01 -0.41482129329E-01  0.31410417678E-01  0.56194431310E-01  0.51100000000E-03 0. -1.
</event>
<event>
 8    1  0.2001339E+004  0.1043930E+01  0.7957747E-01            NaN
         13   -1    0    0    0    0  0.00000000000E+00  0.00000000000E+00  0.74505805969E-08  0.10566000000E+00  0.10566000000E+00 0.  1.
     999900   -1    0    0    0    0 -0.00000000000E+00 -0.00000000000E+00 -0.74505805969E-08  0.93827000000E+00  0.93827000000E+00 0.  1.
     999902    2    1    2    0    0  0.11381079913E-01 -0.44597610847E-02 -0.58066280319E-02  0.10303972480E+01  0.10303083777E+01 0.  0.
     999903    2    3    3    0    0 -0.12106939427E+00  0.33215092637E-01  0.37850253824E-01  0.13861899858E+00  0.44961588558E-01 0.  0.
         14    1    1    2    0    0 -0.11381079913E-01  0.44597610847E-02  0.58066280319E-02  0.13532752049E-01  0.00000000000E+00 0. -1.
     999901    1    3    3    0    0  0.13245047418E+00 -0.37674853721E-01 -0.43656881856E-01  0.89177824937E+00  0.88000000000E+00 0.  1.
        -11    1    4    4    0    0 -0.75949689756E-01  0.12568646638E-01  0.13107934676E-02  0.76995490471E-01  0.51100000000E-03 0.  1.
         11    1    4    4    0    0 -0.45119704514E-01  0.20646445999E-01  0.36539460356E-01  0.61623508111E-01  0.51100000000E-03 0. -1.
</event>
<event>
 8    1  0.2001339E+004  0.1043930E+01  0.7957747E-01            NaN
         13   -1    0    0    0    0  0.00000000000E+00  0.00000000000E+00  0.74505805969E-08  0.10566000000E+00  0.10566000000E+00 0.  1.
     999900   -1    0    0    0    0 -0.00000000000E+00 -0.00000000000E+00 -0.74505805969E-08  0.93827000000E+00  0.93827000000E+00 0. -1.
     999902    2    1    2    0    0 -0.10646312149E-01 -0.87831654668E-02 -0.23060269308E-03  0.10301263362E+01  0.10300338476E+01 0.  0.
     999903    2    3    3    0    0 -0.39931054544E-01  0.11057494776E+00  0.58970603740E-01  0.13961595543E+00  0.46837748841E-01 0.  0.
         14    1    1    2    0    0  0.10646312149E-01  0.87831654668E-02  0.23060269308E-03  0.13803663847E-01  0.00000000000E+00 0. -1.
     999901    1    3    3    0    0  0.29284742395E-01 -0.11935811323E+00 -0.59201206434E-01  0.89051038072E+00  0.88000000000E+00 0. -1.
        -11    1    4    4    0    0  0.75401961215E-02  0.34523382322E-01  0.71264485227E-02  0.36052265866E-01  0.51100000000E-03 0.  1.
         11    1    4    4    0    0 -0.47471250665E-01  0.76051565437E-01  0.51844155218E-01  0.10356368957E+00  0.51100000000E-03 0. -1.
</event>
<event>
 8    1  0.2001339E+004  0.1043930E+01  0.7957747E-01            NaN
         13   -1    0    0    0    0  0.00000000000E+00  0.00000000000E+00  0.74505805969E-08  0.10566000000E+00  0.10566000000E+00 0. -1.
     999900   -1    0    0    0    0 -0.00000000000E+00 -0.00000000000E+00 -0.74505805969E-08  0.93827000000E+00  0.93827000000E+00 0.  1.
     999902    2    1    2    0    0 -0.99664955544E-03 -0.59066065279E-03  0.14301766454E-01  0.10295813863E+01  0.10294813978E+01 0.  0.
     999903    2    3    3    0    0 -0.89874589684E-01 -0.94542263341E-01 -0.18853730404E-01  0.13951089539E+00  0.45739975435E-01 0.  0.
         14    1    1    2    0    0  0.99664955544E-03  0.59066065279E-03 -0.14301766454E-01  0.14348613663E-01  0.00000000000E+00 0.  1.
     999901    1    3    3    0    0  0.88877940129E-01  0.93951602688E-01  0.33155496858E-01  0.89007049095E+00  0.88000000000E+00 0. -1.
        -11    1    4    4    0    0 -0.34435501917E-01 -0.10414422005E-01 -0.14105413060E-01  0.38645669570E-01  0.51100000000E-03 0.  1.
         11    1    4    4    0    0 -0.55439087768E-01 -0.84127841335E-01 -0.47483173444E-02  0.10086522582E+00  0.51100000000E-03 0. -1.
</event>
<event>
 8    1  0.2001339E+004  0.1043930E+01  0.7957747E-01            NaN
         13   -1    0    0    0    0  0.00000000000E+00  0.00000000000E+00  0.74505805969E-08  0.10566000000E+00  0.10566000000E+00 0. -1.
     999900   -1    0    0    0    0 -0.00000000000E+00 -0.00000000000E+00 -0.74505805969E-08  0.93827000000E+00  0.93827000000E+00 0.  1.
     999902    2    1    2    0    0  0.83719031654E-02  0.11212374925E-01  0.13710913653E-02  0.10298699145E+01  0.10297739338E+01 0.  0.
     999903    2    3    3    0    0  0.23610196446E-01 -0.80894103740E-01  0.10102107462E+00  0.13933865270E+00  0.45920640482E-01 0.  0.
         14    1    1    2    0    0 -0.83719031654E-02 -0.11212374925E-01 -0.13710913653E-02  0.14060085548E-01  0.00000000000E+00 0.  1.
     999901    1    3    3    0    0 -0.15238293280E-01  0.92106478666E-01 -0.99649983257E-01  0.89053126175E+00  0.88000000000E+00 0. -1.
        -11    1    4    4    0    0  0.21006799894E-01 -0.86297963233E-02  0.32988314979E-01  0.40053078190E-01  0.51100000000E-03 0. -1.
         11    1    4    4    0    0  0.26033965517E-02 -0.72264307417E-01  0.68032759644E-01  0.99285574510E-01  0.51100000000E-03 0.  1.
</event>
<event>
 8    1  0.2001339E+004  0.1043930E+01  0.7957747E-01            NaN
         13   -1    0    0    0    0  0.00000000000E+00  0.00000000000E+00  0.74505805969E-08  0.10566000000E+00  0.10566000000E+00 0. -1.
     999900   -1    0    0    0    0 -0.00000000000E+00 -0.00000000000E+00 -0.74505805969E-08  0.93827000000E+00  0.93827000000E+00 0. -1.
     999902    2    1    2    0    0  0.59477682067E-02  0.55752611787E-02  0.11683583024E-01  0.10296834005E+01  0.10295848385E+01 0.  0.
     999903    2    3    3    0    0  0.76083230329E-01 -0.10462645373E+00  0.27785682869E-01  0.13989540409E+00  0.45423861080E-01 0.  0.
         14    1    1    2    0    0 -0.59477682067E-02 -0.55752611787E-02 -0.11683583024E-01  0.14246599459E-01  0.00000000000E+00 0.  1.
     999901    1    3    3    0    0 -0.70135462123E-01  0.11020171490E+00 -0.16102099845E-01  0.88978799645E+00  0.88000000000E+00 0. -1.
        -11    1    4    4    0    0  0.66679347803E-01 -0.66847738679E-01  0.34226412512E-01  0.10043138964E+00  0.51100000000E-03 0.  1.
         11    1    4    4    0    0  0.94038825262E-02 -0.37778715048E-01 -0.64407296422E-02  0.39464014450E-01  0.51100000000E-03 0. -1.
</event>
<event>
 8    1  0.2001339E+004  0.1043930E+01  0.7957747E-01            NaN
         13   -1    0    0    0    0  0.00000000000E+00  0.00000000000E+00  0.74505805969E-08  0.10566000000E+00  0.10566000000E+00 0.  1.
     999900   -1    0    0    0    0 -0.00000000000E+00 -0.00000000000E+00 -0.74505805969E-08  0.93827000000E+00  0.93827000000E+00 0.  1.
     999902    2    1    2    0    0 -0.15025644250E-01 -0.11343563052E-02 -0.33164757919E-02  0.10285009443E+01  0.10283852083E+01 0.  0.
     999903    2    3    3    0    0  0.48202914787E-01  0.64385262011E-01  0.10196826535E+00  0.13756012256E+00  0.45346193018E-01 0.  0.
         14    1    1    2    0    0  0.15025644250E-01  0.11343563052E-02  0.33164757919E-02  0.15429055740E-01  0.00000000000E+00 0.  1.
     999901    1    3    3    0    0 -0.63228559038E-01 -0.65519618317E-01 -0.10528474114E+00  0.89094082170E+00  0.88000000000E+00 0.  1.
        -11    1    4    4    0    0  0.33794969312E-01  0.21314963339E-01  0.74338056533E-01  0.84396892022E-01  0.51100000000E-03 0.  1.
         11    1    4    4    0    0  0.14407945476E-01  0.43070298673E-01  0.27630208814E-01  0.53163230533E-01  0.51100000000E-03 0. -1.
</event>
<event>
 8    1  0.2001339E+004  0.1043930E+01  0.7957747E-01            NaN
         13   -1    0    0    0    0  0.00000000000E+00  0.00000000000E+00  0.74505805969E-08  0.10566000000E+00  0.10566000000E+00 0.  1.
     999900   -1    0    0    0    0 -0.00000000000E+00 -0.00000000000E+00 -0.74505805969E-08  0.93827000000E+00  0.93827000000E+00 0.  1.
     999902    2    1    2    0    0  0.19296586083E-02  0.13199502427E-01 -0.16342412093E-02  0.10304904617E+01  0.10304028195E+01 0.  0.
     999903    2    3    3    0    0  0.22146859962E-01  0.78227412690E-01 -0.10680458710E+00  0.14161579895E+00  0.45142033451E-01 0.  0.
         14    1    1    2    0    0 -0.19296586083E-02 -0.13199502427E-01  0.16342412093E-02  0.13439538348E-01  0.00000000000E+00 0.  1.
     999901    1    3    3    0    0 -0.20217201354E-01 -0.65027910263E-01  0.10517034589E+00  0.88887466270E+00  0.88000000000E+00 0. -1.
        -11    1    4    4    0    0 -0.12991508194E-01  0.33071149626E-01 -0.45917505335E-01  0.58061679617E-01  0.51100000000E-03 0. -1.
         11    1    4    4    0    0  0.35138368156E-01  0.45156263064E-01 -0.60887081763E-01  0.83554119331E-01  0.51100000000E-03 0.  1.
</event>
<event>
 8    1  0.2001339E+004  0.1043930E+01  0.7957747E-01            NaN
         13   -1    0    0    0    0  0.00000000000E+00  0.00000000000E+00  0.74505805969E-08  0.10566000000E+00  0.10566000000E+00 0.  1.
     999900   -1    0    0    0    0 -0.00000000000E+00 -0.00000000000E+00 -0.74505805969E-08  0.93827000000E+00  0.93827000000E+00 0.  1.
     999902    2    1    2    0    0 -0.38881372395E-03  0.98249551485E-02  0.70312448356E-02  0.10318420174E+01  0.10317712099E+01 0.  0.
     999903    2    3    3    0    0 -0.93002805199E-01 -0.87245023620E-01 -0.47828660183E-01  0.13998466255E+00  0.32355974607E-01 0.  0.
         14    1    1    2    0    0  0.38881372395E-03 -0.98249551485E-02 -0.70312448356E-02  0.12087982616E-01  0.00000000000E+00 0.  1.
     999901    1    3    3    0    0  0.92613991475E-01  0.97069978768E-01  0.54859905018E-01  0.89185735484E+00  0.88000000000E+00 0. -1.
        -11    1    4    4    0    0 -0.62392382332E-01 -0.45339050867E-01 -0.14992552601E-01  0.78571474856E-01  0.51100000000E-03 0. -1.
         11    1    4    4    0    0 -0.30610422867E-01 -0.41905972753E-01 -0.32836107582E-01  0.61413187693E-01  0.51100000000E-03 0.  1.
</event>
<event>
 8    1  0.2001339E+004  0.1043930E+01  0.7957747E-01            NaN
         13   -1    0    0    0    0  0.00000000000E+00  0.00000000000E+00  0.74505805969E-08  0.10566000000E+00  0.10566000000E+00 0. -1.
     999900   -1    0    0    0    0 -0.00000000000E+00 -0.00000000000E+00 -0.74505805969E-08  0.93827000000E+00  0.93827000000E+00 0. -1.
     999902    2    1    2    0    0 -0.11474417331E-01 -0.47521323254E-02  0.58758164879E-02  0.10301906320E+01  0.10300990088E+01 0.  0.
     999903    2    3    3    0    0 -0.11311344696E-01 -0.41800412331E-01  0.12674336332E+00  0.14115656877E+00  0.44565410018E-01 0.  0.
         14    1    1    2    0    0  0.11474417331E-01  0.47521323254E-02 -0.58758164879E-02  0.13739368039E-01  0.00000000000E+00 0. -1.
     999901    1    3    3    0    0 -0.16307263529E-03  0.37048280006E-01 -0.12086754683E+00  0.88903406320E+00  0.88000000000E+00 0. -1.
        -11    1    4    4    0    0 -0.75228610653E-02  0.45010492674E-02  0.35107675058E-02  0.94572455078E-02  0.51100000000E-03 0. -1.
         11    1    4    4    0    0 -0.37884836304E-02 -0.46301461598E-01  0.12323259581E+00  0.13169932326E+00  0.51100000000E-03 0.  1.
</event>
<event>
 7    1  0.2001339E+004  0.1043930E+01  0.7957747E-01            NaN
         13   -1    0    0    0    0  0.00000000000E+00  0.00000000000E+00  0.74505805969E-08  0.10566000000E+00  0.10566000000E+00 0.  1.
     999900   -1    0    0    0    0 -0.00000000000E+00 -0.00000000000E+00 -0.74505805969E-08  0.93827000000E+00  0.93827000000E+00 0.  1.
     999902    2    1    2    0    0  0.25583758544E-02  0.12072279572E-01  0.51545975412E-02  0.10305563282E+01  0.10304695486E+01 0.  0.
         14    1    1    2    0    0 -0.25583758544E-02 -0.12072279572E-01 -0.51545975412E-02  0.13373671780E-01  0.00000000000E+00 0.  1.
     999901    1    3    3    0    0  0.80478854159E-01  0.97118807205E-01  0.32757007656E-01  0.88959649855E+00  0.88000000000E+00 0. -1.
        -11    1    3    3    0    0 -0.71588767304E-01 -0.88612883196E-01 -0.15722564276E-02  0.11392948601E+00  0.51100000000E-03 0. -1.
         11    1    3    3    0    0 -0.63317110008E-02  0.35663555626E-02 -0.26030153687E-01  0.27030343656E-01  0.51100000000E-03 0.  1.
</event>
<event>
 8    1  0.2001339E+004  0.1043930E+01  0.7957747E-01            NaN
         13   -1    0    0    0    0  0.00000000000E+00  0.00000000000E+00  0.74505805969E-08  0.10566000000E+00  0.10566000000E+00 0.  1.
     999900   -1    0    0    0    0 -0.00000000000E+00 -0.00000000000E+00 -0.74505805969E-08  0.93827000000E+00  0.93827000000E+00 0. -1.
     999902    2    1    2    0    0  0.82301950974E-02  0.14633670180E-01 -0.27005103096E-02  0.10269249075E+01  0.10267841022E+01 0.  0.
     999903    2    3    3    0    0 -0.11893584960E+00 -0.44818699740E-01 -0.17998925729E-01  0.13566746507E+00  0.43900428056E-01 0.  0.
         14    1    1    2    0    0 -0.82301950974E-02 -0.14633670180E-01  0.27005103096E-02  0.17005092479E-01  0.00000000000E+00 0.  1.
     999901    1    3    3    0    0  0.12716604470E+00  0.59452369920E-01  0.15298415419E-01  0.89125744245E+00  0.88000000000E+00 0. -1.
        -11    1    4    4    0    0 -0.72144219347E-01 -0.39944010747E-02 -0.69155429079E-02  0.72586703189E-01  0.51100000000E-03 0.  1.
         11    1    4    4    0    0 -0.46791630256E-01 -0.40824298665E-01 -0.11083382821E-01  0.63080761879E-01  0.51100000000E-03 0. -1.
</event>
<event>
 8    1  0.2001339E+004  0.1043930E+01  0.7957747E-01            NaN
         13   -1    0    0    0    0  0.00000000000E+00  0.00000000000E+00  0.74505805969E-08  0.10566000000E+00  0.10566000000E+00 0.  1.
     999900   -1    0    0    0    0 -0.00000000000E+00 -0.00000000000E+00 -0.74505805969E-08  0.93827000000E+00  0.93827000000E+00 0. -1.
     999902    2    1    2    0    0 -0.45483292609E-02  0.10161850279E-01  0.78859225663E-02  0.10302867498E+01  0.10301964126E+01 0.  0.
     999903    2    3    3    0    0 -0.58744769775E-01  0.44873328255E-01 -0.11073764165E+00  0.13999820625E+00  0.43267873874E-01 0.  0.
         14    1    1    2    0    0  0.45483292609E-02 -0.10161850279E-01 -0.78859225663E-02  0.13643250158E-01  0.00000000000E+00 0. -1.
     999901    1    3    3    0    0  0.54196440514E-01 -0.34711477976E-01  0.11862356422E+00  0.89028854359E+00  0.88000000000E+00 0.  1.
        -11    1    4    4    0    0 -0.97522725749E-02  0.18067693046E-01 -0.63866321826E-01  0.67087379864E-01  0.51100000000E-03 0. -1.
         11    1    4    4    0    0 -0.48992497201E-01  0.26805635209E-01 -0.46871319824E-01  0.72910826383E-01  0.51100000000E-03 0.  1.
</event>
<event>
 8    1  0.2001339E+004  0.1043930E+01  0.7957747E-01            NaN
         13   -1    0    0    0    0  0.00000000000E+00  0.00000000000E+00  0.74505805969E-08  0.10566000000E+00  0.10566000000E+00 0. -1.
     999900   -1    0    0    0    0 -0.00000000000E+00 -0.00000000000E+00 -0.74505805969E-08  0.93827000000E+00  0.93827000000E+00 0.  1.
     999902    2    1    2    0    0  0.56668850064E-03  0.12139584573E-01 -0.94564120426E-02  0.10285314813E+01  0.10284162064E+01 0.  0.
     999903    2    3    3    0    0 -0.97168519565E-01  0.11721297439E-01  0.86028764252E-01  0.13798683629E+00  0.45390623513E-01 0.  0.
         14    1    1    2    0    0 -0.56668850064E-03 -0.12139584573E-01  0.94564120426E-02  0.15398518701E-01  0.00000000000E+00 0. -1.
     999901    1    3    3    0    0  0.97735208065E-01  0.41828713458E-03 -0.95485176295E-01  0.89054464501E+00  0.88000000000E+00 0. -1.
        -11    1    4    4    0    0 -0.46840426185E-01  0.11557039039E-01  0.70283834591E-01  0.85250625818E-01  0.51100000000E-03 0. -1.
         11    1    4    4    0    0 -0.50328093379E-01  0.16425840000E-03  0.15744929661E-01  0.52736210473E-01  0.51100000000E-03 0.  1.
</event>
<event>
 8    1  0.2001339E+004  0.1043930E+01  0.7957747E-01            NaN
         13   -1    0    0    0    0  0.00000000000E+00  0.00000000000E+00  0.74505805969E-08  0.10566000000E+00  0.10566000000E+00 0.  1.
     999900   -1    0    0    0    0 -0.00000000000E+00 -0.00000000000E+00 -0.74505805969E-08  0.93827000000E+00  0.93827000000E+00 0.  1.
     999902    2    1    2    0    0  0.11846231640E-01  0.56787595935E-02 -0.29899301706E-02  0.10304570197E+01  0.10303689380E+01 0.  0.
     999903    2    3    3    0    0  0.94094893779E-01  0.12505548385E-01 -0.95338546908E-01  0.14178401212E+00  0.44755220812E-01 0.  0.
         14    1    1    2    0    0 -0.11846231640E-01 -0.56787595935E-02  0.29899301706E-02  0.13472980257E-01  0.00000000000E+00 0.  1.
     999901    1    3    3    0    0 -0.82248662139E-01 -0.68267887911E-02  0.92348616737E-01  0.88867300763E+00  0.88000000000E+00 0. -1.
        -11    1    4    4    0    0  0.11138376403E-01  0.61207626845E-03 -0.39576318013E-01  0.41121577484E-01  0.51100000000E-03 0. -1.
         11    1    4    4    0    0  0.82956517376E-01  0.11893472116E-01 -0.55762228894E-01  0.10066243463E+00  0.51100000000E-03 0.  1.
</event>
<event>
 8    1  0.2001339E+004  0.1043930E+01  0.7957747E-01            NaN
         13   -1    0    0    0    0  0.00000000000E+00  0.00000000000E+00  0.74505805969E-08  0.10566000000E+00  0.10566000000E+00 0.  1.
     999900   -1    0    0    0    0 -0.00000000000E+00 -0.00000000000E+00 -0.74505805969E-08  0.93827000000E+00  0.93827000000E+00 0.  1.
     999902    2    1    2    0    0  0.10422987012E-01  0.42584944379E-02 -0.76265960802E-02  0.10303307941E+01  0.10302410431E+01 0.  0.
     999903    2    3    3    0    0  0.32696623961E-01  0.14118378695E-01  0.12741669591E+00  0.13969617602E+00  0.44850968358E-01 0.  0.
         14    1    1    2    0    0 -0.10422987012E-01 -0.42584944379E-02  0.76265960802E-02  0.13599205893E-01  0.00000000000E+00 0. -1.
     999901    1    3    3    0    0 -0.22273636948E-01 -0.98598842573E-02 -0.13504329199E+00  0.89063461809E+00  0.88000000000E+00 0.  1.
        -11    1    4    4    0    0 -0.92859288264E-02  0.75227514509E-02  0.49682131856E-01  0.51101816116E-01  0.51100000000E-03 0. -1.
         11    1    4    4    0    0  0.41982552787E-01  0.65956272443E-02  0.77734564055E-01  0.88594359906E-01  0.51100000000E-03 0.  1.
</event>
<event>
 8    1  0.2001339E+004  0.1043930E+01  0.7957747E-01            NaN
         13   -1    0    0    0    0  0.00000000000E+00  0.00000000000E+00  0.74505805969E-08  0.10566000000E+00  0.10566000000E+00 0. -1.
     999900   -1    0    0    0    0 -0.00000000000E+00 -0.00000000000E+00 -0.74505805969E-08  0.93827000000E+00  0.93827000000E+00 0. -1.
     999902    2    1    2    0    0 -0.10875983489E-01  0.52657532596E-02  0.54140340833E-02  0.10306888921E+01  0.10306038353E+01 0.  0.
     999903    2    3    3    0    0  0.49218961642E-01 -0.12198867085E+00  0.12172390565E-01  0.13948141551E+00  0.44756632808E-01 0.  0.
         14    1    1    2    0    0  0.10875983489E-01 -0.52657532596E-02 -0.54140340833E-02  0.13241107933E-01  0.00000000000E+00 0.  1.
     999901    1    3    3    0    0 -0.60094945131E-01  0.12725442411E+00 -0.67583564822E-02  0.89120747656E+00  0.88000000000E+00 0. -1.
        -11    1    4    4    0    0  0.32559679580E-01 -0.11269633528E+00  0.19734733451E-01  0.11895510727E+00  0.51100000000E-03 0. -1.
         11    1    4    4    0    0  0.16659282062E-01 -0.92923355687E-02 -0.75623428854E-02  0.20526308242E-01  0.51100000000E-03 0.  1.
</event>
<event>
 8    1  0.2001339E+004  0.1043930E+01  0.7957747E-01            NaN
         13   -1    0    0    0    0  0.00000000000E+00  0.00000000000E+00  0.74505805969E-08  0.10566000000E+00  0.10566000000E+00 0. -1.
     999900   -1    0    0    0    0 -0.00000000000E+00 -0.00000000000E+00 -0.74505805969E-08  0.93827000000E+00  0.93827000000E+00 0.  1.
     999902    2    1    2    0    0 -0.13382783007E-01 -0.40578406406E-03 -0.29809930580E-02  0.10302132270E+01  0.10301219070E+01 0.  0.
     999903    2    3    3    0    0 -0.61636714250E-01  0.18332704390E-01 -0.11748184072E+00  0.14128689882E+00  0.44998136451E-01 0.  0.
         14    1    1    2    0    0  0.13382783007E-01  0.40578406406E-03  0.29809930580E-02  0.13716772993E-01  0.00000000000E+00 0. -1.
     999901    1    3    3    0    0  0.48253931243E-01 -0.18738488454E-01  0.11450084767E+00  0.88892632819E+00  0.88000000000E+00 0. -1.
        -11    1    4    4    0    0 -0.57543877956E-02 -0.12505166207E-01 -0.13565302927E-01  0.19333150940E-01  0.51100000000E-03 0.  1.
         11    1    4    4    0    0 -0.55882326455E-01  0.30837870597E-01 -0.10391653780E+00  0.12195374788E+00  0.51100000000E-03 0. -1.
</event>
<event>
 8    1  0.2001339E+004  0.1043930E+01  0.7957747E-01            NaN
         13   -1    0    0    0    0  0.00000000000E+00  0.00000000000E+00  0.74505805969E-08  0.10566000000E+00  0.10566000000E+00 0. -1.
     999900   -1    0    0    0    0 -0.00000000000E+00 -0.00000000000E+00 -0.74505805969E-08  0.93827000000E+00  0.93827000000E+00 0.  1.
     999902    2    1    2    0    0 -0.86719840017E-02  0.14146930492E-03  0.10333091895E-01  0.10304394067E+01  0.10303510929E+01 0.  0.
     999903    2    3    3    0    0 -0.11056302857E+00  0.55119346038E-01 -0.50790180868E-01  0.14075384067E+00  0.44381027425E-01 0.  0.
         14    1    1    2    0    0  0.86719840017E-02 -0.14146930492E-03 -0.10333091895E-01  0.13490593323E-01  0.00000000000E+00 0.  1.
     999901    1    3    3    0    0  0.10189104457E+00 -0.54977876733E-01  0.61123272763E-01  0.88968556601E+00  0.88000000000E+00 0. -1.
        -11    1    4    4    0    0 -0.52130411100E-01  0.35604415220E-01 -0.37522494714E-02  0.63242348483E-01  0.51100000000E-03 0.  1.
         11    1    4    4    0    0 -0.58432617472E-01  0.19514930819E-01 -0.47037931397E-01  0.77511492184E-01  0.51100000000E-03 0. -1.
</event>
